/*--------------------------------*- C++ -*----------------------------------*\
| =========                 |                                                 |
| \\      /  F ield         | OpenFOAM: The Open Source CFD Toolbox           |
|  \\    /   O peration     | Version:  2206                                  |
|   \\  /    A nd           | Website:  www.openfoam.com                      |
|    \\/     M anipulation  |                                                 |
\*---------------------------------------------------------------------------*/
FoamFile
{
    version     2.0;
    format      ascii;
    arch        "LSB;label=32;scalar=64";
    class       volScalarField;
    location    "0.330000000000000071";
    object      rAU;
}
// * * * * * * * * * * * * * * * * * * * * * * * * * * * * * * * * * * * * * //

dimensions      [-1 3 1 0 0 0 0];

internalField   nonuniform List<scalar> 
7236
(
7.10330559903151902e-05
4.06889765599647169e-05
2.75674719120863725e-05
2.08573945155408857e-05
1.6877621673567962e-05
1.43898933722090945e-05
1.30169967397477439e-05
1.13654523238459291e-05
9.82911954122194814e-06
9.18044315482700132e-06
8.92490329846809136e-06
8.76625031756812651e-06
8.41493861654333267e-06
8.56352491797581151e-06
8.83400957090850745e-06
9.14276729981038439e-06
9.49078573410988894e-06
9.97418210766689417e-06
1.06650468532285286e-05
1.1335664688996793e-05
1.21805321933940752e-05
1.32050220072001713e-05
1.44851773960632145e-05
1.60524636134349329e-05
1.77186600517789352e-05
1.97229406148973846e-05
2.1992613703844571e-05
2.50206732293634493e-05
2.98369263634786496e-05
3.72943091702187358e-05
4.64430007640195128e-05
5.52058398584110859e-05
6.85625486845664215e-05
8.90208777122798619e-05
0.000122401739572334237
0.000126293458891811871
0.000153028952795958192
0.000243906132361871089
0.000205984337768028023
0.000118839708809110884
9.18850876371251013e-05
8.33763591280148114e-05
8.08159131074416321e-05
7.84279003641311919e-05
6.95005314976718242e-05
6.07832506634429481e-05
5.68098265228069604e-05
5.11099640306454539e-05
4.93256264127987272e-05
4.93732240151052495e-05
4.92155362386056662e-05
4.80127166394374224e-05
5.05083908178599044e-05
5.41950491502738018e-05
5.85277113892662649e-05
6.5836448887530077e-05
7.46555260445813174e-05
8.28592954529028258e-05
9.10335829938856101e-05
0.000102031441041066718
0.000118310006579509748
0.000136372427317428785
0.000156884196514696101
0.000184122991957903456
0.000220938327550124019
0.000265742302345753269
0.000307243065638865449
0.000356127821924481628
0.00041282370510922604
0.000466627696466849257
0.000517418231581725325
0.000554667070392548351
0.000586186966046417057
0.000506803245753644003
0.000287851980209585692
0.000205157252071129406
0.000612652468348317907
0.000292555181664838507
0.000270793220137016601
0.000293650453063544535
0.00028961933617922532
0.00026839482152277947
0.0002298400203331726
0.000202253978588629729
0.000193087398302896568
0.000193673813793205783
0.000199892971376491765
0.000211791020487276743
0.000231731265158502734
0.000262420846298512902
0.000308173048731014468
0.00036207734739885603
0.000420207862913461901
0.000485417323276780919
0.000553026957674633579
0.000621453558700922224
0.000695427383580991278
0.000786868260198653668
0.000901628767723024714
0.00104455877277142574
0.00121474244203888661
0.00140918814971312321
0.00163614385299944956
0.00191687168060117449
0.00224689342521858845
0.00261639376248051173
0.00306118520543137342
0.00352950185796447767
0.00400871148831510784
0.00444731852625555781
0.00491194089998206896
0.00279665223112708031
0.000657179784304399344
0.000240093803832377024
0.00109224172676278351
0.000916055411211863535
0.00185394337108517023
0.00274578057516450648
0.00145212193067018134
0.000885339272688624355
0.000697068268382134565
0.000688084497907528732
0.000770346817823967605
0.000898818888931344562
0.00104568536828914633
0.00122968307434004375
0.0014863524888048239
0.00172563297213733651
0.00186491671321195184
0.00186260048207516999
0.00179097581830284626
0.00176498921723954993
0.00182588913841135619
0.00196859038611196671
0.0021686681162961627
0.00243289922892562941
0.00276530305107487327
0.00315117539516605351
0.00361813568540300537
0.00416305945852664568
0.00472571766553466725
0.00537127698710037228
0.00613769420914273955
0.00697527477055293402
0.00801709407485886975
0.00913312843454764517
0.0102604799845723797
0.0114125587388796447
0.0122585179384689172
0.00779533198193987312
0.00124046481440888141
0.000283886321892249738
0.0127979871390675199
0.0125727882815901762
0.0123376014278718596
0.011903587568070367
0.00557548751401186829
0.00401299870754377817
0.00446003773860252899
0.00524057536747096504
0.00562925753901999133
0.00589402690029780952
0.00625522976639227794
0.00637733609414837307
0.00609077323152979518
0.00553712609516941821
0.00502626398212212885
0.00465975574670387475
0.00452319572770851219
0.00462965847300415238
0.00497882263999766157
0.00546821091233769437
0.00606196789894255465
0.00674571021192133923
0.00740840333240685728
0.00797758726033139312
0.0086404871935143162
0.00951026653747560208
0.0104009749083782584
0.011404802783967917
0.0124572258737011051
0.0135234313296932404
0.0146020764191043678
0.015676136720648489
0.0166440514635417848
0.0172070907162666965
0.0174425837945572509
0.0119824555738997762
0.00210598793688678053
0.000282862866046573421
0.015591699780258074
0.0141436772368220172
0.0130498186591275454
0.013051776526349923
0.0128455361194686323
0.012535742623562638
0.0142464276933107203
0.0145196489556056567
0.0139469380722352463
0.0132119723868530416
0.0131610392983096472
0.0135483390490173834
0.0141639725911810142
0.0137881573534189093
0.0129787859891835108
0.012507598020516807
0.0126274508056329008
0.0130189187329963086
0.0135088053615564536
0.0140282713892159287
0.014379949050165243
0.0147028131265653419
0.0150395162523261697
0.0154098323324866286
0.0160370967570519912
0.0167133577828138535
0.0175279591564282688
0.0183159751262250148
0.0190505015825222293
0.0199042090807704172
0.020387650762100723
0.0204709870923330574
0.0201356059684666445
0.0200212238424861411
0.0196330223698690555
0.0142981316394641608
0.00297285013541694889
0.000307650448658993716
0.0162527298999278584
0.0149807697830630238
0.0140305845175767701
0.014195697058506292
0.0149197558285692582
0.0162859797792521584
0.0179488973390745932
0.0186976194283625038
0.0186811532495674143
0.0185590287689960075
0.0182129596283431422
0.0180076233805809942
0.0183374650636272812
0.0185620856122936176
0.0187664061594440615
0.018933988554037301
0.0190341425408620118
0.0191451219188466422
0.0192883717642548316
0.019505245834380916
0.0197154787025807
0.0199773394023884075
0.0203337546720533738
0.0206214252969016132
0.0207105978818717881
0.020803916232997325
0.0209902778407852
0.0209420264366789836
0.0208962409862828297
0.0206693350685750836
0.0206404728752387842
0.0207032721447044099
0.0209385189395508986
0.0211218453800158246
0.0203088330834034839
0.0149168444724222336
0.00330937560951232801
0.000359982949686262366
0.0152175380249859864
0.0154805234057997562
0.0146756964323166636
0.0148432228894959176
0.0157092904237459141
0.0168369735961966874
0.0182321748079161197
0.0184102065071745438
0.0186982764740331424
0.0186421570932991595
0.018549640437996999
0.0184243309335345995
0.0185301714622086618
0.0186352764392866237
0.0186148202451400166
0.0185266496729770032
0.0184523895704851205
0.0184323596137852992
0.0184969678465810583
0.0186270583196395528
0.0187910236968720154
0.0189420177393247874
0.0191202840154537958
0.0193059341767205274
0.0192826165059412566
0.0192978122185757626
0.0191440560730143199
0.0189627265456660775
0.0188680197010219625
0.0189664091540598066
0.0191812925862923575
0.0194570436038610378
0.0198875817765571498
0.0205185561537149647
0.0202197457645229076
0.0146975892756080542
0.00354612236579069946
0.000437058485865018562
0.0150920134657910876
0.0158657523812158752
0.0153489443241716459
0.0155614030753590364
0.0163415828442702166
0.0173290674845427879
0.0185096745355718441
0.0184701136801145999
0.0184056122661598529
0.0184299704665444354
0.0184206327946461156
0.0184191158928771262
0.0185334305640172427
0.0186520489025833597
0.0186257194328693712
0.0185611926067996494
0.0184287916438936085
0.0183426162910595367
0.0183283819622679922
0.0183819826428444563
0.0184742621199676244
0.0185688306198668988
0.0185974218545308968
0.0185453849006011855
0.0184445364541700081
0.0183832539972606512
0.0183218439903927478
0.0182620518811834644
0.0183020167947881979
0.0184899629016753372
0.0187579861842361931
0.0190995009793030399
0.0196258496717428496
0.0203592877783591586
0.0204200568093165329
0.0146154441944446288
0.00368962398380820933
0.000516575548895439104
0.0147256149756882261
0.0162606896251323747
0.0159357286630425025
0.0162414332815647849
0.0168999418897135406
0.0177608561370189121
0.01877012194976721
0.0187325168135870392
0.018602700460854351
0.0185460966776448445
0.0185570513503295134
0.018572529579434751
0.018635014806026938
0.0187073803339723489
0.0187221044593350698
0.018625417391432475
0.0184903163234652612
0.0184037689168714234
0.018384552480130989
0.0184180812079820441
0.0184425495616522446
0.0184287383502919448
0.0147536226710768305
0.016649565213176485
0.0164730184896259117
0.016831447913438588
0.0173856605215944905
0.0181456835222228406
0.0190146260910627231
0.0190520768107286693
0.0189367278289596756
0.0188708848040677231
0.0188606060897898616
0.0188636614629778786
0.0188855451568249524
0.0189090316370882916
0.0188918365255184018
0.0187693546105432534
0.018629452572684866
0.0185481386838593151
0.0185257912881330762
0.0185356246092185095
0.018505848711560715
0.0183948498343297247
0.0149333416258844043
0.0168488920457518544
0.0169514319964434862
0.017281903866489777
0.0177724494569602466
0.0184484690621589988
0.0192300846170177786
0.0193616989183300892
0.0192751098430042345
0.0192121103827020481
0.0191851016983107386
0.0191709598180246285
0.0191667095777057969
0.0191603242650110785
0.0190922325678837199
0.0189350879935811373
0.0187974200098108002
0.0187166417282258468
0.0186881070757786635
0.0186756008034984142
0.0185940414464406539
0.0184844677557543004
0.0147343454439489725
0.0167544206347199284
0.0173291391373266816
0.0176129188228691148
0.01807011843965756
0.0186823198988284971
0.0193981844838191399
0.019653471874110779
0.0195952720897919208
0.0195439534691421099
0.0195064749748069567
0.0194819462032274626
0.0194604608806858356
0.0194323992522060646
0.0192995204019311729
0.0191095487274983017
0.0189704568468705842
0.0188850225416712265
0.0188465729024473588
0.0188209778618756395
0.0187204532463024383
0.0186031669643424366
0.0198688276750260545
0.0198295896015079146
0.0197977909348710686
0.0197615263027507183
0.0196794418016566983
0.0194768134495932124
0.0192818644961233465
0.0191380477459655793
0.0190446318279169323
0.0189934082182544248
0.020117908203145924
0.0200660064643913907
0.019893119371657119
0.0196483141386488425
0.0194467980363376251
0.0192957560354587269
0.0191923023617310354
0.0191268436901689542
0.0200908318928063982
0.0198331443843691307
0.0196226061056184765
0.0194621543035118257
0.0017076629042921353
0.000483378595717279291
0.000230930121484388101
0.000141130687396092005
9.75780106297249715e-05
7.38366915639289959e-05
5.74597692788519776e-05
3.81659300402605419e-05
2.53294824454310992e-05
2.03237769291138122e-05
1.91258654595976379e-05
1.69810425442706938e-05
1.4563487104535973e-05
1.19907850023000462e-05
1.11543630386468759e-05
1.14434608390695335e-05
1.1978837893348325e-05
1.24284905810852125e-05
1.31436073542325292e-05
1.41831027379780044e-05
1.52219944790203856e-05
1.63245129804436812e-05
1.75115185316153495e-05
1.92288222898054905e-05
2.11602163459764297e-05
2.33826996557932191e-05
2.6066690326466625e-05
2.93971445349283609e-05
3.42120412887770615e-05
3.97382861284781272e-05
4.67509910606499804e-05
5.52995776827939079e-05
6.93995849886972171e-05
8.9533575469239818e-05
0.000120487905383228892
0.00012879204642738087
0.000153090713138809981
0.000237413006925468322
0.00349435276892472169
0.00113186696858571189
0.000530978812394807659
0.000378190788664062316
0.000311478500030677415
0.000265061968969259459
0.000222503386617585203
0.000181447757030476771
0.00015187622577581629
0.0001377000388070924
0.000130913063355890248
0.000125962625559025937
0.000123596003006205162
0.000120394383906795581
0.000121601526497688156
0.00012725746799452576
0.000136334910903863866
0.000147813356032517029
0.00016217293488680914
0.000179270113802063974
0.000197451934166081205
0.000218540242378651714
0.000241925525450369669
0.000270011573894693283
0.000303571948380838147
0.000342155008189849264
0.000390177530450188347
0.000447643128496274503
0.00052068379390545936
0.000609575600723022762
0.000713020377376048895
0.000844921210510013172
0.00102534342859320776
0.00116595063749195399
0.00117238128181024561
0.000829116489955588221
0.000353227382929052411
0.000203834380152745478
0.0178708263927142876
0.00453316905732333107
0.00282722532001263797
0.00265422732500497551
0.00230563771994688914
0.0016151483046198858
0.00110719957818124584
0.000826456487405693215
0.000696960786733136586
0.000643859911528533524
0.000631337571069687242
0.000637372378853538475
0.000662929396941864938
0.00070452663035587657
0.000784641057999429787
0.000898066478463085331
0.00103321719648089678
0.0011673915314275563
0.00129061176212469722
0.00140243102165142457
0.00151407253281341382
0.00164633509787862173
0.0018051795358124843
0.00200070640698258619
0.0022480072135206107
0.0025533219097743612
0.00288352558128943896
0.00328126077316537052
0.00379193030393320391
0.00440652210976110077
0.0051873196002715765
0.00608260141647794152
0.00702843070017721266
0.00773524295241138568
0.00831891099779497392
0.00654260718643320024
0.000957900424478191339
0.00024879552112710236
0.0178287712124748747
0.0153181507448983747
0.0152643289207216228
0.0153032784065612222
0.0154315870815720183
0.00771354217422599332
0.00482232070054778531
0.00396159349536487522
0.00384536289741980834
0.00400659724617088639
0.00423672423684729859
0.00434930002005057877
0.00462082780213603564
0.00490418171588092536
0.00503120111600775105
0.00488256619273209035
0.00459678687392383722
0.00438922169733747206
0.004361808503740113
0.00446854959108514832
0.00468942528060256689
0.0050023111155475062
0.00536011739814874939
0.00565718203273013909
0.00595376859785848138
0.00645122923014677246
0.00710858075513699957
0.00792242858585888617
0.00886698212602463412
0.00995576396894534005
0.0111564453638065934
0.0124132916740500119
0.0135416773152362297
0.0146862959378275502
0.0161728112433824137
0.0125220443228012384
0.00184672440546723997
0.000294616812274739264
0.0169333205235360253
0.0162122014219830378
0.0156017930955743914
0.0153291506837442398
0.0159453102683625725
0.0145318642526680673
0.013567347975357762
0.0135708823410336729
0.0134786510783568275
0.0130195372507110035
0.0126690299756700413
0.0125738357182661534
0.0131933868607891653
0.0136584019103430879
0.0133757506589852783
0.0124617343428712266
0.0118354942649785411
0.0115722317685004912
0.0117135926561007329
0.0118436045878354303
0.0119315282495036038
0.0121088781815725435
0.0124643966355933548
0.012898897134911198
0.0133695372912271127
0.0141015483728832904
0.0149244932438867012
0.015796824143714118
0.0166727812599749767
0.0175796650578648461
0.018404878714788981
0.0189347422988932167
0.0192383360366743875
0.0193900529735218131
0.0196477313898246637
0.0161038891964834958
0.0031660846100956385
0.000299533565114385673
0.0181551516709778198
0.0167555005836319063
0.015871839631959643
0.015879792259643432
0.0165130114017493224
0.0172950536310319397
0.0180626718143276077
0.0183240798702820756
0.0179633261476057522
0.017752971416311266
0.0174921836425677851
0.0172382317307971794
0.0171190762336860224
0.0172464729210742053
0.0174819465011145196
0.0177437220763687238
0.0180371451343840708
0.0183816573760610391
0.0186904350544567117
0.0190451306382231657
0.0193072908696997614
0.0195439379981739679
0.0198507175648719447
0.0201537242345576385
0.0204875018465182149
0.0207593827230995211
0.0210232058727630004
0.0212210793596803796
0.0214072569842750499
0.0215390480546177182
0.0213445640484695998
0.0210894380582274145
0.0209771140196353609
0.0208926132190744122
0.0203302266072713199
0.0168172381902252366
0.00406069925786445816
0.000341819898064428421
0.0182831012225617359
0.0171888456688464274
0.0163191704977423413
0.0163311681534042651
0.0169407683213098903
0.0178009340890297116
0.0179568219749120413
0.0178583039507952471
0.0179440926412845654
0.0181811801590859232
0.018112911713991868
0.0180079442267029911
0.0179671547580438039
0.017882957438787199
0.0178486255879367513
0.0178639341646042449
0.0179095781650308213
0.0180264972338545874
0.018175861087208027
0.0183658094988096085
0.0185528941254679489
0.0186896001145280821
0.0187960367798780774
0.0189842645696909201
0.0192036333972725112
0.0192329337481422988
0.0192357288899727939
0.0190744439159824843
0.0189899469823726109
0.0190183792201753382
0.0190654299302981285
0.0191948885277371424
0.0196993260830713376
0.0206297820926860144
0.0204496940278026708
0.0163461267959385641
0.00427800063561641509
0.000422292826900568148
0.0179575241210203976
0.0175944959341746074
0.0168423290834885352
0.0168158526427542761
0.0173479101184864926
0.0181690607429631883
0.0182044848699718341
0.0180444728193250407
0.0179836991215668283
0.0180130402942837893
0.0180561566764474817
0.0180729798515061393
0.0180990952886801865
0.0181680760734568188
0.0181776312788748395
0.0181599379190929833
0.0181179802407892832
0.0181120843406946848
0.018141773101869426
0.0182072130474365511
0.0182865616853126293
0.0183267465050822691
0.0183387188225003737
0.0184031334644184884
0.0183484232312690829
0.0182738065734721865
0.0181692096520447155
0.0180993661492546143
0.0181506948873931991
0.0182800961907652187
0.0184243159251196269
0.0186822676140108654
0.0192780397415955387
0.0202442653146111887
0.0204161341718347919
0.0159874528646399665
0.00439911949330552138
0.000516957050415472541
0.0176055514189832688
0.0179860709929233545
0.0173764259262947224
0.0173230047511463182
0.017766822688753077
0.0184957626256468666
0.018515395072115446
0.0183746271230371128
0.0182908224488118679
0.0182696916180663527
0.0182578966009105878
0.018245705506034611
0.0182654119055052112
0.0182990634594174216
0.0183337903262859488
0.0183471434050099629
0.018295494602711293
0.0182610969824591012
0.0182464047011167904
0.0182436774932925698
0.018235938176074707
0.018211133844327286
0.0181112060674636505
0.01805890320365049
0.0180267634758584303
0.0179741281683663545
0.0179084324174558149
0.0178814777141437682
0.0179539005562731578
0.0180883030385240035
0.0182553115633583667
0.0185563752854011853
0.0191728612459673708
0.0201390326687192964
0.020543095729805904
0.0159303211751452081
0.004238225994457623
0.000526525032066806368
0.0172659509904255666
0.0180203544864471141
0.0178918842067785702
0.0178126651997924969
0.0181675079050526225
0.0187945035145768054
0.0188064715557982459
0.0187043316246193018
0.018626096036395156
0.0185856584897368879
0.0185614733216385303
0.0185429601968571944
0.0185443456579698143
0.0185505057851849571
0.0185538669432872665
0.018546758919822659
0.0184793837154186673
0.0184212734498067354
0.0183804677112479921
0.0183495415961792072
0.0182831080718941844
0.0181815699704182959
0.0180968428408086329
0.0169414977377268829
0.017719046043526334
0.0181673511220843478
0.0182557255303266996
0.0185239390763958164
0.0190573166869772055
0.0190705392221107127
0.0190129956135590174
0.0189517169296019757
0.0189083162328685835
0.0188776034287179983
0.0188512898448814775
0.0188340690176552125
0.0188179487196333747
0.0187954902122336523
0.0187526185415245947
0.0186620737639976025
0.0185871596861639267
0.0185286350173547512
0.0184694426737392371
0.0183659461446279357
0.0182622543828278826
0.0166113907090946339
0.0174155650527210958
0.0180701210631468157
0.0185625729590837805
0.0188123872721669763
0.0192619979385749603
0.0193187192386778811
0.0193042091354912806
0.0192659376731958917
0.0192243646860434901
0.0191867413379622972
0.0191508807087608576
0.0191171867844211196
0.0190806629088328891
0.0190341718677929476
0.0189434212896210478
0.0188370812924316469
0.0187470953188752856
0.0186737789168810245
0.018590510878389168
0.018476100294832834
0.018365751916138609
0.0161294944196633885
0.0170838890482472791
0.0178467446131676671
0.0186357338430716973
0.0190228055591670393
0.0194161561107399731
0.0195629591491251927
0.0195930883196590612
0.0195742659003857698
0.0195362880724791743
0.0194926530477387491
0.0194466246724409805
0.0193964083329328518
0.0193393776359937451
0.0192651399277947166
0.0191286215033020963
0.0190047940185094008
0.0189024489974831643
0.0188145973576937901
0.0187182758375811255
0.0185920079779479663
0.0184711728169585226
0.0198485988044972243
0.0197993427625476059
0.0197420482015236015
0.019674685327828581
0.0195963531479708859
0.0194637218087564678
0.0193025953888604981
0.0191561327390960684
0.0190479921998192511
0.0189516601851942683
0.0200387210903983648
0.0199536740146285529
0.0198415141148929434
0.0196560835997163542
0.0194592684998196458
0.0193016895537507054
0.0191820839224243443
0.0190848914988887459
0.0200735893190946771
0.0198398968971592489
0.0196307322954863694
0.0194611670823911023
0.0101421689629015259
0.00191028754369564784
0.000809710410102989055
0.000493832007054958544
0.000346950264509595708
0.000266354016302686419
0.000215557126001615835
0.00018135238722865365
0.000151032235467860461
0.000119864177928768862
0.000106019613110738844
8.80073804218475331e-05
6.14575539566346643e-05
3.92675049281988569e-05
2.87470341409141738e-05
2.24893914531907116e-05
2.10875893790174667e-05
2.1411387083598934e-05
2.22824848799246546e-05
2.34722592101955661e-05
2.52890847609375143e-05
2.5921098708663579e-05
2.68167728753843874e-05
2.84160626391625137e-05
3.06122980140047406e-05
3.30437841649760039e-05
3.58821931649879245e-05
3.85375998922844889e-05
4.31930611960296395e-05
5.06130735883736672e-05
5.83331810473891222e-05
6.75078241807066629e-05
8.04827017876866312e-05
9.96589577549116749e-05
0.000129140275581004252
0.000142947986960581443
0.000168205826490784143
0.000254861116921209258
0.0125796025330638418
0.0140940264722025071
0.00351034942414657969
0.00186466454936870356
0.00127913730751652447
0.000993040744015599502
0.000819982604783690817
0.000694719361210843571
0.000604069666464031687
0.00052892256966418391
0.000482057832197354305
0.000439832172790451353
0.000385488466454140578
0.00033865560649979276
0.000307468710284305579
0.000291930803045081907
0.000294395689723388079
0.000305988010104124119
0.000323547823312054692
0.00034280324779987966
0.000370476748363079956
0.000398562593199344988
0.000432657768717658675
0.000473980392687180447
0.00052574222746651746
0.000586357615622702037
0.000658703968450093948
0.000743782238762378807
0.000845529354692783853
0.000974830926936582384
0.00112514577285540937
0.00132102074845886607
0.00158555139332870179
0.00190218966656795002
0.00218987175555220275
0.00146788097622801506
0.000477640386869497796
0.000228351788727247965
0.0186250194522166249
0.0186465638203227001
0.0172367049698571272
0.0180173555741524119
0.015287652420373497
0.0133185493667172233
0.00896761253093262406
0.00576005726289743718
0.00418982080734387266
0.00342606318016086108
0.00306618772030997936
0.00281298357993725904
0.00253850403124504607
0.00237664504677012481
0.00236275740896828247
0.00239968744930339891
0.00250526785824739008
0.00266844035512790994
0.00284179413430428723
0.00292667459377289087
0.00303671565470860997
0.00316550851844138968
0.00337342844096480713
0.00365713830034648454
0.00405371739600015116
0.00452793186015845294
0.0050788415200898546
0.00569730983987390242
0.00639852202774112734
0.00707207707510176722
0.00781090466935831403
0.00890123430371024538
0.010049259823834894
0.0112526236634297155
0.0120190243701990343
0.0113294512208445639
0.00143806098280634424
0.000279728540509291651
0.0195254029306355624
0.0184785914005476497
0.017051962787707424
0.0171833444097261347
0.0175182239474854853
0.0178533523762883645
0.0162743544348437144
0.0144147409258358911
0.0127263144725113884
0.0119079344629522861
0.0115656889763429121
0.0112409006452070751
0.0111751661009196167
0.0114947666040097971
0.0112978608537197094
0.0106660304558463103
0.0100182203272968628
0.00972229713697419194
0.0095694145726024811
0.00942341151241746396
0.00936926202566867872
0.00932027490350390182
0.00950143419684559842
0.00983608953160782645
0.0102427428476375409
0.01093821278006573
0.011799255473087562
0.0127421763488919614
0.0138553916807665038
0.014972842886121069
0.0161310754141861315
0.0172931120807832753
0.0184380458381518814
0.0188238099106269388
0.0194891412253722744
0.0187494076335312648
0.00294573990993702781
0.000323732559033207228
0.0195483631374119733
0.0187183865259517995
0.0176314961804723072
0.017479494737793623
0.0178994134398652513
0.0175766576576683702
0.0177152209443473853
0.018027754783694859
0.0177431528862797595
0.0172632107578450586
0.0168172741248359126
0.0164816519897530642
0.0163271440514214661
0.0165022021787671926
0.0167797709876329887
0.0170024052968853721
0.0173655807123596941
0.0177894819270230445
0.0182212131386957042
0.0186184164754386317
0.0185252039846988993
0.0180912779686383217
0.018340912926558043
0.0187249043729591294
0.0190908496890522666
0.0193368739038176328
0.0196706173302535897
0.0201009739874522184
0.020676095141084018
0.0214516612673938227
0.0218966997227681703
0.0221229409336547618
0.0219483404092469352
0.0213769286197444015
0.0208029851173535951
0.0197780460548265501
0.00486170486475765665
0.00033471089920626072
0.0195167219556943959
0.019105968301092735
0.0180746566511943985
0.0178411014737435668
0.0182408458235361372
0.0179375972385276868
0.0178498226139372704
0.0178240500189153946
0.0178782948256854743
0.0179924910498897583
0.0178435103968420106
0.0177303572680241432
0.0175584430222773466
0.0175289156869936832
0.0175560344095918308
0.0175570835387037529
0.0176117639436036873
0.0177386598584707879
0.0179285493629265727
0.0181723906951772388
0.0184027727281997656
0.0186087028672871288
0.0187879582167608632
0.0190643997801348483
0.0193418700294809461
0.019483314437625663
0.0194484516144210508
0.0195223807319205613
0.0196148725076462777
0.0195206349041940862
0.0194063773526434308
0.0195155689941047435
0.0200731129625836939
0.0209896816400140795
0.0207755455250455898
0.0184974602630620759
0.00540490908332611798
0.000392315967516385707
0.0194771219241779772
0.0193098982442828533
0.0185390266336326048
0.0182509644309169043
0.0185271289364614573
0.0183042781231073093
0.0181376362964649797
0.0180124161105027249
0.0179301375925233764
0.0179116687180037142
0.0179225014359920901
0.0179588873252076418
0.0180199400198400653
0.01801989906539192
0.0180262608108481617
0.0179870871861007829
0.0179502418538002653
0.0179665394989349803
0.0180255212717078915
0.0181127668804715418
0.01819402680219721
0.0182391630853710497
0.0182932065286043367
0.0184014378451203588
0.0184871774714012761
0.0183603706818108621
0.0182472762954890809
0.0182224594253535613
0.0182448702393897648
0.0182635617649380619
0.0183156024173232596
0.0185949456341578216
0.0192471482733519439
0.0202641144542147524
0.0204536001335095287
0.01759890746697498
0.00529965308724354364
0.000495503364447899596
0.0192655374766248291
0.0191680993557715833
0.0188719086721036711
0.0186734339649503173
0.018736779975589906
0.0185694129542344558
0.0184251861322855155
0.0182988430770317269
0.0182034750975107462
0.0181476699216216071
0.0181218178978180336
0.0181125146858674632
0.0181310626184024958
0.0181649556652497511
0.0181919760595028596
0.0181939266848843012
0.0181520664766696115
0.0181244050488793065
0.0181190148437945994
0.0181285632667613911
0.0181318477378106871
0.0181064552285523511
0.0180590673240595793
0.0180302869188073839
0.01798876551541451
0.0179108579062460908
0.0178496211569169755
0.0178461793479921041
0.0178761878918195921
0.0179163242618375768
0.0180144897442888682
0.0183097836765037901
0.0189160256287552626
0.0198573285485231579
0.0202584050082554694
0.0171486468086926441
0.00488573011185602923
0.000557547364254311426
0.0189983005595278573
0.0189266211111184524
0.0188902145543788751
0.0188939346198224063
0.018858119382686462
0.0187735265012686538
0.0186736375767972071
0.0185754805013588695
0.0184956030640728575
0.0184405076104228322
0.0184001737101066216
0.0183770073739357997
0.0183719063965354958
0.0183747774167665225
0.0183708246179576894
0.018355309520538661
0.0183261872783076797
0.0182863499112737339
0.0182442421671017881
0.018195585032113229
0.0181310962276693445
0.0180595944750263915
0.0179997689020013688
0.0179571629501538606
0.0179034360218253107
0.0178294915451719486
0.0177714855474291993
0.017754471107787214
0.0177679949438513708
0.0178011054808788205
0.0178940642501672943
0.018155279938728959
0.0186988166190999762
0.0195733909134709963
0.0202821047239149406
0.0170816456472862276
0.00438210607980226829
0.000571947244552239195
0.0186950004162899502
0.0186460588023755966
0.0187220835970365283
0.0188737084080742822
0.0189417102856101124
0.0189446501670150966
0.0188994860574382244
0.0188349213283195253
0.0187712955356005053
0.0187194867963144003
0.0186758323292991156
0.0186419886579056206
0.0186193092346012071
0.0186001399493039565
0.0185743972332287899
0.0185380555183955603
0.0184882863521336933
0.0184274359660722351
0.0183596502249133847
0.0182845121476858073
0.0181999281247989843
0.0181145805045651656
0.0180405294205084436
0.0182986132927876466
0.0183216490618821198
0.0185191164332545073
0.0188121989469037104
0.0190013293500988362
0.019097944923951362
0.0191144138146488833
0.0190868370574295149
0.0190407590461040728
0.018992125824638318
0.018944678199704499
0.0189005861819210759
0.0188614534694787374
0.0188221254803766884
0.0187756298196630547
0.0187183018696892751
0.0186485882426627066
0.0185677281467483447
0.0184795565312895205
0.0183850780822528946
0.0182856649689620912
0.0181876922238507176
0.0177659169323541935
0.0179459011301504462
0.0182859574765326348