/*--------------------------------*- C++ -*----------------------------------*\
| =========                 |                                                 |
| \\      /  F ield         | OpenFOAM: The Open Source CFD Toolbox           |
|  \\    /   O peration     | Version:  2206                                  |
|   \\  /    A nd           | Website:  www.openfoam.com                      |
|    \\/     M anipulation  |                                                 |
\*---------------------------------------------------------------------------*/
FoamFile
{
    version     2.0;
    format      ascii;
    arch        "LSB;label=32;scalar=64";
    class       surfaceVectorField;
    location    "0.330000000000000071";
    object      Uf;
}
// * * * * * * * * * * * * * * * * * * * * * * * * * * * * * * * * * * * * * //

dimensions      [0 1 -1 0 0 0 0];

internalField   nonuniform List<vector> 
20390
(
(0.519155731000638054 -0.182960098894379614 0.332404290488899745)
(0.415186783961050021 -0.360460989069510851 0.268023080282671744)
(0.200781900614788816 -0.142264586440500107 0.384196934938962231)
(0.732068337609186992 -0.107233959591178069 0.182430644783139528)
(0.851736698931049085 -0.202114400082788775 0.428524728705414859)
(0.872838594842503812 -0.371524885914896963 0.445696793078204534)
(0.521281980605941997 -0.199811120156417749 0.679489722660309825)
(0.978892044376553638 -0.139302589288648165 0.269020973788474949)
(1.13218089037504721 -0.185762171086018918 0.489105006655191576)
(1.18862099167864232 -0.330770348341362597 0.550621746153262759)
(0.816810930339909813 -0.202161412679478653 0.738374024542651775)
(1.22427010305156592 -0.13265009934582811 0.357277558256738015)
(1.39536831129406158 -0.161749325808791089 0.534980475716900661)
(1.43279313012666476 -0.288046493650534308 0.61474843248144706)
(1.11518294377712079 -0.190877772648180344 0.74796617412652)
(1.49144228567176573 -0.11649202117703579 0.435060601145864756)
(1.62012777368942995 -0.134679644186826791 0.573202940106678716)
(1.60996466735758936 -0.237838143497051985 0.645985979296241464)
(1.37326297962856358 -0.172589606491245773 0.746773204256910517)
(1.71563943168260558 -0.0956682822967162838 0.495856391506167504)
(1.79891125163983734 -0.108357573612465521 0.607802887382403623)
(1.74775917723251895 -0.190447112988603534 0.664941516110604258)
(1.58493459986796204 -0.14907692023867733 0.746746838982670691)
(1.88739926473340103 -0.0766663430724944667 0.544636096564493744)
(1.93933862029542192 -0.0859358056044250834 0.636606371655708769)
(1.87290786927894892 -0.154041906019125069 0.676254795272731246)
(1.75026068300036708 -0.124727425334883818 0.749520142722003735)
(2.0205283696243721 -0.0603407180107200791 0.58186370167515733)
(2.05457696241077192 -0.0685885592340398226 0.657780796459183303)
(1.98508440830603194 -0.1277021086987771 0.689623342318387733)
(1.88607987964695667 -0.105162715683199626 0.751460694506475013)
(2.12807312255380721 -0.0493244668158876742 0.611294811015400841)
(2.148994589177605 -0.055443092033406173 0.670798293845355276)
(2.07924914702041841 -0.10507165537619173 0.698703910838910369)
(1.99856447831849304 -0.090616152609734657 0.745470751902704287)
(2.21732142145183753 -0.040708641620672649 0.62974509518041577)
(2.22931280204844207 -0.0459166107514681204 0.679850920736587927)
(2.16220790839140253 -0.0890639508459252077 0.701035727305338696)
(2.09142559266227757 -0.0793013435983091486 0.740127683034010331)
(2.29216863292306483 -0.0345559911193700844 0.642317973338697334)
(2.29801928323023974 -0.0392827035701894117 0.687020498148847358)
(2.23238098910239779 -0.0777838504549316079 0.706522991449311188)
(2.17379392294934659 -0.0694460485744728684 0.739337544997867524)
(2.3569538853598142 -0.0309796182416784728 0.652476313751735426)
(2.35598055843247822 -0.0351830254652056723 0.690723498438314931)
(2.29053807618823546 -0.0684409299467814008 0.713892180577771929)
(2.24419941330784534 -0.0614636055189749647 0.738498087126146729)
(2.41391290427373839 -0.0290620634611047993 0.659577502745655297)
(2.40889195376293452 -0.0326033664457583278 0.689901930091648685)
(2.33699805506978375 -0.0640258398801331063 0.718143637906150434)
(2.30213293806737251 -0.0543991901410759149 0.736111732543440533)
(2.4651665712687123 -0.0284241035084091612 0.660971452806638937)
(2.45596804348479081 -0.0303594200892551291 0.686268711089510264)
(2.37339445428345908 -0.056830786245492787 0.716491393051506109)
(2.34907833656638232 -0.0490507557437316402 0.726478744448007308)
(2.51133014739602167 -0.027711157963246285 0.659893257385336662)
(2.49932798980016457 -0.0287300724577319901 0.681075978740361743)
(2.40089717257362611 -0.0513392938902975798 0.716706030181743503)
(2.39253257609472714 -0.0450793389689836468 0.717272149614137655)
(2.55427806126178458 -0.0281264301648988628 0.657953501446977285)
(2.53809728976448756 -0.0278761439125790079 0.673876131543597268)
(2.42316530729079549 -0.0491091989715382385 0.713863275480290715)
(2.43409244515966661 -0.0418766889582521742 0.710270301226453071)
(2.59419032049591491 -0.0281771926880690221 0.650821205926638835)
(2.57362965048239145 -0.0275968220173481299 0.665193204649539793)
(2.44007359060053375 -0.049036008571993403 0.705902432644067157)
(2.47246291490557457 -0.0392781623001008384 0.702767630966950496)
(2.62955106633534275 -0.0282548384851868326 0.64022797868985637)
(2.60689730549243315 -0.0275777134838425808 0.656193536390070165)
(2.4526162301879193 -0.0482442622237485019 0.697288430372478785)
(2.5071786913189551 -0.0374804355874963982 0.69329625668069339)
(2.66081548551747371 -0.0288881867316402516 0.630075385630203155)
(2.63587192685855021 -0.0278830836735465513 0.647141522119499157)
(2.46153084777128139 -0.045781236224397788 0.690402309443783446)
(2.53926589753450926 -0.0360944211962582057 0.683390947356629308)
(2.68940815883987172 -0.0298418048988465107 0.620803100411941977)
(2.66270371754110879 -0.0286162933514666727 0.637734915250269485)
(2.46447595458127999 -0.0456753648451921207 0.685081497666983008)
(2.56868776303877633 -0.0351200050923200363 0.674868086138233902)
(2.71573378201485749 -0.0309485800588382189 0.610349165877747346)
(2.68713186239809509 -0.0296105724462438838 0.628258078978604417)
(2.46299444437298387 -0.0450479869187107584 0.680613479115328435)
(2.59515921046026854 -0.0347355573768618059 0.665652461907810911)
(2.73992004609983075 -0.0321878508682106462 0.59998465499444753)
(2.71012060513926967 -0.0307022576991351284 0.618933529387130976)
(2.45855688757945279 -0.0453097010206624032 0.677514508100993784)
(2.61934523364781446 -0.034714071516973255 0.657246496374126021)
(2.76197330892139448 -0.0334602862142011001 0.589615843903311898)
(2.73175520959122142 -0.0316924894157546988 0.610043666502568027)
(2.45307320428704267 -0.0448796582494195573 0.676006703717558111)
(2.64176377544104524 -0.0349464820144997565 0.647989624094524097)
(2.78253513186164358 -0.0345424034734737456 0.57986489086508608)
(2.75123473989597356 -0.0326007900239596166 0.601565799785039435)
(2.44782764277044773 -0.043962977701338099 0.675354346224684376)
(2.66310453478921438 -0.0351841822893640133 0.639418455326752233)
(2.8020298768099714 -0.0353820852844184547 0.570971991740177098)
(2.76990072480104121 -0.033425659591885877 0.593175347368426364)
(2.4419288141676776 -0.0441818853143047738 0.674795643078083929)
(2.68290209094449894 -0.0355358524989849017 0.631434927148132985)
(2.82023524289142058 -0.0360516647204209909 0.561737112529999028)
(2.78667543955710428 -0.0341199389797333316 0.584856822443845847)
(2.43497968130851827 -0.0437736914055057783 0.673895619032963133)
(2.70137415497726829 -0.0359189858608256127 0.623334871185068251)
(2.83731022728334015 -0.0364627598905280514 0.552562195860887728)
(2.80336479473015876 -0.0346152336712319125 0.576729414004093055)
(2.4273736318849557 -0.0450378685243796387 0.67326782389067108)
(2.71904757494187788 -0.0363017346110088637 0.616073916533347643)
(2.85385462708698245 -0.0364881543194042618 0.542687539280934383)
(2.81961568954316455 -0.0348835623328803274 0.56906377774851491)
(2.4209148120819286 -0.0453858998770934746 0.673265268953900042)
(2.73708590816025188 -0.0364937319993696371 0.608608537880305556)
(2.87038295741195482 -0.0362954783370986744 0.534087640000729724)
(2.83545962578111599 -0.0351567901244549258 0.560985971516727133)
(2.41214003676987421 -0.045843643761473582 0.672896082837501797)
(2.75558497662559088 -0.0364102110741536047 0.601543056052436853)
(2.88776032793857462 -0.0362099068822387057 0.525699715225505737)
(2.85375366829615507 -0.0346781284597732775 0.550549431731716776)
(2.39987965556053018 -0.0497195787117312299 0.66938417613234158)
(2.77258140954937726 -0.0364371001528499966 0.593607472286892257)
(2.90700571379220918 -0.0353536157120645372 0.512462373358192336)
(2.86663320254833698 -0.0328502458794659863 0.539439828022515333)
(2.39319373891535347 -0.047815760263851044 0.659652987461067042)
(2.78793415233675335 -0.035561352505690591 0.581690295267356494)
(2.92527731928291024 -0.0315811984608327379 0.498938323599730893)
(2.88094384337504295 -0.0305141171575650759 0.530624928494826453)
(2.39397501785485556 -0.0457000452594129233 0.648804072621220751)
(2.8015145019909542 -0.0340938788765945897 0.570105207815482129)
(2.93933780856744464 -0.0283287282073045772 0.493015757266733023)
(2.89871278997061621 -0.0280586144987341815 0.523614452855779344)
(2.4007264308573113 -0.0475195856952344425 0.639062603536484142)
(2.81678015284353922 -0.0323170922741312441 0.5634231682697729)
(2.9567256058846243 -0.025325943888129171 0.486152920784195641)
(2.91994681248991927 -0.0229074771281106739 0.520079072323127889)
(2.41218296689940548 -0.0483980026278812703 0.629385523955269477)
(2.8344434514552912 -0.0304364568201143972 0.55636535944035459)
(2.97470647074987271 -0.0200310236315191653 0.480803346507575891)
(2.8765837951228157 -0.00201930966897065269 0.528331155085236759)
(2.44915202633533458 -0.00951629810876268231 0.623039496997956688)
(2.84423754928790062 -0.0248341544101655445 0.550894291907219502)
(2.96785405657579648 -0.00874696727018671981 0.488498667054986513)
(2.60925149205367157 0.087792724593778404 0.539771044654815846)
(2.43978631849912952 0.110815455671162202 0.64291379266911286)
(2.74858735088515305 0.00191445614573869339 0.561602523542252596)
(2.83576645693922247 0.0364112579055601571 0.515901148960290712)
(1.6594611638596648 0.281541225630485226 0.568620086468321073)
(2.25315265712204038 0.456208670009034312 0.688352194603442102)
(2.37594999094698967 0.132346032853036505 0.568925128488695586)
(2.39302872002129208 0.207254055493458766 0.53155218196292231)
(1.49859681567211611 0.838258750922101337 0.845021642724117283)
(1.35960261055505249 0.369735203388686651 0.604521866285313014)
(1.27098924285522896 0.435922586078288099 0.621578345718272085)
(0.720862576293497481 -0.493015610685512251 0.381315582871975978)
(0.572629745007934732 -0.577493428882362769 0.268245933433824357)
(0.189066745603357234 -0.238384499261169808 -0.0499946513310108032)
(0.715836931648272667 -0.331401215429721174 0.236803234066152613)
(1.21166164569578161 -0.509404145563592148 0.567793810526052267)
(1.07611255173335252 -0.585192759298511889 0.473923726239060261)
(0.786527417392830941 -0.430738056232948474 0.351950671790145386)
(1.21488345147425036 -0.416674513834248472 0.415414041870338091)
(1.49665780255780811 -0.44794256145022554 0.676265171979517965)
(1.2780953199394216 -0.494904363611099629 0.546402038701642612)
(1.1888827870781411 -0.435745649288785841 0.581413285195492069)
(1.5592657324554049 -0.39470410133390188 0.538141335995987569)
(1.64732508059149363 -0.375050668935326903 0.725753936060788085)
(1.35855408514306686 -0.39501100754770907 0.579241866502612668)
(1.40460862841500522 -0.378198845114633808 0.662665282971221514)
(1.76319579999006226 -0.341176562600598643 0.599403437927827243)
(1.73743135615229027 -0.304196785685767745 0.737724555300167228)
(1.4157118247186995 -0.321384007745876832 0.588236369531020875)
(1.50758367218555955 -0.315510346438609646 0.693082186884375728)
(1.87343081281048951 -0.277659422259486477 0.61609677093349613)
(1.82287602861001763 -0.246239628810171973 0.733393424000931993)
(1.50386707818500232 -0.270126808417127662 0.60461078513475508)
(1.57173478536342826 -0.259064532225150801 0.697587934454123815)
(1.95371666840327851 -0.225976719459230202 0.623673233172431618)
(1.91655301029073399 -0.205024702134401493 0.72927176593541021)
(1.62771692387868261 -0.240119817880921349 0.638485769664196567)
(1.64999134839592143 -0.216145397015192253 0.702156479098348218)
(2.03437047444771135 -0.187078696719115728 0.62367773569790097)
(2.0106539642850132 -0.173520792655182859 0.730546456698114688)
(1.73651548223857866 -0.214782776708489637 0.667878760829460849)
(1.73896402572853948 -0.188044090201640285 0.712699708673678156)
(2.11269620950583237 -0.163371809946838614 0.632639206102756257)
(2.09176268276308619 -0.148478990547755041 0.72894134429889379)
(1.81413584544570838 -0.186186599459706059 0.681709664021324158)
(1.81809522087915432 -0.170390437059958239 0.72072593850221589)
(2.18429675459668715 -0.141651833750969708 0.639604753211565957)
(2.16547304793289408 -0.130091248679724047 0.727707798018061958)
(1.86903638451096543 -0.167636177301320133 0.686672375218496223)
(1.89071819722503487 -0.161493311341169649 0.725651115277915149)
(2.25205753504384276 -0.125374415830299513 0.642217000544794914)
(2.22534415155196452 -0.115507081736136497 0.733394673878235648)
(1.90485977727477507 -0.147798405314880393 0.692734813747013844)
(1.95222437693414252 -0.15006534739751401 0.73204922457008359)
(2.30984679644228619 -0.113200285133429279 0.651891235532783386)
(2.27199520626600249 -0.104991312805445478 0.741312320045607542)
(1.9218482099831089 -0.131293222208852534 0.702541487613432047)
(2.00306299453233105 -0.13795632440572303 0.744961017434117245)
(2.35856450785771043 -0.104534810335669665 0.665907505580418002)
(2.30068332458277203 -0.0969617964014940215 0.744733100866007969)
(1.91459100649614666 -0.117734853461668884 0.710937682048080832)
(2.04791648488459455 -0.118431798698955884 0.755705461533023648)
(2.39556442761663746 -0.0995384301998075011 0.676975540173231582)
(2.31842711163396453 -0.0889802950843506801 0.746928712143739348)
(1.88310774867443609 -0.110791638405094151 0.713257089490662466)
(2.08735521586500639 -0.104545816870711614 0.767574028300893052)
(2.41986575724440645 -0.0940528457292444248 0.677396083299105722)
(2.32561333514216395 -0.0826135317257857271 0.749493326921672587)
(1.83438510722442416 -0.102181904330928497 0.716501893654163058)
(2.11309749546990799 -0.09439686327040199 0.776114503273310441)
(2.43190828117070934 -0.0915466350184156868 0.681615515296755126)
(2.32442594900816824 -0.0794284133029411338 0.745889576580760716)
(1.78286594112475827 -0.100823637074926642 0.719841055362508753)
(2.1318939720280814 -0.0862196170050549271 0.783257985960732594)
(2.43709781048962704 -0.0879865319503208287 0.67864176877229343)
(2.31892314921819676 -0.0775439623308863124 0.737997658367006037)
(1.7378785332771387 -0.103690542467723038 0.722301015245838118)
(2.14185794283956588 -0.0804524544347983289 0.785402187221223791)
(2.43452743661645776 -0.0838254640163655501 0.670590358690703714)
(2.30794837842237577 -0.0741498753162899149 0.731497203426192177)
(1.71226607070463355 -0.101332098869861872 0.728657983332809511)
(2.14149763848083197 -0.0766482868457162569 0.783511999884137778)
(2.4255323482826503 -0.0804306440185075938 0.666361612301051287)
(2.29008176011243147 -0.0700991569428548317 0.728342284991267297)
(1.70410912740389087 -0.0950226155913840853 0.740647656400865162)
(2.13250545338090491 -0.0726752008502148106 0.780785732792642628)
(2.41108051558550018 -0.0767629664603775991 0.664436506986461617)
(2.26433386999615704 -0.0670000436336246619 0.727960061532041958)
(1.70142709955934346 -0.0898846025659298942 0.755405514741103401)
(2.11631784994330996 -0.0684661781570439221 0.780124607185694541)
(2.38987414686304867 -0.0732937605400069137 0.665958470968730176)
(2.2341594240306093 -0.0649570417285943447 0.729869908237717913)
(1.69772579537390289 -0.0862135088512104991 0.76764466943656573)
(2.09352646426084554 -0.0664235595437742271 0.782179297202949098)
(2.36244731042529432 -0.0704364140255504673 0.669673980666581459)
(2.20204394775693757 -0.0633907041376834679 0.73458768243142103)
(1.69111303280506942 -0.0839561228656297009 0.776361211013849473)
(2.06812133793601882 -0.0643283539385040987 0.784809018121141344)
(2.33106949817479148 -0.0686600628496784604 0.675400680297944978)
(2.16945013191958891 -0.0613138953212794199 0.741317383439674571)
(1.68394168695445856 -0.080193223164151145 0.782962877666185775)
(2.03983693873429983 -0.0630207203546470779 0.787350679800440378)
(2.29960091133962496 -0.0669189088838222923 0.68412951119058274)
(2.13811265564240083 -0.0595492690253720119 0.748584189517728982)
(1.67851710422293365 -0.0761920025751058327 0.787012205584096458)
(2.01206238706410279 -0.0607909434092637896 0.790335244904368239)
(2.26950069779770036 -0.0650561570873515321 0.694539440265849684)
(2.10694527614544969 -0.0585035566413220492 0.755515914742620809)
(1.67155548417648792 -0.0732721344620337056 0.787368920763158564)
(1.98404612001102532 -0.0591306435653185664 0.794403796794352135)
(2.23996071186530932 -0.0643096239133180286 0.705055767054655891)
(2.07570644250658409 -0.0583816477641776327 0.762306620479788477)
(1.66184872005118978 -0.0704751904722284994 0.78388794837088982)
(1.95405651246759771 -0.0580792473838623799 0.797932788445310348)
(2.2108271574413223 -0.064318906223587588 0.713290957938621184)
(2.04559586707690588 -0.0587504810249629694 0.769803678840477956)
(1.65079576718554266 -0.0684809596920610414 0.77888740318149563)
(1.92160405740656515 -0.0580396258959389386 0.800066164608251307)
(2.18454034553645027 -0.065086410980019313 0.723069468210492339)
(2.01292519551479199 -0.059678471967156678 0.777097574042886707)
(1.64157801531498104 -0.0621554164266505116 0.770823777358991324)
(1.89056824453332495 -0.0582087297177566326 0.801291297108315148)
(2.16173643149162853 -0.0669498791283530958 0.735081666883578233)
(1.97592540535741867 -0.0639635859954478109 0.781294287453116243)
(1.62617541361617035 -0.0578186503937859406 0.756732722686428549)
(1.85877724928729582 -0.0574526294707442819 0.804249548067902387)
(2.13617035497084196 -0.0726436198039751152 0.743299855814455568)
(1.94142039302759639 -0.0673835778146371633 0.778487731861691845)
(1.59964594751230127 -0.0629199402256439971 0.735418466740740295)
(1.81858220950300442 -0.0599994294712033749 0.805228391980304159)
(2.11265315649302554 -0.0782096338709114547 0.744322790317740512)
(1.91920764263591681 -0.0670529561116538358 0.769017232059772349)
(1.57562410127173291 -0.0652302285070076732 0.707206994646735532)
(1.78270195684012278 -0.0594403049484683865 0.795778003196618622)
(2.10409848130462285 -0.0736220090939053579 0.738736376106531867)
(1.91285405513312123 -0.0681512464909192206 0.757241747662878328)
(1.55972041220077617 -0.0693038129977065903 0.67657617513290802)
(1.75240552132106386 -0.0606116734426529122 0.782010418744695901)
(2.10504210417204218 -0.0733065807671443442 0.728449185092781004)
(1.91580510515024405 -0.07217498301859962 0.744833674635974496)
(1.54754607577041603 -0.0724968303128550595 0.643445541645166652)
(1.7334471007231167 -0.0623434728192714602 0.766268150193240793)
(2.114433859980136 -0.0747815390377222639 0.71926447343407196)
(1.95979275952430632 -0.0603985475911176864 0.732345948630098498)
(1.54114390308602101 -0.0890285167610416206 0.607463582273170211)
(1.71985743023203286 -0.0687124736898067079 0.747109219732413843)
(2.13384664472667707 -0.0721116627560332846 0.709835676956128259)
(2.09355050834061363 0.0141094485878507248 0.737622134581832345)
(1.52345164190437687 -0.0923300995878816727 0.563647513619969898)
(1.7687243718497121 -0.0463251592160449088 0.728509224174508696)
(2.19572418105910083 -0.0399755237358265236 0.696639412892708476)
(2.13407242525641294 0.286812463903028447 0.791494942617738895)
(1.57773569300820915 0.0802248793492593981 0.664603549902619162)
(1.90895246567374732 0.0617745990059207911 0.744917183312404529)
(2.24821124948256656 0.0937954917848792813 0.724258186944605864)
(1.63812722482501005 0.822591508766515989 0.96475375085924242)
(1.6951932887965715 0.698472249475189821 0.866892131519078957)
(2.01971992268836686 0.467292857286388252 0.826562906893304139)
(2.17594919165329514 0.543233818210974939 0.815145284821364169)
(1.51113879297003728 1.6428762661435159 1.19762001298546128)
(1.67174749340711903 1.10333114875380889 1.1126260073918337)
(1.60627931058098583 1.16736128126541527 1.08373427078153206)
(0.901126840231659121 -0.670744017524810165 0.360854076800906864)
(0.635789845479397431 -0.667234601529866689 0.319636268674759805)
(0.286074492036212491 -0.38831400940112526 -0.489160290105794426)
(1.04317010731766868 -0.574180165284248867 0.232483750897671398)
(1.14430316825767964 -0.600908960807641113 0.452531954414650217)
(0.835351928705018509 -0.616378504610060829 0.423176908259131068)
(0.716069971821623796 -0.49600638064552427 0.188838421680597834)
(1.38708535060661231 -0.611384432230413388 0.369643258715907086)
(1.14700862808861848 -0.475637986118012113 0.44937873322473687)
(0.703135804372013173 -0.439802493361369562 0.274903744009079132)
(0.828805218892688766 -0.407751662323388941 0.285390990326167437)
(1.44124961665601825 -0.51881184344636333 0.398300349661869224)
(1.12453579406561266 -0.369982334567425186 0.441724299972845236)
(0.65388972517007693 -0.325123942861230586 0.2137129292962755)
(0.791151632176701258 -0.285660077950271873 0.285749176713370079)
(1.41274338011076339 -0.416223736286749857 0.403050472708497975)
(1.18195755645789924 -0.307561528476276602 0.455122599365608838)
(0.839514313193255091 -0.311088894813057071 0.321469472655481425)
(0.775991030350911659 -0.215741448345281639 0.328017760581056639)
(1.43640147672744889 -0.336669549152156522 0.406029639671133757)
(1.30949155682629481 -0.278835153368894861 0.509703130798019433)
(1.02744745786643543 -0.307930696419347949 0.426537529096718548)
(0.860650019282156564 -0.201690019056364772 0.390471967185144875)
(1.53638572032456766 -0.295133224192402344 0.442397850141403259)
(1.44588831273911578 -0.261077877753641718 0.577092764558247429)
(1.163259025451582 -0.2867148855279254 0.514830203103102568)
(1.01553816105934702 -0.209138186851914681 0.475903272167591485)
(1.67454182972507359 -0.267459846065863982 0.519109699927104207)
(1.54073016135690222 -0.237363400522403151 0.61904196815267043)
(1.21646851980621928 -0.248551862823320535 0.560812422479077588)
(1.1450015428560707 -0.207266096192839366 0.549665762393525048)
(1.77770552587650177 -0.249970045142683756 0.576969388503652314)
(1.59166722759536206 -0.211475731981427023 0.639440694940926591)
(1.21279496774657525 -0.201008433299288608 0.578827832687207278)
(1.22500222965255512 -0.192453690544921036 0.590794718813069553)
(1.83469813350238287 -0.225726532445131439 0.612088067930586788)
(1.60835399902629872 -0.188903857740496478 0.651699390947448109)
(1.17572021102187185 -0.166942643218247644 0.583600127840394389)
(1.2604520401019168 -0.177687113298754612 0.609231259940886227)
(1.86174814455749082 -0.204227720351175174 0.62730509062577966)
(1.60149142242531006 -0.16709248111508479 0.661881627482210244)
(1.13649144620552001 -0.138541302318915427 0.592346920001911803)
(1.27148870958434279 -0.157498861164594078 0.622860629445571856)
(1.86680045597988609 -0.185655877794895591 0.634512257852294925)
(1.56531073291474021 -0.147013223467200138 0.672166849615905448)
(1.0955435395494213 -0.108548224057720674 0.610236421329834577)
(1.26288343193615149 -0.137064768667737619 0.638505821254267025)
(1.83655886058647821 -0.170430297763409594 0.64781512921238571)
(1.49619703467468468 -0.130845779556441472 0.679461670672735552)
(1.03975105664220324 -0.080154610912173116 0.62671114047938592)
(1.23774036001062138 -0.116182379230171037 0.655703502810638605)
(1.76684054202374186 -0.15811347115724067 0.661750282409125257)
(1.39841626038059297 -0.119968489250224158 0.682830271001086286)
(0.979997687027783781 -0.0637198080603171291 0.642236916923964785)
(1.18410465366068585 -0.104817362548901782 0.670098279783916895)
(1.67277455795736163 -0.147605211061828778 0.666461116055238501)
(1.29233677621423082 -0.114146901697526157 0.686849622094999224)
(0.934083227609084465 -0.0585382812298764071 0.65668598208694906)
(1.10456670982867156 -0.0971458761901023427 0.681895587663604252)
(1.56347794147916708 -0.143915419128559097 0.663103321259537304)
(1.19624667011224228 -0.114633960479443422 0.696252494027586044)
(0.91054983336495765 -0.0645971885904832732 0.675920671195614386)
(1.01979877694018817 -0.0928549608864903675 0.692253034416935309)
(1.46276594697236906 -0.138373877777587917 0.668615881386774302)
(1.1314482046797838 -0.117742825597726461 0.712961340211641592)
(0.907782236942090703 -0.0824852780190520329 0.700446125232720207)
(0.951452855092008276 -0.0943711882811014563 0.705175505820891169)
(1.38851128063408291 -0.13180859757355734 0.682787647248235707)
(1.10850039006448142 -0.117000782884322571 0.737808436307482718)
(0.926725660129040008 -0.0998725748051548651 0.727080823704008394)
(0.924196194141252869 -0.0968587084957421157 0.724731853559567374)
(1.34868242558305229 -0.127923064458229735 0.704703296880916041)
(1.11565887415762366 -0.112950168321655331 0.767710886150701266)
(0.959044498546689494 -0.106993805687391863 0.755107510339428689)
(0.930754773581299211 -0.0958299473681848424 0.751724980443575275)
(1.33436430140150097 -0.122872167925832956 0.734941740083419504)
(1.13432986549390935 -0.108607514334223124 0.795090122645627284)
(0.994182465966375828 -0.105611347852732948 0.777053284422173585)
(0.958190539527961738 -0.0924750162297071632 0.780189436570199013)
(1.33262049665007098 -0.117244360119519636 0.76740789841933077)
(1.15464690768272171 -0.105167349714531941 0.814135972212697179)
(1.02561275229336712 -0.101510258061619424 0.790748314349249859)
(0.990464237993211816 -0.0899214086483561964 0.80337795064111539)
(1.33544590439947286 -0.112358491950899045 0.793102076813470891)
(1.17342867346997748 -0.101645595099078306 0.824736406248614107)
(1.05074180009702589 -0.0971098306018193941 0.794329794891073027)
(1.0207757535257147 -0.0868005227849485139 0.816849937280303973)
(1.34123839193592453 -0.109380987063777885 0.809323938337786819)
(1.19304912058798251 -0.0967095075112579389 0.828657699810607662)
(1.07103624212878779 -0.0915699899523996913 0.788082404358948163)
(1.04723282518470984 -0.0830687897753520643 0.821475949061221788)
(1.35078610725819526 -0.106269044630685705 0.818341678341775958)
(1.21180604222927246 -0.0917001529746781507 0.825796936829526151)
(1.09048031325047967 -0.0839778783613893548 0.774792712533794892)
(1.07118233185133094 -0.0782326631214262103 0.81935476245095451)
(1.36332761284465143 -0.102750614026350731 0.822538667504654986)
(1.22621900870295519 -0.0872426724726001468 0.815740954391427353)
(1.10488221582713719 -0.0754183154450908805 0.752356653733288971)
(1.09103687815233741 -0.0732165879573604683 0.809749763950743939)
(1.37576920990396112 -0.100425400077505764 0.819869763270805185)
(1.23722458091178789 -0.0832422130006293393 0.800468731072596862)
(1.11044365818006141 -0.0669322565956861071 0.722004096464504252)
(1.10343636537788892 -0.0675869438443153919 0.792615644058220603)
(1.38672399118005996 -0.0982065252714210274 0.81070715093993706)
(1.24709527707570467 -0.0770639474228091009 0.779907501700009109)
(1.10999119220154197 -0.0589001312392831711 0.688025589059007792)
(1.11024468339357729 -0.0626342497613365662 0.769630697139622844)
(1.39631737343970919 -0.0963275427346624302 0.798663361229290825)
(1.25381808245392179 -0.0685956214737952208 0.750458926002533055)
(1.10700912856698919 -0.0477192286573241906 0.649275091978703811)
(1.11597759794330553 -0.0559033923251053416 0.741418048839497135)
(1.40308973865524655 -0.092971972284355886 0.777013679961722326)
(1.24984996602978216 -0.0653874462320916949 0.71085690197405238)
(1.0960911496578809 -0.036171562712852795 0.602632721233082091)
(1.11904302219045748 -0.0470346945109817588 0.704115002893412112)
(1.39972055828304098 -0.0926655110039873026 0.743441737654219836)
(1.23453913235218393 -0.0658002092139079175 0.664137729525783094)
(1.07218646813577378 -0.030428034662312118 0.548468899601208926)
(1.1131510428771878 -0.0431238170335222284 0.655545014932898518)
(1.38643810303869142 -0.0951558431312660019 0.705218673523911654)
(1.21550519258018985 -0.0669452060397017767 0.614765937719871425)
(1.0429011886207904 -0.022972637114473473 0.492754822909429624)
(1.09868853678067735 -0.0392947967686242336 0.600478793060586824)
(1.37299822007432404 -0.0914732096670357736 0.665960154730790621)
(1.19419192074862646 -0.0693081917581041124 0.562779969115195566)
(1.01541624033307265 -0.0169366172099118771 0.438174967549327832)
(1.07786993794811448 -0.0401782213893555479 0.541507390253271326)
(1.35962947901931708 -0.0932979052461160446 0.624927633153942175)
(1.17461364714326422 -0.0773099608938727367 0.506075449282362477)
(0.987189761310458325 -0.013028595449067315 0.380795763645801921)
(1.05644345139383322 -0.0389625023360744213 0.478353388151084413)
(1.33826025002077653 -0.092878195777584896 0.577710098705166319)
(1.13445027799112674 -0.0858091194370652205 0.438765147263041666)
(0.961461047784540779 -0.0144371382055199504 0.325445078530020193)
(1.04079530886075289 -0.0509016449797550577 0.414594082992775781)
(1.31845787937787517 -0.0987409228615226259 0.52361243281330494)
(1.15035127857562869 0.000639280070194936552 0.490628928940756048)
(0.868827575811273789 -0.0298530238995098271 0.268040232576163995)
(0.953462158292706308 -0.0803403550090937973 0.326083440819174952)
(1.22633878406678565 -0.0865009968059647222 0.466938548141969501)
(1.25752883724887998 0.447498292136271902 0.740000738803961)
(0.798125785346621597 0.100428881802201331 0.455474108609673189)
(0.842360150773882821 0.0569767332518765143 0.476655796932536346)