/*--------------------------------*- C++ -*----------------------------------*\
| =========                 |                                                 |
| \\      /  F ield         | OpenFOAM: The Open Source CFD Toolbox           |
|  \\    /   O peration     | Version:  2206                                  |
|   \\  /    A nd           | Website:  www.openfoam.com                      |
|    \\/     M anipulation  |                                                 |
\*---------------------------------------------------------------------------*/
FoamFile
{
    version     2.0;
    format      ascii;
    arch        "LSB;label=32;scalar=64";
    class       surfaceVectorField;
    location    "0.690000000000000391";
    object      Uf;
}
// * * * * * * * * * * * * * * * * * * * * * * * * * * * * * * * * * * * * * //

dimensions      [0 1 -1 0 0 0 0];

internalField   nonuniform List<vector> 
20856
(
(1.91579656305873325 0.0949891757071522069 0.205719699854267024)
(1.90198688392381277 0.130230769929459228 0.231313661690328909)
(1.92403264520698936 0.152944608272049254 0.208827670086990408)
(1.69310917668974792 0.0746882305204336072 0.115474274741889163)
(1.64969383216660481 0.126010751243032321 0.136155732642388533)
(1.85807516148716845 0.079095645103334708 0.225858850754389412)
(1.6829379976183636 0.132878290773757679 0.117834368554119565)
(1.48368838353758492 0.0257819546019528271 -0.00847746980709447595)
(1.40907179900937507 0.0709001413912832834 0.0165063524044012887)
(1.65261300030232716 0.0548531181653043737 0.132188559417670659)
(1.45746512847304066 0.0695556116314731548 -0.000294257768596217512)
(1.30239524016450092 -0.0227222615453853555 -0.184356997763756164)
(1.20392485751297795 0.000890114596674344925 -0.148494019227292495)
(1.45323810488619642 0.00963809102362302682 -0.00308418964807125051)
(1.26947654009639099 -0.0154740204017902727 -0.164105964915240682)
(1.14059997847766104 -0.051617406501256867 -0.410314279878574717)
(1.04357700828154742 -0.0533374720005872979 -0.372953914837441447)
(1.26778051685044746 -0.0224052733922272887 -0.199771627138800173)
(1.12101949682190027 -0.0717162115403741779 -0.385734479159121013)
(1.0025938888606134 -0.0470405446983388625 -0.664903270518139689)
(0.924425113165820322 -0.0730986986197268152 -0.622583301749627949)
(1.09567137482917243 -0.028946631417761215 -0.447191515810571705)
(1.00591275038052186 -0.0917123511765817745 -0.627231159954893758)
(0.90944459006232603 0.019415341292554681 -0.957425955595259226)
(0.846221981303485471 -0.047254308225701612 -0.894770656689362065)
(0.945403498441315882 0.00129537764230523559 -0.728796542173306583)
(0.916500019131625154 -0.0653592880944011828 -0.868985770592486939)
(0.793675291718625275 0.225989796260872372 -1.27813890038337696)
(0.802563326917439257 0.090009710619617031 -1.23531761598254453)
(0.865562516288567729 0.0968527684609736539 -1.07785052097491163)
(0.879853483430763195 0.070244231442948793 -1.14593710958864237)
(0.583285391054756408 0.645186724147606361 -1.4550024798786656)
(0.533267626809296957 0.464928177325011349 -1.50603688507194589)
(0.611793080478087115 0.398296281983406775 -1.45978652054055091)
(0.677069477741573333 0.383235230605145805 -1.3769997111591481)
(0.299423039460110396 1.12081805116363298 -1.45798129627327278)
(0.335321806776341047 1.00599576729670526 -1.45292442569141289)
(0.38878973876917633 0.931216135700164482 -1.50119282265247866)
(0.515323784156093367 0.872420055938267991 -1.35856780693303825)
(0.166159809769797634 1.30632680979582139 -1.59401106697676997)
(0.101493562267131077 1.3587672180887076 -1.44843094961416829)
(0.145739087439019227 1.36122551671263903 -1.46768327875610471)
(0.209858676582282466 1.23634850943195995 -1.31703524568271568)
(0.0610812643506769559 1.31673373834650809 -1.58315091413091391)
(0.195656201450223555 1.32407502114157172 -1.70146956124579463)
(0.0672926194171736547 1.30602028170444528 -1.70801525568660506)
(0.359003434878322536 1.29621757258435011 -1.7131148947966659)
(-0.0121383705496026506 1.16736352073158112 -0.803479435454136914)
(-0.294196265412364821 1.37993683073197904 -1.39676267268480281)
(-0.391388596835548996 1.32709529239010116 -1.43974801837788702)
(-0.100700208012706266 1.36563911289146089 -1.38822731814144129)
(0.0231264532091384339 1.13109286331544556 0.214093382476960914)
(0.352666338811472857 0.983992123540022634 -0.176400198571744493)
(0.189259033420133727 1.0063422635455348 -0.185915183986714888)
(0.355037945192660909 1.01397470793679423 -0.164541733757973013)
(-0.0683844504559966565 1.6561008086370983 0.618583973517342955)
(-0.489764560504219182 1.28012650198556499 0.612798581338409143)
(-0.484575608198598018 1.37754651188821087 0.636432212645786088)
(-0.465935061536672301 1.20179790835617561 0.561843155328311861)
(0.4666464525566828 2.00859492175609589 0.619175583816308994)
(0.438104225332465291 2.02160809664633412 0.624647895349233484)
(0.476844882912726031 2.04479570649901632 0.604421438651647103)
(1.61372030959985913 0.164819242576038472 0.161749694478450612)
(1.52892081292760396 0.218912885725710188 0.184231933773477574)
(1.80784545283176512 0.12480339567493455 0.274223993166954172)
(1.64091795730762757 0.241594197042222653 0.173822807753974545)
(1.35824392492078827 0.125794766106578693 0.0371878103048998571)
(1.25032279362160925 0.190794586016883372 0.0587222475193222015)
(1.54435259540896608 0.132619933079331093 0.171872998614735206)
(1.35644476761650101 0.202534262038236934 0.0459629469733490795)
(1.13699641992486722 0.0491107797076193384 -0.123510197015799628)
(1.00617433672546763 0.103349040867644362 -0.0916286287260613674)
(1.30160270142877321 0.092899529975430481 0.0460288270329006904)
(1.11066650956512225 0.0882118724902079265 -0.110320580346137009)
(0.967771671765238484 -0.0290990879493240664 -0.337090936300975696)
(0.809423904905631986 -0.00793261129226826255 -0.294379105426401166)
(1.08970512666294228 0.0319435373416173604 -0.132303177631530322)
(0.916382969447058437 -0.036832841190247656 -0.31916707175412129)
(0.841649813164021099 -0.0784309900407526156 -0.585222936708489461)
(0.721850668698842401 -0.0861173899292950185 -0.539094982657803423)
(0.915893756575467788 -0.0200831761388366413 -0.370380043415827087)
(0.813853521479719344 -0.119289737146740293 -0.562055006568589866)
(0.765947174852057544 -0.0819574297066496538 -0.852450687920847217)
(0.690593836272680006 -0.120226369499606398 -0.791465383215676055)
(0.7939573553189051 -0.0426004180093011997 -0.638184981317336586)
(0.765914468845936725 -0.145683652520867152 -0.808141970819168054)
(0.720659826749730614 0.0157498031161561608 -1.1726623170766457)
(0.648945635492108153 -0.0869822776227128919 -1.06772031028037429)
(0.726318266384140321 -0.0238200434203994123 -0.93147692222661771)
(0.719705036096831674 -0.10195842675202256 -1.05623103926512774)
(0.582704745815325609 0.324620992453896029 -1.46321560067110967)
(0.595471615006900601 0.13574357559031125 -1.42353786550463246)
(0.674099754006120766 0.124975731785549229 -1.31432403693548072)
(0.694259527162907286 0.115602758557955362 -1.36082795587089711)
(0.313414567349761086 0.819249840086933245 -1.50395883088469473)
(0.300982565033056593 0.624224416557635498 -1.60086633953069502)
(0.346016133258025604 0.537028355888538034 -1.55943965068690726)
(0.426376957399542067 0.561951591769272452 -1.51015057321148571)
(0.0745349552214019384 1.23766047545619662 -1.44337407903230885)
(0.115228865275188941 1.13025790830727968 -1.40176863167042853)
(0.126991603906261685 1.04755980622156986 -1.3843237767653096)
(0.269698735012554314 1.07310652548575991 -1.37468178661885676)
(0.0452568895322281728 1.36790631102305227 -1.55588944388319428)
(0.0233436823694161584 1.40014122996386892 -1.44105494100427323)
(-0.00585061412874129418 1.37695908092119268 -1.43169192606440676)
(0.0705719332566510371 1.34495006829002373 -1.37822009338605556)
(-0.0185902047636730267 1.38329785585208187 -1.51508131979968019)
(0.127963043698732681 1.3417083512382395 -1.60524000042474335)
(-0.0289385506312667164 1.35437748651891643 -1.64273485898409044)
(0.295002940059638397 1.34862849224435899 -1.67131631093644595)
(-0.0319433056539195626 1.1994424532120036 -0.769683435802394511)
(-0.330326767938227628 1.41373014976279854 -1.32762491178411124)
(-0.429061361083043546 1.38263570113747747 -1.38437588368244224)
(-0.166524746025410869 1.43235503586926072 -1.33014044870194681)
(0.00972107232966304413 1.13356882274678239 0.222305000289720833)
(0.353321452542487535 0.972467403675527975 -0.146033030411872516)
(0.175680658290957997 1.00102907769996952 -0.205025914495374911)
(0.398848891358170476 1.05033441264523386 -0.18640283010457831)
(-0.0789365082688176234 1.63387556183706506 0.613390191637374738)
(-0.522723245543277981 1.28353542130340315 0.613729383031063169)
(-0.512084634871961875 1.38851290700814878 0.644851102299421997)
(-0.499415276057769475 1.19940339291420894 0.563010514129914541)
(0.471568024517033058 1.95982971929121752 0.607288585138497594)
(0.442123148354768514 1.97219143117630868 0.611949149569656958)
(0.482369166657878767 1.99693149791634972 0.593355184632681443)
(1.13797190627000511 0.243943939246156621 0.0812044868143503712)
(1.00015062153507417 0.306185968634822558 0.0793249975105413119)
(1.33803112792300571 0.210779272361132086 0.206397645603522556)
(1.19124518644940647 0.32888271185248219 0.0943208772268055995)
(0.885045428206833296 0.172953438994970704 -0.0700941915116404662)
(0.733006748946016362 0.247401190001788979 -0.0646680610912419712)
(1.04906056193024066 0.20638060852200707 0.0792486769876620534)
(0.910322464361312478 0.250007984997764887 -0.0604680698889438137)
(0.691481025131822191 0.0528673732952105666 -0.262497537136667181)
(0.493080519698593567 0.109845548320504222 -0.244478521633594403)
(0.815472497617701797 0.135196263798377403 -0.0738468061157467465)
(0.65755442487509641 0.0905352971569228504 -0.254414574566098117)
(0.605233596440322263 -0.0605973221381055221 -0.49638315178322856)
(0.392945148274280731 -0.0674705665109509301 -0.455320179579513373)
(0.635226284606855596 0.0320159669127671534 -0.286703397835561924)
(0.489776675366496661 -0.103479949625541315 -0.492010722843362336)
(0.587382732666726026 -0.131179956158641919 -0.745337429164985465)
(0.44784267909746539 -0.171679610713475317 -0.680827329400426118)
(0.568544897422345152 -0.04938890916650409 -0.545272112534452402)
(0.507465886743630579 -0.207226199858013327 -0.734234865459111874)
(0.55590656606821065 -0.12995561195002997 -1.00673500557519913)
(0.49134935894843984 -0.184850651571200036 -0.928411871011426082)
(0.567434851018898234 -0.0964191433381965668 -0.80131685463574065)
(0.547337346073022535 -0.210117896121654629 -0.96204290141130655)
(0.505453507261721446 0.0386997672573375362 -1.31859585870835527)
(0.401679207102355662 -0.107867916291933069 -1.17311884273285116)
(0.545543885696478159 -0.0553097662713672514 -1.08443062686801195)
(0.450252405939099709 -0.128167017901775621 -1.17666910166680561)
(0.365387682960299331 0.440726309364973479 -1.56118860436421514)
(0.351579216316413312 0.209513235076751014 -1.53196974797604391)
(0.480690665757370572 0.183597479670372737 -1.46600324387855063)
(0.388433848061975895 0.191727803239911843 -1.45853997001013314)
(0.114106622276251901 0.932532497857283538 -1.49867614031643281)
(0.140185339246855972 0.75213554656270476 -1.62990280562922041)
(0.162294638949187442 0.652227850339882287 -1.58379952931088619)
(0.211052882487867077 0.731563720975510368 -1.57926616716527657)
(0.0246838386624189422 1.28206284357676825 -1.39944949364239291)
(-0.0145379447627375265 1.16760082719435876 -1.3745609348433907)
(-0.0202943869537943293 1.08706165340934358 -1.32200605109514235)
(0.0978496504989326277 1.1869746873813587 -1.33674702515144261)
(0.0352975938963986102 1.37667694569212462 -1.49040549754582341)
(0.0165932523384232922 1.38898880463342378 -1.40908593647200253)
(-0.020776841120550258 1.36771928812809351 -1.38133285564114616)
(0.0519277096928601745 1.39000871178597185 -1.39302292589604138)
(-0.0640495735930793481 1.39282401238322295 -1.41778359240917107)
(0.0711531181313839328 1.39447036983165651 -1.51637954196860081)
(-0.0629423568111730225 1.3903734443137612 -1.55629091116212326)
(0.235151527239254005 1.39102055039167372 -1.55011325210512085)
(-0.0379898336311669735 1.20666901717500452 -0.703974506393563404)
(-0.33411395250388759 1.42995042271262274 -1.2431158038139638)
(-0.427093615902671808 1.40585811558420182 -1.31182863092988633)
(-0.198674656078720813 1.45300543318313036 -1.25332983712935175)
(-0.038403980524138473 1.1311322311760772 0.245391352329480228)
(0.303479071601007788 0.994009107649844403 -0.074874007914978169)
(0.136210757863412663 1.03077265306024879 -0.202781324222138459)
(0.386638384011221692 1.08947940489772122 -0.160120656692727625)
(-0.0837710181850642999 1.6071391621484552 0.607627776532186026)
(-0.54419807170716783 1.26559537152754831 0.611614154589512626)
(-0.540711962051342532 1.38139375469731274 0.647325150560916551)
(-0.526155966435093547 1.19408521404945822 0.566081736607383368)
(0.476184804332743239 1.90916523853086018 0.59599455383825406)
(0.446272348309984634 1.92234305469107114 0.599849026640755123)
(0.487938195659867069 1.94695623890655978 0.582291220921057118)
(0.553736185600227859 0.314390266133505458 -0.0665475503950505171)
(0.407753699703798489 0.38950190682619118 -0.093112586272578568)
(0.719728489530720106 0.31778454616271945 0.0616210030562015787)
(0.658228185775112107 0.405917386363870147 -0.0501489757566209102)
(0.313954608841872318 0.195765404385092906 -0.239052391213195659)
(0.129140917783669679 0.287532371186807467 -0.250850036437911594)
(0.463553262229127239 0.272158132909293082 -0.0725578407483242205)
(0.366865392568923421 0.289813065686077231 -0.23208100479321378)
(0.225942425231718175 0.00290117314884115463 -0.437301164076443594)
(-0.0341545708606707799 0.043925459650180243 -0.432288206332443359)
(0.255209251467191423 0.140739023831457116 -0.24571513918687099)
(0.0753302971923906356 0.0385576424644887422 -0.465556771129350344)
(0.30101736485947217 -0.172690421121788923 -0.639764357196711986)
(0.0311939628552206083 -0.217758965648630676 -0.617100777458905236)
(0.221442711314909307 -0.0324985981978939686 -0.457074929356289739)
(0.0804876738875601461 -0.251865981616297974 -0.682556775128380311)
(0.358972300842057002 -0.227418904624310136 -0.8639017712468674)
(0.137530027403001104 -0.298823946038653698 -0.810856543943463626)
(0.329007982998761994 -0.154993721363199943 -0.673947061683918491)
(0.195218176356692558 -0.345335448781926013 -0.870274974493246978)
(0.309118658968191018 -0.167448607375776326 -1.09479570816907357)
(0.203434165591706878 -0.234955498729371159 -1.03701909734737097)
(0.399760089540801999 -0.164701180310919848 -0.908159400170071351)
(0.269756534406466464 -0.264848376089561133 -1.0582266490789074)
(0.243019686700754578 0.0612343548549766359 -1.38649273200053536)
(0.112769335010518751 -0.108904442578447766 -1.23036945353632277)
(0.336672571807224374 -0.0832328920552756757 -1.16882806425480901)
(0.151165172091001027 -0.117974473217291542 -1.23700680288991083)
(0.177571746478112552 0.523308263512334282 -1.60068394924104851)
(0.0743376655877219378 0.274422031439934655 -1.5332762622498024)
(0.295589290500761936 0.218126652652601116 -1.56971559002213557)
(0.125636572785860212 0.262193673296092056 -1.50535142101461461)
(0.0103235799327188044 0.992816970282801692 -1.5057876001561783)
(0.0221973026306648696 0.837991367357523886 -1.62365549680643206)
(0.0821275091283877601 0.728975888410192563 -1.62407506459288586)
(0.0836357212230239011 0.867849494931816956 -1.61961601090490337)
(-0.0382887850986532996 1.28313060461376449 -1.38419737767300033)
(-0.0767925234389191802 1.20291538669535369 -1.40198200754719648)
(-0.0917706801910725123 1.09392177305672367 -1.36687134095128293)
(-0.00643565521400612118 1.2274149114201105 -1.34485737568254593)
(-0.0135583149185170976 1.4034490994807618 -1.43505998089478104)
(-0.012676638200682766 1.37637664094104539 -1.40499424941932904)
(-0.0687356186622969378 1.35369043166353098 -1.37026645922680435)
(0.0654231413861697947 1.39642913528043278 -1.37076296954253585)
(-0.097195052952234226 1.42951272274687646 -1.34171175337339443)
(0.016285255320390931 1.43327030025300473 -1.46066120693261392)
(-0.10528359061185337 1.42416682593957789 -1.48898772471850216)
(0.179316847956080549 1.43041060440406276 -1.49502424301213055)
(-0.0742003468557304591 1.21478126524855612 -0.614015305335363415)
(-0.328721304178505092 1.4553957090373506 -1.14973474409261578)
(-0.415703379553887364 1.4224806884653356 -1.24148418330626487)
(-0.212887665343763161 1.45293273854752547 -1.16759891822621387)
(-0.0839491836415056369 1.11928432791784549 0.291348794345051065)
(0.261819697507826188 1.02945915911466201 -0.0157810624385907351)
(0.0601960112241250733 1.049718233948298 -0.17492390488500717)
(0.339686959241807696 1.13990984225649972 -0.113776080746716537)
(-0.0849823889968545354 1.56607546450249879 0.599980931895580327)
(-0.548631136542538478 1.22384543651340949 0.6092838374229822)
(-0.554551301524743412 1.33920290674495535 0.650968442034884576)
(-0.536861023448524377 1.16992728676206026 0.5664366914621356)
(0.480178930770396972 1.85771859808871964 0.58540451709854302)
(0.450372765779662232 1.87218989599250762 0.589100706719074108)
(0.492629410171027515 1.89585535267145633 0.571189839296090796)
(0.780871662613311535 0.341466071532194992 0.199893241349121453)
(0.6493048289717126 0.348968645494032281 0.185452012969933577)
(0.938098815696345678 0.275566253958274165 0.308532620610492747)
(0.886301656659246984 0.380202105929339229 0.241117626041296079)
(0.508153635374037349 0.405783987544573344 0.0463964837156701504)
(0.383508853003345362 0.42252289901507728 0.026985232007107271)
(0.670972324736685777 0.346579618608992002 0.164119665713201551)
(0.639850924659254416 0.449281319037973637 0.0962109473885706251)
(0.221054076968366764 0.435355762288331394 -0.11459006030654173)
(0.0893670412038976292 0.486157691582617346 -0.143286224239501603)
(0.381959826887073917 0.405892832523482461 0.00773885048285735243)
(0.378425237963479599 0.501113954845538556 -0.0731195525205315389)
(-0.0765232372225900376 0.380228322996374379 -0.277415072315440492)
(-0.211593495353719657 0.475222289801505826 -0.305273994863107023)
(0.0917612580596090799 0.411297265975168247 -0.137689568367026755)
(0.0846886349894922646 0.482749098602219318 -0.263830834670821079)
(-0.248091508667889205 0.168535785909956215 -0.444085851557158628)
(-0.442004851934886256 0.270820392566521517 -0.476759649696026688)
(-0.175760475511709507 0.309580146682469415 -0.275894326550636504)
(-0.27255893394941122 0.309850708474244563 -0.480887816507732657)
(-0.167051031636830299 -0.153015456432647079 -0.612087819714909442)
(-0.438746356771446466 -0.122792051145998449 -0.64667152774500436)
(-0.228723815618507659 0.0569906135223520599 -0.434868612983895897)
(-0.375761503166574085 -0.116624515913139298 -0.687253808748997108)
(-0.0697839833172669843 -0.344317054404384759 -0.788192964205655544)
(-0.323733708663779263 -0.393796367740695874 -0.797168869223870646)
(-0.0630471140186388973 -0.203214752170921081 -0.590845066576507261)
(-0.261911220917040111 -0.436724056484561474 -0.845649361504466013)
(-0.0263131960545827208 -0.321457648348461023 -0.983973870043968635)
(-0.254865515029680856 -0.424645211871892081 -0.941631970047925648)
(0.0682120178335427346 -0.282532914643001398 -0.775101916586205753)
(-0.1886801431491201 -0.479864179696781024 -0.983274583175756445)
(-0.0210912246960717233 -0.192647230136400616 -1.17259284271461883)
(-0.179575761130420702 -0.310597757885355763 -1.10326055585569271)
(0.128807300383369627 -0.227922655489356196 -0.98475810141740272)
(-0.0933466083549936154 -0.334014440334728324 -1.13081472791619531)
(-0.0387439326517643734 0.0846799527365004467 -1.37715298378558959)
(-0.172943812260149404 -0.114867823807969616 -1.24073299829131711)
(0.110694759200111292 -0.0790789713598596677 -1.2574685756576911)
(-0.102122253379411276 -0.117330150227733451 -1.28704008504861211)
(-0.0432705370068716191 0.5700615998053149 -1.55624780981518351)
(-0.171222509470351419 0.290516525052083974 -1.45867065739058255)
(0.0066950128941305918 0.247889226460864698 -1.50207950647151134)
(-0.125213768209264747 0.309975992630141972 -1.47442140947752409)
(-0.0670525607536218704 1.04045264370886148 -1.51984990419744892)
(-0.0826694411472199409 0.866043075825136066 -1.58785447344856623)
(0.00767391705043993927 0.786337290187217208 -1.6277146294113336)
(-0.0483347959840831412 0.943074691144850319 -1.59539651728871834)
(-0.0577960154044069654 1.29390949405146038 -1.42277887929352542)
(-0.119345703361329339 1.22813615261830078 -1.42792856500531018)
(-0.115523026563167625 1.14154994689259226 -1.43113098685608175)
(-0.0698260202937023566 1.27491413810190535 -1.37143285215720168)
(-0.0490803073178962337 1.40894156656233571 -1.43059547545716215)
(-0.043974187797523101 1.39300749185136308 -1.41451073685430107)
(-0.122228070752787396 1.35170159617536667 -1.43266161684224347)
(0.051190382897348799 1.3917026674622679 -1.39068488449369876)
(-0.113810582159277848 1.45267177459613972 -1.26868419765183793)
(-0.0411765016313116183 1.47506328787719987 -1.39180889474478908)
(-0.146144759255615181 1.45361023430239666 -1.44221410820581686)
(0.121198536488540454 1.46663294591464255 -1.42335829933046898)
(-0.0913093201513399955 1.24548279842077836 -0.551500501195833159)
(-0.317268456036136182 1.48076930770735271 -1.04829160834933832)
(-0.410073017251908145 1.4387218506509194 -1.15290364012570645)
(-0.212571973399508563 1.47256529099276356 -1.07965359634541413)
(-0.0728197023669319154 1.12119812796768925 0.30215398063933957)
(0.312999538543269562 1.04575551623560337 0.0310238526078776868)
(0.0633639193531179146 1.09094342530197985 -0.155684418767433191)
(0.341760298199704105 1.18759033598120656 -0.104606069887030598)
(-0.0871160464148663938 1.51832444180512871 0.594707422625944337)
(-0.548500496450168851 1.18603874114329511 0.613566452851518784)
(-0.553957913419871217 1.28135953972614924 0.657768614977669919)
(-0.537129457125999354 1.14279822354832672 0.567856619114072703)
(0.483049441890979925 1.8047776471437631 0.575358613559011633)
(0.453998843102668637 1.82108043046471568 0.579321034444723826)
(0.49668004068330357 1.84360334440162554 0.56055513351575359)
(0.251341054108354112 0.433307986437778681 0.0125440036279214767)
(0.148176780648782397 0.449281053818222309 0.000922093633314483019)
(0.392532873779301572 0.377912301326472244 0.137952989981337537)
(0.385422596632458259 0.460084061285666091 0.0633546809296908209)
(-0.0535451572686073823 0.505085192466890986 -0.162697475948065357)
(-0.158765158140408424 0.536483679367464328 -0.179429187770949933)
(0.114331846911283147 0.447659685710360855 -0.0289560668967005566)
(0.135089829983251475 0.530246314544603026 -0.105926458146750821)
(-0.385131993760729152 0.542454733453481719 -0.333970158796066618)
(-0.498931703226107637 0.604891342922007191 -0.365217147232483219)
(-0.227733820834028933 0.519054182265434094 -0.203382434553977337)
(-0.167467496839046576 0.595211404602186356 -0.297507109887958143)
(-0.62973450163502942 0.404952852792442308 -0.504618572243693775)
(-0.752001912982564025 0.511801580117394073 -0.539078478869617905)
(-0.54946916577959759 0.509646918161929308 -0.342428821548794504)
(-0.530360671595996092 0.581574589193237124 -0.51387405278598941)
(-0.63807313309691327 0.0204993092123410825 -0.67934532588387242)
(-0.818132436361535875 0.146509075978774217 -0.724511191954425815)
(-0.665851901563443316 0.270063003592920126 -0.490219462004110929)
(-0.741184366786073578 0.228265143291536909 -0.747178439825019858)
(-0.535800768868266553 -0.344980710118157008 -0.831752577253969227)
(-0.735714083259603857 -0.308189831066241648 -0.855070388257548109)
(-0.524968356900149979 -0.140218397949754076 -0.639063986554904484)
(-0.671402239169702209 -0.319274048594999638 -0.9075899048469106)
(-0.478297385261336694 -0.471936274583895754 -0.950607875066140973)
(-0.660281423247113808 -0.541332284326565105 -0.937723375006305648)
(-0.385924188451698846 -0.350568773789683652 -0.758213586375107385)
(-0.599883597353292441 -0.583468908024120214 -0.995786415503505107)
(-0.420514576248619654 -0.416326612711896193 -1.06091865585964951)
(-0.594028106017640223 -0.547952174466390662 -1.01342221823852885)
(-0.31327335748217755 -0.36802583665640981 -0.884484226741534707)
(-0.53290565191302397 -0.582776997095471039 -1.07331033305574297)
(-0.352259539819374468 -0.237785312390491027 -1.17140071143239122)
(-0.510999608158966279 -0.402468102701712405 -1.1094379595788566)
(-0.250388315431648467 -0.255312818764195593 -1.04963157168986077)
(-0.433402003236136313 -0.402277898614356699 -1.1651076975683774)
(-0.273079627444158923 0.0701286025857974227 -1.32225067189631074)
(-0.436492467036515341 -0.138788317360116764 -1.20189642985755096)
(-0.199273961100887159 -0.0578418730624986194 -1.2875127928322827)
(-0.334124980680891026 -0.114815491676091758 -1.25617154127637565)
(-0.18929685919118952 0.553855694054269598 -1.49027732102396238)
(-0.353074896405648764 0.281159943976290627 -1.33334740072133262)
(-0.19352691351188267 0.246878101364696123 -1.46746133000926249)
(-0.278876818371806834 0.327274342494715986 -1.40239467179223309)
(-0.131587380664871051 1.02223461303730878 -1.49593313425642749)
(-0.215833449639299513 0.848274814088589513 -1.44687845074181154)
(-0.0900556154982675855 0.767928917437342817 -1.56434859093316136)
(-0.157226624025089662 0.94448819607902601 -1.54217548731402254)
(-0.112977262511359255 1.29357245302107926 -1.41966042256608538)
(-0.174788514262347261 1.2402654961681967 -1.38290489346330636)
(-0.142867833188085214 1.13759338369033536 -1.43326950305775425)
(-0.113715981345744732 1.25028875614433765 -1.39039863156247678)
(-0.101394510201300983 1.43496868737913963 -1.37572415614192756)
(-0.0875969638701480924 1.41237873864966024 -1.3769375995419515)
(-0.157869770065255544 1.35928327819125716 -1.43605761410786137)
(0.0181289094357806463 1.39140150687740771 -1.3857311737544642)
(-0.129183568462062998 1.48346434582083853 -1.17141630544229303)
(-0.103344934324366061 1.50085427470585508 -1.28816923281642737)
(-0.204157000116375997 1.48296942680985366 -1.36016646420119458)
(0.0630178257691222099 1.50931157844150876 -1.33637382194263821)
(-0.0437456645883363832 1.27447128783823471 -0.465767254545613962)
(-0.292167924277388746 1.48111955703332709 -0.910172703544274042)
(-0.399226006454805993 1.46457567751113449 -1.05599698873081516)
(-0.210014881680223947 1.4947802064885769 -0.969860649569679767)
(-0.00536276851436587321 1.12248812468461057 0.342436324820063476)
(0.395457715583530434 1.04195703525400551 0.0892922880947485675)
(0.136288159016636462 1.11111566421418106 -0.106949328985174008)
(0.378978367977362507 1.21038817229541285 -0.0761685284122281814)
(-0.0966235475434877311 1.47731490195714321 0.594217643784585747)
(-0.545744656810781326 1.1767935020230782 0.622578502180366811)
(-0.548874094582933236 1.23156506601241023 0.678130221417145962)
(-0.538447264625703248 1.13149495904733399 0.568380724480116117)
(0.484720910968800989 1.74681541670199714 0.565917678523069623)
(0.456431245260974949 1.766167138319789 0.570042750969164458)
(0.499434170108213504 1.78825537717451621 0.550741879599172535)
(0.343142348288044685 0.37704540885237825 0.159594254987456996)
(0.474258636529759359 0.337413518513718369 0.278082646705290593)
(0.419577657041404872 0.389161448155589063 0.183277208497879485)
(0.289479206617518303 0.389863385205428126 0.164303910061723069)
(0.0665782282690089572 0.451982505074735696 -0.00754546544408744857)
(0.21478244764325416 0.390897041540351986 0.127652003668582065)
(0.190692138195817457 0.446990943413818065 0.0348113864646714538)
(0.00202422785991786258 0.465369198004961904 0.00104534216896935684)
(-0.268901066078392592 0.568217037583813145 -0.191051097765555067)
(-0.101315526195731281 0.493638321091226018 -0.0471367873797221004)
(-0.0686535804750526835 0.544314711179028854 -0.132600987653761715)
(-0.31762287434971781 0.574291094277011749 -0.182748768981898901)
(-0.627386736606283746 0.671394101416432965 -0.381948859055366741)
(-0.465487080597754788 0.623729938116264093 -0.230570350509961358)
(-0.380628339955487172 0.676376550531212706 -0.32486709477327802)
(-0.638079649616161482 0.668581286972571354 -0.377825024154151923)
(-0.898569249862591901 0.612487112933711608 -0.570325467306032508)
(-0.837484241690511944 0.680451202409647737 -0.403376059189808345)
(-0.742710690668729523 0.750997653822900069 -0.54873506552749407)
(-0.936303921418328411 0.667804592449201762 -0.566360020320597846)
(-0.966658614537493355 0.272169979699671716 -0.758971098580354608)
(-0.99202823870465684 0.479542965132507881 -0.560452770193051841)
(-0.962580746850781988 0.555333849964650073 -0.783020810145216961)
(-1.05855346227780145 0.434561582424079496 -0.742568618478661069)
(-0.898698170420756171 -0.197324579242809578 -0.90023625432810328)
(-0.913467716019584208 0.0187519020305236782 -0.727560358431834975)
(-0.962439653575494991 0.0252828617309295844 -0.992853706484566723)
(-1.00955144398490315 -0.0201177136333014067 -0.901742587225280223)
(-0.833944065967282544 -0.52612241784161462 -0.961041186009886861)
(-0.792565749427252109 -0.405229923033521233 -0.833714000665686461)
(-0.926487798688586661 -0.503149482222165711 -1.05347631702483935)
(-0.948459245495069547 -0.450446467457976174 -0.957876400944308815)
(-0.769997944509602239 -0.625308208712379576 -1.00053771817869452)
(-0.706702136652545665 -0.547968451243003751 -0.897211418499955005)
(-0.837980581841573757 -0.711355900726488688 -1.04417741371817918)
(-0.869772389928770484 -0.646787511845871799 -0.978467510391839657)
(-0.689972018979526647 -0.534803119316249687 -1.0619415219577355)
(-0.641387245849424859 -0.529162873209204299 -0.961978335299231269)
(-0.759813246120276675 -0.683484910300154902 -1.07217890357660095)
(-0.786695142528438973 -0.643066826700098071 -1.01265760848204178)
(-0.604414046459318066 -0.30608263419797066 -1.13993367800401546)