/*--------------------------------*- C++ -*----------------------------------*\
| =========                 |                                                 |
| \\      /  F ield         | OpenFOAM: The Open Source CFD Toolbox           |
|  \\    /   O peration     | Version:  2206                                  |
|   \\  /    A nd           | Website:  www.openfoam.com                      |
|    \\/     M anipulation  |                                                 |
\*---------------------------------------------------------------------------*/
FoamFile
{
    version     2.0;
    format      ascii;
    arch        "LSB;label=32;scalar=64";
    class       surfaceScalarField;
    location    "0.119999999999999996";
    object      alphaPhi0.water;
}
// * * * * * * * * * * * * * * * * * * * * * * * * * * * * * * * * * * * * * //

dimensions      [0 3 -1 0 0 0 0];

oriented        oriented;

internalField   nonuniform List<scalar> 
20536
(
1.04049381537293952e-05
2.50638358323205622e-06
-3.7329650473462527e-06
2.99546914559673867e-06
3.19571433108851037e-05
-4.18999905253871827e-05
3.61662854596717822e-05
2.9606333205641756e-05
3.38598768282853063e-06
-7.20213335485923521e-07
-3.66426355093656743e-07
4.11722033752987408e-07
2.03187078377572063e-05
-1.86579806103444016e-05
1.64697869304829935e-05
1.45315060528014889e-05
6.23279410949974052e-06
-0.00011228111840459367
-2.30203706907581183e-05
1.67819508593028492e-05
3.14337013622695521e-06
-2.06172909797705581e-05
-2.61350363400178078e-06
3.52723069893747325e-06
1.28013837012467403e-06
-4.44226929085850601e-06
1.81792466975616162e-07
7.201736163509733e-07
1.02311104169527484e-06
-7.06294092106999612e-07
3.78463958836857726e-07
-5.05179547032309833e-07
1.23741984660788852e-05
-9.57378936427984919e-06
7.21415090377474524e-06
1.0318330022640909e-05
1.37307865786754767e-05
-2.23414817668201342e-05
-6.6329261203156167e-06
5.80505898015134232e-06
2.41493786898112133e-06
-5.15370177898367861e-06
-1.78763304016032734e-07
5.16317300438431036e-07
1.92067823604754261e-06
-9.11992647303793153e-07
-2.73158954288798646e-07
2.60149287648915823e-07
1.31554681527448043e-06
9.67060129283004742e-08
7.43247930468265168e-07
-3.2202625748329869e-07
5.79171695877415493e-06
-2.79057150106262525e-06
2.0758983580758163e-06
9.08520721871757284e-06
6.17251820306363404e-06
-1.28081732366905505e-07
6.90952490001964332e-07
8.25442499063348189e-07
6.76628105886941963e-07
-2.05980015729413764e-07
5.12861199299146159e-07
-3.43097493898146416e-07
1.23678931418863874e-07
-1.66712599845608999e-07
3.5054521795277343e-08
-4.52622368694623079e-08
-2.97759459505830643e-07
1.14767451608269083e-07
8.14050473011020304e-07
-8.64432555002409566e-08
2.44182898887993147e-06
-2.26044146991396884e-07
-4.09925696351140258e-08
3.88810040206565063e-06
2.95566843757110042e-09
-1.06410624386476886e-07
2.34198560221826292e-08
-4.55195087571201686e-09
-9.00325731110363537e-08
-1.38547607484207795e-07
4.79387886000819625e-08
-1.26772799939648289e-08
-1.07340864214217813e-07
-1.12122836090779477e-07
1.27569580634573786e-08
-9.74885344233572222e-09
-9.01628111528506827e-08
4.7509118390984873e-09
8.14129773377819333e-07
-6.95359631099722657e-08
1.30898514233605585e-06
3.77827882304591442e-07
-2.76589626234876661e-07
4.54904347757301317e-07
-6.10871078914626583e-08
-5.63874273122165704e-08
-7.11725703274416806e-09
1.44634085422069016e-09
-1.41993577480748314e-07
-9.18094414998408622e-08
3.09679744288125154e-08
-5.10513265526932842e-09
-2.06338792890328129e-07
-1.30080427969569337e-07
8.05614428569404314e-08
-2.19280077999060145e-08
-2.84602890298902464e-07
-5.5935806158655961e-09
3.17615445522708216e-07
-1.27256188426632845e-07
9.93739436962427444e-07
-2.24011296194596947e-07
-3.73392428472503357e-07
-7.46911385935828474e-07
-4.82697970419600133e-08
-2.76942012311527081e-08
-1.14262301873725187e-08
2.25977947197189988e-09
-9.58199437959730323e-08
-6.03709855512439105e-08
-2.54653663808927476e-08
5.42877684185345732e-09
-1.05527307743637268e-07
-8.55098564273220965e-08
-4.74262612813314166e-08
6.98606677876062348e-09
-5.12036922470896561e-07
3.62316778435672154e-08
-1.52687245278488377e-07
-6.76434515187414169e-09
6.903180948220284e-07
-4.26552220890881379e-07
1.34990052106841715e-08
-1.02106882661484602e-06
-3.46880848258628407e-08
-9.24847232422644213e-09
-2.5635087684090257e-09
9.08889781245984539e-10
-8.69894647310730528e-08
-2.45882692147064587e-08
-1.70729640270597895e-08
6.9175621171607077e-09
-1.40786474952262709e-07
-4.18818988736224411e-08
-5.631078247710806e-08
2.00917308577986323e-08
-5.16066726559945447e-07
1.62761700659252832e-08
-1.66452469272932301e-07
3.99705288822201545e-08
2.82859959132284302e-07
-4.46832653844579702e-07
1.03853834827930638e-07
-9.44136703863280138e-07
-1.17855872458713616e-08
-1.6924831988029488e-09
-7.9430976927014249e-10
3.80678874328561187e-10
-3.42490257987883354e-08
-5.16368059192308412e-09
-4.31837501035919701e-09
2.09580681577803823e-09
-7.05833545187578156e-08
-1.05846125110396111e-08
-2.02560032756409063e-08
8.92328709511883906e-09
-2.70264339662159962e-07
1.84253351244063752e-09
-6.07434794507896844e-08
2.58209223042102303e-08
2.21916199455868176e-08
-2.14152758922752128e-07
1.01190955783344121e-07
-4.36517161672070687e-07
-2.05306626585454213e-09
-1.40889047488711014e-10
-1.16824590907807009e-10
5.77369920773157393e-11
-6.69534107608508363e-09
-5.23492021765067482e-10
-7.2686793112279188e-10
3.41423493374285542e-10
-1.56134189359764854e-08
-1.29700342470228759e-09
-3.55986770048841885e-09
1.52640889010746929e-09
-6.62902517573312356e-08
-5.78283867431582113e-12
-1.35119199770645115e-08
4.99048860591731734e-09
-2.46270335219249104e-09
-4.67288727517219082e-08
2.17983735785689723e-08
-1.10987945401257718e-07
-1.65198016552551273e-10
-4.30500655737600959e-12
-7.6759107387672744e-12
3.49291603942099708e-12
-6.34116255483552667e-10
-2.15436210994290455e-11
-5.39255266592357648e-11
2.30164712879758089e-11
-1.71991219386185476e-09
-7.36151864969799089e-11
-2.85546680492617599e-10
1.17291595088163145e-10
-7.32412551237073114e-09
-8.88998559327857386e-11
-1.30937794997523778e-09
3.72574979387262696e-10
-5.8706759289006415e-10
-5.28877275246156685e-09
1.84501574961492095e-09
-1.63197147255801402e-08
-1.01298763209232099e-13
-3.52838268132263828e-16
2.14852488009848718e-16
-7.59589440157773188e-13
-3.98016078829432202e-15
5.67394648603246398e-15
-4.72318361293591746e-12
-3.54758802475628419e-14
-1.57942864691811749e-13
6.77985585247539784e-14
-2.42618184251200196e-11
-2.69495464797855355e-13
-1.3683176412572555e-12
5.80759047592563426e-13
-8.86687331572967958e-11
-1.55022079042126455e-12
-8.78485746267643659e-12
3.83144173064528056e-12
-3.29693300575153304e-10
-6.58147720243541071e-12
-5.0128335993160801e-11
1.15437402021531273e-11
-2.23588143126852588e-11
-2.83468567623870124e-10
7.66580940768319168e-11
-1.24112457033224251e-09
-3.21541792756560313e-16
-7.38694035157283402e-20
6.51153032055574521e-19
-3.94562716214719567e-15
-1.86648162668263103e-18
2.04309037322150297e-17
-3.60953548866506991e-14
-3.24165533959077737e-17
-9.8702210908291491e-16
3.40110506782161944e-16
-2.81822067519559436e-13
-4.56283432022135244e-16
-1.19955216193455999e-14
4.13576187927453475e-15
-1.64723891730695105e-12
-5.06539927842333049e-15
-1.07752132174189919e-13
4.01629525711140415e-14
-8.78186876984443338e-12
-4.19834970386639817e-14
-6.55062548383689886e-13
2.27942443531564979e-13
-2.70693294574533184e-13
-5.97531633464489356e-12
1.33627638182726642e-12
-4.44158938806526186e-11
-6.91807185562143836e-20
-3.85397114322053402e-25
1.03412746855630021e-22
-1.75231427755953123e-18
-2.23271242373730895e-23
4.67860801023095538e-21
-3.11213669483326959e-17
-1.20529077365380206e-21
-6.06419426084720239e-19
1.47111211972406087e-19
-4.45116656661026739e-16
-5.77252785564177051e-20
-1.26040442587996745e-17
3.32043877685732382e-18
-4.889351771119972e-15
-2.10419344633926152e-18
-1.90485627635542291e-16
5.70265850682849688e-17
-6.60844280506237843e-14
-6.41318421017258792e-17
-2.33099119227220795e-15
6.75313274822260196e-16
-2.85284834528616216e-15
-3.64677156032333477e-14
8.20574264776702055e-15
-5.51128664575985271e-13
-3.56505210268536537e-25
3.27136119293831726e-28
-2.05398513016651586e-23
2.81606522230207684e-26
-1.12104563326640513e-21
-1.12031405375679046e-23
1.98344825573253541e-24
-5.36314695627095819e-20
-6.63590884440367382e-22
1.2234082246405859e-22
-1.94878163986919019e-18
-2.97271377948331894e-20
6.4603098490906703e-21
-6.50734333469806402e-17
-1.21914459820439369e-18
2.65962455072885623e-19
-6.47346355340419437e-17
1.53245637943382042e-17
-2.8684757719815188e-15
1.52434013243417055e-05
8.46569339570172103e-06
-8.44181387182146974e-06
3.37137016635931478e-05
-5.66733775116804966e-05
3.46875329810388284e-05
5.23142842280405405e-06
4.23928434202495906e-06
-3.32945669236508695e-06
1.72279967821681407e-05
-2.13062902350243504e-05
1.60144357457936749e-05
3.82624376472596212e-06
-0.000125440408950470945
-2.52986344792288342e-05
1.77383680374713436e-06
-1.5745042428444695e-05
-5.40300641645224869e-08
-2.86131198095903916e-07
-4.1443658230904757e-06
1.50494471713334425e-06
2.25073807940103671e-06
1.36595314797347348e-06
-5.05097816348519073e-07
1.3878697479586653e-05
-1.59103310779353123e-05
9.89002298208084496e-06
1.27505125373233195e-05
-3.09360859551532225e-05
-1.53230324735596034e-05
4.98862436139311619e-06
-7.54205042482164559e-06
-3.70228511581093771e-07
1.41750427502534146e-06
-1.70369316770542003e-06
8.82370124327812503e-07
9.18851548900723616e-07
9.53703998839590672e-07
1.08802250806191781e-06
9.63428549770484453e-06
-7.12637605560285975e-06
8.46666084631447562e-06
3.47983343082358078e-06
-3.2752528084830069e-07
7.14984908447733917e-07
2.14130860257479466e-06
-3.6458290046319741e-07
-2.82796224015952415e-07
5.32283814285391781e-07
-1.30732563257574924e-07
2.46552566650143829e-07
-4.62738301520688468e-07
1.76042186444067717e-06
9.61595660669582047e-07
7.56729163859484488e-06
-3.5829887685074593e-06
4.68801645410419905e-06
-5.3326338076269314e-08
-2.46462667195018892e-07
4.11220546837707744e-08
-1.19117454980111008e-07
-1.46383474352270197e-07
1.15890859972205021e-07
-3.85461621108698642e-07
8.00624500957500043e-08
1.77619463425802704e-07
-9.867975415753881e-07
1.93836428329172246e-06
8.03500281941186564e-07
5.50976966050052682e-06
-2.0901260059960378e-06
1.22863200633783087e-06
-2.21619281998839708e-07
-9.40328796298674806e-08
-4.29279671874158781e-08
-3.06981138088760012e-07
-1.15928050015547369e-07
3.91325072426966268e-08
-7.35929582771275239e-07
5.28762922896887655e-08
1.11153920813737741e-07
-9.33819512989212837e-07
1.07562911785585985e-06
-6.34623695481022266e-08
2.58767093986479136e-06
-1.48072664650273624e-06
-7.13722817556219659e-07
-1.17867381533048115e-07
-4.69287421052066934e-08
-1.27912245774795982e-08
-2.39245933405643382e-07
-8.36576041141685666e-08
-2.10958548607704739e-08
-3.17687110036584021e-07
-1.74043529836287969e-08
-5.49926247765250189e-08
-9.33064171187449193e-07
3.18400054239101602e-07
-3.09476780760873294e-07
7.07359105158081956e-07
-1.1549277637958825e-06
-1.40315904759814519e-06
-7.00598651822679576e-08
-1.63562281773440633e-08
-1.2382573460693219e-09
-1.67761304536314111e-07
-4.00852408426190735e-08
-1.18523257537787211e-08
-2.33085669887835521e-07
-4.17585333217556727e-08
-4.48511968443357283e-08
-6.71298774108829158e-07
5.18845526527124062e-08
-1.72443322287652555e-07
1.61249411480343198e-07
-6.20790205271638058e-07
-1.25189026065581363e-06
-2.25470523509088822e-08
-3.29462711717807357e-09
-6.86921874030646396e-10
-6.66047492628413075e-08
-9.4283546372029384e-09
-2.83156279845073885e-09
-1.31295048872826028e-07
-1.47131281654460605e-08
-1.32074898684599931e-08
-3.32492238654278054e-07
5.65906605278520228e-09
-5.11499255087808589e-08
4.68322631725755249e-09
-2.01347966131478036e-07
-6.25589929009100085e-07
-4.28023153478473754e-09
-3.22159212688888047e-10
-1.10051575990355839e-10
-1.37068818597941323e-08
-1.11512501006387939e-09
-5.42052946436111681e-10
-3.12801985209116866e-08
-2.32145655642870431e-09
-2.29259603756463662e-09
-9.38034353254752945e-08
-2.03287885073657865e-10
-9.36807556398654056e-09
-7.29488466073332251e-09
-4.12693658484822581e-08
-1.89036966371993375e-07
-3.89274063418838421e-10
-1.11793061523542083e-11
-7.72398131380518511e-12
-1.44961641569234486e-09
-5.32474898642664297e-11
-4.81756214228782465e-11
-3.76289860842524014e-09
-1.5627097160542801e-10
-2.29520585449925476e-10
-1.26490792076470086e-08
-1.18137032000606825e-11
-1.09151045443352909e-09
-1.54176831206683387e-09
-4.89203709874471154e-09
-3.15760951144648741e-08
-1.24916711350433843e-11
-1.16366883379076417e-13
-1.90002645559632487e-13
-6.24031649951429349e-11
-8.50519832395639088e-13
-1.55880896202902717e-12
-2.17189934376454474e-10
-3.41442112747344709e-12
-7.53400806877196312e-12
-6.97273325263439073e-10
-1.66060781637338615e-11
-5.80074711534527335e-11
-8.34248647427650195e-11
-3.31685647790440398e-10
-2.75747131614842174e-09
-1.2090515793342977e-13
-1.3965546443296746e-16
-1.31738431987262749e-15
-9.13801880333838381e-13
-1.86717856323231926e-15
-1.54903422430047179e-14
-4.24968122094120166e-12
-1.6743026933238248e-14
-1.15753343264239294e-13
-2.03690199959777563e-11
-1.75783657477392847e-13
-1.07943957236660373e-12
-2.86123100066766732e-13
-1.01188798283638189e-11
-1.20140336847287821e-10
-1.36019398307189767e-16
-7.17012134002402346e-21
-1.23689577168404283e-18
-1.85718295375666784e-15
-3.11343034650112429e-19
-2.44491660278183837e-17
-1.80125623044519868e-14
-9.55788182072152176e-18
-3.28461031143259851e-16
-3.06090668134096627e-13
-2.98538640678030498e-16
-4.45024661588876768e-15
-1.23010946090021545e-14
-8.09273281351959699e-14
-2.07827596183384132e-12
-6.69395075467545716e-21
-2.46616742848888284e-23
-2.92438631008044627e-19
-1.31969374523159225e-21
-9.60877915394207213e-18
-5.35868137733544404e-20
-3.07067418794346555e-16
-2.1465225095273369e-18
-1.22721783199345136e-16
-1.25477712652866205e-14
1.67641063890984832e-05
1.49739603275215418e-05
-1.39325997539683514e-05
3.37344591840292325e-05
-6.43594378447160347e-05
3.68103713255238179e-05
7.79519495595007614e-06
9.23844893491032768e-06
-7.61761118724067483e-06
1.16976628813427732e-05
-2.71319692992293699e-05
1.77903124410041101e-05
-1.24780618376759547e-06
-7.6225168185219667e-05
-1.02660637491667591e-05
-2.8867286593214936e-06
-1.26331267295227971e-07
7.17501496547129749e-07
-1.56275105450565156e-06
7.687567036998216e-07
3.77678287005184964e-07
5.86261350672239043e-06
4.24204869068595483e-06
-4.41969958658701182e-06
1.20649289087197262e-05
-2.39841606358531293e-05
9.01678916669880609e-06
-9.41492379510508871e-07
-3.57900480467599855e-05
-1.42474135689002387e-05
-9.42733469160871524e-07
-3.67238178606928918e-07
1.88517620074291293e-07
-6.48645676768402256e-07
6.93123885377329686e-07
2.53659974041970821e-07
2.11151607457374126e-06
2.45262009694120234e-06
-1.02099567312589104e-06
1.1594528982490477e-05
-1.44097287973686275e-05
7.49082053376498529e-06
-8.11307537809968363e-07
-2.2066757384688203e-06
-4.28386063313204862e-06
-7.58806549266331278e-07
4.8694150694206544e-07
-4.68552117420184034e-07
-5.31502573504574381e-07
7.87254267943041252e-07
1.03468855442658788e-08
-2.08437764868234414e-07
3.03540464211355778e-06
-3.2887864236584175e-07
9.36294399172742912e-06
-9.15751330753505132e-06
5.39844880783761433e-06
-2.42518400190040023e-06
-3.42519461610058304e-07
-4.46921067179291001e-08
-3.70315102632575657e-07
1.51619271563918941e-07
-8.33318588930913786e-08
-2.27832434287348924e-07
7.65441868317317657e-07
2.32147857398490845e-08
-6.89438357934728949e-07
3.54136536321739558e-06
-5.37790733338000145e-07
6.23993564301184065e-06
-5.5654642537637723e-06
2.29480879417083126e-06
-4.95094130668153798e-07
-1.17513721101571807e-07
4.03014806664673726e-08
-1.33994521732570883e-07
1.00326812367358393e-08
2.5287707716487942e-07
-9.25265908804301676e-07
3.54420441620942362e-07
1.11357433263910973e-07
-9.56822529056678551e-07
1.84070483045760527e-06
-7.5359916371280216e-07
1.34656256111026842e-06
-2.90133560702057629e-06
-3.15053769989216499e-07
-1.98705672420636595e-07
-6.03131593566070646e-08
2.16278387511468074e-08
-3.38931159937289973e-07
-7.24589128579233017e-08
8.60421102123196203e-08
-5.96975835899364517e-07
4.67333077524244898e-08
9.30415579419688778e-08
-8.05940039706773038e-07
3.23099282320847892e-07
-2.25128383177281682e-07
4.62149712929158727e-07
-1.400459766033866e-06
-1.25020910870321429e-06
-9.56038110036700246e-08
-1.87890756881428652e-08
2.88326772539390238e-09
-2.10375675768664337e-07
-4.29929572931925827e-08
1.48708429401480523e-08
-3.29882340517097631e-07
-3.71556227229834739e-08
3.47923401402193832e-08
-5.62102875733627237e-07
6.31713585345353403e-08
-4.43718640299163483e-08
1.14359505744229542e-07
-4.72514825353600382e-07
-1.19447485888031776e-06
-2.69113369490284227e-08
-3.88447289416215258e-09
-2.46553400107934535e-11
-7.72208473484077738e-08
-1.07739336952415655e-08
1.71258492110170789e-09
-1.56555198901099343e-07
-1.62378709849697988e-08
5.90256578629180544e-09
-2.67456609203963861e-07
4.47078495432714812e-09
-2.82752813302127326e-09
1.90675550271158568e-09
-9.99697702312009655e-08
-6.29736344762525634e-07
-5.09242317380561474e-09
-4.04050079104760993e-10
-5.3191404679254891e-11
-1.63274306294104591e-08
-1.35949272559199152e-09
-2.99481423838333925e-11
-3.78559999759798976e-08
-2.75309894588457298e-09
5.4527082702337681e-10
-8.73114899191823076e-08
-3.18411812901897331e-10
5.97632131739306377e-10
-6.95749422687249685e-09
-1.02333057588269655e-08
-2.11151634860202542e-07
-4.97748382968183859e-10
-1.63577877696458754e-11
-3.84440598063610201e-12
-1.82386785999497096e-09
-7.49597900158755739e-11
-1.38007809584341309e-11
-4.71903561419036087e-09
-2.20818574233486653e-10
-2.75244851924669502e-11
-1.43129004964255907e-08
-4.4506707028048456e-11
-4.75794006356042916e-11
-1.92706218891415194e-09
-5.72617054686735479e-10
-3.87213635169423413e-08
-1.8570500265138187e-11
-1.94037327757170969e-13
-1.1051456960802438e-13
-8.97644273294785864e-11
-1.37291757586088457e-12
-7.27381517559112702e-13
-3.02113923804282832e-10
-6.21736766085400596e-12
-3.38360284120258145e-12
-8.86159366269159274e-10
-1.91525682710529301e-11
-1.90715487755379759e-11
-1.29220104277828645e-10
-1.01127270647185004e-10
-3.77460020606786676e-09
-2.0389781156603773e-13
-3.5290998171237687e-16
-8.96531095504949664e-16
-1.49374647109985347e-12
-4.56434872407455447e-15
-9.25684405141125324e-15
-7.19209980776881923e-12
-4.2207283720671233e-14
-6.6933452085612886e-14
-2.64153713329684509e-11
-3.66172379556881501e-13
-5.44119276596281467e-13
-1.38721515579267136e-12
-5.18439417155257321e-12
-1.83136012870170584e-10
-3.45483304837411519e-16
-1.80002153990331036e-20
-1.0167002101761206e-18
-4.58284729091360467e-15
-7.32305200562984056e-19
-1.86114426175074581e-17
-4.3361921750474068e-14
-2.18655755830696763e-17
-2.38905493154431507e-16
-5.3698585493310014e-13
-6.59446116095002249e-16
-3.12002655585707229e-15
-2.11060101997079195e-14
-5.90987363789168488e-14
-3.82869821161709113e-12
-1.68356381709363565e-20
-2.46213999274774814e-23
-6.95003600121317423e-19
-1.20341940242712915e-21
-2.20565061902383955e-17
-4.58444169021242782e-20
-6.81507715185658633e-16
-1.76026664048984558e-18
-9.12172898524779827e-17
-2.17738165413544638e-14
1.62499223818759157e-05
2.18130121754017587e-05
-1.93911673461562444e-05
3.57048085041295811e-05
-5.35768299828076508e-05
3.34916461180891886e-05
1.07093370315958185e-05
1.27825110243801681e-05
-1.24665677153010974e-05
2.4230008260533635e-05
-3.50048588539486995e-05
1.98802736041347397e-05
-1.04836196145370469e-06
-5.24254986652058217e-05
-2.54898762009196581e-06
-1.81208626397170775e-06
3.96253069597544243e-07
4.38884133646557699e-07
-1.47068763377312751e-07
1.71249426439310446e-06
-7.579006004842853e-07
6.68169897290582296e-06
5.36299351526844891e-06
-6.07996466853428167e-06
1.97106692664862817e-05
-2.77484358642675089e-05
9.07753284596537398e-06
-1.34988345251851619e-06
-3.20604839643186341e-05
-4.73417600967641175e-06
-1.41007964234967797e-06
1.96632531773790674e-07
4.89089222991916746e-07
-3.51410354771053147e-07
7.91191269237237971e-07
-2.94904467494763722e-08
2.79658147680889293e-06
2.0956068698284153e-06
-1.73531246501188211e-06
1.38776216001508323e-05
-1.72705599758516235e-05
8.52986862782487464e-06
-1.87273360694275404e-06
-3.74500967383335673e-06
-5.92173592465737112e-06
-5.77062740969425708e-07
4.72294222563919826e-07
-1.23993053191485189e-07
-1.57310649474230423e-07
4.98923384297814366e-07
-6.23277085324155426e-08
7.75878225026183433e-07
1.61228455297162565e-06
-5.56499184684691981e-07
9.35898748496886213e-06
-1.11706730467366208e-05
7.16282812528115788e-06
-2.8890105477875611e-06
-3.20599345087892008e-07
-1.48223916070678815e-07
-1.01932848000346955e-06
1.27086740016582379e-07
-3.91689156041055096e-07
-2.365688258927888e-07
3.59831223144160934e-07
-5.48941721392240087e-07
-4.24677231012130441e-07
1.99016506774283438e-06
-1.40996508124737271e-06
5.35424191946120736e-06
-7.51602929451170052e-06
3.77136152851264912e-06
-3.11446690713588009e-06
-2.199328117979131e-07
1.36960998435339489e-07
-1.43639524191942008e-06
-1.98808440640067935e-07
-3.89451897835092081e-08
-8.16695460252653513e-07
2.36812104668263563e-08
-2.29653426254561944e-07
-6.18523291752409185e-07
7.79876120658221601e-07
-9.0123391680486833e-07
2.10445779256953407e-06
-2.82683108644819402e-06
1.8545675710133792e-07
-3.42141803075894411e-07
-6.92592454716585974e-08
5.58916239566254357e-08
-4.57213654005118007e-07
-1.21531612632554968e-07
7.79926667725501192e-08
-3.98013851981344522e-07
-1.01572313703471452e-07
6.10841994952607732e-08
-4.49706470893868391e-07
1.96242236356082752e-07
-1.07404219628065878e-07
7.13004552903609124e-07
-1.03862644008008853e-06
-1.03363402537145933e-06
-9.63136498110245927e-08
-1.71018954580269512e-08
2.40442163828830618e-09
-2.17661372647650794e-07
-4.43852135837216996e-08
1.37456514086801612e-08
-3.39188914395192155e-07
-6.78200998687384011e-08
3.38072437055199478e-08
-4.83184360128913018e-07
3.369867868449416e-08
1.25022617904817178e-08
1.68565173576999366e-07
-2.5999160777110369e-07
-1.10551861993603444e-06
-2.29647594062814311e-08
-3.13704797810335647e-09
-6.88436527480786292e-11
-6.78641760932106236e-08
-9.26865224813602721e-09
7.43292296533656665e-10
-1.51791458474681373e-07
-1.82118497337392327e-08
8.17727784704403973e-09
-2.33336123754078534e-07
2.87044802533172418e-09
1.37085844215983115e-08
2.08439677391149715e-08
-1.25176234332278939e-08
-6.0660842058791677e-07
-4.05160690187027612e-09
-3.31560032954811126e-10
-2.33343756505573833e-11
-1.33263247627536756e-08
-1.13029824113785945e-09
1.0530240344947972e-10
-3.3815783157244874e-08
-2.56930288225209126e-09
1.16257368573060254e-09
-8.45194015588393732e-08
-3.06171187210580934e-11
3.68058174172237121e-09
-3.23074220108096069e-09
1.18780692308731609e-08
-2.09277399925877732e-07
-4.02696848025847228e-10
-1.39419338412704051e-11
-2.08133348393515809e-12
-1.49659052271295589e-09
-6.38395819822639686e-11
-4.9134914548130208e-13
-4.08325044284653925e-09
-1.99936653537516577e-10
7.42344170420004273e-11
-1.33008978936939969e-08
-7.67245036030788564e-12
3.72453373992061328e-10
-1.63255558585509224e-09
2.3156853706075395e-09
-3.87718608110713493e-08
-1.5866917160108614e-11
-1.87705871376817405e-13
-4.55464925806586762e-14
-7.55005155527186774e-11
-1.2944959113767536e-12
-1.60521887010809668e-13
-2.6626962195752552e-10
-6.80485982109129216e-12
1.88850385633057315e-13
-8.63327940045114514e-10
-1.54188372330101393e-11
7.05619818833957452e-12
-1.22985507257989753e-10
8.32729158983006029e-11
-3.97066807066486646e-09
-1.95045126344383444e-13
-4.07792712764273354e-16
-3.42165313168400171e-16
-1.39701791970906205e-12
-5.20665367819890398e-15
-2.73106137758125504e-15
-7.8174998789641521e-12
-5.59710028337958579e-14
-1.68965365542173605e-14
-2.64019772265295512e-11
-3.44286232577729629e-13
-6.97029455505234727e-14
-1.72309111111465576e-12
-4.62906348808620313e-13
-1.97756404097861686e-10
-3.9544258180502084e-16
-2.25814603733753571e-20
-3.99634620092229396e-19
-5.22165083713734507e-15
-9.13070175470936227e-19
-6.16455895325446193e-18
-5.78852684394037409e-14
-3.22661674067530709e-17
-8.35940988020577891e-17
-5.27863593509322036e-13
-7.9965060380486269e-16
-8.71104934526222066e-16
-2.05032377860071398e-14
-1.81189118363762724e-14
-3.82110586541370422e-12
-2.11152495777074342e-20
-1.25269127054964061e-23
-8.67951053149562004e-19
-5.29925598878716804e-22
-3.06716069332223672e-17
-2.02094566374590754e-20
-8.28696364950399976e-16
-6.48281333721786739e-19
-3.92843139074934054e-17
-2.13721885670738752e-14
1.45783443246838115e-05
2.61104986680647395e-05
-2.09519694624706791e-05
6.44677342163992582e-05
-4.66544641235084288e-05
3.32854248142147883e-05
1.23055549604516639e-05
1.24661222898986094e-05
-1.28969902845053156e-05
4.63456330054552471e-05
-3.28127194996326335e-05
2.07016735943445553e-05
-3.5897462280674253e-07
-4.74978097897583301e-05
6.68716866838952881e-06
-7.15992507918531246e-07
-1.04620368839613129e-07
1.60331808955968638e-07
4.20367758640138709e-07
1.66037310789000503e-07
-3.40033843565377736e-07
6.28842436344138652e-06
3.50092400392831947e-06
-3.97796095044834881e-06
3.38847281093680752e-05
-2.33823075865765405e-05
9.74512967562658612e-06
-4.40544132976232477e-07
-1.3689268873411622e-05
4.12758192552452648e-06
-2.69761073385607596e-07
-1.4792827780996284e-07
2.15595995079750854e-07
1.33450997988441429e-07
-1.48947416549719265e-07
-2.14389958331083959e-07
2.06202596685602619e-06
5.43967836642187563e-07
-7.79422324248597063e-07
2.08322458424300076e-05
-1.50326982405997921e-05
1.13458345077637889e-05
-4.04817415807756811e-07
-4.09195290434446797e-07
-1.75852177802036203e-06
4.3177841059694849e-08
-1.05341063109682939e-07
-4.04648661824688192e-07
1.53446970425237652e-07
-1.28130645822106336e-07
-1.98165580292546295e-07
4.14643615242852654e-07
3.29984863567406095e-07
-3.78063377315909467e-07
1.12715508805640718e-05
-9.77253272280675731e-06
8.40929212283306295e-06
-4.93449546235233817e-07
-2.29874368254687715e-07
-3.19498422787657766e-08
-6.54242619404690569e-07
-2.0625283039574039e-07
-8.27231890499034388e-08
-3.77574791014197676e-07
-3.10536735734738707e-07
-2.70603985304832233e-07
-5.98523109752031152e-07
1.41003166683473269e-07
-1.02200798619878432e-06
4.11679275976990447e-06
-5.95723301468559526e-06
4.18520581879702741e-06
-1.64232159112558217e-07
-9.79701616021273183e-08
8.93396698379651965e-09
-2.57016839201935013e-07
-1.66100664920803599e-07
-1.42186257736332669e-08
-4.27683479744272336e-07
-3.12699749335323327e-07
-1.20804027913989095e-07
-6.23337685515913092e-07
-1.58169786606928896e-07
-5.07090428526235088e-07
1.45279261134041478e-06
-1.84562286706260823e-06
1.5081614920997828e-07
-6.26708657815157486e-08
-2.65439353266779051e-08
6.55233720589535725e-09
-1.50331455455959828e-07
-7.08324013513642557e-08
7.08559163504705218e-09
-2.87096100622824925e-07
-1.6493964336073796e-07
-3.62796537842585843e-08
-5.24800841831335542e-07
-1.18560822746452882e-07
-1.42301827679894401e-07
4.29813290904158416e-07
-6.66664518016031521e-07
-1.04430940978673949e-06
-4.02528153246620712e-08
-9.06015639068041408e-09
-7.0536083163473291e-11
-1.00752097277577722e-07
-2.46349278573709696e-08
1.76391002132278407e-09
-2.32472242373446235e-07
-6.32064977013233816e-08
1.38990263269646948e-09
-4.47357113647016135e-07
-4.34622091794217741e-08
-1.71939723851736075e-08
1.41892676956080473e-07
-1.75152187439702554e-07
-9.6110268872869504e-07
-1.28151413288786235e-08
-1.78463299828632392e-09
-1.9016561423526626e-10
-3.76514309139888128e-08
-5.46213550620107334e-09
-2.8458837855872119e-10
-1.00497436801411802e-07
-1.38497528667539475e-08
1.54089647601487455e-09
-2.31310181236315462e-07
-5.52085245690003996e-09
7.07801737005199822e-09
2.83038422391019848e-08
8.93886338584759416e-09
-5.12626702688770512e-07
-2.35394500511854171e-09
-1.81000982607152334e-10
-1.93891678489490087e-11
-7.64240055323225226e-09
-6.27982695969160837e-10
2.14877721695096524e-11
-2.13232028920463195e-08
-1.66009347385896708e-09
5.41815875127684142e-10
-7.10596798834282748e-08
-3.54385940658038268e-10
2.32352747900757608e-09
-1.1517128351766571e-09
1.07471006037736005e-08
-1.57110802148108826e-07
-2.21259521363664988e-10
-7.49157208048577957e-12
-9.28823963647383661e-13
-8.03886446226489218e-10
-3.34094376087961442e-11
4.0231993462743358e-13
-2.39801134290714761e-09
-1.15746821230749768e-10
4.23909259206235351e-11
-8.76672732316801782e-09
-6.013570749309054e-11
1.92156020516590127e-10
-8.86466589966766105e-10
1.59157994475249356e-09
-2.67892030967561544e-08
-8.23673298218838762e-12
-9.80386794414337727e-14
-1.08520239728663127e-14
-3.95943684287279735e-11
-6.79050122557156514e-13
1.49667126527793196e-15
-1.50072747517822503e-10
-3.83670842251703121e-12
8.42587535004364224e-13
-5.20246633065094101e-10
-8.3088280257162733e-12
5.19021860619901719e-12
-6.39454264228394705e-11
6.1297486580682671e-11
-2.56393119947000907e-09
-1.01622518928310903e-13
-2.19286676347950508e-16
-7.0805804722397951e-17
-7.36220294341250299e-13
-2.89469575198659301e-15
-3.20555524201848131e-16
-4.37660102078800312e-12
-3.28117302073425204e-14
1.65892074042787619e-15
-1.67348629083445553e-11
-1.9170387532069013e-13
4.40488751676391078e-14
-8.70084527382490444e-13
6.46180191075919647e-13
-1.16167748643343253e-10
-2.13670848947640569e-16
-1.33314094957768724e-20
-8.52238938056769147e-20
-2.90022850724935568e-15
-5.63634102187750319e-19
-9.14043937349127015e-19
-3.38053643012130045e-14
-2.1273766644793555e-17
-8.11215494996517154e-18
-2.82024045683707909e-13
-5.09529892309904182e-16
-3.07883178223392629e-17
-1.02193960741783101e-14
1.87244254959659019e-16
-1.89384776209489352e-12
-1.24916752513649021e-20
-3.61213864564334958e-24
-5.3617725538317682e-19
-1.22787616001659709e-22
-2.02416679880777812e-17
-3.8688377197208669e-21
-5.28563954964403472e-16
-9.78917696498835929e-20
-5.49620844262070963e-18