/*--------------------------------*- C++ -*----------------------------------*\
| =========                 |                                                 |
| \\      /  F ield         | OpenFOAM: The Open Source CFD Toolbox           |
|  \\    /   O peration     | Version:  2206                                  |
|   \\  /    A nd           | Website:  www.openfoam.com                      |
|    \\/     M anipulation  |                                                 |
\*---------------------------------------------------------------------------*/
FoamFile
{
    version     2.0;
    format      ascii;
    arch        "LSB;label=32;scalar=64";
    class       volVectorField;
    location    "0.119999999999999996";
    object      faceForces;
}
// * * * * * * * * * * * * * * * * * * * * * * * * * * * * * * * * * * * * * //

dimensions      [1 1 -2 0 0 0 0];

internalField   uniform (0 0 0);

boundaryField
{
    inlet
    {
        type            calculated;
        value           nonuniform List<vector> 0();
    }
    outlet
    {
        type            calculated;
        value           nonuniform List<vector> 0();
    }
    top
    {
        type            calculated;
        value           uniform (0 0 0);
    }
    bottom
    {
        type            calculated;
        value           nonuniform List<vector> 0();
    }
    left
    {
        type            calculated;
        value           uniform (0 0 0);
    }
    symmetry
    {
        type            symmetryPlane;
    }
    interface
    {
        type            calculated;
        value           nonuniform List<vector> 
67
(
(3.18056669630060446e-08 1.48240380594807352e-07 -0.00349617556035747203)
(-6.08578536583523456e-08 -1.36049595913050683e-08 -0.00249639208651558728)
(-5.61468441183743264e-08 -1.21429517713905882e-08 -0.00255630600412225066)
(-4.06380695499865942e-08 -1.24406185638738425e-08 -0.0022256478197623321)
(-4.08422663157146713e-08 -1.26946115473126043e-08 -0.00224718086284440496)
(-3.97339700359701812e-08 -1.16450571370688296e-08 -0.00224861550361576913)
(-3.98363006312846127e-08 -1.17533410315309642e-08 -0.002210939823890418)
(-3.55288297382084919e-08 -9.41599055423303479e-09 -0.00181457776155400968)
(-3.46116495536953491e-08 -1.1162970893432589e-08 -0.00181760735254075717)
(-3.31400140518467631e-08 -1.28725903804646052e-08 -0.00181254115601831348)
(-3.13970125520981499e-08 -1.23617515015518639e-08 -0.00180567515728071414)
(0.00117226784782316286 -5.87269551737067231e-10 -8.60869782245805701e-09)
(0.00121622404407860331 2.46077549447052029e-10 -6.09552568063014136e-09)
(0.00126845926351075227 1.66534390249280345e-09 -3.4688460319936562e-09)
(0.00108864465597555745 3.17622279140977616e-09 -3.868584532251828e-09)
(0.00114639747556661274 4.84385216964243704e-09 -2.36508648985917005e-09)
(0.00121657348121357797 6.01200146098382113e-09 -5.70776668121225834e-10)
(0.00104221148271058388 5.55017027720404938e-09 -1.37419750291650535e-09)
(0.00110601823025418167 7.36529848460529874e-09 -3.42879214653129438e-10)
(0.00118288747083080889 8.80361383765517882e-09 6.78724970877900765e-10)
(0.00101494840372983548 7.1474081143617824e-09 -8.35737888676332773e-11)
(0.00108109151832343404 8.92510582718255236e-09 5.59834938848143245e-10)
(0.0011600400257354732 1.04018570848939385e-08 1.20782827641351417e-09)
(0.0009956520627617631 8.18893845701180406e-09 3.91304003176825417e-10)
(0.00106325277932435504 1.00039262215530357e-08 8.86279154184269246e-10)
(0.00114351197050685397 1.15656759125906899e-08 1.2663450122008815e-09)
(0.000982237176937012955 8.91165815866678161e-09 5.83557606866337404e-10)
(0.00105106428409696404 1.07689633805003919e-08 1.0369383579080328e-09)
(0.00113290296628102468 1.22286499853648464e-08 1.22545550332371721e-09)
(0.000973054790939843241 9.53958398081860751e-09 6.53711911998101338e-10)
(0.00104248781203625652 1.15479428937360212e-08 1.124477432283437e-09)
(0.0011255362678169443 1.28870528601203738e-08 1.61358779719507224e-09)
(0.000968510219267576869 1.0368402287070917e-08 3.39273601764491191e-10)
(0.00103902562725315941 1.26373710568024183e-08 5.51494589556585594e-10)
(0.00112382180207721118 1.48728704653773632e-08 8.39048729135020068e-10)
(-8.19308173298035496e-09 0.00713757868359769267 -2.67499801131005821e-08)
(3.1084628491477994e-08 0.00789551616847671174 -7.33288968219505027e-08)
(-2.2286897147089182e-09 0.0079304917689620915 -7.70113782509108478e-08)
(-1.50821542314736405e-07 0.00666727538189340954 -8.22313214566491898e-08)
(-2.67629756219788953e-08 0.00678244209431276297 -5.88781032133321987e-09)
(-3.57300722053360457e-08 0.00665597600166528258 -6.06690383089129053e-09)
(-3.45709498910270371e-08 0.00641457691706654853 -4.68615643825027575e-09)
(-5.86569058009971432e-08 0.00636343517740375637 -5.42899558676770053e-09)
(-9.05355819684038744e-08 0.00472697690332243414 5.50511360013358733e-09)
(-1.01219319216419096e-07 0.0047501257695317968 6.2390118786946714e-09)
(-1.05518888267438249e-07 0.00458943964726897177 3.11852767542318733e-09)
(-9.57259039543476659e-08 0.00403631186568683461 2.94296245199643876e-09)
(-9.24282993435069043e-08 0.0038459774138975512 7.62565509087917321e-09)
(-9.07140457429794284e-08 0.00377889606786578191 1.09811561741906772e-08)
(-9.61506553440925808e-08 0.00374684114266627712 1.59975826551666087e-08)
(-1.12689010204491707e-07 0.00379199972471799644 3.83357354995778517e-09)
(-3.95839179696561292e-08 0.00398513426487257568 8.78804543183983474e-09)
(-3.68302200130259475e-08 0.00393853125649599404 8.18564316945646017e-09)
(-3.45599465146309367e-08 0.00382939392107051017 6.78307261643221028e-09)
(-3.23118176908565191e-08 0.00363388199971788036 5.3198991263909914e-09)
(-3.18461347278461628e-08 0.00353230750114215614 4.68884449246003851e-09)
(-3.26879270122300055e-08 0.00351021179683093203 7.17364956402011933e-09)
(-3.71480595724515061e-08 0.00350655485967381678 1.45620836754047707e-08)
(-4.81074254790521707e-08 0.00355000290175531931 4.5041932529866561e-09)
(-3.97204456779739066e-08 0.00334314217026453501 1.16144746702321121e-08)
(-3.99781139874109917e-08 0.0032968903690444671 9.74767574475614215e-09)
(-3.92269426303054717e-08 0.00324644643430444836 7.64623267002672256e-09)
(-3.81707721273511041e-08 0.00318708687048312178 6.25464792637783419e-09)
(-3.79058233598594018e-08 0.00314719858931563354 5.71779027231652936e-09)
(-3.80257923205535961e-08 0.00313737872717028072 6.02114578682055275e-09)
(-4.05259705506977614e-08 0.00314787632581901063 1.06449522243914073e-08)
(-4.72111523029919774e-08 0.00321030737756066104 3.08855698638804013e-09)
)
;
    }
    procBoundary1to0
    {
        type            processor;
        value           uniform (0 0 0);
    }
    procBoundary1to2
    {
        type            processor;
        value           uniform (0 0 0);
    }
    procBoundary1to3
    {
        type            processor;
        value           uniform (0 0 0);
    }
}


// ************************************************************************* //
