/*--------------------------------*- C++ -*----------------------------------*\
| =========                 |                                                 |
| \\      /  F ield         | OpenFOAM: The Open Source CFD Toolbox           |
|  \\    /   O peration     | Version:  2206                                  |
|   \\  /    A nd           | Website:  www.openfoam.com                      |
|    \\/     M anipulation  |                                                 |
\*---------------------------------------------------------------------------*/
FoamFile
{
    version     2.0;
    format      ascii;
    arch        "LSB;label=32;scalar=64";
    class       volVectorField;
    location    "0.119999999999999996";
    object      faceTraction;
}
// * * * * * * * * * * * * * * * * * * * * * * * * * * * * * * * * * * * * * //

dimensions      [1 -1 -2 0 0 0 0];

internalField   uniform (0 0 0);

boundaryField
{
    inlet
    {
        type            calculated;
        value           nonuniform List<vector> 0();
    }
    outlet
    {
        type            calculated;
        value           nonuniform List<vector> 0();
    }
    top
    {
        type            calculated;
        value           uniform (0 0 0);
    }
    bottom
    {
        type            calculated;
        value           nonuniform List<vector> 0();
    }
    left
    {
        type            calculated;
        value           uniform (0 0 0);
    }
    symmetry
    {
        type            symmetryPlane;
    }
    interface
    {
        type            calculated;
        value           nonuniform List<vector> 
67
(
(0.000101778134281619055 0.000474369217903382225 -11.1877617931438795)
(-0.000194745131706728199 -4.35358706921763736e-05 -7.98845467684990851)
(-0.00017966990117879793 -3.88574456684499025e-05 -8.18017921319120589)
(-0.000130041822559957007 -3.9809979404396266e-05 -7.12207302323945779)
(-0.000130695252210286843 -4.06227569514003013e-05 -7.190978761102091)
(-0.000127148704115104624 -3.72641828386202691e-05 -7.19556961157046349)
(-0.000127476162020110528 -3.76106913008990195e-05 -7.07500743644932495)
(-0.000113692255162267355 -3.01311697735457568e-05 -5.80664883697283951)
(-0.000110757278571825042 -3.57215068589842601e-05 -5.81634352813041922)
(-0.000106048044965909439 -4.11922892174866582e-05 -5.80013169925859184)
(-0.000100470440166713779 -3.95576048049658485e-05 -5.77816050329826769)
(3.75125711303411924 -1.8792625655586142e-06 -2.75478330318657668e-05)
(3.89191694105153241 7.87448158230566883e-07 -1.95056821780164619e-05)
(4.05906964323439823 5.3291004879769586e-06 -1.11003073023796748e-05)
(3.48366289912178129 1.0163912932511276e-05 -1.23794705032058401e-05)
(3.6684719218131665 1.55003269428558219e-05 -7.56827676754935606e-06)
(3.89303513988343841 1.92384046751481728e-05 -1.82648533798791747e-06)
(3.33507674467385895 1.77605448870529069e-05 -4.39743200933280517e-06)
(3.5392583368133832 2.35689551507369679e-05 -1.09721348689001485e-06)
(3.78523990665857335 2.81715642804964594e-05 2.17191990680927382e-06)
(3.24783489193546737 2.28717059659576608e-05 -2.67436124376425981e-07)
(3.459492858634996 2.85603386469842249e-05 1.79147180431406215e-06)
(3.71212808235350566 3.32859426716605294e-05 3.86505048452323683e-06)
(3.18608660083763962 2.62046030624377544e-05 1.25217281016584047e-06)
(3.40240889383793954 3.20125639089697493e-05 2.83609329338966434e-06)
(3.65923830562191998 3.70101629202900786e-05 4.05230403904280659e-06)
(3.14315896619843649 2.8517306107733655e-05 1.86738434197227668e-06)
(3.36340570911028758 3.44606828176012808e-05 3.3182027453057077e-06)
(3.62528949209926576 3.91316799531673675e-05 3.921457610635881e-06)
(3.11377533100749559 3.05266687386195192e-05 2.09187811839392227e-06)
(3.33596099851602546 3.69534172599553169e-05 3.59832778330700329e-06)
(3.60171605701421127 4.12385691523850731e-05 5.16348095102421564e-06)
(3.09923270165624309 3.31788873186269061e-05 1.08567552564637093e-06)
(3.32488200721011484 4.04395873817677944e-05 1.76478268658107636e-06)
(3.59622976664706906 4.75931854892074727e-05 2.68495593323205891e-06)
(-1.31089307727685522e-05 11.4201258937562944 -4.27999681809608805e-05)
(4.97354055863647566e-05 12.6328258695627298 -0.000117326234915120716)
(-3.56590354353425869e-06 12.6887868303393088 -0.00012321820520145698)
(-0.000241314467703577948 10.6676406110294426 -0.000131570114330638533)
(-4.28207609951661812e-05 10.851907350900408 -9.42049651413314057e-06)
(-5.7168115528537602e-05 10.6495616026644395 -9.70704612942605283e-06)
(-5.53135198256431463e-05 10.2633230673064553 -7.49785030120042563e-06)
(-9.38510492815952365e-05 10.1814962838459895 -8.68639293882830332e-06)
(-0.000144856931149446431 7.563163045315906 8.80818176021375354e-06)
(-0.000161950910746270804 7.6002012312508862 9.98241900591149018e-06)
(-0.000168830221227901281 7.34310343563035861 4.98964428067710221e-06)
(-0.000153161446326956506 6.4580989850989452 4.70873992319430893e-06)
(-0.000147885278949611265 6.15356386223609153 1.22010481454066955e-05)
(-0.000145142473188767236 6.04623370858525711 1.75698498787051013e-05)
(-0.000153841048550548313 5.99494582826605082 2.5596132248266605e-05)
(-0.000180302416327186968 6.06719955954880241 6.13371767993246437e-06)
(-6.33342687514497652e-05 6.3762148237961167 1.40608726909437262e-05)
(-5.89283520208414813e-05 6.30165001039358685 1.30970290711303298e-05)
(-5.52959144234094004e-05 6.12703027371280573 1.08529161862915182e-05)
(-5.1698908305370403e-05 5.81421119954860544 8.51183860222558142e-06)
(-5.095381556455383e-05 5.65169200182744635 7.5021511879360578e-06)
(-5.2300683219567927e-05 5.61633887492948247 1.14778393024321724e-05)
(-5.94368953159223572e-05 5.61048777547810218 2.32993338806476117e-05)
(-7.69718807664834066e-05 5.68000464280850625 7.2067092047786434e-06)
(-6.355271308475817e-05 5.34902747242324939 1.85831594723713551e-05)
(-6.39649823798575553e-05 5.27502459047114414 1.55962811916098198e-05)
(-6.27631082084886463e-05 5.19431429488710794 1.2233972272042734e-05)
(-6.1073235403761767e-05 5.09933899277299485 1.00074366822045339e-05)
(-6.0649317375774968e-05 5.03551774290500731 9.14846443570643522e-06)
(-6.08412677128856554e-05 5.01980596347244123 9.63383325891286872e-06)
(-6.48415528811163754e-05 5.03660212131041352 1.70319235590262393e-05)
(-7.5537843684787091e-05 5.1364918040970533 4.94169117822086006e-06)
)
;
    }
    procBoundary1to0
    {
        type            processor;
        value           uniform (0 0 0);
    }
    procBoundary1to2
    {
        type            processor;
        value           uniform (0 0 0);
    }
    procBoundary1to3
    {
        type            processor;
        value           uniform (0 0 0);
    }
}


// ************************************************************************* //
