/*--------------------------------*- C++ -*----------------------------------*\
| =========                 |                                                 |
| \\      /  F ield         | OpenFOAM: The Open Source CFD Toolbox           |
|  \\    /   O peration     | Version:  2206                                  |
|   \\  /    A nd           | Website:  www.openfoam.com                      |
|    \\/     M anipulation  |                                                 |
\*---------------------------------------------------------------------------*/
FoamFile
{
    version     2.0;
    format      ascii;
    arch        "LSB;label=32;scalar=64";
    class       volVectorField;
    location    "0.119999999999999996";
    object      U;
}
// * * * * * * * * * * * * * * * * * * * * * * * * * * * * * * * * * * * * * //

dimensions      [0 1 -1 0 0 0 0];

internalField   nonuniform List<vector> 
7248
(
(0.600145835150469487 0.480791537530806223 -0.182270164723381978)
(0.496833890616904084 2.98618298019616946 -1.12055400430517138)
(0.25671049382693123 0.238582536489718722 0.000165187180156664559)
(0.530172308691906347 2.59393523337178999 -0.808711088581329673)
(0.184383614607492169 -1.08321881216656801 -0.0912441454494203469)
(0.312479467083802809 -1.12410210203120897 -0.130610059907392329)
(0.269323339754732438 -0.708483505910222022 -0.0340579582167102532)
(0.0316467773122909579 -0.295680357410658623 0.178760834075145425)
(0.496169677373654416 2.16971212136143699 -0.525085151996578237)
(0.369565597268242951 -1.12524234989731187 -0.0613101212397294676)
(0.547335201533140081 -1.28811110718995292 0.00229801350305468017)
(0.470691862712487863 -0.779862302241465133 -0.0179163844990463117)
(0.256885222882130171 -0.301554038976580452 0.0995272075116432481)
(0.366706168694913459 1.54901361435104934 -0.223492786678200661)
(0.621382322554076438 -1.47839937086118911 -0.0108911811059004184)
(0.50800300553930966 -1.4441354734639138 0.179490180982341097)
(0.168292126733905367 -0.63060203475207266 0.0679177947534816279)
(-0.151925506403166877 0.287729703980958373 0.144767786850205582)
(0.0874736524823355593 1.16107030382269216 0.0466868234506987237)
(0.21057478098006141 -1.93985608776094876 0.209394942201213935)
(-0.167885300932599735 -0.702279019247253444 0.314938304394184243)
(-0.401961707460219864 -0.109231756769801694 0.0943896118068143219)
(-0.154745054932959064 0.137778495008961166 0.189079057147121643)
(-0.200232029849477855 0.747017552094278892 0.149098412829974991)
(-0.494252864454244767 -0.907087864161426949 -0.065641673518344712)
(-0.575352543184319831 -0.617059240183204571 0.0451172056425410556)
(-0.616410870498229402 -0.462891853049410995 0.0598150855684391469)
(-0.586837323937595245 -0.0184843868896679697 0.118658090351729792)
(-0.426774665059106662 0.728218024512887974 0.0355271883645392403)
(-0.579026067910660358 -0.926887924698631904 -0.0843608194856139554)
(-0.676970232786332504 -0.611991392719920646 -0.126489995970760744)
(-0.71666698927694672 -0.359786197278038622 -0.12492483757368647)
(-0.700591305792419239 0.0901122038208053699 -0.0843366613896919665)
(-0.565128822090515404 0.829467674672521138 -0.198370644490799858)
(-0.56639675142327206 -0.565165831525491713 -0.0414697177615817314)
(-0.67406883541712137 -0.494812838843923908 -0.117598760860710042)
(-0.745465363004041648 -0.296838223417532354 -0.170214870501606302)
(-0.772550431398388415 0.124663914265592812 -0.242982465357855948)
(-0.66814260234447187 0.777526541735480303 -0.374970495766185574)
(-0.471657043351552341 -0.456426178160403095 -0.0354524142956755758)
(-0.575271068062462088 -0.367726482560879697 -0.071457867991478935)
(-0.681268310433340796 -0.229564900303991293 -0.137774486800837898)
(-0.736578609201684165 0.0494699812199253519 -0.237458203559588549)
(-0.655682920618555376 0.502257669298531106 -0.356128918954014939)
(-0.376769004991730383 -0.343759275181904966 -0.0278389091958044024)
(-0.446309623054160165 -0.269466132805891434 -0.0515555445168002363)
(-0.517528978631975667 -0.16571826149868496 -0.0896416248455185888)
(-0.56129171068312389 -0.00774773614896057117 -0.15141574355453552)
(-0.51181357989018661 0.233390389553626149 -0.227122999407438048)
(-0.286546798260426061 -0.28008902746840747 -0.0210048944806745241)
(-0.326837204614631838 -0.211236248515261738 -0.0348106994642456979)
(-0.361078920888595611 -0.124924713593749376 -0.054498729610747039)
(-0.376250601411536434 -0.0187459507945542184 -0.0826360503420191517)
(-0.345757213991179313 0.108080247959167791 -0.115528845379738371)
(-0.155826352419223796 -0.327691122281828673 -0.00144009389856834943)
(-0.182850299113283987 -0.28988977275637734 -0.00762799437736738466)
(-0.20885782100351144 -0.241671992538373959 -0.0146915254096107208)
(-0.23113559072660117 -0.182969436311339051 -0.0228568699445895127)
(-0.245995205047851356 -0.113856637559254251 -0.0328532849803852833)
(-0.247197310749516341 -0.0358369164932447748 -0.0448411452108685021)
(-0.226777207057319019 0.0446373235415228747 -0.0566047866929171584)
(-0.109724327131210969 -0.301296632093272954 -0.00186255279287106433)
(-0.125848590909263397 -0.26368159001933128 -0.00540931902885008822)
(-0.140862711855373329 -0.219236822988880892 -0.00953966003044862815)
(-0.152876859270083654 -0.168376259175336634 -0.0141938761970619408)
(-0.15953616806912696 -0.112082969443102642 -0.0193829250698373014)
(-0.157900172289228147 -0.052642496591045175 -0.0247964332001105389)
(-0.145737436197423909 0.00519955443043924881 -0.0293376654046367119)
(-0.064620067843431217 -0.285976765474657613 -0.00129788388469734305)
(-0.0729843292013707956 -0.248885257945648891 -0.00308804607767435534)
(-0.0805467848567591876 -0.207042742190505918 -0.00521011461605869371)
(-0.0863585078794096295 -0.161121864285565242 -0.00756952879876033116)
(-0.0892531416598069949 -0.112306567664071322 -0.0100828770355951159)
(-0.0880737587992826282 -0.0626796797142482737 -0.0125544010060517734)
(-0.0822617353453889977 -0.0153626924318544661 -0.0145518955960555439)
(-0.0218440195787627384 -0.281312105451113348 -0.000752782818254105549)
(-0.0243261795426975985 -0.244313667048052574 -0.00124237127628737398)
(-0.0265325861812216561 -0.203561160518973161 -0.00181430161827060392)
(-0.0281273997584044616 -0.159715064890593894 -0.00246970265530956773)
(-0.0288049751010714047 -0.114042198935475028 -0.00317516084886768947)
(-0.0283181540881918964 -0.068360184392450507 -0.00385152688753443665)
(-0.0266568995045653248 -0.0249675922697081033 -0.00439525473555080551)
(0.430631666183844963 0.896970901361302531 -0.230668838456304981)
(0.444402447568412073 3.37761707720162851 -0.860898680080108281)
(0.247046039335683004 0.886699950076274446 -0.163633999881505232)
(0.49818343765368317 2.90865364616111544 -0.738063739984961553)
(0.199839288272185805 -1.03426731465585897 -0.148367213216339222)
(0.235320334590888469 -0.86579281227947047 -0.108091631379568148)
(0.029689560737151649 -0.642622561442459661 0.122800051887932471)
(-0.109507270764141976 0.639404345008186215 0.10043693891762287)
(0.478227899665090606 2.51890676644913336 -0.591258082254396022)
(0.33895636857959105 -0.961400311535157037 -0.0583414443189987225)
(0.508236103489129398 -0.953190571388854546 -0.0193172157153496463)
(0.421571275349259755 -0.697155931943887697 -0.0173920003518778302)
(-0.0456447765067807126 0.0354934935601269597 0.366627905551176803)
(0.372896458786132701 2.12222786964102283 -0.33806288869576373)
(0.416390023643180451 -1.23431009527448854 0.100896822848225876)
(0.625367752902120433 -0.840928065687301829 0.0958736878764916978)
(0.488688151445838104 -0.406619228960840129 -0.0203407838852561161)
(-0.319827967756982467 0.531886595242175741 0.312748830178990078)
(0.140247771805505128 1.95393919858309273 -0.176944749276557872)
(-0.180058755950248839 -1.66085188733531264 0.253026922484783923)
(0.03876825805367419 -0.339234965031297908 0.117292438254206002)
(-0.361116560959171551 0.229554588546453109 -0.044792721092330498)
(-0.483287086415241041 0.739314600763232965 0.224022288495263316)
(-0.111714408895182193 1.82336141714317668 -0.114785218224117719)
(-0.677173248866960176 -0.607975198580598786 -0.125698168914391895)
(-0.689466237825160255 -0.233464217064473845 0.0236942383796481942)
(-0.677672474440019323 0.232303609357075613 0.0178428438194970021)
(-0.632061197922330176 0.806823799280562803 0.0674759772725587736)
(-0.292132368605481085 1.71263111533262857 -0.184271079518154357)
(-0.61957410211027053 -0.765666621086327326 -0.139229361659648554)
(-0.721050280628070306 -0.383861000395640306 -0.104603270786745195)
(-0.743912160808723244 0.0565823447019792591 -0.0930765019858216525)
(-0.677544086212191976 0.693987222501329493 -0.117634723150012777)
(-0.446082427564896911 1.51188088407251309 -0.303735650738234997)
(-0.630105403184774149 -0.540608731914528851 -0.0396724164490626779)
(-0.716485139059091503 -0.419876198872733031 -0.0927320010799053684)
(-0.756826095712116897 -0.133440440899544099 -0.133069659439089022)
(-0.745049059162323668 0.422637262937206049 -0.201226441790693156)
(-0.60123692337747725 1.18500978567000148 -0.333998723051951552)
(-0.498118860885831016 -0.449958341613526047 -0.0312687798366253003)
(-0.604118229354008607 -0.350371773695525912 -0.0507742334261494996)
(-0.706364568568595752 -0.162689484991638988 -0.0903600682705292951)
(-0.752247199234060138 0.19891105939728454 -0.161068873498665804)
(-0.643236564809127831 0.752055243024051912 -0.258766827134396415)
(-0.394603085579019797 -0.337864201169264577 -0.0203686018045350498)
(-0.47006960259345737 -0.257812253504869249 -0.0341314296778221643)
(-0.551093606755012733 -0.137720243621529959 -0.0565093197087951638)
(-0.599614465581939537 0.0624099655788514368 -0.0977786990379971716)
(-0.533010106868444522 0.366731240786445145 -0.155873774333351978)
(-0.296963130621468563 -0.276048410067027239 -0.0155336016640988221)
(-0.340140399883062883 -0.203194500603303907 -0.0245864374047222514)
(-0.379967135966804925 -0.110222186550116702 -0.037448395423652428)
(-0.400433634103062153 0.00947347874903997633 -0.0565006762600375051)
(-0.365809424098758218 0.158984417255810029 -0.0808747042170326058)
(-0.215208617671719393 -0.238129523963748896 -0.01133798972236876)
(-0.238500445979069109 -0.17677755569282097 -0.017259636545873331)
(-0.254902613693434532 -0.103694430954750727 -0.0243561493278179435)
(-0.257272913452465946 -0.0198781648778979664 -0.032931576976347271)
(-0.235025559237903053 0.0674789548655785054 -0.0418136030507766376)
(-0.144616673910754362 -0.216227038287331919 -0.0075755621854092809)
(-0.156968162944491257 -0.163690088342903606 -0.0111715416331151039)
(-0.163879271873912324 -0.105250112706204213 -0.0150520264620901401)
(-0.162073874388916211 -0.0430442364327198596 -0.0191029552742365619)
(-0.148663559792586358 0.0177380380909275548 -0.0226319275310578917)
(-0.0825741826271640528 -0.20433247437887625 -0.00413125297016628083)
(-0.0884994378952786986 -0.157297533227183262 -0.00604168490557686552)
(-0.0914061732932409526 -0.107230293437113502 -0.00802268801784204212)
(-0.0900243157030080066 -0.0562409306356879343 -0.00996966078346564824)
(-0.0836419589830323523 -0.0077044952618252234 -0.0116119624745522551)
(-0.0271438078471659162 -0.200758589357472539 -0.00150728612884012958)
(-0.028782697176154351 -0.156150908828837282 -0.00201626545962618319)
(-0.0294720596247580874 -0.109624686563603413 -0.00256984808463875305)
(-0.0289373186234761978 -0.0630864269724213667 -0.00310616488062640667)
(-0.0271724256428243563 -0.0190140718780067823 -0.00355114911795105515)
(0.382466700497278767 1.29686345033201755 -0.346676986521739394)
(0.388307341082047897 3.7882617831668326 -0.772625546284707476)
(0.239651164969168717 1.32062529907361803 -0.329897246287263468)
(0.478991992470958083 3.24462921684961891 -0.714070266879705762)
(0.127152904662883565 -1.01024631782941321 -0.149588035971499611)
(-0.527049990076472463 0.137088242012817496 0.187160878489452009)
(-0.430553671621490053 0.504360425716681493 0.256591922862266231)
(0.0430997161475780294 1.09971343964500012 -0.296214794579914065)
(0.468760547269437611 2.84083121058377941 -0.636720792773513011)
(0.164884785683093144 -0.685052944584768397 -0.154427370264976938)
(-0.278206381767440891 -0.220540246758712144 -0.0975477644581990017)
(-0.319932240773039944 0.215678154061214905 0.25205667908642565)
(-0.144306105248048766 0.95655616861932069 0.0109793448106493552)
(0.382272160371166903 2.61259725217395911 -0.507336143814996032)
(0.00722484569197581403 -0.557292892903614057 -0.000254741835570544348)
(-0.0324131100906521613 -0.119575651515121548 -0.161789344402044261)
(-0.472202552518526997 0.53968958553572921 0.178248027139767673)
(-0.313641219783874658 1.16254146715307138 0.134892531106865443)
(0.216350714327770366 2.44929577401223897 -0.450074632362611304)
(-0.826407995941790374 -0.374229685888318953 0.161499903974471531)
(-0.765683206754027124 0.471538445305478005 0.138332789570110498)
(-0.776275596337423934 0.75961153475148957 0.23007094485598531)
(-0.500937698723505132 1.24264699153962255 0.100423831995511081)
(-0.0202637529337075621 2.21991433147052097 -0.415140200533113901)
(-0.906009175023611779 -0.258709802867600036 -0.00828044483297470796)
(-0.776239732935664617 0.218444100492002302 0.180612419284557874)
(-0.847441917965517488 0.624213091327116332 0.188497585665983014)
(-0.614490584976068899 1.1633431927407567 -0.0336860422956672678)
(-0.222364520965100038 1.90517445238244498 -0.382732247310235862)
(-0.716893793477140107 -0.760904204680798335 -0.00987567802530688217)
(-0.755537731516961131 -0.150902883768974649 0.0791251628716704986)
(-0.775062152457404618 0.285080644610139822 0.0521454125380069883)
(-0.651378365621033573 0.803156626845726196 -0.104763276329455715)
(-0.437068860592582431 1.50617418986153817 -0.306858825601835139)
(-0.665947235171181484 -0.501736756691691599 0.0177483088212350426)
(-0.726902464177812235 -0.373872981349182676 0.0222695923765209997)
(-0.751179333454901177 -0.086915244745779302 -0.00222074017150206138)
(-0.744676239435544618 0.406503348046492241 -0.0930977176214016072)
(-0.610216117870837849 1.16172381220407539 -0.219994650611715248)
(-0.509524155105735121 -0.450033296621889511 -0.00517488075082783543)
(-0.612071966439892035 -0.340669715541260631 0.00233644869704275476)
(-0.70829125803694537 -0.159618097223142852 -0.00676473941757995204)
(-0.755440127177614995 0.192458114826570825 -0.0500905017635602662)
(-0.65775668734465631 0.755544091684376751 -0.132352282961999107)
(-0.402400303870118825 -0.335160972741416652 -0.0115592889741111156)
(-0.476372512451932406 -0.255008273793995488 -0.0106475428507194578)
(-0.557858313787835236 -0.133978395103251935 -0.0105416977149982681)
(-0.609838870053132087 0.0709500891508378501 -0.0251012397651970212)
(-0.549508662735726072 0.388229205052385451 -0.0633106217542823424)
(-0.303001655599646702 -0.274203545295058637 -0.00963073126130100515)
(-0.346222790245379775 -0.20067591507758395 -0.0116631132142844367)
(-0.387484965934869918 -0.106487772319056762 -0.013923226973858803)
(-0.410899859959716507 0.0172858626993026704 -0.0192081810357668803)
(-0.378296738611522576 0.175199632129438537 -0.0304604128530002183)
(-0.219273321163648754 -0.235992227746523509 -0.00786624865866879242)
(-0.242737866036086519 -0.173625012631488024 -0.0105512994405583798)
(-0.259715893633382044 -0.0992610148353366556 -0.0132179581755646532)
(-0.262897632941531123 -0.0131372154566185406 -0.0163547599617095106)
(-0.240676632839829596 0.0778258700527234837 -0.0200240570423327602)
(-0.147317077340700542 -0.214091959399573262 -0.00550817720550583929)
(-0.159689628319189258 -0.160691051411160107 -0.00757227387348963395)
(-0.166657312831150067 -0.1011743480820015 -0.00961478347091177833)
(-0.164790382664032869 -0.0375704599829902938 -0.0117012202523183832)
(-0.150816305554507452 0.0248874215930599135 -0.0136601431289122676)
(-0.0841555038265785066 -0.202156410359186745 -0.00300649643578007608)
(-0.0901062106154807418 -0.154463783127219811 -0.00425945688253722213)
(-0.0929751361655573871 -0.10365728978531949 -0.00550748721935927308)
(-0.0914599805651741676 -0.0518522232300726443 -0.00671770649082853617)
(-0.0847453363556331662 -0.00251586437431884288 -0.00781145931956615542)
(-0.0276354081068447416 -0.198411602624602168 -0.00115776837733037137)
(-0.0292982266906944219 -0.153301981400990106 -0.00148489049998033122)
(-0.0299908724576503256 -0.106229586890787292 -0.00183125958687231031)
(-0.0294243484232376215 -0.0591442207854022198 -0.00217620300457679449)
(-0.027592365137628052 -0.0146063231877275636 -0.00247590549843895898)
(0.421983157770562778 1.51102785301038645 -0.454167551586046603)
(0.38309850097838527 4.17680391403504991 -0.655094017775730064)
(0.306773515527252738 1.45412832604661557 -0.526031906924374071)
(0.488241573804223672 3.66448101645582858 -0.649503586473476835)
(0.132905419942828673 -1.07974738936022496 -0.0759456330001082036)
(-0.413081091414367441 0.248245121628437732 0.221097494145046036)
(-0.158549261455755763 0.842909223309308953 -0.106220675228723319)
(0.160750763169767885 1.15011603601920132 -0.531872117540699407)
(0.488906456661154065 3.27752332236731592 -0.624975178700915013)
(0.174305973043704932 -0.756248407893864938 -0.151933081634418571)
(-0.623673080317584505 0.350626533432532028 0.154655931537542812)
(-0.361677400739082611 0.752692225582920038 -0.00705348880225770483)
(0.0206338141672526981 0.923570505047652257 -0.414870274677340056)
(0.449840459230016754 2.98205871188196348 -0.585012204251108003)
(0.219961688489376805 -0.477156840699062168 -0.197035544677227753)
(-0.232125362292329218 0.0205452836852324447 -0.129542640659031733)
(-0.395385153445126036 0.558077250210217368 -0.0965680613712715519)
(-0.0992735697269254841 0.936311343534743101 -0.347569657232944085)
(0.345516762951211365 2.66509866944002294 -0.56160663394180288)
(-1.85014183245865182 -0.366472850438003483 -0.264338936135449343)
(-1.33799331553443257 0.373323095808502092 -0.227383486760415143)
(-0.967256969337980443 0.539120743810364456 -0.219029141573056862)
(-0.354058596854866237 1.04402639882334869 -0.337847542084083852)
(0.120971584418973266 2.26323548983558709 -0.514823757839966145)
(-1.95293635280809164 -0.135379271944292889 0.0604489729367064244)
(-1.48358789090582244 0.0833145746232318574 -0.00977860547761026655)
(-0.949194497939946147 0.264726580474500373 -0.143447642267684944)
(-0.524228118452309322 0.774755004331081687 -0.276166329576261138)
(-0.17485490852468627 1.76751096262028162 -0.401870563862845143)
(-0.994175552187228417 -0.838008896904113953 0.201308831842892222)
(-0.950194040017666608 -0.486546674782370792 0.213770839327059675)
(-0.8238307969803218 -0.101865252616093666 0.0821931310810380678)
(-0.645250802816376479 0.42907642700427906 -0.0928964467374983061)
(-0.449466185231599591 1.30323343411016968 -0.259895258622510172)
(-0.632239983651010751 -0.58809529655617343 0.0428673145689752316)
(-0.731999654066443406 -0.581825043104970963 0.0879147339040389497)
(-0.768414230813354027 -0.302666956995201852 0.0977931660666318536)
(-0.740411466614736224 0.179825419048466328 0.000330215248354068236)
(-0.641961476292060795 0.962651918161529063 -0.142042331679675171)
(-0.482193816521347796 -0.437321455175454843 -0.00134496912645212102)
(-0.585173226788366474 -0.355841139897093151 0.0220620314637430155)
(-0.693161683590881039 -0.237024826427796015 0.0475389864021130981)
(-0.749455032703891799 0.0685056126129016674 0.0308418439244162804)
(-0.682088946228899373 0.625101384793139925 -0.045021509367201798)
(-0.398575501248449204 -0.344010989723589344 -0.00809658159659491262)
(-0.467057903465992352 -0.269534004730635046 0.00434801036739822754)
(-0.545237166482840152 -0.161462769984052401 0.0203649965393110574)
(-0.601678029714724727 0.0249693667619955012 0.0281077147808841826)
(-0.560275049997541075 0.329517224727512659 0.0122402725506853202)
(-0.304267892261492146 -0.27444048596080467 -0.00582571459989571997)
(-0.344821047568499406 -0.203869364052815139 -0.0015123684920870465)
(-0.38335724446457603 -0.114162025443378182 0.00528547265293393981)
(-0.407851384948109741 0.00338713652115269978 0.012541210713776979)
(-0.382237600068301653 0.156706299299922108 0.0157543129551892605)
(-0.220610901880054139 -0.234874580348847645 -0.00528952608087195075)
(-0.243193766943242684 -0.173136496737117868 -0.00465882664297159656)
(-0.259687976448203517 -0.100373375018532968 -0.00330275855670209093)
(-0.263199771561731133 -0.0159002353780041648 -0.00118624793738099886)
(-0.242492048070755584 0.0746700450099882507 0.000965686040183602427)
(-0.148735923257939495 -0.212578163195745629 -0.00378829016373524469)
(-0.160789669092662402 -0.159245184594258238 -0.00435895609608179246)
(-0.167541895883773412 -0.0999617925429649168 -0.00454539849635023085)
(-0.165681597659508795 -0.0365395822834441858 -0.00464415323797804768)
(-0.151853399798240862 0.0260918010580373921 -0.00485631309761868409)
(-0.0851929688513840822 -0.200497447070295209 -0.00201964698581785004)
(-0.0910491941712724129 -0.152627796169082147 -0.00259451943381604168)
(-0.0938223239050537533 -0.101684330499017483 -0.00309232025869618206)
(-0.0922340463674257982 -0.0497059385173798385 -0.00354360539686855366)
(-0.0854316440390865683 -0.000108527405201855331 -0.00401242714807114632)
(-0.0279744038187316642 -0.196509471357724591 -0.000830333832000793937)
(-0.0296375336134146045 -0.151212753413661083 -0.000971925749121550818)
(-0.0303228939051447405 -0.103953488391064178 -0.00111305699033914713)
(-0.029741000396704062 -0.0566723645459170228 -0.00125896221101239264)
(-0.0278827768837163308 -0.0119382374505135787 -0.00140502182989345669)
(0.451232178007361595 1.64600924305755814 -0.495992907326513022)
(0.39974838170942939 4.39087071948129548 -0.580927426269773228)
(0.361921035301229321 1.42091467556285456 -0.607620657101814565)
(0.49787229678443784 3.96814418618266718 -0.585510644787541445)
(0.167284526949054546 -1.0192918793364556 0.0206909328494285852)
(-0.38760366511580624 -0.0893840273321363232 0.143281336386313268)
(-0.000869861126584131616 0.333150939072678065 -0.269960523296122135)
(0.234642952051820841 0.899719082870369724 -0.583856148779385853)
(0.522659045097168096 3.54187604134749812 -0.566054857007588286)
(0.190659023990129045 -0.747753711881631755 -0.0167231017142219635)
(-0.615823520487244203 0.0194459591649866689 0.336181145329212339)
(0.0314373535360458894 -0.0237546429119394609 -0.0725585356685705951)
(0.0910721104370470769 0.394578532240857038 -0.475094111823755938)
(0.502711094627481203 3.18388723092778747 -0.545858012474619514)
(0.0860831704246121099 -0.668914182979162275 -0.189803858186670671)
(-0.0723228286139700333 -0.239483428296191264 -0.00945745633316472968)
(0.120449493284554288 -0.195259928886857698 -0.0348646929683158954)
(-0.0233482185201545345 0.297807751197256998 -0.373540753881222154)
(0.410553779958443388 2.72050958385278907 -0.532229698279133023)
(-1.31905506697529962 -1.11252072145298686 -0.526600164649704494)
(-1.13642075038236445 -0.411106344437978277 -0.413301464916079442)
(-0.828464938241054494 -0.261209622977199407 -0.409216391648469624)
(-0.383030591640979801 0.451484075278907326 -0.438673232937274116)
(0.153997269063853082 2.04912993840625512 -0.483628058734068833)
(-0.930038110635592941 -1.18774188579734874 0.0595753111163554103)
(-0.771338088209662098 -1.06822708296189006 -0.033268386648513934)
(-0.692845526281578694 -0.900612250642200407 -0.187005936068063733)
(-0.599698871901398145 -0.157876274182896126 -0.292590913696651189)
(-0.208219613164324496 1.33631914107460648 -0.364006310803852262)
(-0.797945633857352843 -0.812803508822192544 0.180034171214497968)
(-0.795836523192118506 -0.700834062135401781 0.185928879748720244)
(-0.740414974609758691 -0.570655767279254933 0.0630090475773405351)
(-0.677621690415067479 -0.120016777567387378 -0.0604888999416530113)
(-0.525006063573277837 0.895055377241621652 -0.221208922934346325)
(-0.546945734947931195 -0.615530071808753854 0.0213406308818660691)
(-0.640611402005108466 -0.571567447450118227 0.0650543030672953715)
(-0.713291423007243353 -0.553866114136931431 0.0584827366987133931)
(-0.77415819676081532 -0.136706053695756696 0.00223308992787910792)
(-0.710431206972495288 0.639253804445484408 -0.0990301143010165613)
(-0.464329143975150571 -0.441369095129721445 -0.00821100139965282375)
(-0.556377380227630391 -0.369406599297576244 -0.000393489031413733065)
(-0.6461256430805985 -0.297550222947445597 0.0374790110660639664)
(-0.728963112601426877 -0.0716007492284758684 0.0491627294102611329)
(-0.729196729154117373 0.419838616365176331 0.0109112916612885517)
(-0.392379840620898757 -0.337748425836689348 -0.00466690735558492574)
(-0.450471171307928797 -0.272858453004534929 0.0073809425722660086)
(-0.51889395995444787 -0.189384298758565717 0.025242032146758582)
(-0.58168735888451284 -0.036284305673747852 0.0547279096503938273)
(-0.566820848789064136 0.222912137471387106 0.063523059123868103)
(-0.299816233682971278 -0.270765923595235769 -0.00717745132826650041)
(-0.337160441818222523 -0.204695935742099044 -0.000288734113315146021)
(-0.371931212064495142 -0.124340171253782439 0.0131620392486957397)
(-0.393892752847965821 -0.0183593650344506532 0.0298202085097789213)
(-0.375149523039180366 0.117745376861275258 0.0455531471839553392)
(-0.219948668150136029 -0.233367224396338058 -0.00382701349817541735)
(-0.240972576146644857 -0.173296612330340855 -0.00130118802217360843)
(-0.255893818639377879 -0.104474566144101527 0.00262465524738835984)
(-0.258870658086717942 -0.0240852338130613554 0.008077148076273067)
(-0.239677835260691363 0.0623486821659327145 0.0145820791993414491)
(-0.148940187525627016 -0.211304270215392415 -0.00246139098691013861)
(-0.160456390041899821 -0.158785426957368969 -0.00189510171417167769)
(-0.16678834204265594 -0.10071575480392507 -0.00091133857489227553)
(-0.164928928068927616 -0.0386876184554580949 0.000342586497964091595)
(-0.151642994696482181 0.0227077205389480813 0.00150107174821615102)
(-0.0856830038906670755 -0.19922882877172593 -0.00124349309230425368)
(-0.091379473273777545 -0.151575755938953116 -0.00129345857455645812)
(-0.0940136457341970155 -0.100981570811856172 -0.00124262867052883901)
(-0.0923769815010641177 -0.049372127121833434 -0.00111323341440452126)
(-0.0856493420321943061 -3.21859121176354401e-05 -0.0010561486157441007)
(-0.0281643125512433812 -0.195023241495091176 -0.000556567596166829335)
(-0.0298094484061274326 -0.149815066718140738 -0.000552514453627339294)
(-0.0304812653884482115 -0.102656490467964739 -0.000536487871329492379)
(-0.0298963913633072433 -0.055482738707415602 -0.000529606920058408757)
(-0.028049734766741545 -0.0108075178035697689 -0.000549994710979655188)
(0.489198357920929527 1.53106488371473293 -0.469855943191520742)
(0.439315460239638245 4.33510409862416868 -0.46913575971148791)
(0.441914759381052347 1.13614007656545768 -0.608711564019671525)
(0.553475274485011326 3.8676608027481918 -0.500183716552693558)
(0.172723307059759162 -1.08241142042021288 0.115002403546834456)
(-0.139455052812188035 -0.54446425494048345 0.131947779044058244)
(0.125764632050979236 -0.182085593750728025 -0.106654482668186265)
(0.27960949657289319 0.448527977601249739 -0.540072396325936621)
(0.575373139404524836 3.4728613020923631 -0.493056758600900202)
(0.265775133363131633 -0.920792603096253548 0.134347784374692136)
(0.170287692885897513 -0.747182871046552677 0.0793896956591709502)
(0.320592726063475331 -0.552994168142823206 0.0243711603294309714)
(0.135549093085203909 -0.154472522870898576 -0.365623529741361641)
(0.552767311342180379 3.06310218382510469 -0.488433415374381286)
(0.298436835065371331 -1.00215342498995241 0.0161706843327174207)
(0.440222246675234907 -0.75584580926915157 -0.115057370541032683)
(0.284005679443127823 -0.558196173154678954 -0.176484119387407934)
(-0.139262816061983541 -0.0956969772620123449 -0.4369509740566348)
(0.402730668854614282 2.40277978107193269 -0.482367248530439996)
(-0.554218895881240292 -1.5737587338964143 -0.0901219114955984224)
(-0.689635684558297601 -0.705849312883715552 -0.298599602691577315)
(-0.566611739883183918 -0.816500519407508563 -0.424706394913461682)
(-0.47146978116290994 -0.122553658837364784 -0.461744000502434138)
(0.0833079948809680726 1.54712337380463727 -0.413352428456088772)
(-0.400381135559424117 -0.977013650962340496 0.137406600598280942)
(-0.393636240667730786 -0.920098534221964748 -0.0304062993270595508)
(-0.518505932155206128 -1.09444683749498783 -0.294193914332599227)
(-0.559000469777773623 -0.680657406319943425 -0.346883193646909949)
(-0.301748881476301301 0.783325225976350348 -0.31596576177387653)
(-0.506545500162386531 -0.88604359162434565 0.0869887223170533741)
(-0.574209717687499843 -0.730296431886906405 -0.01899207654612136)
(-0.60319204538869553 -0.657250827956929573 -0.192041593117694198)
(-0.717661358823088902 -0.377730745830808068 -0.178150004435307374)
(-0.651418671064285526 0.501341605469830309 -0.203488206270174776)
(-0.527939849721880461 -0.610094243515905799 0.00244499945596347162)
(-0.633739564548291057 -0.559816194274320389 -0.00845497035677779049)
(-0.693913308921540128 -0.529625216033297042 -0.0416043739664693352)
(-0.779614578013085313 -0.329203330443735009 -0.0471473571894368976)
(-0.809797105867827383 0.341590424992480268 -0.0866464242789894978)
(-0.444037623361957734 -0.43486226755518842 -0.0238718770674795668)
(-0.531784342037515012 -0.370008459952008983 -0.00921522706670430299)
(-0.614083446680453116 -0.313648982355801798 0.002651180829456019)
(-0.714953831252202798 -0.165497598206187979 0.0287330095279547948)
(-0.734840737477761241 0.202744443202432373 0.0313236171913872513)
(-0.373771217705055614 -0.330564399462887737 -0.0152935710996445189)
(-0.428615630139009329 -0.265605958598143954 -0.00307845824791269825)
(-0.486248661200176735 -0.190624533367441729 0.0168633165193038947)
(-0.542464466754803754 -0.083243577097287122 0.048787096076669631)
(-0.543075041676573389 0.113706550601299833 0.0780701276348982481)
(-0.29588533578656856 -0.267961095826631857 -0.00640693651757861388)