/*--------------------------------*- C++ -*----------------------------------*\
| =========                 |                                                 |
| \\      /  F ield         | OpenFOAM: The Open Source CFD Toolbox           |
|  \\    /   O peration     | Version:  2206                                  |
|   \\  /    A nd           | Website:  www.openfoam.com                      |
|    \\/     M anipulation  |                                                 |
\*---------------------------------------------------------------------------*/
FoamFile
{
    version     2.0;
    format      ascii;
    arch        "LSB;label=32;scalar=64";
    class       volVectorField;
    location    "0.960000000000000631";
    object      faceForces;
}
// * * * * * * * * * * * * * * * * * * * * * * * * * * * * * * * * * * * * * //

dimensions      [1 1 -2 0 0 0 0];

internalField   uniform (0 0 0);

boundaryField
{
    inlet
    {
        type            calculated;
        value           nonuniform List<vector> 0();
    }
    outlet
    {
        type            calculated;
        value           nonuniform List<vector> 0();
    }
    top
    {
        type            calculated;
        value           uniform (0 0 0);
    }
    bottom
    {
        type            calculated;
        value           nonuniform List<vector> 0();
    }
    left
    {
        type            calculated;
        value           uniform (0 0 0);
    }
    symmetry
    {
        type            symmetryPlane;
    }
    interface
    {
        type            calculated;
        value           nonuniform List<vector> 
67
(
(-2.54308125710618748e-07 -1.19860194199473474e-06 -0.00622948237366219727)
(-1.71381557482305848e-08 -1.84242987271920866e-07 -0.00472474303599241131)
(-1.64000982477700074e-08 -1.88599345124789911e-07 -0.00530652158306260929)
(1.24795757658480945e-07 -1.42093587438615653e-06 -8.35478001862009556e-05)
(-1.63902475811888355e-10 -2.07054559825146845e-07 -0.00199808172863107092)
(7.56762496355831909e-12 -1.96225945437964221e-07 -0.00403659411514907616)
(2.05825144523064158e-08 -2.65156876251897828e-07 -0.00461247374397765527)
(-8.52028220819317614e-09 -3.36633907804903754e-07 -0.000335739617821155718)
(-4.01787070632658714e-08 -1.64612918463474154e-07 -0.00147861682065587256)
(9.12783031606952981e-09 -1.83770288266899204e-07 -0.00299486629301202447)
(1.01446104284837673e-07 -3.8412294606637744e-07 -0.00362943777985525254)
(-0.00259692557500126962 1.58665433416319798e-07 -5.18450301843971367e-07)
(-0.00135519906240151719 5.98919077614772972e-08 -6.02444817481296181e-07)
(0.00106329429305306424 -1.11583823713760672e-06 -9.0539295391753383e-07)
(-0.00403770627442524323 1.48077763057325309e-07 -4.2870032366680771e-07)
(-0.00293662171387822643 1.2349263385533142e-08 -6.27120442438275105e-07)
(0.000134580040322362584 -1.08198449095832994e-06 -8.03071961218973287e-07)
(-0.00489192705648070717 2.52876346429476732e-07 -3.5924332250150731e-07)
(-0.00416691413719100928 2.52939108092454103e-07 -3.50888476853094545e-07)
(-0.000838226887289429288 -7.82942265207315819e-07 -4.48693419295753244e-07)
(-0.00447344092222830021 2.78214020624772427e-07 -1.10911409712190418e-07)
(-0.00380123695012120474 2.53016152428881782e-07 -1.17913928868148095e-08)
(-0.000599275926038730965 -9.43416730504074981e-07 -3.23379084966493538e-07)
(-0.00262864247620766709 2.39440469659161184e-07 2.66298489401878455e-07)
(-0.00119120894422151133 -1.52917699998281228e-07 1.46331227172222224e-07)
(0.00138737796923761527 -1.26957599300488498e-06 -1.67774121800009588e-07)
(-0.0010456458030170914 3.13730623418676515e-08 6.74143532328099034e-07)
(0.00122627214684542301 -8.69809457202121034e-07 1.78936780799152404e-07)
(0.00316601975371091655 -1.47496753703371037e-06 -4.18663338226228633e-08)
(-0.000295316831531111331 -1.45622080711806635e-06 2.60383193194537999e-07)
(0.00314483246126462 -1.8733353420002376e-06 7.55774150425128209e-08)
(0.00464147357708719933 -1.24376642424980486e-06 -2.135213024479186e-08)
(0.0003644720269301504 -2.03069560990170336e-06 5.87065110912870672e-08)
(0.00320423829902669564 -1.63949839282122896e-06 -1.15153116517116602e-08)
(0.00414991049089068111 -1.32438490896637356e-07 -3.91800767273504246e-09)
(-5.61366468048151549e-07 -0.0111325777241097108 -9.34802793112329168e-07)
(-6.3416155238716137e-07 -0.0144978746448115071 -7.52531032045645878e-07)
(-6.82818607625192476e-07 -0.015255291325006394 -6.19788303436541622e-07)
(-6.92350724790125259e-07 -0.0148377527798516824 -4.81174609931460801e-07)
(-6.67105907483405592e-07 -0.014639492228626632 -3.76592177676904496e-07)
(-6.46436912881483715e-07 -0.0143984850751566768 -2.70047195368122956e-07)
(-5.98653001565868047e-07 -0.0143340111773878568 -1.67915378176869241e-07)
(-6.51379738509104179e-07 -0.0142321703214828444 -5.26821023011497937e-08)
(-1.89398760140711989e-07 -0.0132409198097550827 -9.35057715262148948e-07)
(-3.09165226019001174e-07 -0.0160498099386495972 -8.07650875676080318e-07)
(-2.34143307777948447e-07 -0.0163383508486917781 -6.6095569996935766e-07)
(-2.42117680342220635e-07 -0.0157916036188978023 -5.14314116713867357e-07)
(-2.59486362155482626e-07 -0.0153484333816477671 -4.20785530896516224e-07)
(-2.64828752686098165e-07 -0.0150733688899471786 -2.85805755821959233e-07)
(-2.18315508592228439e-07 -0.014982683401819229 -1.71680875129233574e-07)
(-1.93627467928952909e-07 -0.0148612892159307036 -4.86614031928129958e-08)
(2.36593579141354409e-07 -0.0147059460233469105 -9.52748066744708592e-07)
(2.49150123155464163e-07 -0.0168621437793220544 -7.8179269196360208e-07)
(2.45919940231614981e-07 -0.0168769298856443518 -7.01994251859226532e-07)
(2.423016852060024e-07 -0.0165918811809912282 -5.24818331868459643e-07)
(2.37368807020542853e-07 -0.0161060587512482055 -4.1602677732790245e-07)
(2.30771650696899346e-07 -0.0156203266991666069 -2.71576785109096029e-07)
(2.30367987517019165e-07 -0.0153037765087671012 -1.62212192076909856e-07)
(2.69350863761494392e-07 -0.0151715539162905009 -4.18378431441305176e-08)
(5.54338158642582131e-07 -0.0121268765172827114 -8.69701147651984914e-07)
(4.16748674137048532e-07 -0.015193527006367771 -8.10528781381512233e-07)
(4.44730427133354643e-07 -0.0157537406111650201 -6.46558231122002896e-07)
(4.61500428644649685e-07 -0.0151897268987056765 -4.98552678855161341e-07)
(4.25729438188078227e-07 -0.0145292845315684212 -4.00531790874382406e-07)
(4.36057871783460697e-07 -0.0139251076670783066 -3.15224979534537289e-07)
(5.75733853186763812e-07 -0.0135901478454018444 -2.3146908605137648e-07)
(5.86421632357394352e-07 -0.0134618929215944289 -7.8499597239856929e-08)
)
;
    }
    procBoundary1to0
    {
        type            processor;
        value           uniform (0 0 0);
    }
    procBoundary1to2
    {
        type            processor;
        value           uniform (0 0 0);
    }
    procBoundary1to3
    {
        type            processor;
        value           uniform (0 0 0);
    }
}


// ************************************************************************* //
