/*--------------------------------*- C++ -*----------------------------------*\
| =========                 |                                                 |
| \\      /  F ield         | OpenFOAM: The Open Source CFD Toolbox           |
|  \\    /   O peration     | Version:  2206                                  |
|   \\  /    A nd           | Website:  www.openfoam.com                      |
|    \\/     M anipulation  |                                                 |
\*---------------------------------------------------------------------------*/
FoamFile
{
    version     2.0;
    format      ascii;
    arch        "LSB;label=32;scalar=64";
    class       volScalarField;
    location    "0.960000000000000631";
    object      p;
}
// * * * * * * * * * * * * * * * * * * * * * * * * * * * * * * * * * * * * * //

dimensions      [1 -1 -2 0 0 0 0];

internalField   nonuniform List<scalar> 
7248
(
-0.754026628326423864
-0.529630876567523501
-1.0654939957910099
-1.08825598458090167
-1.63310626023725058
-1.55780707428766485
-1.45668782462787272
-1.35462660726170259
-1.26795771317505057
-2.02195384018034563
-1.95302482405465927
-1.87290084353805542
-1.78547627295906541
-1.69636648128257939
-2.44815286724111392
-2.38632395215006321
-2.31820170499323286
-2.24426816939906715
-2.16766116015676502
-2.89739057916086873
-2.84390574532423202
-2.78701729211037907
-2.72751228643778276
-2.66741596796323677
-3.35738354039248499
-3.31290615863049709
-3.26735369427709088
-3.22177953326430089
-3.17787706558041272
-3.82550390926917938
-3.79020391301516302
-3.75549841850696797
-3.72279570996878295
-3.69406578783076389
-4.29738757655155279
-4.27036368350910678
-4.24516907333494586
-4.22358575475548648
-4.20808866759285483
-4.77066049232734546
-4.75034511494346212
-4.73249911158912706
-4.71909187070852543
-4.71297252457936988
-5.24384235726679115
-5.22835662891810227
-5.21517377444717933
-5.20602842326389759
-5.2035243090579737
-5.71653033984666692
-5.70426448567823741
-5.69345893857964835
-5.68520553030354936
-5.68118137760271935
-6.2091268532692272
-6.19917154549715654
-6.18911191162584284
-6.17918699370196034
-6.16967711480472225
-6.16093694525362778
-6.15357970970256218
-6.67671431302864615
-6.66962906751111095
-6.66224586889370496
-6.65457054678957682
-6.64655511385179043
-6.63805760359009778
-6.6290511274085091
-7.14524120220472891
-7.14098574624386462
-7.13639230557159454
-7.13134406371194807
-7.12579262851281747
-7.11918116427595482
-7.11134608121178502
-7.61451402747034845
-7.61318324338273822
-7.61165194442415061
-7.60982842637491341
-7.60759799174202467
-7.60471735593776454
-7.60103728309330684
-0.901036982588942159
1.22760972356399378
-1.09739660000514228
-1.00109934944616108
-1.64869693109406201
-1.59733749576577533
-1.50689022291281827
-1.41377107583694794
-1.34722618258153504
-2.03729576925728928
-1.98048931748682588
-1.90916700778651061
-1.82675487150916127
-1.73739554185647616
-2.46169745548006658
-2.40463424149803373
-2.34234633009990212
-2.2739819584917389
-2.20191955882005264
-2.90874465221008016
-2.85853313978166401
-2.80550597313674732
-2.75009757422565482
-2.69389044778815556
-3.36631281302086904
-3.32409329302711232
-3.28118728541682447
-3.23867373260628577
-3.197921550984137
-3.83281014482833893
-3.79897315950028958
-3.76599894880890673
-3.73516130555847026
-3.70811677257468997
-4.30331078586159244
-4.2771840466678368
-4.25288874339933809
-4.23200448325729983
-4.2166174015395308
-4.77533261319367064
-4.75555712280073717
-4.73809094631481464
-4.72463330502014589
-4.71752228584550526
-5.24760266696037725
-5.23253518250820004
-5.21962817939411128
-5.21038152238949426
-5.20692660268743701
-5.71967317571160994
-5.70790625150321596
-5.6976326985848722
-5.68987364342592628
-5.68611344923056272
-6.19178884475746827
-6.18249740993366981
-6.17386170183491068
-6.16636216259407632
-6.16072427293402392
-6.66443081749101207
-6.65742968326829132
-6.65042031737045658
-6.64347238308010724
-6.63677708314562942
-7.13796081567207974
-7.13348960450839531
-7.12870862408316164
-7.12344875982524073
-7.11759283359363693
-7.61246032743288037
-7.61092774537777306
-7.60910701314413451
-7.60685462265029866
-7.60402877173801617
-0.895005207082493204
1.45261301535457221
-1.13611299400411259
-0.985752331027003548
-1.658406618469908
-1.61447652177442924
-1.53531361124907662
-1.44583753548702898
-1.38025648873577178
-2.04389061416443774
-2.00079244410401191
-1.93483334151822972
-1.85300090659867478
-1.76290609437957801
-2.46947851859824219
-2.41789217400508072
-2.36003914315044927
-2.29582436216428176
-2.22740747737495015
-2.91687739423768999
-2.8696197930711449
-2.81986452035950164
-2.76784423110673217
-2.71433902415815176
-3.37385031603473351
-3.33333390055120038
-3.29243232677022934
-3.25222955268330516
-3.21361708827791226
-3.83896760139555981
-3.80631572760570602
-3.77470873266903872
-3.74521501523399758
-3.71916747851592167
-4.30840377848806
-4.28301799335037536
-4.25940326287563487
-4.23894803924760932
-4.22338464438859873
-4.77942764562123301
-4.76011115685530317
-4.74294766309903792
-4.72940065389307396
-4.7213877768749235
-5.25098517493247829
-5.23630264307798665
-5.22365889426748353
-5.21436641483810437
-5.21020223295803131
-5.7225630803494143
-5.71126679303983575
-5.70149774765495199
-5.69421919862844561
-5.6907650321484482
-6.19428773968898128
-6.1855887812296908
-6.17774710935052873
-6.17132021577571344
-6.1671137478697533
-6.66649103423162437
-6.66011681221189011
-6.65401967584405529
-6.6484119328107969
-6.64364013595095226
-7.13945048498460988
-7.13550479608257415
-7.13148784262031299
-7.12738703750371538
-7.12323013820687656
-7.61324826480962624
-7.61200238992332068
-7.61058899875551642
-7.60893248102002495
-7.60693231743022125
-0.912946603959512215
1.24843090165489201
-1.17302525604862917
-1.04693111990937004
-1.64544886043074934
-1.61001846720797515
-1.53839378845182795
-1.45684066952647395
-1.39588995792485182
-2.04208411795785461
-1.99944836381960278
-1.93913568877768916
-1.86631769577880968
-1.78107884964123131
-2.47219397804022956
-2.42582925316073483
-2.37214248091649083
-2.31104272148689738
-2.2452578327682815
-2.92462416988092277
-2.87879114665348101
-2.83067644611548985
-2.78060640475918852
-2.729241389522155
-3.38045118615627649
-3.33987616395345466
-3.30045901141428732
-3.2621199482704708
-3.22519699381432989
-3.84377556709285706
-3.81203155256395076
-3.78150723428249869
-3.75300554023243071
-3.72755237733474099
-4.3126185128556731
-4.28780772528241449
-4.26469796253158151
-4.24448852468228566
-4.22862548942394056
-4.78290311043305039
-4.76395242412718289
-4.74701791765464876
-4.73336587127384245
-4.7245903206938511
-5.25390213753064916
-5.23955208097475378
-5.22713705881801349
-5.21782024159026747
-5.21311446408633827
-5.72509155268685355
-5.71420624318200421
-5.70487030941546625
-5.69799431748372331
-5.69479275025784748
-6.19649597002548358
-6.18831027216397711
-6.18113654083802366
-6.17557328797597194
-6.17244607867650075
-6.66832523761692997
-6.66249360234998811
-6.65716324540434545
-6.65263902513733818
-6.64936329094254397
-7.14078824351371644
-7.13729799271256837
-7.13394307862581734
-7.13080341741187507
-7.12800838961759986
-7.61397121692403278
-7.61298933536784261
-7.61194979834716534
-7.61081638715570996
-7.60955345553371121
-0.88224803948122088
1.18855945938641838
-1.22267545277822798
-1.09896013882682619
-1.62528320494273038
-1.60290341603098252
-1.54841497408986295
-1.47216403104646565
-1.4083307159876377
-2.03915740379295629
-1.99801691076866628
-1.94350012012646678
-1.87570598233420904
-1.7949918049563478
-2.47500644873012376
-2.43000084846627029
-2.37953080866593814
-2.32056186475305282
-2.25637238654714167
-2.93200891657506091
-2.88579743031651414
-2.83742096239901054
-2.78863230673826745
-2.73916468469815388
-3.38633095911703519
-3.34594836731443923
-3.30673614516832526
-3.26942876248863801
-3.23358788200051528
-3.84801292170751807
-3.81689963291485723
-3.78695164289629593
-3.75895185604888082
-3.73373343338905972
-4.3160917638696441
-4.29168165054610107
-4.26889138264353907
-4.24876950312711799
-4.2325682869258987
-4.78574058112065881
-4.76707972447116823
-4.75030912762619373
-4.73654455689919018
-4.72715175400786514
-5.25629132949084976
-5.24221349518693636
-5.22998021920149014
-5.22064175261962937
-5.21552198765030184
-5.7271823572907179
-5.71663213053343533
-5.70763866267494002
-5.7010654857523182
-5.69803116381386232
-6.19833417383059704
-6.19056256361165058
-6.18391131407124917
-6.17899624636751721
-6.1766374835735709
-6.66986119116387943
-6.66446754840833488
-6.65973955715786037
-6.65603890404412635
-6.65385598839721926
-7.14191764294560461
-7.13879872691176942
-7.13597128160391492
-7.13358210051333685
-7.13181947260853288
-7.61459356690275158
-7.61383404078970205
-7.61311321229792259
-7.61242137262178531
-7.6117427117588834
-0.598970545504019736
1.27442833760803609
-1.21111819026577394
-1.10684641131428574
-1.60435096064925276
-1.58818286931159736
-1.55085473147884279
-1.4781436260227796
-1.41133563162031161
-2.03695924139896167
-1.99954471586983296
-1.9500573929709144
-1.88603956178318932
-1.8039493203393222
-2.4859110102808053
-2.43906571899646707
-2.38694702509488632
-2.32715719046949587
-2.26250038585147273
-2.93936511171264847
-2.89297800973320296
-2.844209366769479
-2.79441532380220448
-2.74528334935968754
-3.39151606930872696
-3.35100065323263285
-3.31204520641786981
-3.27497262985541981
-3.2394599366861101
-3.8514376101366703
-3.82071272069050094
-3.79113594521559438
-3.76332331013178845
-3.73807029233374299
-4.31869141564122039
-4.29464017242120288
-4.27205507323848455
-4.25193782003024623
-4.2354193517676304
-4.78788092809431731
-4.76945735597171172
-4.75280062410470361
-4.7389333526649704
-4.72907270559760118
-5.25810119199106296
-5.24423821628363829
-5.23213990330216916
-5.22277911167948794
-5.21735259432292686
-5.72878160609791465
-5.71848532889533345
-5.70974099854433881
-5.70337396033401411
-5.70042884843259756
-6.19974837131761181
-6.19228537576539573
-6.1860119448853661
-6.18154671275966461
-6.17969052853992018
-6.67104914037997521
-6.66598165629947115
-6.66169256429490275
-6.65857331200141722
-6.65713594837693101
-7.14279752582516547
-7.13995766616106131
-7.13752116279448767
-7.13567248727654402
-7.1346443627062115
-7.61508637846938985
-7.61449876386565894
-7.61402340899343333
-7.61367835104451274
-7.61347202821897362
-0.477594498324025452
1.444010658222183
-1.20180059744045509
-1.11087933731427735
-1.62927950583514547
-1.59621295892318149
-1.54370611437347383
-1.471113186329567
-1.40744082234150647
-2.05346484711527477
-2.001490855858993
-1.94646222889999598
-1.88595734678512161
-1.8047285858774571
-2.48258642458406431
-2.43751201403965645
-2.38854689293435118
-2.33069823460590708
-2.26536439073831009
-2.93349557496763191
-2.89336000438763019
-2.84797479275467147
-2.79825099033221392
-2.74890855375530485
-3.39340951615568631
-3.35421965490911278
-3.31553731096887727
-3.27859553259541148
-3.24312692708978734
-3.8530527302838733
-3.82294147396155415
-3.7937645832800162
-3.76612624599906542
-3.74081329369635451
-4.32025089192761413
-4.2965684308484029
-4.27416264582490424
-4.25403649460370747
-4.23727939557673405
-4.78926876940050761
-4.77102990716440534
-4.75445664701476911
-4.74051995581899277
-4.73035140555821521
-5.25929933624922707
-5.24559276643880246
-5.23358772659119964
-5.22420970842907284
-5.2185786418854212
-5.72985711782306506
-5.71973191708903883
-5.71114854022244778
-5.70490614293323794
-5.70199797264934105
-6.20070483148351492
-6.19344573923711472
-6.18741548635225502
-6.18322951574988178
-6.18166737845892378
-6.67185631890726949
-6.66700390831170608
-6.66299932896160563
-6.66024824258683878
-6.65926676272024132
-7.14339895658339952
-7.14074416480784446
-7.13856481652638397
-7.13706659604029259
-7.13650339013564938
-7.61542748599504371
-7.61495633272251471
-7.61464722528266336
-7.61453537798950908
-7.61464872724649577
-0.766273205478768871
1.16700697822417965
-1.22901040433315778
-1.14877110975474039
-1.63127083174003218
-1.57942973512585172
-1.51615788991862188
-1.45117700372087222
-1.3917308158174222
-2.03150303594782944
-1.97126250975503314
-1.92130849564089412
-1.87187412321462854
-1.795381332043398
-2.45621535008630243
-2.41844859187476535
-2.37874927342295273
-2.32739754773194329
-2.26421642425759995
-2.91887807792720055
-2.88754692907998756
-2.84654805506021225
-2.7983722755751117
-2.74972401106244435
-3.39166137118108812
-3.35435932056978281
-3.31644988908564908
-3.28011456630492404
-3.24476944646899579
-3.85333352387927031
-3.82391046880441454
-3.79495321822203113
-3.76742053983898595
-3.74209277915952487
-4.32088231654595223
-4.29743622110662571
-4.27515759606797019
-4.25505200482697354
-4.23818932338984666
-4.78991196409550213
-4.77179963539968455
-4.75528390452922167
-4.74131398076207677
-4.73099204807699714
-5.25989684012397163
-5.24627009568846514
-5.23431094175685452
-5.22492414189577925
-5.21919341488697253
-5.73039466816780951
-5.72035613623446437
-5.71185227955781993
-5.70566945478126275
-5.70277629971273381
-6.20118624349014436
-6.19402866774937255
-6.18811744942205344
-6.18406543136001563
-6.1826420067536052
-6.67226355806517191
-6.66751841182013205
-6.66365390565749571
-6.66108125161436515
-6.66031919262531336
-7.14370371906020818
-7.14114140374501094
-7.13908970741495974
-7.13776416609534081
-7.13742992859475223
-7.61560190515021773
-7.61518948052045186
-7.61496468286635508
-7.61497132182315273
-7.6152487432423337
-0.231347108896303055
-0.0782823377896053607
-0.632353058196169826
-0.473872104289265295
-1.45355074622856772
-1.34314677500479873
-1.21797034445318486
-1.07543145219748215
-0.907278128215099233
-1.88761778196135643
-1.78499965075826172
-1.6673922238097334
-1.53129205453979944
-1.37441895684401727
-2.34094761642731886
-2.25031651999722104
-2.14503659927579182
-2.02389702947912387
-1.88428048583544916
-2.80592491382759057
-2.72961005954773661
-2.64148843320330595
-2.53997855220991475
-2.42307204483011285
-3.28267773426285814
-3.21989124553915751
-3.1490803399382461
-3.06883833072659851
-2.97728956419388568
-3.76590033653451117
-3.71711190693392846
-3.66384249469115453
-3.60543537334247244
-3.54070585904489255
-4.25175732041545373
-4.21576164373725959
-4.17860828299551201
-4.14089545898569522
-4.10316610188552211
-4.73685185465974268
-4.711421635974685
-4.68764761696865051
-4.66729686332701998
-4.65303554516721185
-5.2195237962857437
-5.20187456984518448
-5.18741561988793443
-5.17763252217658287
-5.17851626525290687
-5.69916119172549696
-5.68622034616517524
-5.67611100011832459
-5.67122651967859781
-5.67574731633398955
-6.19848062872496186
-6.18750792335508581
-6.17659771519676681
-6.16631541929571725
-6.15751579942065774
-6.1518856588914872
-6.15207702853502969
-6.66926428506477897
-6.66137790851733413
-6.65327796850046305
-6.64502461929238208
-6.63688915148884639
-6.62946706620384507
-6.62394355821279568
-7.14049142286696448
-7.13559506475045069
-7.13051604973984254
-7.12478595493162636
-7.11859763780209764
-7.11200106680328759
-7.10518866521866954
-7.61224945122850638
-7.61055583237907918
-7.60867077459377317
-7.60641464573601667
-7.60382474556508381
-7.60087864585976813
-7.59752148009063077
-0.262077146232506442
-0.116028435241533501
-0.65968650773100812
-0.51704881074394593
-1.45548754111869272
-1.34124065751116639
-1.21630237584638756
-1.08114961315768676
-0.924403174015458573
-1.89271566675059266
-1.79181760577082683
-1.67479480022704519
-1.54013800069080808
-1.38873833177824979
-2.34408105130427202
-2.25512825130065897
-2.15202747151622109
-2.03340349074330451
-1.89735658339518665
-2.80941664401693014
-2.73379187700773008
-2.64721690660179965
-2.5479087616300351
-2.43389879852335955
-3.28585056934120789
-3.22394573486885871
-3.15445549303544137
-3.07614964311849537
-2.98700280378446337
-3.76844126123905054
-3.72034175553792945
-3.66809960023167569
-3.61123766949046576
-3.54878067866113867
-4.25363957360306166
-4.21817482707942393
-4.18186564285904794
-4.1454752531200505
-4.10975944529893678
-4.73832077215512815
-4.7132398932871622
-4.68996265359319064
-4.67054009601967657
-4.65817156639400665
-5.22051067836089899
-5.20294731713377434
-5.18857089539670291
-5.17939211613592043
-5.18141230455709767
-5.6997171803561244
-5.6866452490156103
-5.67625161520880006
-5.67089270860507888
-5.67469610424941617
-6.19886276605590325
-6.18784850416227794
-6.17681957296921524
-6.166279080065042
-6.1569418994573839
-6.1500259790506302
-6.1473973971018383
-6.66949740342872666
-6.66156197344853851
-6.65333161073694956
-6.64482350814478906
-6.63617915324342
-6.62762083581861106
-6.61962432023633518
-7.14062864981021583
-7.1356944740805428
-7.1305285308325761
-7.12461837317002455
-7.11803620615046473
-7.1105375319543116
-7.10186236996370024
-7.61232486793584684
-7.61061535164188285
-7.6086942491654499
-7.60636327216497943
-7.60361388971548102
-7.60035133619051084
-7.59633748568046308
-0.276422265903760955
-0.156236245764396209
-0.669824517376200079
-0.566892790003583835
-1.45857512449349014
-1.34414626471158116
-1.2175912169505696
-1.08483280907680757
-0.938867588162503486
-1.89687844901500213
-1.79765165971215479
-1.68430629626759698
-1.55524784543887296
-1.41155009796397146
-2.3505098894215144
-2.26351896199300562
-2.16412901155338311
-2.05093233473739289
-1.92251121427027205
-2.81665805095276323
-2.7427087781822479
-2.65909443564646786
-2.56444833598829947
-2.45725697803978083
-3.29218595750632748
-3.23177882479640033
-3.16470796597486448
-3.09005063225815935
-3.00652713189498266
-3.77351775977817905
-3.72655635576598732
-3.67612830582886296
-3.62213931638138398
-3.56413986339936173
-4.25746308543286744
-4.2228181070887274
-4.18784412375096338
-4.1536240117111225
-4.12143310425877463
-4.74106519246640712
-4.7165042326657618
-4.69407244197071449
-4.67609781550035386
-4.66637155630788758
-5.22234691643573612
-5.20494196431637768
-5.19080706537302916
-5.18198506767698142
-5.18512979021907494
-5.70080307141101361
-5.68753988588402493
-5.67668263635372394
-5.67039298829207095
-5.6728403130005951
-6.19960063919962057
-6.18854006938762691
-6.17735162682163619
-6.1664329381658316
-6.15620026299137812
-6.14741501471187046
-6.14139995394686444
-6.66995737125213051
-6.66196239611658747
-6.6535597043363639
-6.64466008761852223
-6.63514028972644443
-6.62475230277532567
-6.61315087634445575
-7.14089646245371146
-7.13591929826831883
-7.13062437468626609
-7.12443919149215699
-7.11724750315297605
-7.10848164538007854
-7.09733465282478981
-7.61244650298178538
-7.610719679572302
-7.60876292783359798
-7.60632577459209358
-7.6033482130406016
-7.5996390295782863
-7.59476967213061727
-0.278402558532230726
-0.221020652155404562
-0.645308451759196267
-0.545217202481059537
-1.47705171840069482
-1.36059218742628651
-1.22953493307766482
-1.08198932781886392
-0.923602268107395208
-1.90960436658884691
-1.81127291341131036
-1.6989837978411253
-1.57144605714162378
-1.43233446596664082
-2.36206803201017657
-2.27696149442597973
-2.18057420430744475
-2.07247746466979388
-1.95271941070216859
-2.8270117505987109
-2.75538428989643647
-2.67531127453884698
-2.58612886177618861
-2.48746546648201239
-3.30091815262273469
-3.2426055215522549
-3.17870968168962298
-3.10884612487198453
-3.03268301482065628
-3.78055863003849613
-3.73522652373571118
-3.68728208971385385
-3.6370472143996917
-3.58487034720062336
-4.2628356683935964
-4.22932413760685844
-4.19606588100946087
-4.16449422812911152
-4.13654675686479756
-4.74492287752599928
-4.72100378377381702
-4.69950688828793162
-4.68302153517271602
-4.67579288637705481
-5.22492291666049002
-5.20767637618076229
-5.193596404876474
-5.18526107250877821
-5.18874208660137981
-5.70239531754897389
-5.68895070463660435
-5.67759212953236325
-5.67027321695205444
-5.67080086088468249
-6.20065734584825456
-6.18957917876576325
-6.17825518392284945
-6.16700496117147523
-6.15592889650402597
-6.14538895651010098
-6.13609149136937848
-6.67064425307102127
-6.66261561849995854
-6.65406483770826629
-6.64482761551646917
-6.63452974399670747
-6.62252665966495346
-6.6078782549888988
-7.14131360236738644
-7.13633302457861607
-7.13087750717882773
-7.12448860866123557
-7.11677982172436518
-7.10693390957358417
-7.09375251685847896
-7.61263650143971127
-7.61090321354042487
-7.60892026195367244
-7.60639788082700719
-7.6032195327464791
-7.59912940585020547
-7.59356075491962912
-0.309827458825747692
-0.268999771807542754
-0.645397462239382769
-0.541222761805328467
-1.50223028291402461
-1.38736362622675546
-1.24956879250935371
-1.08698494167075999
-0.904902889114421072
-1.92675561652706495
-1.83082472398045315
-1.71965835517810972
-1.59238342460791293
-1.4544223086663719
-2.37682430167455028
-2.29502475732221356
-2.20229149393624724
-2.09898567627034449
-1.98645745387609196
-2.83955640471836812
-2.77102224466505298
-2.69509328697366568
-2.61173047823587279
-2.52173017308244152
-3.3113789241051288
-3.25570050335840211
-3.19549373451025209
-3.13093904352303287
-3.06275792995500407
-3.78898103472846381
-3.74564383930991518
-3.70055842226072507
-3.65450817838534725
-3.60868281555192194
-4.26927484967601778
-4.23710870104535697
-4.20575528588556669
-4.17696765429499717
-4.15330929208891941
-4.74959051805867105
-4.72641138793493631
-4.70586305784122327
-4.69066228371358385
-4.68529568164873655
-5.22812489097941224
-5.21110440728788582
-5.19710512249241674
-5.18891987963892465
-5.19185216101766578
-5.704513672893329
-5.69099717189685705
-5.67928250022319148
-5.67109902197823068
-5.6697093622063397
-6.20200378409699837
-6.19098333459032357
-6.17965506047151347
-6.16819511867907622
-6.15664805552707328
-6.14506041767382083
-6.13370530043136242
-6.67155219763558893
-6.66355281953457457
-6.65496051583088732
-6.64558716230583357
-6.63490421879175685
-6.62210646414212256
-6.60600262227315138
-7.14187718758942491
-7.13692954455269835
-7.13141592745653341
-7.12496945219079425
-7.11704490775830401
-7.10673468430637723
-7.09272347920497914
-7.61289803186735803
-7.61119460054344099
-7.60918826699500617
-7.6066568212373884
-7.60338668844233379
-7.59912072584771536
-7.5932989579558603
-0.355757623815033952
-0.228865350040142967
-0.705062331652800856
-0.614623702700276775
-1.53117672464376087
-1.42091048569347222
-1.28809103383132961
-1.12858794238747784
-0.954233159884543269
-1.94770872835193565
-1.85720340164194941
-1.75027972418150446
-1.62746611995501977
-1.49751633466169976
-2.39404007696808607
-2.31652643817333281
-2.22876096137822044
-2.13136931767710669
-2.02648656381177172
-2.8536057797781007
-2.78872915041166891
-2.71748030666936691
-2.6402803939848587
-2.55870106552750265
-3.32290282744516663
-3.27016086353032343
-3.21387971315466192
-3.15472348236220013
-3.09418600158382695
-3.79819661842999734
-3.75703832105511415
-3.7149071998739025
-3.67298033852644812
-3.63310775810193576
-4.27633013145083751
-4.24559101915847581
-4.2161179225332166
-4.18987916973983854
-4.16984002377743934
-4.75476663590636406
-4.73236537755685394
-4.71269014261409325
-4.6984282231260508
-4.69396373408675771
-5.23179837142439919
-5.21508818651855499
-5.20123729373388866
-5.19294061280592256
-5.19451559904400995
-5.70711008784386475
-5.6936938530760024
-5.68187476495096089
-5.67315932067322493
-5.67027832279695243
-6.20359266806917287
-6.19272171686113637
-6.18152778269664793
-6.17014177330499169
-6.1585952066930405
-6.14685901720238803
-6.13509090424596959
-6.67265895346397109
-6.66477309992820999
-6.65627990580236339
-6.64706690303741876
-6.63650217267745024
-6.62390343511843849
-6.60819601058992223
-7.14257720958845965
-7.13771759427830066
-7.13227540447628439
-7.12597926388990643
-7.11821319148757148
-7.10818130239804713
-7.09469767631198778
-7.61322616334438607
-7.61157615519649955
-7.60960962742005975
-7.6071550481738317
-7.6039529999840294
-7.59974050940308654
-7.59411633237348482
-0.41508506056425265
-0.308499505497774607
-0.807310675768145414
-0.758344393782739878
-1.55992227404104189
-1.45831899170296508
-1.33908709624882927
-1.19784160830888053
-1.04501866420446476
-1.97069214793104819
-1.88678239633976941
-1.78847136145737129
-1.67724388983937334
-1.56140651346989978
-2.41230554334938851
-2.34006975329487954
-2.25859913376670107
-2.16904736152114541
-2.07405753115137692
-2.86844957760074415
-2.80756800103094362
-2.7413411125609124
-2.67071682149022926
-2.59739455854609025
-3.33485798842298653
-3.28511213572398209
-3.23274467892721606
-3.17875396143076294
-3.1250139592509818
-3.80769289574078851
-3.76869568287488033
-3.72937458616700512
-3.69115222836241319
-3.65619736212248014
-4.28360171504105747
-4.25424810640005369
-4.22647334798957974
-4.20230499124173562
-4.18477388083172919
-4.76016968812720354
-4.73852806351242961
-4.71959691388721048
-4.70589065355559288
-4.70141620568323049
-5.23576635587803541
-5.21943062630713772
-5.2057540435512113
-5.19708545809816425
-5.19733610426011872
-5.71008113766289238
-5.69693483952233937
-5.68527732614107695
-5.6764023760292126
-5.67267148361244899
-6.20536109398197144
-6.19473230996032509
-6.18381869685928187
-6.17275449594345282
-6.16166124321331843
-6.15053655270244892
-6.13968812908371397
-6.67392646243306675
-6.6662464352107067
-6.65803183143890553
-6.64915927426129905
-6.63920900899924327
-6.62761564970748207
-6.61365373397322553
-7.14339416441474917
-7.13868462620937905
-7.13342089023576342
-7.12749899863029501
-7.12022469946499914
-7.11106264323392434
-7.09908893584681433
-7.61361406216210757
-7.61204505011068289
-7.61017620177019971
-7.60788885716315733
-7.60489638132640877
-7.60096350505206786
-7.5958511331455334
-0.505310654676330406
-0.673986237836534663
-0.93740626504189839
-0.933774364375190125
-1.59507964706180516
-1.50578852776103944
-1.39629493160154583
-1.27597654548505135
-1.15823290626481867
-1.99457315938754087
-1.91867255744473453
-1.83023659692274721
-1.73337890137616468
-1.63551587838939549
-2.43085745179186219
-2.36392103277360333
-2.28933738353337812
-2.20800751653014338
-2.12386071620396333
-2.88333804800330462
-2.82632648934827291
-2.76502896821097544
-2.70047793242875489
-2.63460214797572689
-3.34651519172270584
-3.29958870363184253
-3.2508729126406104
-3.20149533623893667
-3.15332258751582639
-3.81690651193931174
-3.77990182335648672
-3.74309524002648164
-3.7079712826166471
-3.67670226828174762
-4.29070882928557573
-4.26261382210416517
-4.23627425171145866
-4.21363870627512949
-4.19753171060655816
-4.76554088728238501
-4.74460222796518671
-4.72627655090369814
-4.71282078058771869
-4.70766577012835707
-5.23984170657956749
-5.22392370362513425
-5.21047621588631582
-5.20152140677607733
-5.20031411864860083
-5.71327784429010421
-5.70053300820399222
-5.68923858673519156
-5.68056956391358092
-5.67649005209474655
-6.20723267265191136
-6.19691967467526261
-6.18640142691915251
-6.17586104923269463
-6.16548363068315552
-6.1554622919135582
-6.14625510681674925
-6.67529957402923646
-6.66789620098506752
-6.6600667003502716
-6.65173486260515112
-6.64269680222835035
-6.63257315158414507
-6.6210292452629167
-7.14429712869049549
-7.1397984130139891
-7.13485296346033948
-7.1293182736334817
-7.12283858239869172
-7.11489906201329259
-7.10494618181772264
-7.61404953947646224
-7.61259000932436702
-7.61087462090772071
-7.60879810158160996
-7.60614800303181315
-7.60268771288555367
-7.59822589729091735
1.92924996272704519
2.73338498081876757
1.60864009547403519
2.32713995014844688
0.911374665752191504
1.37545200611160201
1.95635782222857024
0.448657182729211623
0.68638772662260239
1.05493810739028282
1.54958406292480033
1.82741869245499622
2.48573771169510493
1.44370834357034994
2.05755812121842929
0.835744632994347203
1.16168012106733087
1.63703600534587634
0.403961827276275498
0.576932695681637853
0.836082499659678735
1.24722697718790432
2.39494373598470389
2.93283857145538818
1.21858609936693263
1.94123902440664153
0.731789802417808666
0.942573682733377272
1.40977890979987386
0.430901468823716716
0.527731516575236537
0.721383669669969585
1.12137427169029502
5.63499452083804186
7.23290494738789391
2.78734481678075952
4.9655965650738807
0.44910966637938543
0.794631920787381318
1.67181905648132556
0.261383050366545966
0.130998128253075219
-0.289632443746432156
0.0452935925247324178
6.09116151646096426
6.53665871155757117
3.8630008855182183
5.39914661469350676
0.298516203268953006
1.08922844046368539
3.67307029281977293
-0.227758774801275266
-0.469642918226218953
-0.684306251372248653
0.573630013494444313
5.3884362344729162
6.29550909011452475
4.60232725213538174
5.76943198160421922
2.13440224928877598
3.02864398558701353
4.40746522382918116
0.644462419635359218
1.12782431492235524
1.23890661622104759
1.71384576309410974
5.94408908701707972
6.71142055110424707
4.30031015848133791
5.16773493460294375
1.83161051229667038
2.28676778632148014
2.94551970177154843
-0.179454498488365921
0.325868557174903373
0.279295894405175105
0.832486963077530007
0.368206777379825212
1.70284243208462627
-3.42315299844025489
-1.67109592459316048
-9.28037023819155138
-8.15543029739390946
-6.15727687342263508
-11.6525777021622901
-11.0316878178077786
-10.4747750677586069
-8.99963703132369375
0.109327531218291085
0.338079100392852272
0.634866438282646328
0.967549524189141863
-0.2924790201836176
-0.0807570413943006216
0.185126186697115003
0.477025219892666996
-0.715878380006897519
-0.504160653331624964
-0.249843653077848948
0.0295273698555980069
-1.19918708537333929
-1.00092223715197681
-0.767558925931342451
-0.51313940966133309
-1.72819738497221587
-1.55347601287419401
-1.35019801801918682
-1.12987406848999239
-2.29339019055318305
-2.1488393964851138
-1.98104618987646885
-1.80030373749516803
-2.8769116542543296
-2.76648021789094933
-2.63830274456325675
-2.50081584652008004
-3.47179112112765065
-3.39768143899097108
-3.3122202668158911
-3.21812055030236355
-4.06747852674534016
-4.03317424223235399
-3.99593449870026696
-3.95333846125076249
-4.64813515439411251
-4.65269090103520444
-4.6661492768694659
-4.68206852079701896
-5.19414301673189183
-5.22785530746813532
-5.28239349717177387
-5.34910455814344932
-5.69482400445868553
-5.73468747696148462
-5.80573582801632693
-5.89801623354216265