/*--------------------------------*- C++ -*----------------------------------*\
| =========                 |                                                 |
| \\      /  F ield         | OpenFOAM: The Open Source CFD Toolbox           |
|  \\    /   O peration     | Version:  2206                                  |
|   \\  /    A nd           | Website:  www.openfoam.com                      |
|    \\/     M anipulation  |                                                 |
\*---------------------------------------------------------------------------*/
FoamFile
{
    version     2.0;
    format      ascii;
    arch        "LSB;label=32;scalar=64";
    class       surfaceScalarField;
    location    "0.960000000000000631";
    object      alphaPhi0.water;
}
// * * * * * * * * * * * * * * * * * * * * * * * * * * * * * * * * * * * * * //

dimensions      [0 3 -1 0 0 0 0];

oriented        oriented;

internalField   nonuniform List<scalar> 
20856
(
-3.68525561170548751e-06
-2.43110732218789773e-06
-1.77832093050222266e-06
-2.66971246788918898e-06
-3.19001952197986967e-06
9.38873777389353602e-07
-1.43114981126359782e-06
-1.58963975635747226e-06
-3.10690251752979325e-06
9.55247936900368505e-07
-1.18454513894866895e-06
-7.15157383274935184e-07
-2.24022514880585859e-06
8.3651501593183926e-07
-8.95543986656307429e-07
-1.97475657244348929e-07
-1.0398742906838276e-06
5.78571299261602446e-07
-6.12164981124900368e-07
4.11676765304881167e-08
-3.00904171947689198e-07
3.3146815512765482e-07
-4.82287167730662009e-07
3.30727127646682979e-07
1.08181012346937997e-07
3.58647927693735703e-07
-5.73596017942672449e-07
8.81381279891775453e-07
8.95589221555709433e-07
5.23649015104248667e-07
-1.08444088090646735e-06
1.50538282115695104e-06
2.83464892444856276e-06
9.34937189297290618e-07
-1.81953191086024648e-06
1.43502110371348658e-06
6.16203507762849222e-06
1.92372823244846734e-06
-2.64236206447539335e-06
-3.31976062290044934e-07
1.0266530302913818e-05
3.5042099799018069e-06
-3.54108128275888852e-06
-1.09855431750765359e-05
2.28604066412633607e-05
-7.52181510249912398e-06
1.56276671360249084e-05
-3.85309624840976764e-05
6.99817172945732047e-05
-0.000147594004512046495
9.24737386308668722e-05
-7.35362682815976162e-05
0.000250594937210239896
-0.000177278334048476928
0.000106370979011267088
-2.70110421550023852e-05
0.000463298430592664723
-6.37919179058875151e-05
2.36526065747773787e-05
0.000665580793280521601
4.62320049539284694e-06
-2.36408270718066654e-05
-5.7452387128880737e-06
-2.90811716419391184e-06
7.26032442739396197e-07
-1.47246657418108735e-06
-4.4775180638437743e-06
-4.44513483502682666e-06
9.68670438187536117e-07
-1.45885805232678256e-06
-3.11672472077746406e-06
-4.6175590218689448e-06
1.29653709385272096e-06
-1.58678668700846936e-06
-2.00382763670558656e-06
-3.54073343042889193e-06
1.45198501063713127e-06
-1.63244696095699828e-06
-1.21397415280715335e-06
-1.95566996448761407e-06
1.30440210310152353e-06
-1.43728579421089481e-06
-7.97357880870901568e-07
-6.22673623708214322e-07
9.31478663432586073e-07
-1.22729629072571557e-06
-4.94018328209844838e-07
1.49662510783429433e-07
7.04871750052034326e-07
-1.27009279326404868e-06
-1.93465068118896745e-07
1.21313646847563274e-06
8.42802288941802531e-07
-1.73344628824743694e-06
1.84705302230586001e-07
3.29809012337927857e-06
1.27041187550148769e-06
-2.52451907928374036e-06
1.29750599930709224e-07
6.87463739413477577e-06
2.34172463334878684e-06
-3.53887024784211325e-06
-3.12864704678792167e-06
1.23865270275346605e-05
4.3603631179931755e-06
-3.52671504525767789e-06
-1.2693950472193635e-05
2.33790877168132586e-05
-7.64394851939713661e-06
1.55979492132000047e-05
-2.83616218240989004e-05
7.43144187312845842e-05
-6.60595881703977746e-05
5.14257707090145353e-05
-4.86769087468078585e-05
0.000232439226767840483
-0.000137159537010039768
5.70043842884377736e-05
-3.97628539972381568e-05
0.000382087020826788241
-7.0735291713276913e-05
2.17772981591665204e-05
0.000647159579770615538
3.53461303327513606e-07
-1.87323367185816768e-05
-8.95360774853882208e-06
-3.17631875624370095e-06
1.01471878833046148e-07
-9.14416424549857e-07
-7.06879990693804268e-06
-5.89710248373036565e-06
4.04390555252039244e-07
-1.09419831554533015e-06
-5.23608743339435078e-06
-6.34514349656089574e-06
1.12752354652438759e-06
-1.65614544008621334e-06
-3.93746968801434211e-06
-4.78456534591253387e-06
1.82587446790031003e-06
-2.37690825979690432e-06
-2.93480986492139571e-06
-2.79791537053170163e-06
2.22538405173759901e-06
-2.79167549385114384e-06
-2.18009319314347751e-06
-1.08135512948674632e-06
2.10872663612287852e-06
-2.71642038774335558e-06
-1.66647450748138048e-06
1.79038877112728329e-07
1.67054639716866733e-06
-2.55314854307319399e-06
-1.31237274781499356e-06
1.80318526994208209e-06
1.68314279126737668e-06
-2.93346644160972447e-06
-1.1260387240186222e-06
4.25079533173265314e-06
2.05585987237361713e-06
-3.56426192621864342e-06
-2.0757948490721968e-06
8.17924802350278839e-06
3.32798892358209321e-06
-4.33928676883899076e-06
-7.69845860895325072e-06
1.43820812708169149e-05
4.76818381678778732e-06
-1.86798007717568966e-06
-2.1437448570310262e-05
2.81497493662133191e-05
-9.35879809272065853e-06
1.68500820625873735e-05
-5.11862043842272423e-05
0.000118181015965139068
-7.13771247632387124e-05
5.6601096621389345e-05
-3.94845578423376679e-05
0.000280206037341832609
-0.000147086902865182405
5.23777360684319444e-05
-5.31370909595499402e-05
0.000365958753905928349
-5.7108043560569156e-05
1.62275994439274037e-05
0.000607234882114634491
-1.59574192193355392e-06
-1.4878866879874469e-05
-1.40164820273458788e-05
-6.41233645176177292e-06
-5.47893161956784961e-07
5.11544988007203832e-07
-1.12012405839579984e-05
-8.77364832403024131e-06
-7.95093069926627121e-07
6.41521271580279503e-07
-8.18542917340239853e-06
-9.50005311212335771e-06
-3.81845040937862833e-07
-1.54340372035593877e-07
-6.23195231492078181e-06
-6.77125649373381123e-06
8.96920131223868915e-07
-1.45894205343522299e-06
-5.41001726989115377e-06
-3.42928328425556706e-06
2.25871430685971693e-06
-3.03192476326376296e-06
-4.39001300779959885e-06
-1.77239524633278069e-06
3.14541115494803104e-06
-3.94257943670048577e-06
-3.61940947785431615e-06
-1.54829956005106884e-07
3.01270462922760467e-06
-3.90886733807528075e-06
-3.06271965534953636e-06
1.84107581544084706e-06
3.04137876058806262e-06
-4.18449841231345649e-06
-3.24031955766765151e-06
5.05992166927200279e-06
3.47460616561172843e-06
-4.52856921015797847e-06
-6.26400991890954849e-06
1.00238196683730691e-05
4.52859078681563552e-06
-3.84007100089757766e-06
-1.65034940196165841e-05
1.72707784023475081e-05
2.6576898925300234e-06
3.80986282313869621e-06
-7.11834087935294221e-05
6.37132592396435913e-05
-2.40624847938346855e-05
3.37009636648015202e-05
-0.000100365480034613166
0.000166927668073972292
-0.000143110354855667207
0.000139552971274154239
-7.18052648719300746e-05
0.000306826336867197771
-0.000162941926160483481
8.51543970373853823e-05
-6.08423259581320589e-05
0.000423861168114885063
-4.42787459323013043e-05
2.16789114873172993e-05
0.000552243600775041048
-1.45220802451612823e-06
-1.22707640640215023e-05
-1.29789682893645353e-05
6.66975548646074163e-06
-1.81469541010112884e-07
-1.41923336450128618e-06
-1.49482724552637366e-05
1.41310698462966481e-06
-6.38059346867977313e-07
-4.78939444830899214e-07
-2.29143334098709884e-05
-6.84741853677837773e-06
-1.14946863110479364e-06
1.11259554190868209e-06
-2.82960504821750959e-05
-1.72970977996732134e-05
-1.69150837920166058e-06
2.97052624828542523e-06
-2.39381102685047765e-05
-2.62702363377553633e-05
-2.67552335371779388e-06
3.95383726810007041e-06
-1.40778140278971395e-05
-2.38650257191617308e-05
-3.05168832365661362e-06
3.11966313743546511e-06
-9.70508086652667523e-06
-1.23833411080828433e-05
-2.11869361223004044e-06
2.22197989394055457e-06
-8.41398395003214982e-06
-6.07899241451459407e-06
3.58310225873257689e-08
2.80121179223623248e-07
-8.54730788904829657e-06
-3.05103705520471637e-06
2.34813848035245999e-06
-1.83816810231951369e-06
-7.23394093456940767e-06
-2.60759347467803343e-06
4.15766218053442744e-06
-3.70843798017675466e-06
-5.89712194699473223e-06
-6.12095959747438483e-07
4.25013249545550976e-06
-3.88981327970276461e-06
-5.88214405100920619e-06
3.24549624383515301e-06
4.32315650388648842e-06
-3.20236221068082726e-06
-1.04370785646762001e-05
9.75184777456895906e-06
3.84761845484364613e-06
5.2976122101129342e-07
-2.87988061706341122e-05
1.88648643326208508e-05
-3.46192101519761739e-06
1.96032556868345947e-05
-0.000114181678599536789
9.47172081263982716e-05
-5.58915572401899626e-05
0.000105143830284630145
-0.000132296503301258182
0.000177615675234867639
-0.000164040797060021265
0.000156849964431206204
-0.000102870639375734292
0.000316689053406812653
-0.000152681314215213877
0.000101835582122719077
-6.37409066208920313e-05
0.000395262228379208351
-4.1044430601809982e-05
2.78101615817778816e-05
0.00048919915773945491
-2.08119021554257447e-08
-1.00790811509813048e-05
-1.15368359705133495e-05
6.5467485637221765e-06
-1.11702061822280534e-06
3.42695227711114456e-07
-1.6167950425392145e-05
1.00071087617695034e-06
-1.80258104713057148e-06
1.55255010626879387e-06
-2.61251785011867369e-05
-1.4066172056716841e-05
-3.23118609746834987e-06
2.68484627282535551e-06
-3.49962452212191665e-05
-2.62026125576101189e-05
-3.40586593643945209e-06
4.72992632802905071e-06
-4.02126841075268939e-05
-4.25376171609912805e-05
-4.25688076794087325e-06
6.95347328118415551e-06
-4.05544326932376359e-05
-5.25245485951523043e-05
-5.72826878566076153e-06
9.20045889431889817e-06
-2.43416894582786085e-05
-4.47489806749953243e-05
-6.96012508050749216e-06
7.35210027826700325e-06
-1.46243395903307508e-05
-2.09478982311355497e-05
-4.32357246850975127e-06
5.46133337235651368e-06
-1.59760574107750823e-05
-6.50347977429156587e-06
-1.93015315325170088e-06
3.89417563826531344e-06
-1.89231851489880447e-05
-6.86758943243613038e-06
1.05504734012229573e-06
3.85407794909938791e-06
-1.77630036495165165e-05
-1.04878946147344243e-05
2.9366751769240053e-06
4.22717045109736179e-06
-1.61000678874230441e-05
-8.64689536023735585e-06
2.75012497297943954e-06
6.19920690602908133e-06
-2.09290168155302701e-05
-2.35080094090758736e-06
-4.10395097606187663e-08
1.50793699933724885e-05
-8.17547452847898595e-05
1.44696413395767079e-05
-1.25712779195869196e-05
5.84605887876860254e-05
-0.000147014873158685436
8.93725136332899098e-05
-8.68217744242340918e-05
0.000128197567195002668
-0.000150372287193366029
0.000176269683530365991
-0.000159960235798815837
0.000152170217747108052
-9.99671926576023282e-05
0.000294568968369774873
-0.000130548992584708867
8.86658962466164378e-05
-5.92932931698811561e-05
0.000322004437935234926
-3.11767527446325438e-05
1.74115016270912104e-05
0.000404382574419282978
1.51580152293071448e-06
-1.0118385380687625e-05
-5.7332987617938366e-06
3.03388165218709075e-07
-7.43475011841952489e-07
7.32525198269510284e-06
-2.73339782463249443e-06
-1.44904920776967142e-06
1.08290316918571578e-06
5.57869831710296975e-06
-3.97063495457022353e-06
-2.42509228265101304e-06
3.06737418019628251e-06
5.56457073167181219e-06
-9.67615995726427863e-06
-3.71057200569960271e-06
3.91416318420849463e-06
2.14959889033047793e-07
-2.28189236926670428e-05
-4.19095608864984043e-06
3.44368740846261701e-06
-1.37102927916762064e-05
-3.69110010884703642e-05
-4.21255842588088163e-06
5.82297946887718524e-06
-3.30566384559603107e-05
-4.71563400752852342e-05
-5.19961054826231751e-06
9.54205394389089315e-06
-5.00158577356640379e-05
-5.56971708234748846e-05
-7.76567802714666296e-06
1.33885466195993457e-05
-6.12777631148763195e-05
-5.35277958366583918e-05
-1.10710111784940261e-05
1.63376694402485961e-05
-7.07011684306999152e-05
-3.79637491692847703e-05
-1.36063712705306086e-05
1.35983709105850972e-05
-6.72157817080791802e-05
-3.05392106727732669e-05
-1.04744701784757109e-05
1.26971044783546217e-05
-2.43251875074076127e-05
-3.62998299592624075e-05
-7.5813887716842044e-06
1.58284649434397445e-05
-1.8147066097811209e-05
-4.24015739383487675e-05
-7.53544958910660935e-06
2.28903565745010857e-05
-3.87466928395362967e-05
-4.40035728406663665e-05
-1.11996129768157401e-05
3.72010723066465627e-05
-6.3595534083318373e-05
-5.60799034093611434e-05
-1.73994279823398524e-05
5.99581875796862445e-05
-5.91344185004991953e-05
-0.000128462378822651068
-3.52447846927621942e-05
0.000110064142275898144
-2.15485010132552642e-05
-0.000165742030069787751
-9.66033630241229117e-05
0.000134654051100284813
7.01724653206258403e-05
-0.000158131384261514122
-0.000137439995052722615
0.000120518735793715453
0.000172605910415601948
-0.000100365780856997029
-0.000102726620680514071
6.07914589241769616e-05
0.000269790317753496912
-6.07329216526295685e-05
-3.54957198856273174e-05
9.41886293902330364e-06
0.00028398303595296361
3.32707625872561833e-06
-1.03645785835258751e-05
0.000342472954821359914
-3.52620964780391067e-06
-3.56763372916981126e-06
4.32203706817266637e-07
-2.23657034690825957e-06
-4.62243467616404063e-06
8.38700930851780883e-07
-9.99172735027517971e-07
-4.04407427506788537e-06
9.82930005373146223e-07
-1.42840038838265792e-07
-2.15995631487545026e-06
7.63629914413879854e-07
2.18863564338034571e-07
-5.87148218316783818e-07
3.17018941427037417e-07
5.84021048009929821e-07
1.35403626662543619e-07
2.72662991859604721e-07
9.16865573142603726e-07
6.99566790107364244e-07
3.27078961029811673e-07
1.38860957863009949e-06
1.6903011006459809e-06
5.37303038129195959e-07
1.83470547957841366e-06
3.91486775624670165e-06
1.23235387477441641e-06
2.29260874831782778e-06
7.98077556448728765e-06
3.1896178446491964e-06
-4.75273418471256028e-06
2.08972061630298478e-05
-7.31567417717169435e-07
-4.34074444051330948e-05
9.56210859296042776e-05
-0.000141483845865592549
-8.67224058946488251e-05
0.000404449625363129638
-0.000223999569474234595
-3.49855650194325386e-05
0.000571048149432806297
-0.000116793241878423369
0.000679107385115355162
-2.69931106094466106e-05
-6.63290678462846763e-06
-1.46119061845899163e-06
-3.55059507912513586e-07
-5.69163310465111473e-06
-4.31077392737216114e-06
1.91142197376845837e-07
-4.02383027534668142e-06
-6.56948893817330618e-06
9.77933403392476454e-07
-2.21477436565952784e-06
-6.39271942859553909e-06
1.4938304488671592e-06
-9.62729670669736206e-07
-3.80006494945319445e-06
1.38867121689417575e-06
-3.00535916264205165e-07
-1.34160625782805595e-06
8.38936291799334364e-07
2.01939389555860217e-08
-4.75816091200403049e-08
3.93657149717406599e-07
2.98407780742813567e-07
6.73755960086890045e-07
4.46369381367978929e-07
6.30791188054409235e-07
1.83505694147058863e-06
6.89130897030931263e-07
9.64468028295115914e-07
4.37402925288862373e-06
1.44433840980615511e-06
1.06409738249445414e-06
8.69977335260251827e-06
3.37396483160346843e-06
-8.02085606937047139e-06
2.2030886129458799e-05
4.08642227829118164e-07
-5.68474249338643203e-05
7.44118639509219146e-05
-6.20342357250799816e-05
-9.12273205146339571e-05
0.000371767705452755084
-0.000213702793478511135
-4.79497030385795124e-05
0.000531984946415380846
-0.000107197333286566758
0.000664931421687588176
-3.10576974173218008e-05
-9.81531190561047205e-06
-1.59605602980583825e-06
-6.05372428167253531e-07
-9.1982128142867507e-06
-5.12624118874497231e-06
-3.84430851320301034e-07
-6.95574065336981388e-06
-8.69415389355484306e-06
5.30744832358655407e-07
-4.10422427929601695e-06
-9.78777676643172371e-06
1.63030618129517442e-06
-2.17533193450528793e-06
-6.11705676874450145e-06
2.07334527086653611e-06
-1.19679416316161158e-06
-2.18365994412121371e-06
1.67156997792214238e-06
-6.8936225095240277e-07
-1.72214446422124573e-07
1.074235020809081e-06
-3.1864472416430627e-07
9.47063661758097562e-07
8.24471754493631459e-07
4.39783309793091539e-10
2.32403043392444654e-06
1.03352063349386883e-06
2.24874049369394428e-07
5.13645596806650078e-06
2.05427840516446911e-06
-8.26018231153504998e-07
1.02308712019789208e-05
3.90026737692050965e-06
-1.33705175930755137e-05
2.50253847056397454e-05
7.57481296469991444e-08
-8.49521634277427564e-05
0.000138976958491306878
-6.36573317201091489e-05
-7.72096403099447134e-05
0.000389341165616796073
-0.000211975590572717888
-6.03166537017923529e-05
0.000460796904345358498
-0.000111727921315590126
0.000633854004014677581
-3.20986726524236191e-05
-1.37236811848799672e-05
-2.24072615288916266e-06
-6.48563405229609399e-07
-1.36334565928055394e-05
-7.27022624328991046e-06
-1.07238151318379774e-06
-1.10671066279784305e-05
-1.16552397716739352e-05
-5.50000604485507952e-07
-7.47659593379794748e-06
-1.39040661111593997e-05
5.8513133579023703e-07
-4.02390705866335015e-06
-1.02266815850461644e-05
2.10728359947320558e-06
-2.50708608723030628e-06
-3.49787258814667189e-06
2.42184335750375282e-06
-1.89085835696068243e-06
-3.43218179480666035e-07
2.19984394771537052e-06
-1.33454468995694384e-06
1.30269822293876402e-06
1.77378163604085954e-06
-9.89062742412327947e-07
3.11628821471039716e-06
1.9960858046130096e-06
-1.27422156486445143e-06
6.36037711894995203e-06
3.16214052937110009e-06
-7.9833923602520642e-06
1.39512179382423031e-05
5.07378783600341518e-06
-3.60361199264621311e-05
4.11608170830849948e-05
-3.1395986843590783e-06
-0.000120801820906601346
0.000220608914108057273
-9.46816532155350042e-05
-8.92780487720953793e-05
0.000390971913539660471
-0.000205690671813069901
-6.8631996367872906e-05
0.000479186814403742296
-0.000113168893437734356
0.000585824653299811906
-3.00259991722168016e-05
-1.39574781795531374e-05
6.70593026949266405e-06
-1.15645556525413098e-06
-1.43697043482237674e-05
5.15980011063033471e-06
-3.27786438842077122e-06
-1.46826706304363418e-05
-4.93682062623212087e-08
-2.92041845505260302e-06
-1.88087072703590127e-05
-4.80543840253273962e-06
-1.68059555739431578e-06
-2.74054697446829736e-05
-1.72717015676145135e-05
-1.99276704467703226e-06
-2.48325565413945622e-05
-2.97614005443778797e-05
-2.10446566235623208e-06
-1.45551125025493115e-05
-2.95380568764899823e-05
-1.36265439556846641e-06
-8.10346858851014717e-06
-1.86530100828084107e-05
2.31609309256789607e-07
-4.71112404368357312e-06
-7.56335548288970684e-06
2.1541404446018508e-06
-3.79268706105968458e-06
-8.06886428043206364e-07
3.07522396148923416e-06
-3.02568695049262206e-06
1.17669188337345533e-06
3.0133770029696842e-06
-2.62461355623086505e-06
3.12074075163475352e-06
3.35727348063134952e-06
-3.72284496564280241e-06
6.48133735133594318e-06
4.40875829808430706e-06
-1.2967779042851804e-05
1.51019788695399919e-05
4.24753063907787903e-06
-7.97101648990724047e-05
4.76100354940162953e-05
-7.98119905175148167e-06
-0.000132669251465963585
0.000219736726031653226
-0.000119714952547152117
-9.81371227242480942e-05
0.000383565512972804253
-0.000186486473843899478
-7.21716846615254152e-05
0.000495261799302109621
-0.000106867160305541213
0.000518183601943766935
-2.48773184807978889e-05
-1.37269906328824931e-05
5.71974996770214303e-06
-5.26495889889849059e-07
-1.32927610627913698e-05
3.35555589510477067e-06
-2.66883350485786624e-06
-1.49215186911205094e-05
-1.60789745863955221e-06
-4.53470001203205809e-06
-1.93241500630697754e-05
-1.18731262643153312e-05
-3.34242731183909671e-06
-3.10757300066443501e-05
-2.92033942397366423e-05
-3.45560913136782171e-06
-4.16597697647886559e-05
-4.58070808443386939e-05
-4.58629759795917259e-06
-4.12105297233396559e-05
-6.00211154137337595e-05
-5.49498128763432127e-06
-2.05988606806894432e-05
-5.23918693385227999e-05
-4.0648745444088677e-06
-8.45806825314259662e-06
-2.31429735651402143e-05
-4.97362883074183494e-07
-8.10224391221784433e-06
-3.52801723707879491e-06
2.0816986745805356e-06
-7.46914910399487505e-06
-1.65014144165889927e-06
4.01692737414732022e-06
-5.96553950775167075e-06
-1.25692384438150012e-06
4.62677391445617418e-06
-5.03424642453439125e-06
-1.54201895121962828e-07
4.8165098959121617e-06
-1.48123969362144185e-05
9.8300109905115581e-06
2.25542049665525014e-06
-0.000100118757515092191
5.76408587849522736e-05
-1.44877930841810358e-05
-0.00014513600224379513
0.000208116724374490455
-0.000113515933259499249
-0.000115075066143581381
0.000375493872445108526
-0.000159918470902642044
-7.03091478645647973e-05
0.000488284669133937999
-9.2215736619124676e-05
0.000437727694569256878
-1.829581342676531e-05
-1.27998793740535206e-05
1.9352107279537021e-06
6.07919723776015383e-06
-1.13182928481275725e-05
1.30628863136027386e-06
5.29593731698277657e-06
-8.91902620793438444e-06
1.82144209610323671e-07
3.12606631964529927e-06
-8.24866285221496832e-06
-1.5094942116951201e-06
-1.8231215336371973e-07
-6.44694719533822137e-06
-3.18866258492870839e-06
-5.58445935769299102e-06
-1.376604636870791e-05
-4.25523705348195326e-06
-1.33187379402549299e-05
-3.15335311836040851e-05
-5.06782174681399856e-06
-3.63961579822453025e-05
-4.70064951557862092e-05
-6.18596148663614968e-06
-5.52183271698975162e-05
-6.00273979794216955e-05
-7.4730384729699104e-06
-7.71686480221372159e-05
-5.95332759762093271e-05
-9.12810938371726639e-06
-0.000101142497251101705
-3.27750792992348867e-05
-8.28515489594115722e-06
-8.52830216898976161e-05
-2.63880762986207676e-05
-3.25977945247521016e-06
-1.8356507615973349e-05
-2.97519651733152535e-05
2.27082155530669901e-07
-9.66930440264352861e-06
-3.46125418953316535e-05
3.79350942061458132e-06
-1.39242503240081049e-05
-2.50641119099816335e-05
3.63145646982998074e-06
-4.29141753538209034e-05
-3.63892243235575255e-05
-1.65457129816870342e-06
-3.40276667814095641e-05
-0.000124453669509717288
-2.64579199742413055e-05
3.80250647280046497e-05
-0.000164336126141713401
-9.83149271554590909e-05
0.000198052438680547366
-0.000135896922491569313
-0.000131046251942028362
0.000367738187283298782
-7.16894598275981962e-05
-7.65808783886768604e-05
0.000465139676295619109
-1.38164482279141096e-05
0.000383362817977428026
-4.11955105231569195e-06
-3.93672890127349387e-06
-3.70858662869294181e-07
-2.98208501944555137e-06
-5.50673593649457244e-06
4.75957735122046831e-07
-1.51140559245544835e-06
-5.69375950554195241e-06
9.14065695558885288e-07
-2.94864791174028262e-07
-3.8086296207749798e-06
8.31571212811616677e-07
2.42431589027064266e-07
-1.32934217394678348e-06
3.44180587334013004e-07
3.77612247182799877e-07
-1.30885216224923021e-07
6.09292887816757014e-08
5.27932999373002092e-07
2.0071201273869044e-07
1.73298112746667646e-08
8.26433215426596535e-07
5.59707008542899547e-07
1.29441786662646441e-07
1.37082842535456413e-06
1.6123327503553028e-06
4.9262590596042176e-07
2.56232289003074416e-06
4.65668308549079733e-06
1.68559880205056268e-06
5.34400173944406767e-06
1.03597421225620608e-05
7.30316485905424221e-07
-2.07557313923821852e-05
5.52828299855393933e-05
-5.63169720010184586e-05
-6.24610265092319269e-05
0.0004335158165500178
-0.000226684548162016158
-3.91338381040701798e-05
0.000645413556878353823
-0.000137034701793223919
0.000685432333006043889
-6.32920101955679039e-05
-7.37954415543658069e-06
-3.36968625544277113e-06
-1.56215323081441118e-06
-6.61236641430275237e-06
-5.27649222993106781e-06
-7.77010997839141576e-07
-5.3980215162970599e-06
-7.39484330012121281e-06
3.81434640906551138e-07
-3.25770095957022591e-06
-8.58390946406535761e-06
1.34531146190789314e-06
-1.20389801469959439e-06
-6.41560845709543997e-06
1.57868573199204121e-06
-1.60074974747179562e-07
-2.66129892410619395e-06
9.6139984839652439e-07
1.47112890920246558e-07
-4.57049544720824529e-07
2.68347994211012391e-07
2.92121559782687707e-07
2.04550404896975358e-07
1.6130807810386352e-07
4.90399881826434895e-07
7.06255493423616458e-07
2.75704828533566228e-07
9.38290945278694969e-07
1.96282366615223867e-06
6.77929233046169179e-07
1.77936017802524161e-06
5.34361104232811176e-06
1.94644867771567633e-06
6.72104752830022589e-07
9.97884680738494866e-06
1.58391057896181187e-06
-4.57375670037562019e-05
4.74759081259633394e-05
-2.44106961865195067e-05
-6.33136783599331355e-05
0.000411271708986660559
-0.000194848619536124783
-5.04443312882494986e-05
0.000609080763139497141
-0.000142792675409406799
0.000677144127719487079
-7.07129104029507772e-05
-1.13925948752544217e-05
-6.37535381951835395e-06
-2.18742930829593089e-06
-1.05588014323447752e-05
-7.45095244494590474e-06
-1.23073413415806553e-06
-9.32323944993318912e-06
-9.44493301365694964e-06
-2.513750992995545e-07
-6.4383691099331327e-06
-1.22038607472092139e-05
1.31607498880523282e-06
-2.76643017622568566e-06
-1.08618355059357904e-05
2.30783758307588845e-06
-7.93968310076807431e-07
-5.14153955241415606e-06
1.90403937594692619e-06
-1.96375773019984692e-07
-9.92819671034140447e-07
8.41318685047277898e-07
6.36590729506791124e-08
2.44948671012755657e-07
3.8859644476626014e-07
2.57954549731659742e-07
9.80191582749036436e-07
4.52948530068175251e-07
6.02029497950251297e-07
2.55563544171191411e-06
1.00805935645932827e-06
1.21639419011317399e-06
6.14131495966694074e-06
2.40413000821331466e-06
-1.53548104471913712e-06
1.06051508135583166e-05
2.18113966442261233e-06
-7.03377057073340423e-05
7.77259191030794163e-05
-2.20622334153039782e-05
-8.65902567873532314e-05
0.000409259577698137136
-0.000202174407716165767
-6.29119979015371815e-05
0.000598005961832404499
-0.000154586602934379358
0.000654157982855208724
-7.37344009387197474e-05
-1.71991539055167786e-05
-9.68394000245202823e-06
-3.78814139134844109e-06
-1.61552371480349033e-05
-1.04963118631248536e-05
-2.05157398147509944e-06
-1.49922560916771576e-05
-1.11032668345906867e-05
-1.22386601264826481e-06
-1.2319638003829826e-05
-1.59463470344895811e-05
3.23159597312533833e-07
-6.13766490358341763e-06
-1.77434565389425106e-05
2.24924684181416212e-06
-1.93060900082496628e-06
-1.01782095548425792e-05
2.98085473193534367e-06
-8.18448600590195065e-07
-1.9996408012008281e-06
1.79048852956678685e-06
-3.98595847093481261e-07
3.63392552234552919e-07
1.07135728798462412e-06
-1.03984473574181634e-07
1.54074656022489174e-06
9.30105174227226248e-07
2.05609767141156242e-07
3.38955771647711719e-06
1.70974890905642826e-06
4.0747826778687895e-07
7.54379955624392788e-06
3.15174506032955999e-06
-7.27900605657003289e-06
1.24590149283826272e-05
2.37145570608203612e-06
-8.47668702251402472e-05
0.000100735629237786364
-2.96236876574871094e-05
-0.000105973075873664864
0.000399488191002165562
-0.000185054189346677776
-7.28709747503432245e-05
0.00059891926605914721
-0.000151127833507161923
0.000616179532614385332
-7.05717689349555296e-05
-3.2700008625596272e-05
-2.73610804896126059e-05
8.64957180797338449e-07
-3.13196847431567574e-05
-3.11370588030085747e-05
-8.31709348790921929e-07
-2.8835893779601068e-05
-2.89839862783986258e-05
-2.71949588564449569e-06
-2.54022502246011898e-05
-1.79302762958315197e-05
-4.57160956924208866e-06
-2.23258054237400659e-05
-1.55300007997561815e-05
-5.05389217201607583e-06
-2.00528049361563951e-05
-1.57579400924637494e-05
-2.11031562822970547e-06
-1.87271811808804915e-05
-2.14028025916033145e-05
-1.15398396930779066e-06
-1.29560274742270468e-05
-2.5761105638047212e-05
6.17518781148360532e-07
-4.67003863248735621e-06
-1.95470497090439636e-05
3.04532360009026866e-06
-1.81120311614721771e-06
-5.29702394679951493e-06
2.9467502660682625e-06
-1.29510777923800212e-06
4.45818908831431196e-07
2.06379268534954729e-06
-8.66079556830790152e-07
2.26495036422872035e-06
1.86306470275904239e-06
-6.52260914248599907e-07
4.45848214934662886e-06
2.70831783366383049e-06
-1.31483817039125751e-06
8.06985603971457637e-06
3.89733597573217411e-06
-1.24899484751020897e-05
1.34850377654067149e-05
2.26998994164813575e-06
-9.66288138120349022e-05
0.000133521198642910251
-3.74147276379313039e-05
-0.000120527784277245842
0.000391298948893292059
-0.000159460249432470143
-7.74378904961608842e-05
0.000586802188416750067
-0.000140291794820537554
0.000550335400972701326
-6.42554214814636498e-05
-2.76734462424351757e-05
-2.37456490507427276e-05
1.23888372599195547e-06
-3.28962221287545226e-05
-3.05749735779512448e-05
-2.11323422114174365e-07
-3.08617370980326296e-05
-3.54280479096250183e-05
-2.24905671122994486e-06
-3.04584118764830459e-05
-3.20760825364333044e-05
-4.31732466045972314e-06
-3.27492478781726872e-05
-2.84842305833824731e-05
-6.54285712752558276e-06
-3.8217436266446407e-05
-3.41977797002272998e-05
-6.09070413080158913e-06
-4.31567140939488538e-05
-4.43181355367935177e-05
-3.46414213756837506e-06
-3.26823005847237812e-05
-6.11570829934514912e-05
-2.03018305754806241e-06
-1.23207043230552199e-05
-4.9443938811925417e-05
5.78547148853447508e-07
-3.92641816114691228e-06
-1.60338550129439197e-05
3.39280688116946061e-06
-3.15234920498364036e-06
9.68150130815247949e-08
2.84336102217096134e-06
-2.46398658611239945e-06
2.49294770706182222e-06
3.08293724112862242e-06
-2.50385513606558636e-06
4.85201454305904011e-06
3.90652945505140347e-06
-4.49181986680994708e-06
7.16890241985242481e-06
4.71631808938721087e-06
-1.85195386543860523e-05
1.01447135147665167e-05
2.39909838362741826e-06
-0.000109747931362972942
0.00013724928907379798
-2.87859574110491186e-05
-0.0001357406726978815
0.000382920566956442704
-0.000129906120901034761
-8.13095582265588941e-05
0.000564940968313474429
-0.000126250129643834248
0.00049188151888713747
-5.4947819819090016e-05
-3.3585382855779458e-06
5.33415147513255743e-07
-3.85354770625058504e-06
-8.64684857517433598e-06
5.4299367300269108e-07
-6.58068110659976393e-06
-1.72974999849357308e-05
8.9405380969231051e-07
-1.43221972964011025e-05
-2.48165225957362887e-05
8.86620279123117603e-08
-2.46484889509919979e-05
-2.73110145188324761e-05
-1.5823112986867887e-06
-3.62462083814776463e-05
-2.59067655961452187e-05
-3.6450281803665518e-06
-4.14197026993374907e-05
-2.82828609786787982e-05
-6.23930507316034144e-06
-4.37955617255075561e-05
-3.30070166760445963e-05
-8.17497983206600015e-06
-5.19441901481384756e-05
-5.01038132940816487e-05
-6.22519071674146884e-06
-5.95091044985014952e-05
-6.380196685642677e-05
-5.13565638590595795e-06
-9.1032335634711259e-05
-4.69272104526643148e-05
-3.43784822671413704e-06
-0.000109759092989855376
-1.13218255384375254e-05
3.28759631722371004e-07
-5.949062910873024e-05
-6.69586992804179503e-06
2.10573601497336961e-06
-7.68329800252796574e-06
-6.41407360881889632e-06
2.94548129753275771e-06
1.72162712564220449e-06
-7.56488776458808424e-06
4.82613755556290613e-06