/*--------------------------------*- C++ -*----------------------------------*\
| =========                 |                                                 |
| \\      /  F ield         | OpenFOAM: The Open Source CFD Toolbox           |
|  \\    /   O peration     | Version:  2206                                  |
|   \\  /    A nd           | Website:  www.openfoam.com                      |
|    \\/     M anipulation  |                                                 |
\*---------------------------------------------------------------------------*/
FoamFile
{
    version     2.0;
    format      ascii;
    arch        "LSB;label=32;scalar=64";
    class       volVectorField;
    location    "0.960000000000000631";
    object      U;
}
// * * * * * * * * * * * * * * * * * * * * * * * * * * * * * * * * * * * * * //

dimensions      [0 1 -1 0 0 0 0];

internalField   nonuniform List<vector> 
7340
(
(-2.53455406322149734 -0.629779113864365692 0.850007362387396159)
(-2.18698722809560708 -0.787772926377008909 0.828341321953862009)
(-1.74913956446824193 -0.837380887151125464 0.863920272823782143)
(-1.18309806740443491 -0.693475603583536215 0.822548622404282614)
(-0.534427459750352774 -0.342127809591206145 0.640730595973387551)
(-0.0948990316952261492 -0.0804280897967889208 0.462948853161748664)
(0.203624760211886774 0.082247710208817798 0.459794757534535692)
(0.459890735814453944 0.354437632275706238 0.528847619378326916)
(0.589410972518614518 0.684578933750418783 0.62916123985271788)
(0.645110021919708676 0.991508664564113573 0.791905862754612277)
(0.0530693754563116987 1.08609607308098433 0.920933456121455052)
(-0.231592697614851628 0.630396333585224178 -0.759749187874373622)
(-0.376087835251284364 0.45998794541035759 -1.42755572838260414)
(-0.651492958899372976 0.910026296901328635 -1.12929022266340273)
(-0.20419803002040543 1.24190720305010571 -0.201880812284958244)
(-0.0381798713659628822 1.34214475993189408 0.0646661216041441445)
(-2.54757758935699119 -0.485027216602232414 0.513318840150051359)
(-2.2988903902561173 -0.72516019250909669 0.584953980144194086)
(-2.09368129551054682 -0.875328554279152682 0.825046157253764734)
(-1.8232184544620933 -0.856987794684595516 1.07638276812418576)
(-1.39604574702739392 -0.580580657639246711 1.1108513492887182)
(-0.943090152072645127 -0.231134547130743828 0.941276715320370494)
(-0.624749622173621177 0.0417757837138993809 0.85529620537842832)
(-0.281556555250438989 0.369075023770648381 0.888129548707150107)
(0.00687382046552401094 0.761518653884873942 0.935566020435892653)
(0.257680692425646063 1.11226752003639584 1.0238026577291155)
(-0.184725003076144423 1.04910393862235529 0.784161720500228587)
(-0.32763611394586839 0.560794519045251016 -0.663024951821623798)
(-0.559041390642518676 0.455630439235425677 -1.2242362968486018)
(-0.70628335667482578 0.891629027919183303 -1.04137261754788124)
(-0.267127754084062308 1.17966156461171767 -0.219273599528268193)
(-0.0615379931218265064 1.29604202422818648 0.0487568938330517829)
(-2.20494204600453569 -0.397372784638975352 0.133300502097255802)
(-2.03872140793898016 -0.563822187096407301 0.1803019545408521)
(-1.99940814876338457 -0.679108876934092054 0.44161151950635974)
(-2.03747914680677811 -0.712482971107272434 0.910192526905319599)
(-1.98035253435031744 -0.560454805780158161 1.34952809996531586)
(-1.68549032443714908 -0.246980891550804493 1.4868561823804467)
(-1.29830105609163104 0.0693064043543734354 1.44437272654803661)
(-0.911554736888033013 0.407875965705706167 1.33960548910821942)
(-0.530555529182720864 0.799281109438963022 1.24739891009525139)
(-0.244073179764356996 1.07694954478667859 1.11922528864693138)
(-0.445574970332756282 0.881444733719279228 0.480956636592295261)
(-0.526179180434109828 0.470671386475372266 -0.668207691478538535)
(-0.724220897169789213 0.498852290298502643 -1.10419979504049048)
(-0.772629535497110331 0.859882413593043848 -0.983651207734093869)
(-0.333388072717687278 1.11168902839054096 -0.243298303459045795)
(-0.079915821315094851 1.22773776663108958 0.0377434166921795239)
(-1.88970429819373043 -0.467760357326409193 -0.0492269592840536979)
(-1.70303439392323197 -0.558688944801192688 -0.10371014933941787)
(-1.60059640932257263 -0.552142961018813994 -0.0506562883592449609)
(-1.66679177525930799 -0.496972297130436502 0.258298883882966734)
(-1.88237240180315468 -0.41315859882123096 0.830525072669658582)
(-1.9555480000964196 -0.214554567539895158 1.25942237209478503)
(-1.7713341930747557 0.066228886787140312 1.47609010626127435)
(-1.39598633972677932 0.375515949500599855 1.48128553762008375)
(-0.970103590893283352 0.707598317985266623 1.25710885422114038)
(-0.650802042126182312 0.859104127156067765 0.788096934399962201)
(-0.636950825363764461 0.624888957769541897 -0.114739547087332985)
(-0.713236300759854336 0.460958818803578696 -0.91454805044272125)
(-0.791168731582652551 0.568210492633716258 -1.10718353307515471)
(-0.774020520850801308 0.81453437750919977 -0.886443381296512456)
(-0.371521543548527289 1.04208190085052665 -0.225375708574445943)
(-0.0918776905393450111 1.13698309191024882 0.0318091533608031163)
(-2.468521261069621 0.484564509478985661 0.209381741764919777)
(-2.21609004848390345 0.0439692909604442184 0.0406552062843484954)
(-1.95840852930404807 -0.403700925183939963 -0.0603611031767333425)
(-1.75879263346798176 -0.634525232857365284 -0.12151300857502606)
(-1.5937190406374584 -0.712869179026211719 -0.175937168776080261)
(-1.44333878803103977 -0.654196590980694048 -0.222854892934651938)
(-1.33646705398338628 -0.483229632292387634 -0.211493037713648135)
(-1.31268045498049735 -0.319841298948885855 0.0073943564200881079)
(-1.47737389130068508 -0.229267950194506909 0.384260599155247184)
(-1.54236763828822276 -0.0974212129961277845 0.690668143297090364)
(-1.44199333026166387 0.115534520230380994 0.900372022758025303)
(-1.13448656073553655 0.377722267243125076 0.740866707294003501)
(-0.833515330387424869 0.493566496027638246 0.210532035819738478)
(-0.762296270156965994 0.383903641109405114 -0.536554505655185698)
(-0.812786299143522961 0.398086249796378466 -0.998309420725559393)
(-0.835186427839375911 0.527289875109821948 -1.02961563364704745)
(-0.741392378283409426 0.752697031909788983 -0.727605827996512855)
(-0.380618384795004816 0.957930722968274639 -0.176878329897423303)
(-0.0975669932655377631 1.03272126438715284 0.0297532362445728088)
(-2.24913043001876245 0.464896063675129811 -0.0466208795565605585)
(-2.03105832253513574 0.0030268090635379441 -0.148701192123450343)
(-1.83215954031018113 -0.439844483264690944 -0.175666043119850762)
(-1.68921389226225971 -0.701268630985351304 -0.198371977782857645)
(-1.55816920135671189 -0.830009128687652975 -0.228843755851394631)
(-1.43602058820225831 -0.803641506083128565 -0.265287283864173218)
(-1.30089791351666162 -0.627670423806228173 -0.303199164609671168)
(-1.17056757772263542 -0.384293155331339453 -0.307166885016719238)
(-1.13250702023145 -0.227984587784081871 -0.190504364838086609)
(-1.170931423256941 -0.243853135663440107 -0.0740041117559041006)
(-1.12824084399671976 -0.229079445348763011 -0.0549204556760636217)
(-1.02202031673460803 -0.0685766124581635439 -0.102792502776567082)
(-0.886745326203707718 0.113894654919363958 -0.344987306040201724)
(-0.844786054564444555 0.210185107038014574 -0.744817481791363201)
(-0.859066016395856114 0.311989543350984277 -0.946333182033049503)
(-0.853923156240379178 0.460611376385522464 -0.869068913899871842)
(-0.707912792904059729 0.678483794029854037 -0.56651820838364686)
(-0.385634741488823929 0.853716379060198816 -0.134541562187652425)
(-0.10123391179471633 0.920079006264336141 0.0302359144053304177)
(-2.35599570744401321 1.07131627681418085 0.182291947000619042)
(-2.27522848911051856 0.93931610596675541 -0.141559836910447934)
(-2.13322051973937787 0.606406915069500285 -0.288771427834371541)
(-1.91179595299711491 0.0839239760498518145 -0.270404854852408061)
(-1.72810475452574286 -0.435916810656473364 -0.212160593388258711)
(-1.60063018620550945 -0.762746427163216945 -0.245031515969358155)
(-1.50711166698795029 -0.904018147925947035 -0.278703044822353418)
(-1.42523958892129721 -0.912544841181903155 -0.300843583698380435)
(-1.33718314487834578 -0.783944703565621848 -0.329284791181340464)
(-1.22593859686137141 -0.587594225824646377 -0.372178720332441426)
(-1.11541423657439109 -0.385758892740459658 -0.394432536232535325)
(-1.08351099570628873 -0.385379650774095084 -0.370574931046828093)
(-1.06914816298452142 -0.448960914349825047 -0.370664665560395346)
(-1.03139585967260916 -0.352860441509820877 -0.410096328700340296)
(-0.977313702672595985 -0.21760095723865891 -0.495033857919451536)
(-0.915770971325829741 -0.0500770597372520582 -0.671320516153635305)
(-0.885556267577195633 0.201488329587316828 -0.791277817349605117)
(-0.854632796105266324 0.427685915236596714 -0.676521128981455888)
(-0.68518544120798841 0.619899791704266789 -0.409090185298977116)
(-0.391164279305331875 0.756627668405128406 -0.0930777329613597937)
(-0.103543347161547783 0.811315187531425397 0.0340977026207743283)
(-1.88721269940909564 -0.65019344823873948 0.354992319859753991)
(-1.54555381776082701 -0.857176078153071286 0.526232473274325652)
(-1.1606724874274863 -0.915056422617661736 0.702752709923420427)
(-0.602506649815020334 -0.692070360770077331 0.719666920414381961)
(0.0872914165161014499 -0.170137537413000278 0.465608012998860565)
(0.612424419835970846 0.165183491830592832 0.361706962149188072)
(0.751963464218992073 0.352079357614271282 0.344132690404154951)
(0.698388663943297239 0.522886885450121186 0.399788531893631838)
(0.665415077977072889 0.783236091429970971 0.638009973438259381)
(0.409883941243733119 1.03224468154469018 0.962352787009680632)
(0.00833715723272132614 0.782073519964517905 -0.311489090078953534)
(-0.190096632354432027 0.505280788255767721 -1.19108196060840221)
(-0.608240268883351032 0.978698246643084246 -1.21272428511374586)
(-0.237276202430880601 1.25898133662170419 -0.413237481477372437)
(-0.083801953199943241 1.30866218985574689 -0.0289524302388895552)
(-2.15228677798789514 -0.295239172496667646 0.0406809487738602205)
(-1.84083704391859215 -0.594503636258210233 0.169426074497014384)
(-1.62436780169137363 -0.8166548464209058 0.379619520673335931)
(-1.44249449931247442 -0.94720982008953003 0.691942504494237665)
(-1.17168436206823823 -0.890557946769398479 0.965304461341958353)
(-0.670782791916186061 -0.464610593873820643 0.855983122853026468)
(-0.126436112583125093 -0.0144304692236041227 0.561579597606928771)
(0.214737904339450059 0.334721193460009614 0.538923033787069405)
(0.335675070401765752 0.60857760635597602 0.594175459442969345)
(0.462919154310991288 0.92921843098214385 0.843481396038249676)
(0.254969197694526306 1.12403321319162375 1.06772703496061605)
(-0.0820532123789137063 0.726258100263216799 -0.242601441917286803)
(-0.421720281722053281 0.539574761677620196 -1.08050440589075025)
(-0.606661931317302727 0.978319503671508439 -1.11216136519930475)
(-0.295574553301215404 1.21662654616241661 -0.413547215142039071)
(-0.100275011471778197 1.27696548460534309 -0.0443897454635118482)
(-1.99230983936287709 -0.307833564183182418 -0.0883256720831504805)
(-1.72317509581069905 -0.586550085233645269 -0.00560901382422928155)
(-1.54512373764536948 -0.723963652044439909 0.130495602957920759)
(-1.44638774850917495 -0.79597220984500261 0.420030154560932234)
(-1.39869905803171934 -0.778438368417150195 0.907571290641839612)
(-1.22345547585971937 -0.513065301145900987 1.22346170926998066)
(-0.781890337937284463 -0.0513286254242273088 1.05798749257208291)
(-0.396070638088017124 0.322258853493424424 0.916686493975735428)
(-0.108041023285265547 0.652105407740646403 0.911520389357775018)
(0.162606934359319333 0.998474072511385868 1.12399310345710024)
(0.0137807466029235791 1.08519587968308384 1.01658752118644458)
(-0.241778368468120897 0.639801124371359164 -0.325946572754261532)
(-0.598841558284231246 0.615201253502947187 -1.03505405785592641)
(-0.616893014626823333 0.941019546818746444 -1.02755843108591649)
(-0.36007576022124993 1.16472277908814936 -0.418289422800843302)
(-0.112493611605390245 1.2263801874329332 -0.0493868027900153939)
(-1.91661754306502496 -0.376366362133775889 -0.13087356373334999)
(-1.66699174256621707 -0.667401425262896808 -0.101496451464849563)
(-1.4734714227689063 -0.751736258471234375 -0.0619320069184160008)
(-1.34338454886648129 -0.719641261046000458 0.0663290036410656841)
(-1.29885243295609043 -0.606889369421655167 0.447136094649908611)
(-1.38254552416273158 -0.414136950078986765 1.06575019840627161)
(-1.26977932123431336 -0.0259319158191139987 1.3654891848089743)
(-0.912505755425687126 0.335694714919811343 1.32039770082512509)
(-0.537374351688313046 0.653639481016321633 1.20816466533971312)
(-0.207768337803198921 0.927025753786497098 1.12390905051988521)
(-0.236525556893903477 0.909230439767134135 0.548931483547578924)
(-0.482112220940955072 0.657212716551921594 -0.625874759342531228)
(-0.656866179326369926 0.650776448820674647 -1.00947339449803519)
(-0.623371225643006399 0.881143266680330051 -0.93200528775800584)
(-0.410320462009450049 1.11068902196846242 -0.397599415160047209)
(-0.119981325014651904 1.15576086162993619 -0.0447064487852455658)
(-2.43753127983490181 0.571288201089188097 -0.20591021336714424)
(-2.22600930181022338 0.300740861792202718 -0.253264519584642356)
(-2.02749910862307514 -0.0148652127179391691 -0.235540559810232752)
(-1.83203076787138208 -0.441490933769180027 -0.185090087142505605)
(-1.6341347404826454 -0.760807556349189062 -0.154192220188892226)
(-1.4730523962327966 -0.854095436636432392 -0.141741655577815456)
(-1.31608484636063605 -0.79074737369138004 -0.119831937862313068)
(-1.17905733360753628 -0.585013959392157057 0.00175812729351474632)
(-1.15703043596801813 -0.33211354761677131 0.415352634475530891)
(-1.30129703649985728 -0.0691894700295745541 0.979382996401380268)
(-1.17552364385909969 0.23268168975294809 1.18606364707595002)
(-0.843579112438104906 0.493544527626972596 1.15021382177233877)
(-0.500308631813394356 0.673633382117949875 0.796157201851860674)
(-0.441862959656019905 0.629375867911745046 0.019683867965148566)
(-0.589210109359177281 0.50537553036696492 -0.753847533169779371)
(-0.671986128116143111 0.605728142223015298 -0.953241700955572924)
(-0.640714448282921789 0.820688423919469279 -0.81756111159625966)
(-0.44104553635155902 1.06040169483705915 -0.354715451081093036)
(-0.123595684325986943 1.06754712469208624 -0.0339495828221579865)
(-2.17126371596071843 0.430479630474883246 -0.250830202201743291)
(-2.03021096309666582 0.17831174071707781 -0.292335287965647173)
(-1.87713956776050384 -0.0793824732874894856 -0.30254011950121551)
(-1.73320320438903508 -0.448505180574429119 -0.24214371262230458)
(-1.60055591006829867 -0.797229955963150716 -0.201056772749809654)
(-1.48250504175545439 -0.926660795591153885 -0.183567821739315573)
(-1.35421248602209676 -0.900132700512124684 -0.178974992293540802)
(-1.20996784108628308 -0.696876874829286619 -0.166383582446963163)
(-1.06790299000855082 -0.388906761635526732 -0.0635615934632974555)
(-1.03734594801537194 -0.0714555159904461112 0.272968295423915763)
(-1.104974162776861 0.027801017756621027 0.478501224657198354)
(-0.978885267914321733 0.128858659958762417 0.52986048289464438)
(-0.752455422401335117 0.226773336767331857 0.308300275911108423)
(-0.588525713621718127 0.325273207725468416 -0.195025874109038488)
(-0.630694152810991504 0.369967636681976408 -0.695617029304409273)
(-0.691224210417367924 0.527158642959833834 -0.830211441798938354)
(-0.673414238344153371 0.777176633234716085 -0.674171482905992381)
(-0.456984651672612874 1.00055167252782784 -0.29659653167965494)
(-0.126146318121626633 0.963998759549738904 -0.0212806540789997681)
(-2.2095229537636385 0.550734595358383205 0.0509108752613967527)
(-2.05033459847984467 0.418278051575253329 -0.105927449434805088)
(-1.94974931452713784 0.262142277284720726 -0.218716410521740817)
(-1.87708895977094281 0.114914411902849734 -0.274893884513417674)
(-1.7772894959028569 -0.109327270850274827 -0.285216679363524905)
(-1.63060669485343168 -0.481526305703210866 -0.245076042069263644)
(-1.53428571136911795 -0.827225351988677748 -0.222085563790639928)
(-1.45631805700191008 -0.980712173497577666 -0.216642728322854194)
(-1.36492237269273442 -0.989328734254373288 -0.212874212379641187)
(-1.26627196984931678 -0.82925776512934446 -0.212636393569678478)
(-1.13757156959104022 -0.56809559897582762 -0.215647357521764643)
(-0.992571638596132511 -0.252445718412127096 -0.181441077470414075)
(-0.964928070195625098 -0.22545117436263451 -0.127870874504704996)
(-0.942121464880183668 -0.297061603598120838 -0.160970728164186727)
(-0.869301444822324187 -0.286346204760177692 -0.231677948297556446)
(-0.788565862807775853 -0.0969005267057475583 -0.323283852988689058)
(-0.708746904495975216 0.141474998652783845 -0.576228529049804705)
(-0.737839475139488554 0.466589408006093054 -0.674545939765513358)
(-0.720420923779952371 0.748124265840807934 -0.520854150742680155)
(-0.460931258906615127 0.931168621802287877 -0.229242227592825476)
(-0.129410882974788449 0.858795910602374701 -0.00811685134674019169)
(-1.49597962719288224 -0.555326599625884931 0.00885001879060741403)
(-1.23156631822974383 -0.759203722320509033 0.226176456252693392)
(-0.96586037957834403 -0.862766529322622433 0.430155179372524787)
(-0.595957842365212542 -0.802922440976720386 0.570112380721622736)
(-0.0136121138738674319 -0.428548621761435267 0.442012780326007437)
(0.519319043782414558 -0.056524533096899407 0.225543842476330886)
(0.708085261800495802 0.100865652800459199 0.197244545724839071)
(0.7065461822343303 0.228201638998292378 0.269525396406293249)
(0.636136597243372792 0.478493399702287214 0.467703364459568949)
(0.611717439253052553 0.809292139133155009 0.839914700861583374)
(0.264445073747672621 0.856147840464776877 0.158593741110360398)
(0.00195891447848774158 0.488159069871443141 -0.957691683595743193)
(-0.296033247734017735 0.97449578495970679 -1.18413866481857988)
(-0.24174406967819162 1.25110445328631692 -0.594341483957267935)
(-0.0909407622923745079 1.26100223007641232 -0.16969713064850156)
(-1.75311949743707474 -0.324808925436663731 -0.275163416142449546)
(-1.50625935283633328 -0.566740068285542575 -0.0646590992010051269)
(-1.31639797265114278 -0.746818996980696426 0.143263343555489087)
(-1.14325564827939408 -0.857968061091807566 0.372962218535533963)
(-0.927283628119139003 -0.868505492621390984 0.643927344175410532)
(-0.538058263904419021 -0.640910742386870513 0.74657953358009177)
(0.0725972949384212918 -0.186797500021167101 0.432493330926075725)
(0.400721348054913606 0.137229493831741378 0.369445141586667303)
(0.481506085499339709 0.354076366027708034 0.437124729536127854)
(0.495926645517664411 0.613230692175778413 0.642849806147954506)
(0.523914503765559925 0.953294778729696368 1.0143439388809854)
(0.259035300042546157 0.887139592352310435 0.353906181487577243)
(-0.269014516215420829 0.527813894757062529 -0.934111607367049013)
(-0.331356324939438285 0.967040236002125075 -1.08073649346901779)
(-0.3150187486515581 1.22827704012043637 -0.597976119516935967)
(-0.102616133249388425 1.24949896443611874 -0.183632615561566709)
(-1.70510015189028241 -0.441734555740926349 -0.286420321475016282)
(-1.51487461257537204 -0.596322696514629214 -0.135750187891631624)
(-1.36011309516496604 -0.748596901259709679 0.0257883545238079305)
(-1.22287801577639854 -0.827039969923654028 0.20942445908584717)
(-1.08272775906309815 -0.812172886787932313 0.508666562507535502)
(-0.877941191250681152 -0.683298667685432903 0.876191826692904852)
(-0.447220704663889801 -0.30501024466904969 0.851105812311052534)
(-0.00716516301804612926 0.120508194048296491 0.590237485636765036)
(0.174950355677245151 0.414605973944578265 0.630506111404370517)
(0.319778622769512688 0.731206173966977624 0.917279264093706637)
(0.36005567574427888 1.02960497963752196 1.11592149360881288)
(0.170814704740292089 0.890857016449843719 0.361311808193780171)
(-0.396788125061432961 0.599137530743335978 -0.941321377807884163)
(-0.365529298919558432 0.920685348224733691 -0.98001048882864028)
(-0.379273437376400235 1.20225117283113803 -0.58560334010860815)
(-0.11070455709412258 1.21971483748987874 -0.184453676998613647)
(-1.662845456143492 -0.539648316601343492 -0.246614569709722509)
(-1.52895778659015269 -0.64290978956862932 -0.198494061081663731)
(-1.39816111945063359 -0.78075972890409262 -0.0812714887758806126)
(-1.27317496442339295 -0.849478284809181305 0.0343141620812009301)
(-1.14217032198603752 -0.778875249671427738 0.235699531840025428)
(-1.00471292542406476 -0.610739215919852807 0.661908941614997803)
(-0.818317883925182121 -0.313415218789141858 1.13045665480637281)
(-0.450472598859045559 0.136966601750960287 0.996199642677448538)
(-0.175408680447406456 0.477170887898070939 0.97457724651557387)
(0.0724878652140822088 0.797694035006995539 1.14736011845108421)
(0.13618013456433517 0.995227476016338763 1.04487146592590863)
(-0.0341967024612467724 0.77506878738866114 0.0251144317262519401)
(-0.422297832936629591 0.608481558115951726 -0.8668697125528535)
(-0.400973039327506775 0.86046012311703346 -0.873832122419532786)
(-0.431470072188301301 1.16998398419679406 -0.552643036703224011)
(-0.116523704940099185 1.16978158344958727 -0.173378192691181682)
(-1.84818062387335069 -0.892103490492147322 0.00695263676404691416)
(-1.79725114750968662 -0.814306186677639099 -0.114413392116194654)
(-1.70633041770702021 -0.693800722875498765 -0.20371782724560325)
(-1.61606582565898949 -0.639388288599653465 -0.243119708538092033)
(-1.52198219938769141 -0.699811374985376933 -0.239854711105113305)
(-1.42519329282868568 -0.827851452652514253 -0.169811786313045665)
(-1.3159049439731243 -0.912243175292309694 -0.0903210961117247718)
(-1.19299320190122105 -0.835095840675059153 0.00418203180248459885)
(-1.04251524656706507 -0.601016056988278757 0.25940475988216305)
(-0.919422887393780308 -0.273337677000620782 0.828775342463404341)
(-0.777748661978937772 0.124802837778228315 1.14589436018369883)
(-0.496132237700296075 0.480919101118337022 1.15521044228421021)
(-0.213501510957909924 0.732094045198205978 1.14580566280064544)
(-0.100154457894455096 0.814064449450270011 0.784382727132794555)
(-0.186160343262950195 0.56781746112332554 -0.203605263877978171)
(-0.422401884230620417 0.567296615885485744 -0.737141148033616966)
(-0.453982699580295024 0.809928638978783755 -0.756327784222913135)
(-0.468719967807521176 1.1293252741131774 -0.501334559559094006)
(-0.122820056291273877 1.09923195139031082 -0.154981572725929689)
(-1.70178651869328079 -0.936017986499000476 0.0728509034812260398)
(-1.74841009117736879 -0.916682065890464637 -0.0682228340500373592)
(-1.67524552717186626 -0.839084348697842541 -0.170618799728602694)
(-1.57847805563468002 -0.759050929138124886 -0.236175120115630993)
(-1.49399659892038095 -0.788441123016897172 -0.256132965865672413)
(-1.41596258226814831 -0.887953366296662328 -0.224359755567949487)
(-1.32970719033738449 -0.971782921960888668 -0.166171450438136997)
(-1.23575528779697175 -0.914403383237109679 -0.113072711696750372)
(-1.10796454084537221 -0.691052045982839758 -0.0170002998743711137)
(-0.933763320918981399 -0.319051682980022067 0.278888827988006127)
(-0.865214866522556747 0.0908212797459523324 0.869817109361319396)
(-0.744791592420293802 0.333416372152179896 0.979126928613558656)
(-0.507418841082545757 0.533083360692593322 0.918451632050295341)
(-0.333901735699968394 0.517023798556512482 0.443178787090401483)
(-0.322394966561968199 0.317053207022714889 -0.229159563251190135)
(-0.466099899364518122 0.493775740075045488 -0.609670138608731871)
(-0.523810708865269259 0.775433862343989921 -0.637838142502128669)
(-0.498751622382426318 1.0799319643739187 -0.436057732771056306)
(-0.130326664697753836 1.00868750867437229 -0.129258228664418939)
(-1.15606534551344264 -0.455571175982969701 0.533409339588351461)
(-1.19601936422742128 -0.718014742637569814 0.332147963958014547)
(-1.4408411290954044 -0.930667477095723505 0.132937229014557817)
(-1.6354933841600261 -0.963884368413453374 -0.0160851876786545951)
(-1.6349425325615865 -0.951342474617345557 -0.126201775270559646)
(-1.55668777452489371 -0.879316952906150529 -0.205657908429939668)
(-1.47638134732022031 -0.845671360160678454 -0.246139938622975868)
(-1.4114164632484143 -0.924093524773067054 -0.247153070486220261)
(-1.33400494661547531 -1.01914210306150155 -0.207712733782936726)
(-1.25640831777767281 -0.986014363676457561 -0.163601525206185899)
(-1.16499303587220782 -0.79976782064916041 -0.117453052245729633)
(-1.02350762501565473 -0.489932271383799467 -0.0264817432770850895)
(-0.844705364798907898 -0.0695687985313251656 0.205704997806785223)
(-0.82391350277346076 0.106394943037344814 0.44649488074262228)
(-0.758401961718924045 0.145441689474980929 0.396167189228435634)
(-0.647141075991402026 0.0485551081901619136 0.141329306519571152)
(-0.557754889210555493 -0.0433251673649266145 -0.228866453984631846)
(-0.566301525481501922 0.381846745622940464 -0.509755309001545531)
(-0.614197962223863247 0.753861770488660876 -0.531378711579713281)
(-0.51147979894915796 1.01813150517787876 -0.362527875137401978)
(-0.140246231371481844 0.916167957898137653 -0.0954520974041486725)
(-1.41906504376392384 -0.887007488903086783 -0.346931533342072551)
(-1.22801511198281688 -0.657107928342024472 -0.213692225327860835)
(-1.01146302651162934 -0.665816788632554002 0.0537533459812127648)
(-0.777891272154062952 -0.718889937004865032 0.245656956974306728)
(-0.476648420537033823 -0.698669929077513907 0.337045795220090982)
(-0.0582847751850069651 -0.537124427797475823 0.281235950205443952)
(0.357377417844568279 -0.32826071196760026 0.0151064947171809516)
(0.463556320407170486 -0.242983785080808423 -0.121391308692702191)
(0.489125387588133398 -0.174338128059257413 -0.00352243327175632073)
(0.479741731784558145 0.0997125566639984889 0.264171671649900852)
(0.555511773841913858 0.487332374058145501 0.568675268383434407)
(0.260030843236661036 0.439032546522128975 0.0862118779846873379)
(0.104090165037185406 0.37442945547873363 -0.710413991671390965)
(0.128147085770715707 0.935812634022217371 -1.01112799907575313)
(-0.0978402344194596041 1.22478546972780955 -0.677094006026904061)
(-0.0160061234817382159 1.20739154065456766 -0.33664833960811047)
(-1.48000775411943075 -0.952829024512867662 -0.203520246005183425)
(-1.28357624263909309 -0.721958194720403679 -0.217724150867941502)
(-1.11334622549433404 -0.683194106898602938 0.0007149410582561605)
(-0.962969754315260329 -0.730645795395901021 0.229058368035722631)
(-0.7585823891722695 -0.744146140245443455 0.409524465915079849)
(-0.438749347628655806 -0.634286389888422897 0.513048641032186059)
(0.0183435390154728373 -0.392098180654409101 0.337431929709877343)
(0.305458667858913846 -0.19928169634990095 0.111394779837045543)
(0.421762021634659812 -0.043346787970734435 0.181987911215836351)
(0.423899495905215917 0.234867969106224622 0.401162638571111507)
(0.53795658912319877 0.634710878455566729 0.763252481936282368)
(0.399218854659488476 0.624370291678906009 0.387481624526331669)
(-0.184884194183881273 0.361192583390538002 -0.587128279697532229)
(0.0538697154376614612 0.88882965384889534 -0.918119858545394796)
(-0.178450762378977335 1.23146910067093107 -0.681001400917490063)
(-0.037880789722948241 1.22581087014457291 -0.353971099299840053)
(-1.51584643947318787 -1.09696162100699035 -0.134048246645986524)
(-1.34496545132204992 -0.823749830505049241 -0.164166337480131846)
(-1.1880609214914577 -0.720455936168412303 -0.0818917333086739557)
(-1.08092475244415098 -0.73268196373718919 0.140468370148677968)
(-0.944591918471645364 -0.752466600646182981 0.351263362403758883)
(-0.716764833208217156 -0.676064876930395187 0.58701813015021842)
(-0.349823230080706149 -0.492343743336086492 0.674673722816503063)
(0.0717371116726627789 -0.220845717303419453 0.380091901068409288)
(0.237603248426536129 0.0113149918016032247 0.347929399173306453)
(0.321022961693418873 0.336422119977410172 0.584131668515915803)
(0.470614691709410615 0.764179826007359897 0.95037454910452579)
(0.422798148562501142 0.77509607204718789 0.589315868664102127)
(-0.226969174057040757 0.421612772495844002 -0.558209639894988174)
(-0.0349228883754735958 0.801008778515485353 -0.822039373097019022)
(-0.241510658618555196 1.22161451709010738 -0.659972320382524069)
(-0.0572184731443734634 1.21768080182408744 -0.35213657519862257)
(-1.5390400940279787 -1.21633102013141414 -0.0999998361486934273)
(-1.40287820025965226 -0.956503881218332075 -0.133192533331574547)
(-1.25844057323190728 -0.784158105663589011 -0.132044093101163551)
(-1.16070161983087861 -0.748416176062339566 0.0230661417437686908)
(-1.06624187652294378 -0.768076601908453616 0.206413560100918769)
(-0.898393963294257469 -0.681640709218620633 0.456355436560788474)
(-0.634969912442610807 -0.512176584332693419 0.77445132555568108)
(-0.23953961431089843 -0.249015366012502432 0.789911772804371637)
(0.00627010029669051311 0.0550908817422446351 0.633826740623238405)
(0.178744362148156338 0.445733577827426175 0.899811351195100584)
(0.335846376848334405 0.841107829129912665 1.04547892493218497)
(0.369864142016157582 0.79454527523467644 0.614225625908774941)
(-0.197941137966672148 0.420315359903686903 -0.476254744404428942)
(-0.130894268323487717 0.712648815119567458 -0.715775644977361569)
(-0.288770554805416579 1.19772578952499331 -0.621215779146624403)
(-0.0808585486301409417 1.18617411141785789 -0.334822954566814657)
(-1.37433709151120276 -1.09161967840713192 0.052982907954465433)
(-1.52762546641006391 -1.33607408741619005 -0.0330413845880120002)
(-1.59146737145468142 -1.41498008666979835 -0.0735073397348723068)
(-1.5422719487140919 -1.30170279023479085 -0.0930419150487880597)
(-1.43143198652921311 -1.08094971927268246 -0.12602213476938337)
(-1.31992733280817465 -0.883106200366223337 -0.137332081627398128)
(-1.22220288491896278 -0.78841980302114445 -0.0738339914061322822)
(-1.14517188736168318 -0.805476615971407184 0.0550206302508470663)