/*--------------------------------*- C++ -*----------------------------------*\
| =========                 |                                                 |
| \\      /  F ield         | OpenFOAM: The Open Source CFD Toolbox           |
|  \\    /   O peration     | Version:  2206                                  |
|   \\  /    A nd           | Website:  www.openfoam.com                      |
|    \\/     M anipulation  |                                                 |
\*---------------------------------------------------------------------------*/
FoamFile
{
    version     2.0;
    format      ascii;
    arch        "LSB;label=32;scalar=64";
    class       volVectorField;
    location    "0.179999999999999993";
    object      faceForces;
}
// * * * * * * * * * * * * * * * * * * * * * * * * * * * * * * * * * * * * * //

dimensions      [1 1 -2 0 0 0 0];

internalField   uniform (0 0 0);

boundaryField
{
    inlet
    {
        type            calculated;
        value           nonuniform List<vector> 0();
    }
    outlet
    {
        type            calculated;
        value           nonuniform List<vector> 0();
    }
    top
    {
        type            calculated;
        value           uniform (0 0 0);
    }
    bottom
    {
        type            calculated;
        value           nonuniform List<vector> 0();
    }
    left
    {
        type            calculated;
        value           uniform (0 0 0);
    }
    symmetry
    {
        type            symmetryPlane;
    }
    interface
    {
        type            calculated;
        value           nonuniform List<vector> 
67
(
(3.641843412412059e-08 1.39904478665384661e-07 -0.0026196489681266275)
(-5.69822661765426227e-08 -1.39694068343484448e-08 -0.0018723197355354057)
(-5.62849149829185947e-08 -1.30683277410031149e-08 -0.00188350659569735544)
(-4.06548527748515671e-08 -6.75389363105715664e-09 -0.00173786373950445905)
(-3.88867522969089004e-08 -9.96761936623936091e-09 -0.00176489644559458614)
(-3.7730382015787917e-08 -1.26013813551444081e-08 -0.00178433023528731002)
(-3.87543962662970981e-08 -9.53590758498349764e-09 -0.00177290247127513895)
(-3.61577957731486549e-08 -4.4000609193349573e-09 -0.00140229021166882574)
(-3.56425863448357989e-08 -5.34024779944412776e-09 -0.00142736065090025657)
(-3.45636287633899639e-08 -6.88711525508105972e-09 -0.00143783546384896785)
(-3.26292017466469187e-08 -8.07996479823422309e-09 -0.00143660145268355256)
(0.000978594045776669729 2.83401536932316521e-09 -9.88441778754140617e-09)
(0.00103064083252061081 3.85836520913533999e-09 -7.85185266342725887e-09)
(0.00108843740211364494 5.58288334671964022e-09 -5.73157613560781027e-09)
(0.000939175171760334463 5.52232859549578098e-09 -4.69505513934067044e-09)
(0.00100065798488111163 7.23663759959378649e-09 -3.46644874723779679e-09)
(0.0010728951007297064 8.94538858534429497e-09 -2.04562136423361964e-09)
(0.000919881557992973222 7.35330109548332148e-09 -2.4671287395797022e-09)
(0.000985038385368761354 9.08005466422486548e-09 -1.68012602458448964e-09)
(0.0010617420967528172 1.10151461144070824e-08 -8.79446175065974704e-10)
(0.000912868049795435843 8.49923862499818773e-09 -1.15179145824111778e-09)
(0.000979735689836934561 1.02338629355187088e-08 -6.67276954406469349e-10)
(0.00105844097192170903 1.22079636178437838e-08 -1.91457080277723795e-10)
(0.000908821590313640395 9.24167941364910018e-09 -6.15032391152878111e-10)
(0.000977054031616748269 1.09964360563679049e-08 -3.09994639734608222e-10)
(0.00105740586074486186 1.29879231478512591e-08 -1.6122548533018794e-11)
(0.000907096586105806497 9.69809129738730657e-09 -3.27716441622423207e-10)
(0.000976490406226031 1.14686773715432463e-08 -1.47559148632303276e-10)
(0.00105837906387245043 1.34307693333704434e-08 1.12460052211509607e-11)
(0.000906922146797371352 9.95298076418193666e-09 -2.64184847049529894e-10)
(0.00097741589900061346 1.17087589752946662e-08 -2.71039440532589609e-10)
(0.00106068938174248579 1.36082787564746145e-08 -3.29635151987259976e-10)
(0.000907382167145261913 9.65815431385733072e-09 -1.65095868290450148e-10)
(0.000977967386406433051 1.13592597449225291e-08 -2.15960548328177112e-10)
(0.00106120701207530559 1.24831347987380119e-08 -2.49323997927649012e-10)
(1.42418460648632386e-08 0.00676310860359016514 -4.0217257788567214e-08)
(5.46736651029697715e-08 0.00638841504797776037 -1.10515337877150301e-07)
(-5.93186860947361526e-09 0.00607385645290949277 -7.16772431914067965e-09)
(-1.13103757058675832e-08 0.00533111862117166893 -4.20117349921176446e-09)
(-2.94860659648961502e-08 0.00546762907605804517 -1.64434599162379146e-09)
(-1.7610466760924739e-08 0.00604217859619821974 1.62324198411917561e-09)
(-7.29929340532755229e-08 0.00610053123865913777 -1.02372908862176947e-08)
(-2.90603653068526168e-07 0.00539495042077719252 -3.62975922605180135e-08)
(-9.69386886921459966e-08 0.00373361840510949561 1.30453319769164103e-08)
(-1.01668180079762736e-07 0.00373616898880040809 7.46997384971026923e-09)
(-9.87504168948855519e-08 0.0034979512725666663 3.47372096162569302e-10)
(-9.02087046533590977e-08 0.00320862833176694361 1.41908051625865947e-09)
(-9.05272449483957246e-08 0.00324421196573902336 6.00554967482509939e-09)
(-9.52298092931636568e-08 0.00360837551447041249 7.31703410410200063e-09)
(-9.6687535438902661e-08 0.00385228209710522648 -1.76051097950843921e-09)
(-9.26035654294903689e-08 0.00371581634156016626 2.41527386855884845e-09)
(-3.88137274664568238e-08 0.00325457260724334183 9.00894149865335759e-09)
(-3.48655657181439005e-08 0.00328464402807710767 8.07561538454713008e-09)
(-3.18684727943034748e-08 0.00321881282988025191 5.51801957877318954e-09)
(-2.96419789555293061e-08 0.00313407538704006108 3.71909179709444495e-09)
(-2.83306417577428488e-08 0.00316177142536734493 2.56243968569250882e-09)
(-2.98152618092551982e-08 0.00328142027908525811 2.07135131932639082e-09)
(-3.23202014728484885e-08 0.00338052416787349786 -1.50372297539350323e-09)
(-3.10146622696822424e-08 0.00334123299123205214 1.48456933000055306e-09)
(-4.08443905280486742e-08 0.00282806132514200901 1.06112307906026565e-08)
(-4.16744499211756675e-08 0.00287389487053471256 7.69442114353842771e-09)
(-4.07363384431937671e-08 0.00288423725221920906 5.10370772620338613e-09)
(-3.95341616756582604e-08 0.00288643642724832443 3.61386769648516331e-09)
(-3.91847837098539797e-08 0.00290857068694842357 2.55928432310354908e-09)
(-3.93401727365454688e-08 0.00294657582083570008 1.78916442271617048e-09)
(-4.07344082498339861e-08 0.00298551254281143822 -1.23489986037804216e-09)
(-3.8555426240206282e-08 0.0029703770041384402 2.35860299268949658e-10)
)
;
    }
    procBoundary1to0
    {
        type            processor;
        value           uniform (0 0 0);
    }
    procBoundary1to2
    {
        type            processor;
        value           uniform (0 0 0);
    }
    procBoundary1to3
    {
        type            processor;
        value           uniform (0 0 0);
    }
}


// ************************************************************************* //
