/*--------------------------------*- C++ -*----------------------------------*\
| =========                 |                                                 |
| \\      /  F ield         | OpenFOAM: The Open Source CFD Toolbox           |
|  \\    /   O peration     | Version:  2206                                  |
|   \\  /    A nd           | Website:  www.openfoam.com                      |
|    \\/     M anipulation  |                                                 |
\*---------------------------------------------------------------------------*/
FoamFile
{
    version     2.0;
    format      ascii;
    arch        "LSB;label=32;scalar=64";
    class       volScalarField;
    location    "0.179999999999999993";
    object      p;
}
// * * * * * * * * * * * * * * * * * * * * * * * * * * * * * * * * * * * * * //

dimensions      [1 -1 -2 0 0 0 0];

internalField   nonuniform List<scalar> 
7236
(
-0.970658261837493153
-0.911339515248659082
-0.908116419813128961
-0.412422951819639061
0.00300022546874706419
0.285254268407592493
0.302627175267359383
1.2724520736074636
2.58762409125757564
2.58404974687850064
2.00147894952277783
1.84144698829005504
1.82948981742938921
1.66873431911110437
1.4107678249045259
1.20980923707257215
0.982911914775448814
0.693989346219882064
0.477067057337368761
0.346374488810147874
0.282002045995428663
0.323499002794498614
0.504270039595454245
0.738167869457560633
0.943660898087488431
1.12661702317514889
1.27004264856017213
1.33165067323434716
1.30641749945333396
1.23110986979699288
1.14530020387117237
1.06751322713250407
1.00367075521784033
0.953562294874518712
0.915572771087245663
0.888335121869197941
0.870744708371382958
0.862104486362289424
-0.984522638200571842
-1.05196254636351361
-1.06043159099359219
-0.946911561896433773
-0.726823369177110212
-0.647251988393772515
-0.621145166826489792
-0.641594712122158572
-0.710115273612490716
-0.744042787663439231
-0.726875173859981571
-0.710323747181874854
-0.691980370061987093
-0.664529651300210578
-0.646686481679893288
-0.634456144892273866
-0.641249517552492043
-0.64764302427866971
-0.62433991221640095
-0.576485914677085209
-0.496021602021359087
-0.341057131277628156
-0.118502650454636205
0.146298839209277332
0.450022767826376069
0.741209902575027613
0.970092984639860711
1.10044862937549337
1.12510031012609746
1.07980002836477729
1.00802032755130799
0.935942384979822517
0.874336225178007909
0.825549086611477745
0.788584702661105474
0.762079646213882911
0.744955329066723571
0.736521729637037548
-1.13348511514981576
-1.16610807005388484
-1.14293158907850345
-1.05106129795868708
-0.939214609294891423
-0.886599798236638259
-0.863912187727444936
-0.867202137132479733
-0.888119008148556599
-0.891714860495507189
-0.87682535778030557
-0.859336066390956943
-0.841315382470607442
-0.822813993218123541
-0.806408747437406204
-0.794556099133706395
-0.790402366116456978
-0.790414920844596081
-0.776942896580544273
-0.74256111932246649
-0.671638457594281424
-0.542077047247496058
-0.35580076905633029
-0.121369209805303246
0.144346040786153151
0.417653356792025587
0.65776579434103033
0.823047954415493388
0.896075386146772068
0.892711043137168758
0.846718458682979902
0.78897970983939103
0.735327879411726615
0.691100629891737706
0.656864405590042444
0.632002800974054368
0.615829227643608812
0.60783616362961479
-1.26540103420984962
-1.26462339328987561
-1.22519112723960166
-1.16428878514965062
-1.10067368475883609
-1.05144411642016289
-1.02633967942876958
-1.01782880166797018
-1.01841727003037708
-1.01415283701954428
-1.00063593100071868
-0.982756864253793605
-0.963555206234287809
-0.945239705149913956
-0.927663211556514544
-0.914041148249059354
-0.905029451140729302
-0.893409861402682526
-0.869872878159866803
-0.825628320668061022
-0.752217815750313878
-0.635822445288426019
-0.468181105601232384
-0.257200502240322815
-0.022019779975770204
0.215094199789688412
0.428652276389254239
0.58701457328477713
0.673685968820352032
0.694793727326424082
0.672609460660638536
0.631915664851721681
0.589029926555174832
0.551278594826107637
0.520950616275142275
0.498450475117204084
0.483639408283434324
0.476300436407013528
-1.42196560414989248
-1.3786444655209813
-1.3375765603953651
-1.28423747550649914
-1.23515565854896292
-1.19745466619519614
-1.17476839386620879
-1.16151855402411863
-1.15169833770017549
-1.13877359616684126
-1.12130960848214212
-1.10135391811979666
-1.08010334035784972
-1.05962943372800478
-1.03996627682037035
-1.02256058894098123
-1.00636246101237004
-0.985763627561885292
-0.953827686377388684
-0.902374312664991463
-0.823686086146631302
-0.709198984207648042
-0.554751900415367594
-0.366644747441185304
-0.159248062798169887
0.0485511994085502385
0.23554972532218954
0.380078966790476147
0.468250559741277605
0.501588814799189819
0.495971899428176322
0.470097728468019005
0.437956738317552441
0.407283986447503299
0.381478300850737861
0.361803101468806787
0.348648475307391181
0.342101043029683693
-1.59007469728818718
-1.51274364114102688
-1.46615627095792744
-1.41357641538895429
-1.37235778150189613
-1.34023056289819253
-1.31660444778801056
-1.29863973258475518
-1.282391256373836
-1.26466923447553237
-1.24411005473434311
-1.22114734612278752
-1.19704665906794538
-1.17363976127324454
-1.15066925128925956
-1.12843366194052619
-1.10525797968555706
-1.07667738939458424
-1.03700549653559748
-0.979458095292909503
-0.897428727556550454
-0.785633141919854783
-0.642461595261855756
-0.473642000140226449
-0.290348578023228776
-0.107696846328413143
0.0570427629671058645
0.187650785955132404
0.273252781019176383
0.313904383640778106
0.32026245966822886
0.306385677910968823
0.283913220741214389
0.260187490119063169
0.23909286112697592
0.222474224969173573
0.211149779186360909
0.205468980172538673
-1.75363314039342022
-1.64565740730286425
-1.59801219435101549
-1.54761669523882484
-1.50985219798940173
-1.4796674167595798
-1.45508921445025141
-1.43379206459543562
-1.41311174857469957
-1.3911802605691399
-1.36721898653070273
-1.34131222367191416
-1.31432079889587183
-1.2874158799240063
-1.26046636702560799
-1.23308581061283862
-1.20362876695337739
-1.16847071304133565
-1.12262293125616042
-1.06059272263701621
-0.977294316297709242
-0.869272821247632499
-0.736205615501259847
-0.583424632980434565
-0.420416932621853423
-0.259135080218090175
-0.113064446519625994
0.00502463607559577863
0.0867406250241685717
0.13151836703429487
0.146548015656587038
0.142282387570697111
0.128187203750730006
0.110904906514728507
0.0944165241372435515
0.0808980359889105438
0.0714718873658150011
0.0666938254243263362
-1.90505041559931687
-1.77182133822911059
-1.73113777534677515
-1.68259957311475361
-1.64731998233976595
-1.61722718111934038
-1.5912433068135885
-1.56698607575359583
-1.5426793579822311
-1.51715326140070417
-1.48981654973401678
-1.46076630495988002
-1.43067161023928247
-1.40025881022548737
-1.36940301526496389
-1.33741343192711848
-1.30262156572373922
-1.26197549596617153
-1.21133842869598185
-1.14626676903193903
-1.0629356627953177
-0.959267911111037375
-0.835762531155231692
-0.697042184603617887
-0.551016060824808696
-0.407454587691692294
-0.277112945618324669
-0.169959084407798611
-0.0925361696690986113
-0.0456818880016426343
-0.0245166442632879233
-0.021254627937169146
-0.0282926584007541226
-0.0398149127753534282
-0.0519880221806865439
-0.0625018407291652034
-0.0700473867933312233
-0.0739234728318900469
-2.03887793026584063
-1.9004860068503171
-1.86480877426902714
-1.8183055311820806
-1.78432313982910928
-1.75358465619594828
-1.72589595394597106
-1.69896314105159463
-1.67140669819110776
-1.64240863978612661
-1.61169063208345076
-1.57940528443970063
-1.54611351279399267
-1.51226424844553353
-1.47767459815309898
-1.44156629897609334
-1.40233024576744514
-1.35733823773611317
-1.30319263924766737
-1.23636662091225147
-1.15402543138573943
-1.05496521092095485
-0.940205503424485167
-0.813777799058187146
-0.682210191525322585
-0.553546019153342894
-0.436473833662444299
-0.338813304562217033
-0.265726656088766777
-0.218146190377746629
-0.192730940139518636
-0.183662820573861185
-0.184874411031017094
-0.191380067346595295
-0.199633572272720827
-0.207332215968678679
-0.213078986474957155
-0.216084049822166335
-2.17851977918491801
-2.0371075257376825
-2.00131356532620419
-1.95624965896605385
-1.92147127229180104
-1.88943773451331376
-1.85947091843840173
-1.82968127212755349
-1.79889806979224032
-1.76655524000939335
-1.73250190268446147
-1.69701319918311366
-1.66056479128409995
-1.62346703121453384
-1.58548351334155502
-1.54581591437862231
-1.50296719931374034
-1.45467112991068004
-1.39813569981654395
-1.33059361215845784
-1.24997394918871629
-1.15563803306406299
-2.32526402136122501
-2.1804632299494866
-2.14201044105774052
-2.09631719073906719
-2.05910473788408988
-2.02481836423371897
-1.99206980109154497
-1.95916894178399481
-1.92511400984754411
-1.88941820126338711
-1.8520715012407567
-1.81343443136953741
-1.77397408789603128
-1.73390910035404056
-1.6929669738759765
-1.65034705040457697
-1.60467260288425928
-1.55399301406677237
-1.49601581735726841
-1.42856780698229113
-1.3501564397936483
-1.26053303667939498
-2.47367945459463634
-2.32953114543613538
-2.28733357565982942
-2.23806339557215139
-2.19753165777260406
-2.15987305246958972
-2.12372886910019609
-2.08743401595455458
-2.04996181308209913
-2.01087100000353214
-1.97027165392382431
-1.92861893581282517
-1.88637451736975681
-1.84369631165308512
-1.80027174830448078
-1.75530580042114659
-1.70753292407768997
-1.65526755236823342
-1.59662016818141805
-1.52988496777072225
-1.45400097674960671
-1.36898114715835773
-2.62007917881704611
-2.48104909037654719
-2.4358923259772598
-2.38153547719377112
-2.33650336970940575
-2.29446477378265934
-2.25438837762491806
-2.21437230870340507
-2.17330997402224124
-2.13080418285629403
-2.08705881189703479
-2.04259096752467029
-1.99785908644691723
-1.95296546336587129
-1.90754896698387988
-1.86081558643014122
-1.81159479037943694
-1.75841936299003843
-1.6997222412002797
-1.6341651854749748
-1.56100329492877199
-1.4804177649473762
-2.24917092242791128
-2.2024434967099249
-2.15542495050917626
-2.10855573165471366
-2.06186817957088264
-2.01494161406577232
-1.96697568143389967
-1.91687518825050041
-1.86335130135647953
-1.80509581433664423
-2.267254892753225
-2.21862711839707938
-2.17056842542069628
-2.12258719712023147
-2.07386698123482827
-2.02337230726628325
-1.96995870664018113
-1.91252480954520854
-2.27918905322020304
-2.230570447282334
-2.18151323199092495
-2.13103143613223622
-0.851940902513474208
-0.885433393756067
-0.918817280778734036
-0.76111836577745029
-0.632456999135466935
-0.544277941187650938
-0.501851641729779696
-0.432441674612345728
-0.366173636041679185
-0.324049124608746519
-0.329094826003182905
-0.290169744186057288
-0.245916546939924596
-0.206987928870174975
-0.151210382366571749
-0.117328657943482129
-0.0954596184360173572
-0.070340278208652629
-0.05652403136427403
-0.00745159224248231888
0.0838251850928882214
0.222576063682914327
0.406591110376977205
0.616904991337555719
0.82167193962171714
0.96693700237666691
1.05772950537611266
1.08909689674179577
1.07702205415788344
1.04225080810212978
0.998892006298004786
0.955380542748814565
0.916410497122312373
0.883930162036786093
0.858358328929686554
0.839545515676179521
0.827185706222316686
0.821042088313511109
-0.961720351618398972
-0.989336299556551779
-0.984515359084848662
-0.908864442852549081
-0.840403215430581607
-0.794182767088667418
-0.76603403834705186
-0.746282246100695046
-0.7131842200762748
-0.701402262177496905
-0.707751273742194487
-0.702917885754734906
-0.688231414676447106
-0.669853131300638394
-0.658553028440197141
-0.650446951738431145
-0.642090277351125227
-0.62335999899451966
-0.576498538638660074
-0.50904427544112929
-0.414008366528728522
-0.263120391770669537
-0.0529242739123474415
0.189756098188996969
0.447982864063822483
0.686566188437028435
0.844802213914862543
0.916980454123594746
0.928325059879407055
0.905031991974153627
0.866875885330441909
0.825830702205847089
0.788284078673647248
0.756861254689743967
0.732068240783349977
0.713793888828222478
0.701776626915465496
0.69577939962687485
-1.08835184336122737
-1.09653558630826309
-1.07049299647339224
-1.01381878549960636
-0.968641801784762335
-0.935388530342406543
-0.914119985296732662
-0.901067704922111856
-0.885552778467602275
-0.867353609421390503
-0.851830450940119777
-0.83613373357734555
-0.81669291066707228
-0.79431947857376306
-0.776008610032081658
-0.761488243655057406
-0.746301205171201687
-0.724370261195018017
-0.68789835301397495
-0.632778045157656566
-0.549195615567157125
-0.421487445351182211
-0.245243262893662134
-0.0349257289447960639
0.192270533104132391
0.416711752559591642
0.595542029274985563
0.703227241213675858
0.746880660938310514
0.745017918365102338
0.719449005801371388
0.685997528379338917
0.653200259882209755
0.624762586150606536
0.60186778158393528
0.584779869588699874
0.573459614758786707
0.567786907995229573
-1.21774223933149117
-1.20980760234243601
-1.18315552485969322
-1.14143120919618091
-1.10270421107228089
-1.06966942833238177
-1.04595959174591413
-1.02852361381601987
-1.01214135502420266
-0.993882515182874071
-0.974802479546628242
-0.954678362334881236
-0.931966131694582423
-0.907938212729064609
-0.88567491357412198
-0.865800322703447311
-0.845125982449138391
-0.817943826054260859
-0.778578116801776243
-0.721009461473941626
-0.637557284566052651
-0.518541456108230769
-0.360994896202303295
-0.175123755059088115
0.0232380661115877962
0.218068524254901475
0.38313929599823987
0.497408269625757404
0.557303784392013557
0.57343614601152193
0.562223264091103903
0.538783053767577735
0.512574670156278112
0.48835333395699615
0.468152169974736021
0.452758657851073665
0.442439990680650486
0.437256936323976497
-1.34993323862962589
-1.33064103715984983
-1.30334064673744576
-1.26812344079312278
-1.23373072797146222
-1.20313718095054489
-1.17859724929555143
-1.15830556235697824
-1.13902356381636838
-1.11831635591803069
-1.09603978013134817
-1.07230301112789572
-1.04686005100367763
-1.02065953596560766
-0.995065282340509727
-0.97037533955972699
-0.94410247426790006
-0.911438391221842226
-0.867399083875696864
-0.806689691871187331
-0.723205970066979509
-0.610621516096712558
-0.467532287977976746
-0.301340918539317548
-0.12525432220346211
0.0466052906639186082
0.196134986938758527
0.307014729016536037
0.373032147573792994
0.400286210535434561
0.400859737767303104
0.387073382440953684
0.367849023821558374
0.348394874476496974
0.33136317527398107
0.318014427545916911
0.308922491592442339
0.304336665021577191
-1.48571068484083879
-1.45714448841727462
-1.42907781494601371
-1.39670772952377265
-1.36524079523144248
-1.33622726108337053
-1.31086402858527462
-1.28808430446782007
-1.26585630551035377
-1.24244328246809355
-1.21737677133634326
-1.19073894632439936
-1.16279008609363954
-1.13424409476342092
-1.10560096687299936
-1.07664860021070097
-1.04534336584812593
-1.00782457924378654
-0.959765927781853767
-0.896448129559619833
-0.813153169579639901
-0.705930850973180979
-0.57450602766046599
-0.424807401573657983
-0.266988037374955134
-0.113625732571454585
0.0214584090839795572
0.126006778203644476
0.194042902876564227
0.228565761465774009
0.238204118452811753
0.232798605419358817
0.220222090722077879
0.205621056579864847
0.19196667438097903
0.180862427458162056
0.173139595726751638
0.169211536646945881
-1.62242148253561291
-1.58596131467646351
-1.5582679749451267
-1.52746818388671945
-1.49760423752534599
-1.46917282559500961
-1.44279739637520721
-1.41774590416885804
-1.39270573953507837
-1.36654003115186207
-1.33883519081534574
-1.30962382275893119
-1.2792338698678809
-1.24817250620124343
-1.21655783274672435
-1.18385918616011798
-1.14826653686782287
-1.10665046044625281
-1.05530145691155441
-0.990223586622737462
-0.907746139577023547
-0.805459151362214465
-0.683887783021114637
-0.548000700389773221
-0.405981115110024715
-0.268121441861260523
-0.145509193906163126
-0.0477674747297628377
0.0200030842896655736
0.0591270725855380652
0.0756492053841193446
0.0772560224501900317
0.0706731401753932786
0.0607143483576245702
0.0504350277823248927
0.0416424273141196011
0.0353556237377598004
0.0321184847116590122
-1.75822545002780739
-1.71626613584388599
-1.68974509863356159
-1.6599004422116761
-1.63077042604898081
-1.60208553599552861
-1.57434485393811241
-1.54705574249041122
-1.51937068944373443
-1.49052222351671726
-1.46021010320267108
-1.42849824335836217
-1.39568916536641674
-1.36209919944700619
-1.32763660310158316
-1.29161375184252525
-1.25240257759236417
-1.20740655500222593
-1.15348645140533757
-1.08736403981025331
-1.00625941287196108
-0.908738188906651034
-0.795771950386657156
-0.671621638693717937
-0.543073360732896138
-0.418479425213446055
-0.306762982221188585
-0.215623751095215699
-0.149352850133977255
-0.107538784472106075
-0.0859554625662931615
-0.0786576379253804969
-0.0800297688022005849
-0.0857304729077134064
-0.0927854449227896172
-0.0993045647434052103
-0.104152607208798376
-0.106693003403812159
-1.89258767629006996
-1.84861296002834852
-1.82329933268779065
-1.79384680038520639
-1.76460322193124974
-1.73498951505517374
-1.70556407035528879
-1.67599221547113908
-1.64569442364502483
-1.61418281360968807
-1.58128139573856119
-1.5470947350688129
-1.51188250934342849
-1.47582150945538393
-1.43869764197556327
-1.39976166157194903
-1.35754406404914496
-1.30984855623757124
-1.25405360338062444
-1.18752465051351397
-1.10819680272902477
-1.01528026998120424
-0.909974340937893533
-0.795966924162828771
-0.678921144554286649
-0.565707411413383987
-0.463543879638040446
-0.378616920774577981
-0.314525985784206208
-0.271356677807546243
-0.246154518219819596
-0.234344778472885817
-0.231304771427490174
-0.233216848957582767
-0.237292773627139741
-0.241653073631495796
-0.245110084939780593
-0.246971457352530122
-2.02833809436812551
-1.9843395924865761
-1.95944733725992659
-1.92952239903538025
-1.89921640364394695
-1.86794313501403497
-1.83641761591185482
-1.80438401752224653
-1.77143621183831979
-1.73726353465840377
-1.70179368603500958
-1.6651696848089117
-1.62761375039324618
-1.58920786586124985
-1.54966548264379389
-1.50822815754270856
-1.46356793521023398
-1.41381347216560171
-1.35679165722716788
-1.29040850715264455
-1.21315496600482575
-1.12467822152236518
-1.02626855019937824
-2.16843952885658897
-2.12438746631938491
-2.09871038460612924
-2.06703471779496528
-2.03454531255422655
-2.00090561287984992
-1.96682646561366203
-1.93210048059496087
-1.89641442873419686
-1.85956295063164512
-1.82155095751792184
-1.78255190025383681
-1.74276066011146558
-1.70219246601425356
-1.66051652661314053
-1.61698897978753164
-1.57041132558141028
-1.51918048624877078
-1.46150115238585165
-1.39572072421325877
-1.32075765604057493
-1.23655201968699746
-2.31326441977853925
-2.2691358946123672
-2.24132146132060939
-2.20634582851706851
-2.17058517247863936
-2.13379576760931133
-2.09668503509678272
-2.05901125409697183
-2.02048070487717935
-1.98093437727961064
-1.94042591457074098
-1.89914862955443464
-1.85727442471634396
-1.81476937505859981
-1.77127240764146876
-1.72606133873895384
-1.67805176098768394
-1.62586401611352294
-1.56801411989084394
-1.50320443584406482
-1.43067742703714207
-1.35056511983067384
-2.46530648492624005
-2.41883501236735343
-2.38731232235287116
-2.34738318436000881
-2.30719459127655391
-2.26646931894228443
-2.22585671022257348
-2.1849871594628949
-2.14351283425262906
-2.10127287912112726
-2.05834359143429158
-2.01492304961415858
-1.97116020198237329
-1.92697683492733041
-1.88198557263429112
-1.83548455191636339
-1.78648634479504453
-1.73379672623900705
-1.67618549047333554
-1.61263574914626751
-1.54263214527315151
-1.46642641153801279
-2.22050458978799448
-2.17526956061706755
-2.12988033129567844
-2.08445779967104983
-2.03887557124612862
-1.99271837796076356
-1.94529963887224966
-1.89571168660200828
-1.84291235223243577
-1.78587757508427969
-2.24406894915713728
-2.19724016668956512
-2.15054710177401631
-2.10354285848629052
-2.05554953868905832
-2.00572400147439156
-1.95314745837557213
-1.89696213532875246
-2.26205184180338303
-2.21450372928748251
-2.1662463209073084
-2.11648991909121698
-0.805791569569370814
-0.817822297373840268
-0.812007545145828846
-0.777565708774403452
-0.702677183926092686
-0.641423156602307087
-0.599474008030049133
-0.558511574530520805
-0.50829906904612332
-0.461791071882624249
-0.427052711582953659
-0.393417462038585908
-0.361655580618433115
-0.33034800233053796
-0.301100776422515315
-0.277272244960653946
-0.250104439288979241
-0.205233461652581745
-0.145552950354315508
-0.0704306585993008244
0.0312038504734399591
0.166187890245140968
0.321714979055103711
0.482686484660304505
0.634663562394521152
0.756431178567050999
0.838106242293111481
0.882446661210180117
0.898790871338737141
0.895975657677551385
0.881432951664632536
0.861715788619420886
0.841397218663941571
0.822911824283253157
0.807493743033939948
0.795692201368170204
0.787737370351970778
0.783715762511460023
-0.924403201782468376
-0.93091060689890992
-0.926157027910383124
-0.898285047560587246
-0.858001927478797333
-0.824437976434196473
-0.799613332632020279
-0.779105042907787371
-0.750216400756063551
-0.725634949199579271
-0.702071085312719667
-0.671177782952077084
-0.637390357522040096
-0.603751206588144296
-0.573524340098719554
-0.544843054674809535
-0.511906867579430491
-0.467153236069926259
-0.407502729791069274
-0.330576316750955557
-0.228382958410009884
-0.091060925950529753
0.0773813120086637718
0.2560394763590913
0.428694321311585247
0.576014479555489123
0.67975717135866176
0.738588996860837788
0.762815549428822015
0.764163314085372192
0.751968643946846704
0.733718118079418447
0.71439409450861957
0.696664591041304959
0.681789794882594058
0.67036467847602077
0.662653565577968284
0.658734464414730603
-1.04410570580709594
-1.04691688810805994
-1.03762844125147824
-1.01155154691121685
-0.981064779726478764
-0.955128701405477565
-0.934037461280426418
-0.915893321382453607
-0.893717848267927772
-0.867350945744105095
-0.840259397056003055
-0.811241666390107863
-0.779767557894903485
-0.747528778373712122
-0.71722894867908682
-0.687996392863145956
-0.655188133365614767
-0.614363709245206557
-0.56022705021140351
-0.488814509304748401
-0.394557136290328403
-0.269477897368798736
-0.115081972421511136
0.0544192352349059383
0.223781704621363875
0.377644223144314839
0.496799319827038455
0.572160702615526207
0.6092106513366492
0.619278517372060078
0.612986533702959413
0.598808387428191202
0.58226976190978541
0.566433126156183242
0.552835093069686812
0.542243405311016557
0.53503174008990817
0.531344154580317918
-1.16689790676477401
-1.16643181419227981
-1.15483326783838569
-1.13107881715225611
-1.10306923015880276
-1.07675241192705529
-1.05383405131454699
-1.03235069663994827
-1.00848563361860211
-0.981897707699852296
-0.954045760106118745
-0.92459057173024517
-0.89328185806935112
-0.861116297213564641
-0.829751680712106254
-0.798786623828877551
-0.764855129703133518
-0.723566456652373846
-0.670608073721318032
-0.60197622719869559
-0.512784749102603632
-0.398005432271757054
-0.25886425215916975
-0.104974560102020886
0.0512644689713794843
0.197157314265635708
0.316397352021775213
0.399015912259609529
0.446368044618886572
0.46589309439322385
0.467126210230456806
0.458501885348750138
0.445867277065263523
0.432705308460347327
0.420915761668559707
0.411510358023321032
0.405018127932233796
0.401688549301082887
-1.2926636675422809
-1.28920660143960197
-1.27633164844833891
-1.25427104309732806
-1.2282114429234241
-1.20214610103657771
-1.17769667983138859
-1.15378547694155964
-1.12833301459020907
-1.10081434506541087
-1.07177169822988794
-1.04121796583623438
-1.00923726332612618
-0.976441879604741936
-0.943558039082387445
-0.910064477240278613
-0.873527034124157886
-0.830289796423161919
-0.776464431638971719
-0.708498480853065771
-0.622533726669323162
-0.515249005427924289
-0.387761325691669878
-0.247418937657503446
-0.104519499926187809
0.0305671284221572526
0.144562339280893015
0.228644713546852119
0.281831878579017037
0.308816653117970574
0.317145534121911488
0.314312740737087037
0.306022188080410373
0.295969231872854288
0.286339643083965201
0.278377312410357569
0.272772203846163852
0.269883428023421135
-1.42087749922704987
-1.41505076037921507
-1.40148032853160642
-1.38038328002102162
-1.35548361536589401
-1.32949992405407813
-1.30380287630504044
-1.27796017963022823
-1.25085500140693906
-1.22202811593482874
-1.19162666917609839
-1.15978339207484638
-1.12670805586989253
-1.09278604111702604
-1.05823890703542056
-1.02239551869524514
-0.983284836464285994
-0.937955116907708941
-0.883081203282805483
-0.815397973607202564
-0.731880266408658886
-0.630619257942570677
-0.512879426234636115
-0.384262208054516885
-0.253100794118561234
-0.128522128792184831
-0.0209967495498861734
0.0619524632926043983
0.118206635982773478
0.150598132431461362
0.164901322335702649
0.167460104162760692
0.163509672933102146
0.156723212051599115
0.14944188801203373
0.143084107612415523
0.138478143804554144
0.136077137910195933
-1.55103714716501573
-1.54342684736617386
-1.52959482270418068
-1.50897597253689053
-1.48452942858812786
-1.45822115290025645
-1.43128480474900077
-1.40366961070064855
-1.37481442708588086
-1.34442086482992318
-1.31252505734846014
-1.27925388571671483
-1.24482036412147812
-1.20945741721564026
-1.1731237815872817
-1.13508455040043721
-1.09365181548531831
-1.04636989337517217
-0.990439134797984622
-0.923080085364762271
-0.841933399592739606
-0.745881952943129201
-0.636328669255741053
-0.517850893762152209
-0.397231343600607023
-0.282298810431946379
-0.181457427925782566
-0.101090237680949602
-0.043626692933651956
-0.0074905588051971117
0.0116175272896401616
0.0189141222377331442
0.0190336749586043075
0.0154633278018622145
0.0105766684957181445
0.00589491062670333132
0.00234780545145785169
0.000463008410714782492
-1.68281121123260435
-1.67399192116931328
-1.6601580237352036
-1.63957972857133227
-1.61497267250127141
-1.58789495546652626
-1.55955899677037912
-1.53015847762246748
-1.49947486759836179
-1.46735090490154363
-1.43381464865117492
-1.39899079782375191
-1.36305441626540969
-1.32611487733675748
-1.28797907851618887
-1.24789845902265761
-1.20440805232443093
-1.15543669479987621
-1.09862994752275944
-1.03170101082591348
-0.952859659124770775
-0.861498376299999702
-0.759058028032165599
-0.649422666247030378
-0.538230052966497396
-0.432055507289390572
-0.337744900209644316
-0.260666836649655731
-0.203241994204479304
-0.164696890617529346
-0.14187918993653903
-0.130582244921459978
-0.126807468465660267
-0.127352438656045841
-0.129907944175297718
-0.132918243602003883
-0.135393106279270037
-0.136752859526705572
-1.81639089702061041
-1.80685786602213661
-1.79301680115672313
-1.77195613101630656
-1.74657400492820614
-1.71823408934289823
-1.68824297355495423
-1.65693995563552177
-1.62431953817672703
-1.59034021300001593
-1.55505310160649413
-1.51858146527587357
-1.48106000893357548
-1.44250793852044934
-1.40264459402468855
-1.36073030096907122
-1.31547888380755396
-1.26513644027473959
-1.20773307841627653
-1.14141335772301811
-1.06485305985287182
-0.977810762049008186
-0.881708974181264815
-0.779875979153664467
-0.677053338342527566
-0.578758224543448385
-0.490619928548129414
-0.417133174250567285
-0.360560246065909862
-0.320628706609560665
-0.29505174052516614
-0.280480545647554869
-0.273526873197487252
-0.271321314418863868
-0.271686451316162758
-0.273088732904782749
-0.274516119301383532
-0.275359806640255722
-1.95264340954633075
-1.9425808460791516
-1.92832070769776642
-1.90605870310094705
-1.87913831623518446
-1.84904612261456558
-1.81707183302484232
-1.78368253189282111
-1.74899971994265879
-1.71306238021053092
-1.67594788830995833
-1.63777561788457326
-1.59864456727180348
-1.55851013452535936
-1.51704351096890999
-1.47353063686666452
-1.42683192592994468
-1.37545480815892107
-1.31776075794340497
-1.25226372546880826
-1.17800610631634317
-1.09499942851230569
-1.0046172814082448
-2.09313772315278168
-2.08190624810245506
-2.0663454907273211
-2.04189815869467051
-2.0126378423163378
-1.98017336053332382
-1.94584007533880254
-1.91014724522602775
-1.87327215178583328
-1.83529374911484
-1.79630662111010864
-1.75642351375373584
-1.71571146386757012
-1.67407939128035577
-1.63117210038334415
-1.58630914507453524
-1.53847557091974574
-1.48639477380112361
-1.42870820839392132
-1.36423886837333463
-1.29231475381352423
-1.21311513050922049
-2.23919008832022381
-2.22562273659912968
-2.20737871697186616
-2.17946720490280788
-2.14693607260586949
-2.11145482258126815
-2.07436829295471314
-2.03614615146097488
-1.99695475019909541
-1.95687589449220933
-1.91600479316185668
-1.87444105061967359
-1.83222184749562467
-1.78921943019852869
-1.74506319241430674
-1.69910683104692595
-1.65044131464782673
-1.59796968091208313
-1.54056631762051666
-1.47730612025111929
-1.40773729956393434
-1.33214687321055414
-2.39510289858315817
-2.37477066956702787
-2.35176539768101645
-2.31872314023969572
-2.2818794510010445
-2.24271351461830992
-2.20248350247449309
-2.16151716481323586
-2.11990619497063637
-2.07769659681604946
-2.03496561701866607
-1.99178915876553386
-1.94817455121423322
-1.90396084046591119
-1.85876566809893418
-1.81197333495579982
-1.76276380449858849
-1.71018877796092061
-1.65331460941487984
-1.59141688658222935
-1.52421234196559241
-1.45204921479627092
-2.19767320732844507
-2.15314402737351784
-2.10845790172293235
-2.06359102060495481
-2.01834694874146914
-1.97233189842037837
-1.92495505311516757
-1.87546969474697733
-1.82304963293755184
-1.76691859559736253
-2.22446824761754547
-2.17851597274134345
-2.13243503074887819
-2.08581993321514636
-2.03809804740349909
-1.98858196462586134
-1.93654467022420418
-1.88133842766670223
-2.24626385421851538
-2.19926566102000276
-2.15142312311309869
-2.1020979646457878
-0.770276033812280159
-0.772362347369084934
-0.764063651187806392
-0.739263165779909803
-0.705332379146537347
-0.668872632221294339
-0.624450653984994886
-0.578017170275038961
-0.525674354838908675
-0.470205637288340306