/*--------------------------------*- C++ -*----------------------------------*\
| =========                 |                                                 |
| \\      /  F ield         | OpenFOAM: The Open Source CFD Toolbox           |
|  \\    /   O peration     | Version:  2206                                  |
|   \\  /    A nd           | Website:  www.openfoam.com                      |
|    \\/     M anipulation  |                                                 |
\*---------------------------------------------------------------------------*/
FoamFile
{
    version     2.0;
    format      ascii;
    arch        "LSB;label=32;scalar=64";
    class       volVectorField;
    location    "0.119999999999999996";
    object      faceForces;
}
// * * * * * * * * * * * * * * * * * * * * * * * * * * * * * * * * * * * * * //

dimensions      [1 1 -2 0 0 0 0];

internalField   uniform (0 0 0);

boundaryField
{
    inlet
    {
        type            calculated;
        value           nonuniform List<vector> 0();
    }
    outlet
    {
        type            calculated;
        value           nonuniform List<vector> 0();
    }
    top
    {
        type            calculated;
        value           uniform (0 0 0);
    }
    bottom
    {
        type            calculated;
        value           nonuniform List<vector> 0();
    }
    left
    {
        type            calculated;
        value           uniform (0 0 0);
    }
    symmetry
    {
        type            symmetryPlane;
    }
    interface
    {
        type            calculated;
        value           nonuniform List<vector> 
67
(
(1.37272645650523866e-09 8.6141434865913619e-08 -0.00194077252676973493)
(-2.93749038052110748e-08 -1.10426606285080364e-08 -0.00160317852378740475)
(-3.11546657185987237e-08 -7.27288221086460757e-09 -0.00163782470762437659)
(-1.93226721397242439e-08 -1.37159385811640822e-08 -0.00147607473791673658)
(-1.72411879524878796e-08 -1.12036689015316268e-08 -0.00143961353340312675)
(-1.85220900664605684e-08 -9.41099724092293585e-09 -0.00139596819728601221)
(-2.11749025378689667e-08 -9.60418881978271104e-09 -0.00136646769956189269)
(-1.85422480523184999e-08 -9.78520185116865592e-09 -0.00118689563998656622)
(-1.68682603240764362e-08 -9.14053090051698121e-09 -0.00116456670341734381)
(-1.62057429994159382e-08 -8.12692382519697804e-09 -0.0011413332833736052)
(-1.50290842415484307e-08 -7.18034617693659313e-09 -0.00112235004206196463)
(0.000785672550397516906 -4.96769554849436704e-10 -8.06304959347391582e-10)
(0.000813386772826833488 1.5752066696141269e-10 1.14894063209992587e-09)
(0.000847872615902657382 4.37626604368572807e-10 2.92529938520406656e-09)
(0.000740411308399280569 1.71054795778077933e-09 1.84837266038521585e-10)
(0.000782610491244495375 2.9058866057989856e-09 1.16289669180727562e-09)
(0.000833082302778062676 3.14090230857204383e-09 2.30748531586094548e-09)
(0.000717660525592156017 3.19989203960567327e-09 9.43505346366055309e-10)
(0.000768498025496453744 4.41242179197450149e-09 1.55344733739057913e-09)
(0.000827786938248938346 4.75377195278887419e-09 2.1470924606820258e-09)
(0.000703707796807656561 3.99792362125468304e-09 1.00886908993611367e-09)
(0.000759076093926296666 5.19625134861823339e-09 1.30780346326818055e-09)
(0.000823247408299478795 5.58884096975014915e-09 1.59287381774205683e-09)
(0.00069325087097612387 4.38453623649761517e-09 7.15573872037030501e-10)
(0.000750783201132941449 5.53692014723759187e-09 8.12906918969403028e-10)
(0.000816981922446469947 5.9323964291917146e-09 9.21118016253011401e-10)
(0.000684862542942043704 4.48795612355321632e-09 3.42444238558377351e-10)
(0.000742749713175227221 5.50232881485306931e-09 2.96130373517269762e-10)
(0.000808684728099530589 5.8521223466486374e-09 3.03229617854000317e-10)
(0.000678722502370684641 4.33181726019007601e-09 -1.64544122465749365e-10)
(0.000736373624853619495 5.05390139100473605e-09 -5.41437468809300954e-10)
(0.000801632700783157454 5.30974169461700184e-09 -8.94685556287864884e-10)
(0.000673201483958223547 3.20796721441852485e-09 -2.49750445158768486e-10)
(0.000728665628545948339 2.78175152426944763e-09 -3.65409283710472732e-10)
(0.000789468306225248593 2.83783189312324566e-09 8.06631397925365099e-11)
(-3.09916342336130497e-08 0.00486043626683633437 -1.7331114658316655e-08)
(-2.93189467647070113e-08 0.004979806825972816 -1.02241636826903394e-08)
(-3.17522502266574329e-08 0.00510971373422636471 -8.35226781475411315e-09)
(-3.36657155719747508e-08 0.00535241708735687775 -5.78064527613424539e-09)
(-3.6571079350328935e-08 0.00551358434482998507 -2.60632627621230235e-09)
(-4.20546294301059458e-08 0.00535797805161903652 -4.74390629319914855e-09)
(-5.6743424524044842e-08 0.00513330880661106836 -1.65740985229416823e-08)
(-6.57544228261633292e-08 0.00398809253363908642 -8.39004786189233817e-09)
(-5.18154204489160595e-08 0.00332822800996016195 1.2260021746899573e-08)
(-5.7595854185222099e-08 0.00325877554724007161 1.02926802129712712e-08)
(-6.21052046632025098e-08 0.00325306357792900808 6.28651863910367708e-09)
(-6.38845978868222801e-08 0.00327731628374096536 -3.70579233185961257e-09)
(-6.09941123784973402e-08 0.003281431507649318 -1.35736219783256411e-08)
(-5.48350224678282493e-08 0.00314640482485773962 -1.84348166506897077e-08)
(-5.04827701520760263e-08 0.00303577966948586492 -1.87609222736215528e-08)
(-4.98913935570832291e-08 0.00253917528304245564 1.05416522000807702e-08)
(-2.67941805364956863e-08 0.00265159371855637829 1.48138944064532088e-08)
(-2.35103213210952281e-08 0.00269001104592934926 1.1497797465712652e-08)
(-2.23550892683080515e-08 0.00271657903190348745 6.59541741142657161e-09)
(-2.09802640361672792e-08 0.00273017082338629499 1.7795824282975577e-09)
(-1.76115563118107445e-08 0.0027056951749557666 -2.71309065010103389e-09)
(-1.63683967651068471e-08 0.0026115480707568149 -6.1606642348512982e-09)
(-1.88240770878490279e-08 0.00251280145803156434 -1.00431454381089497e-08)
(-1.69346584839522538e-08 0.00225561597208814597 8.92330838329241633e-09)
(-1.86539506519939299e-08 0.00213518611370398835 1.32340950797806652e-08)
(-2.06056810904717018e-08 0.00219276845676283447 9.91491610798155457e-09)
(-2.15304648731948905e-08 0.00223264804440103867 6.77790163665858055e-09)
(-2.10346142150071628e-08 0.00224962812270508095 3.65568147885774248e-09)
(-1.88889915253979357e-08 0.00223244777711546164 7.45487588827874933e-10)
(-1.6794550060340362e-08 0.00218171819354983938 -1.22702716433491157e-09)
(-1.74785998348486613e-08 0.0021377741604410457 -5.56342029124641979e-09)
(-1.4141745207362149e-08 0.00200766737674688443 5.13782038601944335e-09)
)
;
    }
    procBoundary1to0
    {
        type            processor;
        value           uniform (0 0 0);
    }
    procBoundary1to2
    {
        type            processor;
        value           uniform (0 0 0);
    }
    procBoundary1to3
    {
        type            processor;
        value           uniform (0 0 0);
    }
}


// ************************************************************************* //
