/*--------------------------------*- C++ -*----------------------------------*\
| =========                 |                                                 |
| \\      /  F ield         | OpenFOAM: The Open Source CFD Toolbox           |
|  \\    /   O peration     | Version:  2206                                  |
|   \\  /    A nd           | Website:  www.openfoam.com                      |
|    \\/     M anipulation  |                                                 |
\*---------------------------------------------------------------------------*/
FoamFile
{
    version     2.0;
    format      ascii;
    arch        "LSB;label=32;scalar=64";
    class       surfaceScalarField;
    location    "0.0599999999999999978";
    object      phi;
}
// * * * * * * * * * * * * * * * * * * * * * * * * * * * * * * * * * * * * * //

dimensions      [0 3 -1 0 0 0 0];

oriented        oriented;

internalField   nonuniform List<scalar> 
20536
(
0.000410726748875658409
4.14548470195116718e-05
-0.000391489961616882766
0.000530020386043625531
0.00126401420795124991
-0.000833666666126682294
0.000991930429489342987
0.000708720991897619518
0.000394213122018710052
6.77456442205004547e-06
-0.000596287478959308011
0.000518822195157361788
0.000749589270610203891
-0.000706278436336540971
0.00081625666293120235
0.000798659853861247507
-5.39297506285986439e-05
-0.000544040220874075298
-0.000115540514924471357
0.000171758087232590012
-0.000388776061867135132
-0.000932233805910988962
0.000222284607565001295
0.000167526577573129225
-0.00039833699082871232
-0.00081580981413943742
-4.98766772183615432e-05
0.000230105988554098613
-0.000282900433711824855
-0.000144095265855497077
-0.000317541681309686092
0.000352978480159225688
0.000166767759536383506
-0.000500225342989946641
0.000520256504536912548
0.000279886454872752552
-0.000495032751954234407
-0.000299868250566080155
-7.03316289076862111e-07
0.000220101343246789389
-0.00167752494361150177
-0.000247011434723198842
0.00039804523217464911
9.92251786475846129e-05
-0.00226540758815291753
-0.000170079524251658262
0.000128062941237064602
-0.000185911048666029732
-0.00211525793993141411
-0.000126186201818508765
7.4813627956855748e-05
-0.00024287103994674944
-0.000131395613895833878
-0.000109329679000179239
-0.00016341302532742885
-0.00154435227025642198
-0.000715201896869202547
0.000266099037985047075
0.000127570414060968618
0.000120255081065412405
-0.00234581350409469825
0.000910557193768333616
0.000391046332388176319
8.19929080875954049e-05
-0.0023510604265674041
0.000241479299214638455
-2.42565631350186032e-05
-0.000382054864453054439
-0.00236241853085099448
0.000105576937739798376
0.000224072363995099651
-0.000444478248111317565
-7.32098559265140962e-05
0.000180171695611955698
-0.000241250920328436245
-0.00235952529207043718
-0.000901910704426320785
0.000583566808587317751
0.000303971795107088345
0.000215967660225136349
-0.00133620876396238486
0.00100207531136814812
0.00041863078156227293
-7.58507894793930201e-05
-0.00100395735153067868
0.000166423555610233049
0.000372841052372011408
-0.000630036696954796769
-0.00101348731065925069
7.65750981811250456e-05
0.000548079363364824485
-0.000509547656794792766
-9.65759223544608233e-05
0.000446847572686242178
-0.000307028377172775585
-0.00112993779016158039
-0.000713947936949193619
0.000743972255571774869
-0.000111027924146118415
0.000249800098195592771
-0.000754372095403402308
0.000582551309585195424
5.51891199403690275e-05
0.000404760239627286649
-0.00084182354470900317
6.90214974130581865e-05
8.97490522262393354e-05
9.51012279093211047e-05
-0.000831086724011557607
-4.15853689236277742e-05
0.000357595588602377173
-0.000250172992218346333
-6.38741769151493109e-05
0.000265166006378077376
-0.000307589388191615177
-0.000821367936385540868
-0.000614364521162844165
0.000587708799240260825
-9.476685034213951e-05
0.000195919161228918582
-0.000377360854420750005
0.000232286004788210062
-0.000226182070275129314
0.000339440013970179115
-0.000478009529573422708
8.80513634320930557e-05
1.22887713747372072e-06
8.03921647525807851e-05
-0.000518238665926237839
-2.21351915972935564e-05
0.000113377346653118139
-9.25995265419032171e-05
-3.26653140601274185e-05
0.000135378257996478474
-0.000185154009462888219
-0.000499672227604509508
-0.000322955678524494715
0.000274566079359871173
-0.000168890757983369041
0.000245038421719740991
-0.000204571743088714276
6.07452330460999708e-05
-0.000108480860286749571
0.000161641873232993801
-0.00021029187194982263
5.05148878001336114e-05
-1.97741311228729057e-05
6.30339841179150529e-05
-0.000232036805464945798
1.96866553639605971e-06
-5.19283095852670577e-06
2.83627380157421168e-06
-2.48756890695898549e-06
1.62257981289589613e-05
-3.2891875608172232e-05
-0.000245547120708767294
-0.000111219195964443776
8.6349933272902125e-05
-0.000106976209820135089
0.000168447358377091141
-0.000130780321967759736
2.8670077679640784e-05
-3.38983809392044629e-05
8.55368823950398375e-05
-0.000133489867055361735
2.21842104984484005e-05
-1.37742525085229248e-05
4.4820045325267744e-05
-0.000147531447251410909
1.34419168700373334e-05
-1.30710190089838442e-05
1.56445468737190437e-05
1.60981771855350606e-05
-1.04418502539406527e-05
-7.358055247473947e-07
-0.000154938409025013647
-0.000144913248224053223
-2.36759787582428081e-06
-3.48724393982517526e-05
6.72946570264526631e-05
-0.000139571362493248725
-3.47639251723253187e-06
-1.11117912275622009e-05
3.79189832476715944e-05
-0.000131402734826751666
-4.45483615443867896e-07
-8.3295012395542615e-06
2.2795136424820545e-05
-0.000126288008173996156
4.75646683947554441e-06
-8.10790256247494714e-06
1.16821714206776702e-05
1.40343854981227168e-05
-8.46822993412674581e-06
5.44318015717488409e-06
-0.000121197789492036144
-0.000139697560994578551
-4.36321799968582166e-05
-4.46961584840145068e-06
2.27223771907986792e-05
-0.00012730275777990028
-2.9048627972955439e-05
-2.34262709734214346e-06
1.55224242517561978e-05
-0.000118015436768734177
-1.69796212471749577e-05
-2.84749633594436656e-06
1.00958077499644131e-05
-0.000109804317058915493
-5.76214593825732845e-06
-4.07289219829120174e-06
6.38125497736430447e-06
6.349250857089048e-06
-5.4885396509141981e-06
4.40908025785501932e-06
-0.000101039999886075636
-0.000133122707715146039
-0.000111487144042646502
1.18584802735371527e-05
-0.00012298824994272454
-8.53417964878236477e-05
9.78792167324615971e-06
-0.000111477083287538938
-6.29723955177988572e-05
-2.44563109375126397e-07
8.07523751693651131e-06
-0.00010188136057630793
-4.43807955967831345e-05
-3.10354702476736222e-07
6.04240474526529549e-06
-9.38987807268213689e-05
-2.83089691282992823e-05
-9.8629735016819968e-07
4.32985613812224609e-06
-8.6978068412049239e-05
-1.39756290759376352e-05
-1.8872030747153289e-06
3.17602769533299909e-06
-7.51005077274826386e-07
-2.83895641802235186e-06
2.57269855814531529e-06
-7.9615194255148997e-05
-8.80261871479754755e-05
-0.000115918507001272925
5.49717895726087373e-06
-8.34377464377764782e-05
-9.31847789662817582e-05
4.30282665764842336e-06
-7.75001936750837424e-05
-7.19253628846943668e-05
-3.60248126982119288e-07
3.37286440093805168e-06
-7.16371332574228833e-05
-5.2604281542429825e-05
-2.24032281044092715e-07
2.58202303375179005e-06
-6.62379643108762636e-05
-3.52250621641233996e-05
-4.71482334594061614e-07
1.98511023288079961e-06
-6.13897079141945812e-05
-1.9535412685164384e-05
-8.4366317953663054e-07
1.55124416245788353e-06
-5.61164685161533598e-06
-1.39807812860123846e-06
1.40499859067801839e-06
-5.65390436194752416e-05
-4.88520845120548242e-05
-0.000117398515901104039
2.84787912848800784e-06
-4.65371982800895503e-05
-9.66840533141364423e-05
2.14724420537628646e-06
-4.34422081886830374e-05
-7.62362060882627949e-05
-4.03008597303973813e-07
1.61796757270928772e-06
-4.03027811491205615e-05
-5.67661859787015738e-05
-2.0870210230595297e-07
1.23027399468231151e-06
-3.74945619923949396e-05
-3.87349383585033522e-05
-2.72391941274481046e-07
9.73793480240989302e-07
-3.49567945773097529e-05
-2.24112595596188571e-05
-4.90079651285429519e-07
8.26954104721657924e-07
-7.88553429951272783e-06
-6.56607166638524079e-07
7.12743839725769875e-07
-3.27395981345786092e-05
-1.53388874358635146e-05
6.47770377020158511e-07
-1.45986702561742128e-05
4.23309484386680206e-07
-1.35544384176144946e-05
4.00548983062813144e-08
2.75951326798449915e-07
-1.24694564919289864e-05
8.6832428030195729e-08
1.87290977233469255e-07
-1.15509596223169829e-05
5.22712731480257736e-08
1.43810621092350829e-07
-1.0861142969220982e-05
-4.05640085959421741e-08
1.41146968887416861e-07
-1.25539938542652966e-07
1.31443066590892588e-07
-1.03109761016580121e-05
0.000545946686923908225
9.19762713100958241e-05
-0.000435430550435506362
0.00141894498136728919
-0.000621184100253123397
0.000797269738595798643
0.000522471721917019483
-9.62800775673642407e-05
-0.000583219357861048792
0.000934547905811790899
-0.000569075298979489436
0.00086966570988876099
-0.000246430193524351665
-0.000541164707422446697
0.000117473499784423582
-0.000507279549160567192
-0.00104619033252099057
0.000603718815009896643
-0.00012270343245223523
-0.000999213129644472339
-7.92655423548475771e-05
0.000124633682132794556
-0.000191513255495897856
-0.000469652681427440281
0.000526500243730482903
-0.000563495006357780091
0.000595951812831295707
-0.000423715317059886881
-0.000273727003542351772
0.000174602474796475837
-0.00119442318631854849
-0.000386278696607748255
0.000508843390511013968
-0.00192930777816376574
-0.000510931539340579418
0.000374669027247695094
-0.00151634510558752624
-0.000210354079608688347
-0.000319308497637807291
4.04850144813312168e-05
-0.000361791389569446125
-0.000777868422524628702
0.000231867922875127197
6.12080315737922875e-05
-6.24875942119829629e-05
-0.000843922152866994225
0.000715462840320804845
0.000365094707957767982
-0.00221426274590773905
0.000696466472658079311
0.00013868671561935813
-0.0024042471078224892
6.98727885833536847e-05
0.000133832173917921584
-5.25870890591569165e-05
-1.65206850066118831e-05
-0.00211448277640100988
-0.000538147590279889959
0.00109279996816083946
-0.00015660041608227173
-0.00107237879289074907
0.00123556573402771675
0.000432761703802508717
-0.00160929538512707493
0.000882597736404191363
0.000723626906972028514
-0.00164831212285237658
0.00016941645280285308
0.000487553834554678238
2.07373625451714029e-05
0.000297127799335174117
-0.00157191630298752008
-0.00146277891990237181
0.00151227399104303471
6.34737968586485991e-05
-0.00142487754629131336
0.0010577829992808453
0.000195065131443822098
-0.0012795490864909902
0.00046335672124236981
0.000363661234072520088
-0.00125644084726816573
0.000153746912335159692
0.000350157448579204952
-1.57266301049892136e-05
0.000181718384626753391
-0.00113652790740432575
-0.000968548696001921092
0.00134105747506956625
3.79680936206100569e-05
-0.000766799606893283324
0.000515277401953301447
0.000114570077405412628
-0.000779184020822030012
0.00027915243939895815
0.000197816859840638703
-0.000777424050298069721
0.000117215494150267859
0.000148149277584626543
-5.39694669524857498e-06
6.25747729032959175e-05
-0.000714950310973265697
-0.000606409702630361256
0.000778242980162708871
0.000106150679407943267
-0.00039293370614761102
0.00012751330242122982
6.58122883596143435e-05
-0.000304562918977598583
0.000108247023354407311
6.27636535079921959e-05
-0.000293247910195373884
3.8804485844076941e-05
6.19053600298509818e-05
6.19084798636074994e-06
1.54584025972759312e-05
-0.000304067787162340668
-0.000142152218036693183
0.000235666355867039304
0.00017018983490629344
-0.000160087722538211771
3.39984293395807693e-05
7.75552359770452759e-05
-0.00014358184459394664
3.81266404015340082e-05
3.98442967090893726e-05
-0.000154389934290665614
2.23091416601332827e-05
1.42377074177767159e-05
1.79795970214778874e-05
-9.28204174910170066e-06
-0.000167337800085277206
-0.00012134181715427891
1.85936428348771936e-05
9.23112125351597098e-05
-0.000138611237998621372
8.91447683030195789e-07
3.926446593524445e-05
-0.000130618009865762059
3.50230470774384712e-06
1.83033716310795144e-05
-0.000126725321106656812
8.01225058571762593e-06
2.29890019800676462e-06
1.64103894883755867e-05
-9.73302845247897946e-06
-0.000123890156545715418
-0.000138102298476178208
-4.19881555446122704e-05
2.89619762274436904e-05
-0.000127915382652716544
-2.82600527822369929e-05
1.66246025358341763e-05
-0.000119006162769922085
-1.58687706646736799e-05
7.61371357568845256e-06
-0.000110672120000822728
-4.51200781636762981e-06
1.14757213103336172e-07
7.81776417685056719e-06
-5.65745949824342105e-06
-0.000101911798987369993
-0.000111460498587104512
-6.30164257887766405e-05
9.62909982656351816e-06
-0.000102411175743260499
-4.42835008235731742e-05
6.66385345701944607e-06
-9.46670247448756297e-05
-2.79262721077360118e-05
3.32163350860939245e-06
-8.76843541887556183e-05
-1.34442614066605122e-05
5.56805099482581223e-08
3.35073180836413791e-09
-2.62863306699462506e-06
-8.00831613340321786e-05
-7.7314953121199138e-05
-7.2011732045865575e-05
3.15676076581810749e-06
-7.17901894125151885e-05
-5.26127823763321945e-05
2.57932546511222717e-06
-6.65313077733485723e-05
-3.50995139247923071e-05
1.43863827706219204e-06
-6.18354296106137056e-05
-1.9154976271057187e-05
1.66780542539498335e-07
-5.25504681559515391e-06
-1.16021503813817569e-06
-5.68162324174296415e-05
-4.3222541384707193e-05
-7.61853657603221523e-05
9.80295032392027535e-07
-4.03126481485532504e-05
-5.67014315274062746e-05
9.71096238331458834e-07
-3.76520453759314038e-05
-3.86058273722940495e-05
5.73230869051902719e-07
-3.5080019684043691e-05
-2.21893612755918168e-05
-2.76043271945745673e-08
-7.64461188108730183e-06
-4.8947560027429186e-07
-3.28558032248487986e-05
-1.35290057059799615e-05
3.77356875442235404e-07
-1.25138316509703616e-05
3.75657076283255015e-07
-1.16364541054202742e-05
2.61349398209299811e-07
-1.09326907572171265e-05
8.09650751486153103e-08
-8.4958399043301069e-08
-1.03812783769778389e-05
0.000776372553750148274
0.00017889503048656614
-0.000305313519617446383
0.00167240880685412909
-0.000307905136266818495
0.000941556798286016252
0.000708127674008489989
-0.000104860092500927242
-0.000508048385086073365
0.0011319112890440517
-0.000302745123193020119
0.000982295389820971943
3.96386247269245318e-05
-0.000483842924695919235
2.61792777033128003e-05
-0.000139501249017419388
-0.000469972051797109278
0.000629729115515218689
-0.000147642926442060241
-0.000676550106550247729
3.75944040519997098e-05
0.00024550045446974396
-0.000332820979587178573
-0.000634835571411320322
0.000558874347074267766
-0.000488881102715835116
0.000743927091398739618
8.09267671545259304e-05
-0.00041636497184732458
0.000103608117278829377
-0.000142918988301760812
-0.000312824262836442347
0.000575542646620444106
-0.000566654860116743006
-0.000393079544927723776
0.000514931696922314936
-0.00056242043832304702
-0.000335857651785969333
-0.000320502972176007193
9.95757857253048821e-05
-0.00043716120117646539
-2.77510675485820359e-05
0.000667195069532476766
-0.000850280982490451975
2.13234452808116115e-05
-5.97580664298997749e-05
0.000543672547772882427
0.00023555071520062372
-0.000878045256212122739
8.94723741711531541e-05
0.000474422418201116158
-0.00133561996431767467
-2.63305761149041826e-05
0.000281878651574068626
-0.000121953602424309171
-2.45974115285090868e-05
-0.00110601205527365931
-0.0013074627659479959
-9.48060032684617138e-05
-6.70492517437814889e-05
-0.00168702280197349981
0.000704212870361025723
0.000651780967219202324
-0.0014889712907627823
-0.000133987666301533821
0.000749040716713540592
-0.00137231341379062655
-0.000165058563197749766
0.000509626126992495623
-0.00032921909288221576
0.000247962195169806323
-0.00111588188925583671
-0.00148095364713359207
0.000355364568748979277
-7.04274041601076926e-05
-0.00101640166780063738
0.000564819152560966614
-0.000130095097882495614
-0.00118371213870771758
0.000106763452687153639
0.000290224194150942073
-0.000956249130457230249
-0.000174121189763722214
0.000131755649690447384
-0.000296824408207407332
5.49793703625603121e-05
-0.000861906086117645198
-0.00107946225258029522
0.000322126770924560082
0.000315860904731996624
-0.000737950995413938146
0.000207271184815038952
0.000130608946616017716
-0.00060376344209802312
0.00010654503217380693
6.38482833287121654e-05
-0.000533633031001040105
-8.38644227288012456e-05
-1.22390995276942349e-05
-0.000123667216608451601
-7.82727579794669783e-05
-0.000565943012535706155
-0.000394878717641794822
6.98469694104848505e-05
0.000211326071827514547
-0.000364620271413815429
5.24874532700305189e-06
0.000237579545764427544
-0.000261367773795812127
1.52736194372699382e-05
5.07803237792497678e-05
-0.000257069206382569632
-1.1710516140603193e-05
-1.45466362900631488e-05
-1.46271212873428848e-05
-6.22800882089501065e-05
-0.000288369489683596748
-0.000190719567203290929
1.3009032464757252e-05
0.000119970992989237065
-0.000190506965385048603
1.85150779001940348e-07
8.24071542115980936e-05
-0.000166262888042431991
1.03660260803858117e-05
2.05046629380206705e-05
-0.000169978898726387952
1.48213871395414456e-05
-8.57831980515611521e-06
2.03862837745419484e-05
-3.51746791200148207e-05
-0.000179102069392655542
-0.000174432710412363918
-2.38190668977470365e-05
7.86172665728778765e-05
-0.000159933637021829534
-1.27297791473336974e-05
3.76878818028732133e-05
-0.000146342026289934791
-3.18948163957772106e-06
1.82666293088110872e-05
-0.000136457988902860896
7.44762099179831254e-06
-2.14062624121632808e-07
1.97705699888457497e-05
-1.50990203132046424e-05
-0.000130477164544311246
-0.000149342365548797891
-5.17568385239257272e-05
3.53518685768683687e-05
-0.000135610881525819935
-3.31259197373876555e-05
2.32937823258999054e-05
-0.000125179032312765584
-1.80307217373447293e-05
1.2020538750647586e-05
-0.000115250331769454421
-4.40736899757430742e-06
2.03736044738330184e-06
9.53914744096409883e-06
-5.64747084840107588e-06
-0.000105028770790421979
-0.000114055955568734605
-6.60981775564981804e-05
1.45413790370518336e-05
-0.000105218316206974878
-4.62047668074585876e-05
1.09038471059228938e-05
-9.7339114871382342e-05
-2.87816677306126722e-05
6.18830195066206063e-06
-8.98324937550688167e-05
-1.3404195527126417e-05
1.54255382794254244e-06
7.53245231757951455e-07
-2.14146350735325935e-06
-8.15334850713844337e-05
-7.78145819606721275e-05
-7.30941721437511599e-05
5.59716699701665096e-06
-7.27361778788619657e-05
-5.33813276945907105e-05
4.67480607529260735e-06
-6.75586813832265405e-05
-3.54705415766713443e-05
2.94733580864163255e-06
-6.28921833545376959e-05
-1.89238037206111706e-05
1.01940648504689773e-06
-4.9487269230708095e-06
-8.10530648944885913e-07
-5.75386674152229114e-05
-4.32271397462894894e-05
-7.64768796079070374e-05
2.05690254576803693e-06
-4.06225274196917607e-05
-5.69324660999255316e-05
1.91968409686175854e-06
-3.81304211154541152e-05
-3.86916998099592484e-05
1.30435096819945187e-06
-3.54450531788710462e-05
-2.20809272378317146e-05
4.47223622839139937e-07
-7.43655287407060784e-06
-2.67897235338216271e-07
-3.31758684734605934e-05
-1.35647694974046259e-05
6.29574380277726326e-07
-1.26404825159425839e-05
6.00091100829123907e-07
-1.18061572032484047e-05
4.32938617501697532e-07
-1.10792618771010608e-05
1.98432030781161434e-07
-2.56771795019265647e-08
-1.05080308223898895e-05
0.000784422155816421728
0.000186307694728229186
-9.55955768809515051e-05
0.0017787412367514608
-4.69625808566501613e-05
0.000980410468980873803
0.000731136163067145793
-4.28881518618671841e-05
-0.000368408976990801059
0.00127581631300355356
-5.49565055829657047e-05
0.000986272113245012169
3.25241969315378382e-05
-0.00039712254971680037
-2.85478815658012303e-05
0.000158391390205151958
-0.000172359666139548112
0.000305767376980668499
0.000436952560867188793
-0.00049416707236251843
-8.95216086626453083e-05
0.000628269849382576736
-1.36572330108801303e-05
-0.00085538099229787981
0.000775704597710542842
-0.000317449307812745646
0.000956949457060699742
0.000105239132236357308
-0.000285398378188714903
-2.16706040111107681e-05
2.18347366246615313e-05
-2.24831214089516937e-05
0.000509071206670514841
-8.71049717733216543e-05
-0.000279943383513607427
0.000409649299323685786
-0.000226308890043273717
-5.21920533470014017e-05
-0.000142762492239924493
0.000326033410786047363
-0.000389430678994445321
0.000175631991280692174
0.000622901916114876157
-0.00049076005513631199
-5.23907881586783281e-05
0.000482041973113952592
0.000484695548205378926
-0.000130767275418460123
0.0002387317750858465
0.00010857879209197704
0.000329212250763686622
-0.000168527272081850019
0.000261607907305991586
0.000375337709563305466
0.000188613488504397759
0.000124893442936079577
-0.000180598206407454111
-0.000249002544495762943
0.000449252990371679117
-0.00010160779573548112
-0.000953475521460794969
0.00195181056979362938
-0.000110862275709720879
-0.000781432675148568219
0.000390567456125568823
0.000295009400832565213
-0.000545908137047654372
0.000219300954914124896
0.000316408825697295974
-6.58273682664946291e-05
0.000103383250416450023
-0.000146888278623978077
-0.00137272937829289662
0.000652869677621771777
0.000726783656628881311
-0.000680616462544805616
0.000807844600891405697
0.000321758978180685979
-0.000702336401752811051
0.000459396804593486066
0.0002431154866634589
-0.000424956061599744174
1.12904029097637753e-05
6.23875591857681489e-05
-0.000202915564600816747
-2.55698151613455681e-05
-0.000207318126571906557
-0.000704373490961193033
0.000526008249236870193
0.000280295881008341813
-0.000331578857727156948
0.000103450161305091619
0.000462206797107757078
-0.000313127370100154095
0.000255029323195181379
0.000249764644549582357
-0.000264535506288662294
-4.57946383726576687e-05
-3.74486658090144489e-06
-0.000105446493387340091
-0.000161932052606640175
-0.000278341465397163553
-0.000427061580293549821
0.000242326704190078221
0.000244548586062377532
-0.000294509213334065781
8.28617956365500978e-05
0.000125618352505193576
-0.000115214390977857971
6.20749619250167748e-05
6.44388003667808486e-05
-0.000167892151566297895
3.58467814303896159e-06
-1.12458433415901367e-05
-2.57812135917976666e-06
-9.63521712253953143e-05
-0.000236689572304848745
-0.000179351506510110721
7.41532566139651368e-06
0.000206068688627029646
-0.000170449301924421913
4.79434091479284533e-05
0.000108431888116525951
-0.000159434266092443454
1.88152192066544103e-05
5.27506875623746241e-05
-0.00016850692790878143
1.91404787790118756e-05
-1.50639469423557675e-05
2.87514458533079133e-05
-5.15368827017622858e-05
-0.00018347567072790765
-0.000203846164477198205
-4.05044777817315947e-05
9.5861204307048353e-05
-0.000169292940802941632
-1.77558122927308527e-05
6.88418322746220775e-05
-0.000156390272445839718
-6.21939218533411727e-06
3.03990189058052574e-05
-0.000146370099880978728
8.41543418686216356e-06
4.88847876223758058e-07
2.36904681560407911e-05
-1.92198160192009484e-05
-0.0001371866169962582
-0.000159311988664606732
-6.11041752331251326e-05
4.06216255329385064e-05
-0.000144670981600143381
-3.88241340548816901e-05
2.97213359529071514e-05
-0.000133281593310580475
-2.08603780263236741e-05
1.52696033375217638e-05
-0.000121435439376934933
-4.62224343658432737e-06
3.22779789846574026e-06
1.11744855877048625e-05
-5.53031667863448353e-06
-0.000109034514101072341
-0.000117138167066924045
-7.03675918097023171e-05
1.68141328814667709e-05
-0.000109084047726014724
-4.92015136462113105e-05
1.32224275378117143e-05
-0.000101103233410001814
-3.04157884419792253e-05
7.75951340104272922e-06
-9.28734590019826794e-05
-1.37182698538922664e-05
2.40822439380327814e-06
1.39031285987464475e-06
-1.65947005625847122e-06
-8.35707087556364434e-05
-7.8599110122726636e-05
-7.47984215668085048e-05
6.73590739690500759e-06
-7.41581020650821385e-05
-5.46979399240632316e-05
5.72810863224513327e-06
-6.91196584364315442e-05
-3.62535943720857629e-05
3.7473712893399078e-06
-6.43643467380339783e-05
-1.89478721883778629e-05
1.49534744671281217e-06
-4.72493757126393408e-06
-4.86337949136388634e-07
-5.85722654802035429e-05
-4.3345092567018191e-05
-7.70352859204967888e-05
2.60823971410933431e-06
-4.11336629340549014e-05
-5.74224662209248086e-05
2.43843089421548165e-06
-3.88284051594729152e-05
-3.89894313597096456e-05
1.74073098393795618e-06
-3.60206381125648334e-05
-2.21255634205366075e-05
8.21773962032922164e-07
-7.29690862120190153e-06
-5.83707842009071601e-08
-3.36560429146439227e-05
-1.36411053331290246e-05
7.45156614495669529e-07
-1.28221214935365991e-05
7.04563963543354834e-07
-1.20335658325022736e-05
5.251714086081829e-07
-1.12842599490222422e-05
2.79134884666577786e-07
2.77140944573679363e-08
-1.06747358525063001e-05
0.000687452654854339988
0.000374975724286127053
-5.95423106373950319e-06
0.0017751984729878008
8.50170683812946073e-05
0.000992567226829662013
0.000220540743416356875
3.35114840089372704e-05
-0.00022241995081074867
0.00137801767741947169
-5.05226840548068327e-05
0.000613287979191887633
-7.47743003321407751e-05
-0.00038402848934959553
1.39431740891339626e-05
0.00024486864252123877
-8.44120552517623845e-05
3.53900817236400063e-05
0.000632075189601353235
-0.000212609562785410664
-0.000568619321307484659
0.000528917149314335694
0.000107490013668689799
-0.000826201939330909862
0.000909576419769313324
-9.77278938134541666e-05
0.000777640176168129687
3.18864867889130654e-05
-0.000452577790434998068
0.000101377432018724873
0.000206582307093621225
-0.000112741615616122339
0.000362706561875243238
0.000282949090964602608
-0.000202926813032354469
0.000323600358845572999
0.000455825465308628793
-2.68486953882844962e-05
-0.000181300393991242316
0.00050324512295036759
-0.000311902220810242293
0.000784630286266306911
0.000683942198127493461
-0.000681906381036493509
-6.94292384575917552e-05
0.000550361305251151583
-2.71959800615817758e-05
-8.27314903829998367e-05
0.00034866199296793894
0.000151726217683655963
0.000176259466936217374
7.2548774782051149e-05
0.000266985024184287784
0.000357618670842474212
0.000448629446086805926
8.86891608886894466e-05
0.000163369010246217409
-9.69942787674852105e-06
-0.000701824620315479085
3.98058894860994566e-05
-0.000102263346166047114
-1.08076880168661831e-05
-3.46844818888110765e-05
-0.000419893806799853122
0.000448179048030296855
0.000316188624776732102
-0.000301977022000984028
0.000237981293614403038
0.000227497428326169462
0.000206920475398441754
3.76421382878959487e-05
5.47237588389959916e-06
-0.000328089457220935967
-0.000100579501725563521
0.000205304565870074334
-5.6145914334132616e-06
-2.19775572120636635e-05
1.04566022680423459e-05
-0.000150656281641229993
0.000382715525187671344
0.000453622442342868377
-0.000169386641451258098
0.00013885218009528251
0.000180246366566080775
8.70854074293205167e-05
-6.60578713303923946e-05
-9.06176428090065206e-06
-0.000553789037234366801
-0.000106487508692785796
0.0001478545386935951
-0.000392934437485617776
3.88302499659495023e-05
0.000240546956429490413
-0.000104225907395583787
0.000161557365739414989
0.000182214004831463179
-0.000111537434473643572
9.77118161013912725e-05
4.47105788217560119e-05
0.000102700681305638455
-0.000130071758863833421
-0.000159012390712247049
-0.00040985723374318601
-9.97388438770767101e-05
0.000134307590875153236
-0.000389054245920609566
1.28594010853294387e-06
0.000142362763576945071
-0.000267976369092358955
4.97734074462041895e-05
5.51459965513932741e-05
-0.000218221533750829691
6.57718434283739809e-05
-2.90608469606232102e-05
9.01764474042005053e-05
-9.09471169726551085e-05
-0.000211102448134803232
-0.000302471847813252069
-7.44833448568969433e-05
0.000161621908310039544
-0.000270905788601946218
-2.7209309461437097e-05
0.000105358780895481989
-0.000226077665821431447
9.44279003272941044e-06
4.82507869049522172e-05
-0.000202826080434959229
3.71589625888272358e-05
-9.70433573076911037e-06
5.8283454288715374e-05
-4.08408398692367678e-05
-0.000181626503411401214
-0.000230597911901029705
-7.14428544614618022e-05
8.16016748262916148e-05
-0.000208059253714740536
-3.76349922761315341e-05
5.67212646413032235e-05
-0.000185312333309448079
-1.18840999484177572e-05
2.89765575581657831e-05
-0.000163497258799272753
1.15049206188162643e-05
4.32911271184158635e-06
3.14378072013981751e-05
-1.26997366827277034e-05
-0.000143168325644907953
-0.00016848155121453463
-7.33360928384155751e-05
3.54071244810882671e-05
-0.000156496884149788539
-4.69838441060991261e-05
2.70824035058164631e-05
-0.000143514707495026426
-2.4512672709771885e-05
1.4916587000112042e-05
-0.000128786705931722512
-4.6715992877410716e-06
4.67846445655335307e-06
1.33298299894009813e-05
-3.1254606384204406e-06
-0.000113082393433486364
-0.000120216916738296185
-7.53912519316466431e-05
1.52203041984067189e-05
-0.000113527197308759811
-5.28861671252498725e-05
1.24344935189461194e-05
-0.000105456260327906125
-3.24682361891704638e-05
7.6464817719731854e-06
-9.63203440763705848e-05
-1.42089916641109131e-05
2.81081620288439171e-06
1.98871654169580356e-06
-8.38115143030550838e-07
-8.58020784475794086e-05
-7.94401054548523006e-05
-7.67911474553130326e-05
6.33163895237284307e-06
-7.57728847722677042e-05
-5.62956370328463704e-05
5.47360194547225576e-06
-7.09409017649068822e-05
-3.72482247994748315e-05
3.70037413796931725e-06
-6.59571141556291012e-05
-1.93223115079849163e-05
1.62736387257394667e-06
-4.5656445440322463e-06
-1.61368870110252348e-07
-5.97280693407461523e-05
-4.35071809652923816e-05
-7.77349759661134928e-05
2.5449216509862237e-06
-4.17185220656746291e-05
-5.8060716616537537e-05
2.42365893919978585e-06
-3.95780099790847713e-05
-3.94263598412596862e-05
1.78593155271925509e-06
-3.67296168866123628e-05
-2.23052808345019486e-05
9.60620675367530873e-07
-7.23221692662700403e-06
9.60498736999061622e-08
-3.42168676294885783e-05
-1.37267641869225518e-05
7.09835849573166111e-07
-1.30222125777129703e-05
6.73924335848938868e-07
-1.22786074677673252e-05
5.17558947719059162e-07
-1.15151487507219271e-05
2.98064865458605742e-07
6.23546166974983743e-08
-1.08617905368067992e-05
5.85064469091331257e-05
0.000521266743214442727
-0.00012917105649458741
0.00168310780881562091
-2.84379564563037239e-05
0.000499987671822644305
-0.000327443498471757105
0.000569841629150768776