/*--------------------------------*- C++ -*----------------------------------*\
| =========                 |                                                 |
| \\      /  F ield         | OpenFOAM: The Open Source CFD Toolbox           |
|  \\    /   O peration     | Version:  2206                                  |
|   \\  /    A nd           | Website:  www.openfoam.com                      |
|    \\/     M anipulation  |                                                 |
\*---------------------------------------------------------------------------*/
FoamFile
{
    version     2.0;
    format      ascii;
    arch        "LSB;label=32;scalar=64";
    class       surfaceVectorField;
    location    "0.750000000000000444";
    object      Uf;
}
// * * * * * * * * * * * * * * * * * * * * * * * * * * * * * * * * * * * * * //

dimensions      [0 1 -1 0 0 0 0];

internalField   nonuniform List<vector> 
20536
(
(-0.623776218421226658 -0.642846669027871465 -0.248655682382309617)
(-0.155670971414725773 -0.392425713375169571 0.18646500058781984)
(-0.725024508323176997 -0.751551460762633239 -0.0979920287768324821)
(-0.557720147521240106 -0.53969085473290701 0.0269081172078891942)
(-0.0269554750236946257 -1.29030396591935825 0.0657497870765167136)
(-0.430060671147441342 -0.669305574011830995 -0.33789570818556075)
(-0.465839951245558992 -0.731511348969936859 -0.508363741485374776)
(-0.453741901461406028 -0.339723085460147012 -0.483458002285504729)
(0.465246197446802789 -0.793444474796019872 0.500870470046645422)
(0.393220627211165463 -0.37842268119583955 0.302384464999829294)
(0.455282251272788707 -0.086225347551110304 0.342371071829916052)
(0.343784649172583445 -0.267418085420837781 0.498069457283033146)
(0.437628465234841169 -0.67026898299338189 0.381758158523914037)
(0.396041539828307698 -1.41951851820597752 0.369018758630292765)
(0.433364957583724286 -1.08242719888494965 0.574448520271147567)
(0.231328145985069789 -1.45397236023362098 0.387543372369089645)
(0.289800553385141269 -0.111406621249504914 0.101020844885206615)
(0.431163098613212725 0.000648053044977723799 0.174220463265884945)
(0.295654361160125001 -0.0753595344149144974 0.151072261761213883)
(0.213940900502113673 -0.0523148963439518319 0.107056746098781269)
(0.299088111491243092 -0.244298989358132546 0.0642025487635758119)
(0.454981324854392355 -0.0766342245979490383 0.128543181937242068)
(0.36277503011961959 -0.162415832846806385 0.0850203589425214401)
(0.255449990574227681 -0.196993968585294082 0.0196699866598996111)
(0.332839646404651079 -0.411949955945092539 0.108446640410077455)
(0.458055803242785942 -0.214704432245432564 0.128943947903575246)
(0.403269519676298704 -0.299043215124131678 0.0659205049767778856)
(0.275719831937681681 -0.353470533329660941 0.107143548720051524)
(0.4584411007350504 -0.531189047947921322 0.183272153477097854)
(0.491474625990568792 -0.38560158692286256 0.149894273657368821)
(0.473475032368469662 -0.431309481406361384 0.104122891290572978)
(0.352716013874430134 -0.591005566725470333 0.210982081635273377)
(0.531758976034642838 -0.504747489986244968 0.168860751930488218)
(0.544763424301740073 -0.448336583453784243 0.14333086561387956)
(0.424419111687315886 -0.725518057228581759 0.286361978954478957)
(0.495210873369949733 -0.485841543545229682 0.224849348671142646)
(0.613818663446589863 0.0264622507379580138 0.201742800317920495)
(0.554247393131848454 -0.0844220664965738832 0.128000300052177746)
(0.582989509929295102 0.0408117285735811117 0.198357389030093201)
(0.600460299982247481 0.0199300426684604105 0.182562112909412849)
(0.615006512271964456 -0.0422808447801718626 0.19328458107724153)
(0.604765426647432713 -0.0828551783500936084 0.136725516082515375)
(0.61873458501241918 0.00775520429322026483 0.192976764981400872)
(0.610309886481594899 -0.00992335200438501305 0.189883275518350381)
(0.601616785913732022 -0.192739031402353461 0.1703915811508665)
(0.638056527155132391 -0.149138627732725321 0.137474345289772704)
(0.62137680468275458 -0.080961523324535517 0.163449112018866138)
(0.586926060072450961 -0.13976279038702355 0.195255582759411295)
(0.591733367103325136 -0.360564715149732373 0.135482872110759045)
(0.655806189075481827 -0.299111647347521215 0.114653164171288471)
(0.62062533653542773 -0.233962433664668928 0.125734747077630354)
(0.562919373743790086 -0.385259617116343378 0.174607698846302256)
(0.646922583801408657 -0.406313406505587449 0.0796205044946121099)
(0.620892360795404441 -0.380255722426469878 0.0840738959540064251)
(0.540804197521257191 -0.544384212503093101 0.141930686227222463)
(0.582997881622045244 -0.473559528807402708 0.0934811663814716365)
(0.552304382391475057 -0.16420377567411093 0.062983015816772861)
(0.459630130849627172 -0.223499419668527544 0.0327311766706325086)
(0.50573772422462826 -0.161235446154470413 0.0711898502588206306)
(0.52404363770484641 -0.180275042147735542 0.0405341680251048303)
(0.633548848419289157 -0.165866929488095421 0.0809152802950467293)
(0.525885098030675513 -0.214750940391853579 0.0508794683126726002)
(0.575423314253127982 -0.166398109496314589 0.0809518195688267994)
(0.603120364799845654 -0.153179506247217656 0.0652360423595386985)
(0.699421046098868571 -0.226563924183775273 0.0817359283101947998)
(0.597242916749402442 -0.231611994934265514 0.0638406524670029618)
(0.650761088989188163 -0.197181161462999938 0.0856008877367731985)
(0.661447924843147295 -0.195243926779355481 0.0891694031455175506)
(0.708728425322806888 -0.323070486655476885 0.0587907965551414113)
(0.647975765215824562 -0.302110133421930716 0.0520020975014593642)
(0.702498688182983111 -0.280411104477764184 0.0692440779147515395)
(0.681329527797666978 -0.330288567994754589 0.0755169774207144484)
(0.659147038672593277 -0.394301279723609621 0.028018183955784183)
(0.712189894940879253 -0.369176656740754339 0.044960798312966975)
(0.660164792375248499 -0.446440516149687772 0.0429342775086186193)
(0.69743977068805163 -0.404542615605755884 0.0286663708091142548)
(0.434077693879712179 -0.283289457966591274 0.020627629166532279)
(0.39234108543715096 -0.305101208574544425 0.00963173103619425)
(0.403867539792818642 -0.268795833833866848 0.0223389713870381645)
(0.415835253536694538 -0.276040295187676143 0.00704704230880746126)
(0.493387221737588255 -0.290266686073266111 0.0338048404846290479)
(0.435614560843454957 -0.318857580111920225 0.0251804514579353524)
(0.454402201233791714 -0.291231374452702862 0.0383635157621075307)
(0.472181149250080423 -0.263164291598819933 0.021676885184867118)
(0.554349140279706276 -0.320294747932291457 0.034106821658267665)
(0.489309629306012184 -0.340342980441615095 0.0335595771004475324)
(0.514831202625488649 -0.315867974089794168 0.0481863818767752847)
(0.53414801493787567 -0.278989400734674986 0.0298864672227106727)
(0.5949992744756194 -0.383172176006220666 0.021229484902102122)
(0.539036514609325779 -0.390567376692599777 0.0276777577905268843)
(0.570446509892022058 -0.364416913362980266 0.0414510950191113656)
(0.58327060167484035 -0.349612641193961238 0.0186130810675971849)
(0.57102554625960833 -0.460959678853664567 0.017910774733106212)
(0.605937771125365066 -0.433512033153788667 0.0275605886412618496)
(0.611016598150051049 -0.441208486110861886 0.00171633166853602057)
(0.61591770704605342 -0.463475594717615902 0.00803634898478337335)
(0.392535584802966908 -0.340807415032015837 0.0141845533275973719)
(0.358097184202260332 -0.341173398506350201 0.00687758034801244644)
(0.373344183680860586 -0.302174907010194116 0.00474814915669870101)
(0.373256851308736093 -0.326665973566353351 0.00900239915661624202)
(0.432970317761823986 -0.371229276274816999 0.0249351880737538334)
(0.390157251325083276 -0.369847118383150097 0.0176622539920689263)
(0.41326803974523435 -0.340859906591392148 0.0193267488625685942)
(0.408254042250901894 -0.347520511351194161 0.0212753963318212912)
(0.477483243087918952 -0.414135656987333067 0.0271305132327067551)
(0.427924823924735076 -0.406198207853374349 0.0247123857426828492)
(0.457604605363993222 -0.38396625911756127 0.0281937762614725591)
(0.455640320862880033 -0.383588912295898699 0.0238576020328812102)
(0.514269341336139441 -0.471588813184875333 0.024359047621531054)
(0.464631174144937098 -0.45570826248258528 0.0261882458150214693)
(0.499631582584455003 -0.437475407050737342 0.0288122048319944014)
(0.502243394512253749 -0.442888566155610675 0.0180839417880594988)
(0.492313386223196203 -0.514668645772233924 0.0276412883000677137)
(0.530645389321458993 -0.498146319759299405 0.0277435025052509068)
(0.533246678992906342 -0.509894771333634034 0.0146635818809791631)
(0.539836710793510033 -0.532471906386088989 0.0242403831858895892)
(0.354412986270235708 -0.373344381581540097 0.0103552810124840321)
(0.316004779686694826 -0.372807013762447736 0.0123035213477927924)
(0.340335903583037669 -0.349217883623872627 0.00479290257577320248)
(0.33860763998335941 -0.357394100846769869 0.0100186835543789651)
(0.385353671761127281 -0.409150272278899607 0.0174394516609979663)
(0.342682986096213504 -0.406122772566698376 0.0178643414499967609)
(0.373107887073950817 -0.384949819878249666 0.0122962667408512017)
(0.368068287104260317 -0.390728083559883088 0.0156162799504953719)
(0.41578980234328633 -0.453252607559905873 0.0237701183249975599)
(0.369906573217241241 -0.446088223132257988 0.0241219030295978867)
(0.40429678579639805 -0.426772860726526426 0.0203369878820045709)
(0.399971865153212425 -0.432388047254971042 0.0207982855390524829)
(0.44217345492576271 -0.504582884822328825 0.0294704864935581012)
(0.39585424467239283 -0.493469708704216692 0.0300553636510814196)
(0.433049735326442253 -0.475041382997037687 0.0269214260867813998)
(0.428853262547120417 -0.482767814418094188 0.0251983995837266571)
(0.418121539889682592 -0.547002923719231204 0.0370941638107503829)
(0.45729469989217969 -0.528599570852108958 0.0331136882109632769)
(0.451306283821423404 -0.537968898089270176 0.0311720634695565567)
(0.464242111232888166 -0.558641824696691991 0.0360367503201713471)
(0.303428006813146633 -0.40666006772121166 0.0198125817853055178)
(0.268761481625090948 -0.401861910695650582 0.0197127013494000948)
(0.294462188857983198 -0.387810314210629725 0.017376077381892216)
(0.291290753586834927 -0.38968686356441895 0.0184494674986765174)
(0.326864935295165249 -0.444290747142618236 0.0245467928185966813)
(0.289140896625658117 -0.43728535507189531 0.0237072810498207345)
(0.318221566637890307 -0.423234324126964268 0.0217865352956593816)
(0.314013905632333945 -0.424540356906900174 0.0218459739111309392)
(0.349838757412950341 -0.487603768906924917 0.0304071483556817117)
(0.309229345738318673 -0.477544326309127465 0.0293417715627839713)
(0.34158518244512015 -0.463690923301944447 0.0274044076735927705)
(0.336657159530107664 -0.465097639690767672 0.0268548971890192681)
(0.3713104736461873 -0.536857301132137588 0.0376790409682736804)
(0.328604466044240706 -0.52309117797936433 0.0364339849148016259)
(0.364481669361979121 -0.509472447829212527 0.0337888655377546962)
(0.358140095415824977 -0.512391700052889254 0.0331259404284552361)
(0.346406126047897889 -0.574123138179674863 0.0459703877302991837)
(0.385873751440331536 -0.560621398222472367 0.0417314019787213622)
(0.377771650646257062 -0.565658565595877905 0.0416719337173005536)
(0.391585784352773414 -0.589892467757451966 0.0469912981123837767)
(0.253905952658101342 -0.432927242593795725 0.0236074006139152838)
(0.222635167392324529 -0.424588420163805436 0.021760503020806482)
(0.24681133844143574 -0.414265349527572269 0.0212411498867137623)
(0.244114286206735032 -0.415677709531073136 0.0216238070390947605)
(0.27105256530963634 -0.470865842101221399 0.0285022597940080037)
(0.237425533793007626 -0.459645262062599202 0.0258469382183445541)
(0.264934348692210275 -0.449938688025320555 0.0251953090390404366)
(0.260637961631424164 -0.451699813624737989 0.0255316394939939344)
(0.287518034482720009 -0.513256703497319222 0.0353686081219038509)
(0.251379069251626341 -0.498736196908340812 0.0319472525324933435)
(0.282588668933698772 -0.489845527903831679 0.0309241943027937401)
(0.276604289524039149 -0.492171362307821658 0.0314327618636400172)
(0.303059130871507765 -0.560423320145846726 0.0447253316768270806)
(0.264358984639332051 -0.542291184827797146 0.0403935154789969511)
(0.299775447514359805 -0.534107203868209868 0.0385205742969771739)
(0.291581210714971228 -0.537474412172851967 0.0395349424933768498)
(0.276045005803366827 -0.590876323362479861 0.0520922887503786208)
(0.316096864844511272 -0.583130318296214534 0.0487224542975826513)
(0.305255836515806067 -0.587787827466378365 0.0508482501470665926)
(0.318015707242578605 -0.611947369457670809 0.0570744589358957929)
(0.205779227978333396 -0.451708682389930116 0.0240000406252357523)
(0.178112216227437309 -0.440973060013771456 0.0211850719122845081)
(0.201212260352641892 -0.434606718536743153 0.0215977380296570598)
(0.198306832866192634 -0.434471998242334401 0.0218517521023100791)
(0.21735712305058566 -0.487779937381253026 0.0292919309568298626)
(0.188061005994611286 -0.474285228486182819 0.0254613391797278502)
(0.214242387976046028 -0.468857815918465481 0.0256718170916014829)
(0.209571796730274235 -0.468760097328093317 0.0262042845089189014)
(0.227703560990189707 -0.52780183587183338 0.036972159889586409)
(0.196661727317423152 -0.510987280548591882 0.0318302400327919732)
(0.226313913439173092 -0.506748843761843926 0.0317449212125998706)
(0.219494380878197892 -0.506792039477816703 0.032775751298778362)
(0.236731955936672622 -0.572376385116604713 0.0477604725525484983)
(0.20366499811427155 -0.551516850389931479 0.040882603299638394)
(0.237412617172654439 -0.548696822646731697 0.0402927041925433063)
(0.227784664333633452 -0.549193387030295965 0.0421688285240366806)
(0.208767082003123383 -0.596505615174865222 0.0535151738500192764)
(0.247456991012235422 -0.595369127364859252 0.0521350752771417708)
(0.234181273108410776 -0.596586863361137532 0.0553773989523971139)
(0.244600880702949219 -0.621943807698869588 0.0625003458115672705)
(0.160196578574512111 -0.463644085530633132 0.0226463704667765782)
(0.136395423077184302 -0.451413870986481947 0.0189915386501472543)
(0.157920317861972859 -0.4482540617694179 0.0201153457683949793)
(0.154751178297711456 -0.446892872832798549 0.0205683133655980011)
(0.167116375181217386 -0.497365319158493524 0.0279996482556899573)
(0.142428612426586387 -0.482357168804813774 0.0230842781440015812)
(0.166447698688372281 -0.480479759890463987 0.0242429047501940657)
(0.161623923059969282 -0.479042733501668205 0.0250136665886698493)
(0.172257026514408412 -0.534314354836627592 0.0357406834428439166)
(0.146722486412543568 -0.515935577101488185 0.0291005072835172178)
(0.173619350011859214 -0.515811229474879895 0.0303377601351686628)
(0.166646296966279667 -0.514179241416165667 0.031609939264890384)
(0.175255649633313859 -0.574935169288895986 0.0466373045971091998)
(0.148821480882168233 -0.552388430081206194 0.037641673658003777)
(0.179174862272091062 -0.554589708328023012 0.0389745644908852454)
(0.16935038193416993 -0.552660323342113124 0.0410599226266647327)
(0.14816700180642281 -0.592092060179777446 0.0495400131151298023)
(0.182826237476272691 -0.597363419121595518 0.0509739993244541223)
(0.169072022243741932 -0.595015192888541544 0.0543557689110712519)
(0.175750202914147974 -0.619813836970566912 0.0617672272312657089)
(0.107172085585337695 -0.415392974211603871 0.0142980641993753019)
(0.0879167543814522306 -0.406440326245185002 0.0118207141736807603)
(0.10320643741748213 -0.401714823542966226 0.0135750511923441175)
(0.113526659184525355 -0.441757325640379173 0.0162511996096889738)
(0.0935803986990689091 -0.430998824782765189 0.0131404590581015151)
(0.109679812366744442 -0.427001650574965863 0.0150404799955589485)
(0.118588704420256943 -0.47023467297244953 0.0194294463273722538)
(0.0981746620024695343 -0.457455035165655999 0.015394176799626548)
(0.117792863107065049 -0.456617656179565234 0.0171377653964569047)
(0.11490752596712972 -0.454303510931863608 0.017610617075190696)
(0.121967171339966235 -0.500851438134977567 0.0241851371718288799)
(0.101352389800039036 -0.485722116122050296 0.0188424577350434254)
(0.122806218046788845 -0.486353411785462597 0.0208381488955627879)
(0.118497457370864132 -0.483613081069882711 0.0215991082988457768)
(0.123160610840942555 -0.533683186806844567 0.0310014974986770539)
(0.102683921115290858 -0.51571802358443275 0.0238361249464744615)
(0.126129014377126897 -0.51837198103865112 0.0262288823104949408)
(0.119951512069321586 -0.514953309944548909 0.0274355089885726447)
(0.121534052729449976 -0.568881579483054733 0.0405443821760243725)
(0.101605253418436348 -0.547388556512294566 0.0308500304251349139)
(0.127279187279378148 -0.552813854275618133 0.0338308992387447507)
(0.118623066370456498 -0.548389835075183574 0.035718369919172141)
(0.0973641705877748564 -0.580698832793271391 0.0405239952958990277)
(0.125691222911970157 -0.58992092527177542 0.0443407103429618241)
(0.113651560104020111 -0.584053114426553055 0.0472883223914893208)
(0.116306104886236258 -0.606738897250920894 0.0537419086801954118)
(0.0743889265123831855 -0.422322093707997115 0.0106631090324069908)
(0.0572820705035396449 -0.412659610827630752 0.00811098900940458202)
(0.071694749001747396 -0.409222125143629878 0.010074752203779052)
(0.0783098177303725024 -0.446899078149426143 0.0122834362480391084)
(0.0607080998942109151 -0.435833866243464707 0.00912836553961051365)
(0.0757902902414145374 -0.432870199280171009 0.011343701262240961)
(0.0810410577046029174 -0.473025257343929972 0.0148071882072977265)
(0.0632607988277884836 -0.460476582388693101 0.0107819761012243193)
(0.0810507745878267793 -0.461097312663046488 0.0130083954555075734)
(0.0787573425283236012 -0.458056976271923988 0.0134224931394326848)
(0.0822020519013435674 -0.500498158080379452 0.0184934455096890035)
(0.0646562367149178807 -0.486321180754427651 0.013252244207836144)
(0.0835831712782269809 -0.48826799844157015 0.0159123268299814595)
(0.0802358766578694371 -0.484567867468273961 0.0165456376092938361)
(0.0812829360616683372 -0.529081343112025815 0.0236846578729323215)
(0.0645244682110320961 -0.513050651457100493 0.0167724719903785575)
(0.0844648880732170038 -0.516832708735103563 0.0200654853117332513)
(0.0797541641448230032 -0.51214468697408555 0.0210269431438796506)
(0.0775765103350141844 -0.558494359183535183 0.0308296435450095135)
(0.0623661964030187282 -0.540265381864792338 0.0216474496833773851)
(0.0831643034859437663 -0.546590585270021689 0.0258291679139947584)
(0.0766784716583455983 -0.54047032024195174 0.0272836869859012961)
(0.0574608590012569281 -0.567475098248693022 0.0282631478368221833)
(0.07892845167310511 -0.577314152146835124 0.033655850083510512)
(0.0701260277037354246 -0.569145521024070122 0.0358728574147497148)
(0.0701532152867516967 -0.588456999688783511 0.040504688911371968)
(0.0436809552544767526 -0.426096558698858985 0.00657624551660812486)
(0.0282302397217427739 -0.416123162818370196 0.00412376507693670586)
(0.0421269909985339808 -0.413480883240544772 0.00621196627652344062)
(0.0457874609982772893 -0.449292412378239525 0.00762690539279574364)
(0.0298430280894156699 -0.438364394179559691 0.00466968446308007028)
(0.0443645056141012128 -0.435875335006313369 0.00705158512071231425)
(0.0470738517568508874 -0.473591237859800562 0.00922703210176274193)
(0.0309738932875038703 -0.461774540368369513 0.00553561312271234549)
(0.047277611235982446 -0.462929940095062276 0.00810530081946841605)
(0.0458242268043356771 -0.459433747708058282 0.00838367221271314224)
(0.0472735078790700661 -0.498604740706276306 0.0115312706885257066)
(0.0314666058389077574 -0.485968412523617166 0.00681355195828656657)
(0.0483494897208481961 -0.488078737569961174 0.00994016485161763018)
(0.0462607670448431235 -0.483782608587536134 0.0103529234161195364)
(0.046015898247400211 -0.523835128373132397 0.0147352638008236489)
(0.0311095060711582758 -0.510455176979730529 0.00861811611165416193)
(0.0482416444452571716 -0.51389556755166188 0.0125301999016509766)
(0.0453396153124668716 -0.508447167067704764 0.0131433757627670827)
(0.0427832263688495834 -0.548638041064766213 0.0190809539751900549)
(0.0296154464873788111 -0.534582784776225339 0.0110951192726006526)
(0.0465487866858620702 -0.539866447084836221 0.0160761655793633385)
(0.0426140259273660588 -0.53280470943948377 0.0169925333321081749)
(0.0265601675968878785 -0.557502337219645483 0.0144199784151825463)
(0.0426591268362084483 -0.565333258589770793 0.0208137914874493846)
(0.0374361577940468537 -0.556048776011718315 0.0221948052038841472)
(0.0368571570451758021 -0.57217396780966101 0.0248535988408155536)
(0.0144460286989704645 -0.42884471447359529 0.00221720402340864391)
(0.0139296134715726494 -0.416432947676220966 0.00209486322243377515)
(0.0151363672747251172 -0.451437697926651726 0.00257839219299666345)
(0.0146573235039080697 -0.438293018097775988 0.00238520270113829055)
(0.0155424635057432019 -0.474908086966371601 0.00312213297923619529)
(0.0156081242445598768 -0.464820128652483233 0.00274400015048459735)
(0.0151189335102960547 -0.461125168967826626 0.00284059581884052188)
(0.0155742184777363218 -0.498782663954008776 0.00390039738141507043)
(0.0159282735369097976 -0.489041172643050193 0.00336750999857851228)
(0.0152280612431769467 -0.484487737530855667 0.00350801439241188971)
(0.0151024488651980305 -0.522432549716879246 0.00497797158343116913)
(0.0158372441444920992 -0.513567207460009389 0.00424215892027956284)
(0.01486755383235943 -0.507799462983097416 0.0044497766454928726)
(0.0139474505535330685 -0.5450190872589179 0.00643414371259316224)
(0.0151884808460941625 -0.537724966234076507 0.00543419595043570253)
(0.0138778278340854679 -0.530288412800909326 0.00574401065500014518)
(0.0137611828972734086 -0.560607928909862663 0.00701962280769754133)
(0.0120262326906000663 -0.550928678673235139 0.00748779418653432432)
(0.0118436548186500838 -0.565416689824192464 0.00836170542564922473)
(-0.648474833271489359 -0.778010365746592547 -0.176146315660292402)
(-0.11407128563566081 -0.45481731129079539 0.0819845165551196936)
(-0.72605027445131709 -0.842155360165778299 -0.148682306595572827)
(-0.00706365629543825868 -1.2692147213020426 0.00165813305459190348)
(-0.399794142680905407 -0.688010653988576526 -0.269141766559230056)
(-0.423810629638319225 -0.375911478456671055 -0.308187974586725255)
(0.496675278165271739 -0.712299390961064205 0.259788965270003447)
(0.535536656430093072 -0.183779260172265507 0.163625241549179457)
(0.591819831940496588 0.0138389731309229054 0.162375265254906809)
(0.503176498895206326 -0.561589167011930623 0.177018385118176802)
(0.420071296504058 -1.33492204990862739 0.16860815523713471)
(0.191418074541204131 -1.15193696977692261 0.0834905147271299136)
(0.383985158399188953 -0.126368746012215954 0.125414321958613934)
(0.447480772476207378 -0.0284643248285651219 0.170440242542902187)
(0.383042169900914664 -0.079910657583575434 0.119618655193016746)
(0.461968733573753343 -0.217160058612805185 0.0858547324222777714)
(0.526528290277646804 -0.0806193501892216169 0.146079860179923693)
(0.491369578895046455 -0.164787369639454562 0.0840899799972557871)
(0.517328724677705187 -0.318402740585400024 0.0710329666429392187)
(0.566590521116267287 -0.151628650227408346 0.112245713190663246)
(0.570058632675959354 -0.276170265063654885 0.057833597419121148)
(0.630597335476601129 -0.348457016912224582 0.0808546613973530476)
(0.602625742913328599 -0.262264224601393925 0.0909706716987829928)
(0.647135307148424932 -0.36601796315762769 0.0557641539336022965)
(0.633896809062501454 -0.367733197585617178 0.0780231114159999628)
(0.704752994441384839 -0.330144354782234251 0.0576110089098339981)
(0.581641144094627527 -0.263684046656809223 0.0981945064629536346)
(0.59376816387270126 0.0221046821288431901 0.19110578076421178)
(0.534479841022074909 -0.0662183370724321596 0.140875486064024863)
(0.564836824673798699 0.0388536081701223099 0.173463896122183936)
(0.629399380661012198 -0.0309254742511433957 0.172470840948309251)
(0.589392472618114449 -0.100687927719910558 0.141386717185970012)
(0.613326974246230505 -0.0276562919895986352 0.174686527229780647)
(0.646690096649185975 -0.12218492558685054 0.132183418246507256)
(0.634081366516810352 -0.153636311597370318 0.124191992464860276)
(0.642899782583335466 -0.105897584456942417 0.149420470468278194)
(0.653907550703628715 -0.253653440941405628 0.0881391217174300884)
(0.667317835642929125 -0.246023629676632827 0.0927282570356147279)
(0.66206800461978943 -0.21357908919907348 0.10849352732723154)
(0.686159671934874704 -0.344460878922407121 0.0619491938596765171)
(0.67257004399905651 -0.355299416028456605 0.0686543161332634905)
(0.653800703335491229 -0.380690182035057723 0.0507533633547943772)
(0.530737440722057863 -0.163429779976673989 0.0911564224857830119)
(0.449975133167819674 -0.196200259389948339 0.0611362574685677951)
(0.502036043591534864 -0.132297193277419928 0.113511443383800772)
(0.596421084313920269 -0.197712341471219077 0.09310786870252101)
(0.503940417456244294 -0.235007975808464858 0.0710699393461536322)
(0.551681603534835308 -0.192607871146352888 0.112115642864632631)
(0.662660737538525835 -0.251028341756988849 0.0847368312539677482)
(0.568349374865274037 -0.272428437123560852 0.0763875418679820228)
(0.611045923788610335 -0.251700740538944756 0.105917511944086482)
(0.703710308467781265 -0.326517274563041915 0.0665383291778611913)
(0.624969432859180607 -0.329159220677114062 0.0665493917876050778)
(0.664331721949432463 -0.323626065246985894 0.0881795692737507436)
(0.65898062739365082 -0.403196731765045058 0.0508660338062806375)
(0.698903512115114589 -0.397210831880113413 0.0690661158638634365)
(0.720643152852762925 -0.400848071948675833 0.049645691242944219)
(0.423271273851788421 -0.276737750319978493 0.041049774328938464)
(0.384870638036528157 -0.266290627599453267 0.0184974297978689334)
(0.404888637465106005 -0.238882128974412078 0.0291684198333604788)
(0.477101510208148172 -0.316832662469230919 0.0543496125116145756)
(0.432055680135570996 -0.312318804777351577 0.0332817771739827711)
(0.453130538471746391 -0.290664001822227458 0.0420559277525056202)
(0.535338441490868622 -0.359990139520482921 0.0582001024016193386)
(0.483126178683469854 -0.35688822827405503 0.0437035955986294633)
(0.507201372700664455 -0.339625566358599917 0.0527268234288901863)
(0.581457353366885421 -0.414756770510548156 0.0508770964160244615)
(0.531041577867151005 -0.408079375937537292 0.0437630850475300079)
(0.559545412117842145 -0.391991885303688559 0.0530696833067891144)
(0.56555761418721584 -0.46770882638079786 0.0384561768300708609)
(0.597542201947173446 -0.451727910908665042 0.046093908761719489)
(0.608991833223792467 -0.47857903985272976 0.0407513758047812549)
(0.392683740885196975 -0.30222739856957026 0.0107294326429134106)
(0.355582903061637978 -0.308642321603066316 0.00383110476279885544)
(0.378027167419955124 -0.264925703255642797 -0.00991719020293886644)
(0.438356268527115178 -0.353596889434136363 0.0226357602609977109)
(0.396218675494101669 -0.353274225125512209 0.0145038350324637692)
(0.423452898824803525 -0.317348569074416997 0.00603230128848769673)
(0.480892929163386995 -0.407306009180965378 0.0292665782445400945)
(0.433976567235656197 -0.401004081685732816 0.0237252656746672688)
(0.466015289322087356 -0.373034533389653422 0.0197941025510507268)
(0.515703585270657849 -0.464032913625161247 0.0313421654615764003)
(0.46805014376596038 -0.452414238586972273 0.0290432298370749513)
(0.503746197427442532 -0.430566773687659221 0.0274272030574796814)
(0.495626702990442203 -0.508006092490796202 0.0327344666439653847)
(0.533411224367695724 -0.489488218070767089 0.0314516988928299143)
(0.541757654633287622 -0.520992113568036208 0.0332064870356936423)
(0.358192750844260166 -0.360823321920582141 0.00760550715234921057)
(0.318793312754325986 -0.363049527566996988 0.0109046505205297704)
(0.344211549402418937 -0.341465112206696175 0.00712156364520757489)
(0.39178688344607826 -0.402572408325876485 0.0155933404461333341)
(0.348646467615627675 -0.401043408655486044 0.0168118646296625748)
(0.379133698039531564 -0.381146436180685277 0.0142803790748275757)
(0.421626975224497325 -0.448561636163658073 0.0235019172672021118)
(0.375975395024277015 -0.443279810345409753 0.02381012156566489)
(0.410081793830587127 -0.425163270341765542 0.0219974023240081425)
(0.447824543341977466 -0.499058069026817375 0.0304355310194638906)
(0.401677160016028545 -0.489977018868683278 0.0305871468949823547)
(0.438080422823108606 -0.472954553542948464 0.0286791242121706043)
(0.425046911442828579 -0.541477794363154574 0.0376487948175473069)
(0.462960867127498898 -0.524763520252872206 0.0348294106409662366)
(0.471001789644998281 -0.551905260556813992 0.0372982645693150094)
(0.308695250455924608 -0.404384570616382388 0.0201110079978431139)
(0.272512045674327796 -0.399670589190863346 0.0195412298839917516)
(0.29816753151416342 -0.384627997016265655 0.0198180314797892429)
(0.33252746785365167 -0.442634500286290478 0.0250286457491941498)
(0.29401501870444241 -0.435451090414890774 0.0236255639796055933)
(0.322855736331944643 -0.421079928690275718 0.0235399447117405833)
(0.355842509935511919 -0.48555960222423189 0.0308953511934451502)
(0.31494450564050025 -0.475640686284523828 0.0291065476785571098)
(0.34673728995571701 -0.461886124226359218 0.0282545058979555633)
(0.378466122279197958 -0.533236544919547306 0.0378004106930657502)
(0.335652650832098109 -0.520245675596769708 0.0358405472501317213)
(0.370403066508654732 -0.506853702241551907 0.0338593704215555125)
(0.355564490236945085 -0.569589442313275129 0.0444053200554976255)
(0.393333430922295113 -0.556258848988444798 0.0408039595624923937)
(0.400594688201856508 -0.583950294393593472 0.0462497165801856597)
(0.257409522190064632 -0.431276794959096987 0.0230557858657542379)
(0.225388431401753242 -0.423897057286526324 0.0212582565815815916)
(0.249539346291638042 -0.413125523583166732 0.0206616898105223858)
(0.276038943123337377 -0.468918373827930557 0.0277034659089685359)