/*--------------------------------*- C++ -*----------------------------------*\
| =========                 |                                                 |
| \\      /  F ield         | OpenFOAM: The Open Source CFD Toolbox           |
|  \\    /   O peration     | Version:  2206                                  |
|   \\  /    A nd           | Website:  www.openfoam.com                      |
|    \\/     M anipulation  |                                                 |
\*---------------------------------------------------------------------------*/
FoamFile
{
    version     2.0;
    format      ascii;
    arch        "LSB;label=32;scalar=64";
    class       volScalarField;
    location    "0.960000000000000631";
    object      p_rgh;
}
// * * * * * * * * * * * * * * * * * * * * * * * * * * * * * * * * * * * * * //

dimensions      [1 -1 -2 0 0 0 0];

internalField   nonuniform List<scalar> 
29184
(
1217.59311095537146
1218.95499609971989
1221.9068213374851
1225.70900134924318
1229.45238721886744
1232.20973442389504
1233.18891786848599
1231.7750392137757
1227.54207082778225
1220.18794515566242
1209.33966858833946
1194.99909725103998
1176.57772425611256
1152.63246368899627
1127.45483318815081
1063.52393676355905
1217.03670012434259
1218.50890842241211
1221.66442392846488
1225.66893649720419
1229.55120933003923
1232.4157679711393
1233.464336527569
1232.0339671061065
1227.72102190818714
1220.22611241929667
1209.20818486321832
1194.57078568126963
1175.75482426223948
1151.67989126413272
1124.61598687546416
1061.01270728321583
1215.92449394268169
1217.69677201695526
1221.20808219295304
1225.6139669786794
1229.81294320324128
1232.89742236698817
1234.04964485963251
1232.57050103430265
1228.06265131966097
1220.27641280544344
1208.86573033333502
1193.71605877187267
1174.16352452881233
1149.82788650520843
1120.01646038707213
1054.96168766100209
1214.34361555626651
1216.50143312143655
1220.61217536961431
1225.57630813797164
1230.22989494362241
1233.63262163226386
1234.93016726540532
1233.35962325982155
1228.55737246168633
1220.30410495764818
1208.2946934279878
1192.37466759096742
1171.76035734854418
1146.99109639153471
1113.58792079051204
1047.70199948920958
1212.24426799935077
1214.87719553125953
1219.79752258230587
1225.54710896524443
1230.8226281167224
1234.65613567868991
1236.14927609436359
1234.42953266851919
1229.20087514187958
1220.32689955722776
1207.50562455863655
1190.53241203557582
1168.60518831809577
1143.17493709017253
1106.25452500037636
1040.73561560337612
1209.524421022772
1212.75545665875711
1218.72988203068326
1225.50424518339423
1231.57686964799177
1235.96279434006078
1237.70603966328963
1235.75120449769042
1229.93453464901404
1220.25429296654329
1206.42972637708749
1188.13242373844787
1164.69632007143468
1138.28474926821787
1097.56908560008264
1048.17162853547779
1206.08737214915641
1210.00238842304975
1217.32265587717757
1225.34088208451749
1232.3903180022694
1237.43722600644833
1239.48944972170648
1237.16826504790151
1230.59208129383865
1219.89646546272002
1204.81531662332145
1184.82232186675924
1159.6311556755827
1130.91444736164999
1083.01390734080519
1045.65109184591938
1201.89401543456029
1207.14361175497538
1216.01406398728477
1225.65099113037149
1233.62826110872561
1239.01832736641859
1241.66743675235625
1238.79374794107889
1231.07970666284382
1218.72982642632837
1201.40064499195501
1178.69326271944419
1150.98924710409824
1115.07024469419616
964.18489578995684
996.464861809041395
1153.017058512831
1176.79788064855529
1204.65398619902862
1225.7444013038803
1235.08538214476289
1238.88167486524208
1243.74669623934437
1239.10222146506294
1228.47711783978457
1211.95124214063549
1189.39654207286821
1155.80874748024212
1076.71911810298388
828.193865961280949
381.236742772731816
467.099473842138195
636.088513440394081
724.264748574335727
811.275114179954471
873.202750217054358
894.2941721037148
938.98000938001735
1043.70783915460925
1087.26595558893359
1060.64796365417078
972.270487376087658
839.731143386893336
656.120599945354456
417.752530375383685
171.188580520814241
69.5606775042884777
52.4714460471093602
128.450255984250163
172.36745588109082
210.309261767945117
301.896570689540397
424.137315769822351
489.356748834626842
431.370141865357937
334.936251188739504
255.812686508377425
186.427813467965024
115.09443083817456
72.0750157945864487
42.0551448092201738
43.1091014785301212
43.9689955256981122
44.2174280666572059
75.7000670981210675
53.7744554134044108
38.1511947598310499
35.0622288013164081
60.947287132137987
29.1728777344095747
10.4291015523070687
5.91289366645722403
5.93971857885573407
5.89372458452740489
6.09243266714419196
7.272041141976473
15.8892393849268725
26.0899732671927467
47.3055674749161668
38.176831991941178
60.7028657625293562
40.9020606140724823
35.7721325061313422
34.0342129696812989
16.1383388351477031
8.14401050624058698
6.02830049620985342
5.62252319914513699
5.51461173841920616
5.32197359437399875
5.28829861361994791
5.21175993170552943
6.07508912195353812
16.4553504201991245
64.0597689835204562
63.9796231774424982
52.9744956372897704
32.2149747865679643
24.119899498136494
20.534909150022024
12.3011272951835995
12.155075207994086
7.9152831769282832
5.72544001334393649
5.60329858219896604
5.50772162066281457
5.04333500128175416
3.80513003566867969
3.65245114236946122
12.4505500246350564
68.770434829743138
81.3065338762310432
82.8256891499246137
68.7630744300404046
23.5543950226915015
18.5218072896299688
4.36390865227353153
2.64917360867765517
4.74163283776483269
10.0949885192581643
9.23171869031565606
8.17647665940108048
4.64781770169028974
3.47272221888012655
2.34980769234666509
3.63709324321029248
10.860228192719882
65.7528315573667328
82.9572879294537131
66.8928845700024368
23.2765361162397078
10.141814931632485
5.69704217948331948
2.3675202431745932
1.9084936249030755
3.76414908116733748
8.12350672934459617
7.24488196063458112
4.8862680972755923
2.19398979530707328
1.85617987739130874
2.09697689439626922
3.45736914990343536
59.793708128755469
1217.19603868248009
1218.28876842881846
1220.74656195861758
1223.85370819505829
1226.7455099519043
1228.51511993257532
1228.38782642271099
1225.74801316964749
1220.24791349900966
1211.82621568087529
1200.21671516114725
1185.65424173832776
1168.1927288226741
1148.67221117586269
1128.99489960189453
1101.51025880837778
1216.69049711846992
1217.89311192264836
1220.52039449886956
1223.83545275495158
1226.85094499277466
1228.71168686481451
1228.62293501417275
1225.95131772247396
1220.365730091778
1211.76282390393544
1199.94585307518764
1185.13030053298939
1167.18277995275594
1147.29245564910366
1125.67443973665581
1097.66637288291486
1215.67246381236737
1217.18048013349335
1220.17785552459031
1223.82207409088164
1227.12320238221309
1229.17333291265527
1229.14520176257656
1226.37536595735355
1220.55708772005369
1211.61622263151639
1199.37985483636157
1184.02155456902915
1165.24921114121457
1144.69994727606468
1119.91932324442814
1089.10929838766174
1214.23792465576162
1216.13943700033633
1219.69248052570401
1223.86190919300998
1227.54776091603503
1229.87394760512711
1229.93141323038958
1226.99192828466403
1220.80237076031813
1211.34568799667909
1198.48286759478742
1182.29797557719849
1162.36904908944666
1140.82828595493515
1112.138708681352
1077.47270480887096
1212.35487056004581
1214.73621817457297
1219.03967673372586
1223.90123643085508
1228.14080014017486
1230.8507056955998
1231.01758181293144
1227.8190522986572
1221.10706961977758
1210.954716442674
1197.26307203512124
1179.97020490683417
1158.62742371697982
1135.68088781149891
1102.70803963147227
1066.23366494317588
1209.93730795093848
1212.9216171173332
1218.19575862534521
1223.95341695533125
1228.88935251131852
1232.10112168915111
1232.39262833547491
1228.80112934242879
1221.37573409012202
1210.33778482147886
1195.66017512783878
1177.00097004809095
1154.09138215381699
1129.29391885612927
1091.61463695429461
1057.34067716446202
1206.89502323402485
1210.56648324814273
1217.07056348265837
1223.91707155203585
1229.67115812086013
1233.53372093719099
1233.9645224308365
1229.78933310296543
1221.43434391487722
1209.27569488853464
1193.37395064814496
1172.93115568840949
1148.26758978325256
1119.84220920967095
1074.25493698901437
1061.99932499852798
1203.37343696813537
1208.17089991910416
1216.17882258831651
1224.28052688075104
1230.79640374445012
1235.30963705857971
1235.90271423089484
1230.82063228141533
1221.00144345675062
1206.93270151876277
1188.62261209485041
1165.34969165506891
1138.14706198151748
1089.35847070142609
954.958629050933496
1039.56566007256879
1172.9268110593755
1187.53189821577189
1211.05447248746259
1224.48873831174569
1232.1699120520218
1233.53062548286266
1237.11513808807172
1229.57585696800629
1215.9417923535766
1196.86377837970258
1172.96315740755404
1127.80952014793706
1031.66858955001703
725.876766841202652
374.858511997985318
565.426762840476272
646.667660987466093
727.322025637988645
816.933164250817867
853.881105618767833
871.717064487933499
946.023891711919646
1038.99801129065486
1056.59640531526179
993.701554339780046
877.575057363253904
731.137122992864192
569.714793467181721
352.526498695358953
140.436071415233414
69.3275707299686133
77.010495943039345
117.271226429001601
170.068398624492204
199.781369255801707
316.838463048070253
421.669015468280065
445.03218474014335
360.535586620600043
266.640367539727492
191.741695160242273
122.251920543377679
96.1465293934399625
55.2276959265289094
40.0427828197737128
45.3475268659263762
45.6736723279227448
46.1999353012236398
72.3185720847299507
50.2909047850366591
36.5949752119918585
32.4370333347890778
33.0492276857742695
14.8424556781273935
6.42553008582089369
5.70547845081693783
5.56840804371660614
5.33662539117515689
5.4097943109113773
8.68342436520880057
16.7893693763552925
27.0700231589675475
46.765365093741579
37.7392626667156819
56.5829088440120671
39.6260292364986597
34.3212593033158768
36.1517558050055001
24.8865768787532566
10.2394023084759418
6.11776729581222956
5.4056152276436622
5.04632845603623625
4.60237354484024763
4.38794170500689695
4.1534295909550405
5.75503341850581496
21.8929446826450764
63.3939341758751809
62.3052896990887177
49.6841243829631267
36.2515938286935935
34.0215346379822137
21.0297081671350128
10.2413941692090464
11.6542995126151716
11.5661336118296578
6.05300038503974758
4.50564622648736446
4.13751486656479006
3.78997308495347074
3.09088769271621677
3.47777759086840543
10.4844287886118224
68.8027575672618923
67.9398725982268132
81.6891954988975613
67.7980568245662027
26.4648601678926454
17.1013378532554263
5.09233345612796651
2.77905881310047009
4.32987678397758291
9.10852113898063998
7.68662771997922878
4.81665814302236583
3.12550691086462384
2.43999330295095573
2.30723417759378124
4.01789107178270033
28.1476822794477144
60.6567237358078373
77.9598488810264456
73.7334319173366168
28.0500557087691824
10.1689794661056911
5.26922050582313162
2.46835410907304276
2.80610925833567215
6.1898861384128594
7.42808712067337229
6.5810335990605715
2.72418218935620615
2.27144966470577314
1.81318718735824591
2.09700018944917232
3.29994302864416467
54.6689463755556417
1216.87266458926206
1217.71024205628623
1219.70822846786723
1222.18539897154506
1224.303838395517
1225.1859412055453
1224.08329653525539
1220.42953120917582
1213.95005914433773
1204.63659542662208
1192.5716975875423
1178.05855619451199
1161.31161226880431
1144.43210287309148
1129.30254974897412
1115.16398067032515
1216.40806129832094
1217.35260433426515
1219.50302202892931
1222.18005266509499
1224.40961559234324
1225.37547945178039
1224.29306846534291
1220.5823477520421
1213.98923722848895
1204.51755445945901
1192.20339526369958
1177.40267658529638
1160.21195096903875
1142.91206310514713
1125.86850775951939
1111.490892869449
1215.4527227508504
1216.7079598333753
1219.2207510039409
1222.20074268763506
1224.68896275540169
1225.82431043373958
1224.76395844827152
1220.90692687847422
1214.04993553506529
1204.2359645210438
1191.47861301702915
1176.10896070748117
1158.08185082451041
1139.91620005773052
1119.7852106480575
1105.18514946902883
1214.10694372408693
1215.76188349630866
1218.81072267134664
1222.26750927194621
1225.12213033736339
1226.50712471062752
1225.47268202449209
1221.37531052220652
1214.09950429101218
1203.75976605936194
1190.36670676098697
1174.14958597566078
1154.93053978625289
1135.42536342783114
1111.42525152601252
1094.90759204085839
1212.34672560064337
1214.47954933092888
1218.25493406828764
1222.362766796203
1225.72541278959739
1227.4608886408439
1226.45696022444781
1222.01642129326956
1214.14951511208687
1203.09087073905744
1188.87184957737259
1171.5413561434973
1150.86331464584555
1129.53603106400101
1100.84992020969867
1075.30683998805148
1210.07159733705157
1212.81638102025204
1217.53394034939151
1222.48015983694518
1226.48080767662645
1228.68766162137581
1227.70440942999244
1222.76920938287299
1214.10259091274429
1202.13355465814743
1186.95220499690663
1168.27158112925304
1146.00896915316798
1122.18595354780996
1088.1224595614367
1061.86853631370013
1207.1999285317745
1210.65039958814737
1216.58587384927046
1222.53659138836269
1227.26790758428797
1230.11910468432029
1229.13001625462107
1223.47885534574607
1213.76169310960881
1200.65597053855845
1184.2237715194135
1163.81394453937423
1139.76733026428883
1110.82304609284188
1071.65384479544468
1065.0984411989466
1203.82046679474092
1208.4436317732418
1215.81847119774284
1222.9594725939362
1228.37879505794103
1231.98364479417842
1230.86074631212273
1224.08541345817503
1212.61586825730478
1197.42127388994959
1178.46013271826928
1155.44937997731472
1128.89125067917121
1068.16621085338716
952.116428267030528
1051.58648066676596
1186.19487644601872
1193.71227009914583
1212.1861561796743
1223.27787170900001
1229.16169034287645
1231.31936155797143
1231.4249431617236
1221.63102476081235
1205.47528252729489
1184.64722408492867
1157.16790249026667
1108.32774219993553
995.336946083485827
657.081644023311242
378.092185136384444
631.204994473516876
642.214926957478156
719.06868163362833
819.304105103824554
846.787012284267348
868.757685388563459
956.174851964549021
1032.14608298772669
1024.75136708314039
931.609471076446425
798.851935244511651
661.302299726945989
521.957594641268997
311.875802892165325
121.57265480892454
75.1516161306476818
112.68122861387053
131.148932799451984
188.183340794149757
197.826245493883107
320.524184361444327
399.101343014196857
405.26025940556093
312.18407194110722
220.703613911523092
146.188918685331316
96.0805220727854135
79.9406057658965636
50.2072896649226976
41.3010137778849753
45.7580243504928248
48.7516974867090056
49.1930983478169352
67.6625702365850259
45.5937660214845195
31.9370807451529437
27.3586843853107631
22.7789692731516489
9.97308394070664583
6.12104005077998004
5.20131119145389054
5.09769294102685144
4.94465221734592397
5.41611972563207011
9.04802407956696797
19.1332532620026683
28.5779354539694523
50.0656501156569789
48.2576627970016077
50.8118305729402522
34.2353325965546347
26.782562611091894
32.794660615984462
27.8599069192280169
11.6475086711070759
6.20779377759838535
5.05771199400014382
4.45929244182391393
3.91404525456523267
3.97839038714446946
4.04896127405837891
6.38013728837790683
25.9565640728413136
66.0423925168898478
64.5371294097619881
42.2354962659107898
28.8593047738728004
23.2494647707288529
20.7646434450829425
10.7215907180577634
11.6067681377647371
11.7102432192406045
5.50114614801399693
3.98465765283455386
3.28697219654898509
3.41589768548235639
2.97697282630064786
3.6256029909348273
12.6021524503540601
66.3248250308355694
63.8366033797101196
78.2915268830998627
35.5777618674480678
23.8454103942111786
19.3027345666082191
4.96137161161512896
2.83611310474696854
4.67829874879059826
8.2749503505160984
5.61308646398458411
3.23385093936240642
3.56004713882748192
2.53046252287390816
2.43384251031807519
5.71849220482861575
41.112847617620119
56.4881322617442834
75.0784489853191701
72.7940562843990193
28.8352842650937014
12.0760456840125823
4.10559127237987198
2.54947503308698264
3.16320118789055327
7.01156795672059907
7.32261833469751267
5.66483253456623004
2.56723580606457258
2.38028811233491577
1.87472783184023495
2.3749378039704645
4.42017724114275801
54.9174662090478876
1216.57005102714697
1217.18331095771941
1218.79415465654711
1220.72807522319067
1222.1840789558662
1222.31251873470433
1220.3995176796916
1215.93063676434849
1208.70423780618171
1198.79850473502324
1186.36639428760054
1171.89331720681002
1155.65664160532856
1140.23785543310669
1127.00539893572
1116.07322670615827
1216.13329964463128
1216.84839866569473
1218.59472163949272
1220.73004262793688
1222.29322914918657
1222.49863046171799
1220.58859012576522
1216.04211228344434
1208.68838874283915
1198.60962167128105
1185.94342994742669
1171.18065472846297
1154.49914500317095
1138.62126978157335
1123.53101725349006
1111.90692970376722
1215.22410556099112
1216.24931453377803
1218.3518822411263
1220.77076348749051
1222.58001036476776
1222.93783924406216
1221.01757135796151
1216.29390524038922
1208.65811876937937
1198.22647293089381
1185.11086027744796
1169.78148779724052
1152.24045929625095
1135.3656472212042
1117.27562144614876
1107.82125545172335
1213.94163931880303
1215.36291243887695
1217.99286433011093
1220.86685267737175
1223.02302869156642
1223.60728817974314
1221.66798729370316
1216.66274332675903
1208.58382013067171
1197.61648272202592
1183.86311344118963
1167.68605104924109
1148.90992223460989
1130.51080602771071
1108.57691976005253
1098.03967388297383
1212.2559028844762
1214.14948881725195
1217.49572493617393
1220.99911274002102
1223.64051316130917
1224.54730859950519
1222.58042689834838
1217.18047269590056
1208.4653963513847
1196.76641967616206
1182.19942842057867
1164.92245069671185
1144.62446276605624
1124.19466925743222
1097.41578598526098
1080.68633260076786
1210.04846078255969
1212.55479074170648
1216.83956879066704
1221.15749332132464
1224.41299965972667
1225.76602765495204
1223.74986696511019
1217.78790838825603
1208.19792201386781
1195.58566111556524
1180.08494326130835
1161.50747819905246
1139.54732371413024
1116.09202532549102
1084.45826528803059
1063.05046962974984
1207.22455169794421
1210.45176749536199
1215.9652816549019
1221.24720263581844
1225.2155696889406
1227.20506949094784
1225.08693200050197
1218.31901734349458
1207.57909553838385
1193.81286252574637
1177.04110063752182
1156.8319706644927
1133.03317073683024
1103.41545623945012
1068.99613469327051
1066.85051949549757
1203.83406821341532
1208.27726432051236
1215.25884592672492
1221.72961147800834
1226.24547640083961
1229.06725439945581
1226.6857766924295
1218.63552514299022
1205.92397342847858
1189.91260778931905
1170.47747010189551
1147.93384215849142
1121.71446157896617
1052.40382942771885
948.658723986061432
1056.35153388623985
1190.39920006085754
1196.9046885015955
1212.53400749773141
1222.09985058392522
1226.13651871756929
1230.93947632932282
1226.88128979397698
1215.35660830935876
1197.28312947426571
1175.25807626150208
1141.93943873494231
1092.78038783969146
964.225503319537324
610.593776101954973
380.380931329421742
669.204871335761709
645.137625634089318
721.376179225757596
817.133389975585601
842.48140543365264
869.004316024745549
966.815109308951037
1025.48477203083257
996.742589610633331
886.123207226007139
742.431192427541646
617.602737151823135
489.378013450378205
284.007872390926138
108.908742718757665
80.3792986880028906
134.714323633975283
134.804546501911602
184.419272267183118
198.598835259524265
320.656505930919138
388.475932642577845
366.542187661203855
274.557242761626014
189.843612035417323
116.612956599573096
87.1471128339105974
68.0431263684515102
45.2141554806733055
40.2403033862163753
44.3057586254889983
49.0468416573201935
55.7885791409831455
64.3621897310811448
44.0276496344610351
29.4696019652802867
21.1715956868767741
15.893151968110498
7.36619419256167429
5.21501054055574809
4.53920623296025028
4.42302596777844492
4.2083278989977595
4.6059669775984613
8.03116676072150071
18.7914264205605122
26.9898183919479813
51.5427508256397857
48.7061950145289799
46.9974312137815247
31.4697466452389811
25.2923285838056415
24.4212215540391426
27.5293801768638851
12.9339695019011067
5.05732470488182795
4.12729042436551818
3.90692246484412253
3.23241597976340866
3.08391122076827795
3.36322991571116869
5.44396535752028843
23.7330423829221537
66.8359292660913837
64.3558437149673921
38.8586787632735522
27.1878883581817163
24.1936623144728848
23.3836136487694333
13.7068941066570602
11.2362093819849864
10.5321947592826035
4.91287872861186603
3.57882499773003238
2.75997481484241636
2.58940017942725742
2.30506086334529403
2.82380551443847239
11.7676203123389929
65.9497242225672409
60.6689280907873183
74.0876753672660442
30.1853950006492475
23.5238486297802112
20.7801989116534109
7.0685787730748233
2.938284146734925
4.95848730207156052
7.91634597308364274
5.21287473164272441
2.62596332511089026
2.76547752052586038
2.16174223056692227
1.84206336305928797
4.4031213367138875
38.1722939193725566
56.3484864488690036
73.735716542084063
51.664937545380468
30.2464852221552185
11.6138417653168275
3.33381699282137323
2.47105538084455478
2.9382460927102434
6.54284088213335924
6.90115902090880873
4.96146416049520056
3.11551957649769751
1.83842564658483076
1.58976534369950051
1.83033173113709347
4.09145864200808518
55.1515518288430329
1216.29689717551378
1216.73657554768306
1218.02377707259325
1219.52739692018417
1220.44000901284312
1219.96297169501963
1217.40668177776092
1212.31188265875085
1204.53643730479689
1194.19370239637988
1181.49973195005168
1167.05128503467358
1151.04457613803584
1136.49470728071992
1124.14445989185378
1114.35263868619268
1215.87390347850283
1216.4177785095419
1217.85894050736783
1219.53817119357655
1220.55565780070583
1220.15085950111779
1217.58763163467756
1212.41109564761086
1204.50685468332586
1193.9886453177653
1181.06636989793083
1166.33303190997299
1149.88443944429082
1134.83137686564919
1120.63604996385061
1110.25841366109648
1214.98711659548508
1215.84852467467999
1217.63449908680536
1219.59605254160874
1220.84811717423986
1220.57866245708055
1217.9906229221599
1212.62957025592027
1204.43092964547964
1193.5477015199499
1180.18056100922081
1164.89932005760784
1147.52458133089954
1131.43547165457335
1114.3355523054679
1105.57988654329301
1213.73955036011193
1215.00463626094938
1217.30999967026833
1219.70900830905248
1221.29801130801798
1221.23786358720258
1218.61196032429984
1212.9504869690777
1204.28269124302096
1192.85212062581627
1178.84856188397907
1162.77602968907013
1144.00027246335708
1126.40911598150024
1105.50513939855023
1096.36965609971344
1212.10442465532151
1213.84162479581278
1216.85639045359335
1219.86976758384162
1221.92479901727802
1222.17062903932515
1219.48732087596318
1213.38507602871027
1204.04147602750231
1191.88251135152291
1177.06591218019707
1159.85020416362386
1139.59583976664521
1119.84030639908815
1094.06728674519059
1082.24406743595227
1209.95975187018848
1212.29847455046593
1216.24580627590467
1220.05453516529337
1222.70615500808981
1223.38054606781702
1220.59525275072201
1213.85063232342577
1203.58870898515465
1190.54254986404567
1174.78770087605039
1156.2140687816925
1134.41333847909618
1111.12218459836481
1081.45020956696726
1063.71263694933941
1207.22579304849364
1210.24545276153617
1215.41165650999051
1220.16039745776197
1223.51691445245388
1224.79545961106601
1221.82911825771907
1214.17852379259398
1202.7130928188592
1188.5053376999083
1171.4674039901754
1151.35124531142537
1127.69835976031595
1097.38047623550233
1066.72933518688592
1066.46690489377715
1203.93050410541082
1208.11701563424481
1214.73984977711825
1220.63188858397712
1224.45618820263439
1226.65071957598866
1223.27592101463006
1214.18591573128151
1200.5728119414789
1183.95834623932046
1164.31249569999591
1142.25519418046156
1115.52844214703782
1038.45665935141506
944.201430344864548
1056.17449143012709
1192.36685835972253
1198.7542335201299
1212.39656389370975
1220.98412629416839
1224.50613112056226
1228.4249841435194
1223.07453853130187
1210.09539031665463
1190.66754032177823
1167.83829523331156
1129.96956913168947
1079.23061708242835
933.777987630246798
571.116066381970541
378.881105398311036
688.804907014660557
654.793857459719447
730.06907182633654
814.356716649252007
841.004736951083373
870.619814677369732
973.126322245029428
1018.372886952317
972.254954857963867
851.652916689061158
702.743011716275191
586.925366366002095
463.661210041297579
259.539536846679198
99.8190266982923902
83.5913720573292522
147.332854689601049
137.065327953999343
168.668122368867785
199.991684829984223
311.947202966297311
373.159882865662951
336.209057710074092
248.242098016045389
167.850386310079642
99.5298442618220918
81.1122493730589156
60.9564305276844323
41.4085324557077072
39.3138642515597638
42.849670333885868
48.3093719027489357
57.1636238615084196
60.469550371911204
44.8692923214533224
28.1538621454358626
19.0011151099578477
12.9141120399996936
5.81237601825985273
4.58315655360299701
3.99897377744984794
3.70454722281611604
3.35937759970833927
3.51545291630032386
7.8231813164438595
17.6116718848189571
24.3223964490912898
51.658551109600829
47.902625820258848
49.8280857201579579
41.3114821850914566
24.3662568474862127
22.5695380471757368
27.9488790053764191
14.003239837712151
4.20375800750501938
3.69848572881507121
3.35271877667318874
2.64814285082545009
2.29394872748035317
2.30259038866492505
4.24839395415054089
20.4404738206937466
66.5460265799814294
64.0376228392922968
37.9339712025866476
25.8612917058964022
22.8854474122016356
23.9442331738103071
15.4706710241121215
8.94688446968189055
6.80179711659368014
4.81712141451103193
2.87450055311360986
2.36300181668955966
1.98604515932142722
1.69939318342324341
1.99374836822541734
9.71839948763699013
65.3870844193891543
60.4652757984245994
66.527507086067871
25.7370455669674101
20.7648630943970218
22.4996649703035558
8.10916619956049978
4.0993379044667293
7.25545558204093322
7.57609545377394866
3.28333523098686619
2.20414115287264201
1.82540960104531091
1.63587539472381915
1.51168430196592807
3.7432127738531773
31.8673505384392897
56.3458699652634962
73.8412951113588321
30.3146698388599383
28.1771606512811523
10.6928293147235429
3.89250989924174551
2.61170146686463367
1.86508409914781836
4.47782693722643099
6.01550970778306837
3.09358669679769926
2.24602671678820887
1.55928352880792476
1.47064650791550089
1.47824473101753573
3.45013451458484832
55.2868050772465907
1216.06276846790047
1216.38925028563631
1217.43213526198724
1218.61162051411384
1219.11869963727372
1218.19122946317952
1215.1626201666254
1209.62229436121925
1201.45098204975989
1190.77127884528636
1177.92008637163394
1163.64219416670448
1147.44362879978257
1133.52689860387318
1121.40208764125555
1111.57948559983924
1215.64864524274276
1216.08647298727738
1217.30933638240367
1218.63289589392343
1219.24135056636055
1218.38553186800664
1215.35308045708939
1209.72876028354858
1201.41808091718167
1190.55964124367074
1177.47499360659231
1162.89746426958436
1146.26226957722133
1131.80724877055763
1117.89730232743432
1107.44027748241137
1214.80024827862258
1215.54651722195649
1217.0913501983548
1218.70705275245382
1219.53813953574172
1218.8086774114779
1215.7513979179073
1209.93397061028259
1201.31516064548373
1190.08648699779224
1176.54590213442179
1161.34894587548388
1143.87506982821992
1128.34108276085772
1111.57000632167205
1100.81146296161023
1213.61303791941464
1214.75721994689161
1216.80931352270932
1218.83792094070395
1219.99163659380065
1219.46127108999394
1216.35768897907224
1210.22298021973711
1201.11797518433718
1189.34359392773786
1175.14081286258988
1158.97348460506942
1140.35401835367907
1123.26033415120855
1102.66040019583374
1090.5018503875483
1212.03683308217842
1213.67400122546883
1216.41172237546039
1219.01965945117854
1220.61547320903605
1220.37785824894559
1217.19584229474322
1210.58921079052084
1200.80093414880298
1188.30772377244421
1173.26761728907672
1155.8844774478946
1135.69010144975982
1116.69141270347814
1091.23642773774804
1076.30277800901035
1209.95378413072717
1212.23161094980833
1215.85814922369286
1219.21053935727832
1221.37103221928828
1221.53583106511223
1218.2102040386153
1210.91771274592384
1200.2278769186737
1186.86392007078234
1170.87176780873097
1152.13912018315455
1130.45692293938123
1107.23379507301024
1079.61906152706342
1067.54649657723871
1207.23111534167288
1210.28492193754937
1215.05369598816014
1219.29518359617964
1222.11432981754569
1222.84864811111265
1219.27327553821215
1211.02002011567879
1199.1337644217881
1184.6046179417533
1167.33053866861815
1147.113391698638
1123.2358493031029
1092.54628630796856
1065.47327339110234
1071.98773923945441
1203.97713229784381
1208.31204151165207
1214.40532983244452
1219.68480097071006
1222.85211300127617
1224.54839342669857
1220.45478598955128
1210.60493147610509
1196.47118117195578
1179.4585077652971
1159.69298476378935
1137.8586169532914
1109.92846278488105
1026.11930739455715
944.14133326211288
1060.49270752964458
1188.9444553713206
1198.39521137064298
1212.10073286587203
1219.93854856711914
1222.50479090496174
1225.92619069300122
1219.6565897223843
1205.48024040026166
1185.28189043966813
1160.52060690902431
1119.99873861869742
1066.29777652939106
901.377394090608163
539.455152879849493
379.257118066888609
702.255213866266558
650.372900621568647
744.901212668866719
815.433482383286332
846.5474623707712
871.650983470000028
971.212225329394528
1008.13878222300173
952.537426006595524
824.409850837731938
676.337387976364994
561.884199448657796
439.612219905726192
239.227334110828934
92.3056781456667039
84.1171459875915275
152.678319606842933
151.577717338313221
153.231237559841219
197.295330855847368
291.383691192878018
347.944341899908011
313.302027871933831
233.774423656739287
153.974210404351112
94.4058935264779961
75.278715385814337
55.4536579659317965
38.4409209581775357
38.7957664548010968
40.8025589605010524
47.8080253561792077
57.479986161943124
60.4103498937488936
43.8242394006662082
28.2791667694052116
19.3322439712229972
13.812791004475109
5.54676339817192421