/*--------------------------------*- C++ -*----------------------------------*\
| =========                 |                                                 |
| \\      /  F ield         | OpenFOAM: The Open Source CFD Toolbox           |
|  \\    /   O peration     | Version:  2206                                  |
|   \\  /    A nd           | Website:  www.openfoam.com                      |
|    \\/     M anipulation  |                                                 |
\*---------------------------------------------------------------------------*/
FoamFile
{
    version     2.0;
    format      ascii;
    arch        "LSB;label=32;scalar=64";
    class       volScalarField;
    location    "0.960000000000000631";
    object      rAU;
}
// * * * * * * * * * * * * * * * * * * * * * * * * * * * * * * * * * * * * * //

dimensions      [-1 3 1 0 0 0 0];

internalField   nonuniform List<scalar> 
29184
(
2.81186263270456889e-05
2.76310738989105812e-05
2.74892762289715105e-05
2.73353805194578639e-05
2.7305826344525762e-05
2.72805992350155541e-05
2.72445731176526285e-05
2.72179856495230903e-05
2.67482525354029883e-05
2.57275891579276979e-05
2.46057793304686338e-05
2.33535353168520659e-05
2.21060020306741939e-05
2.05055061796386545e-05
1.90485220158497949e-05
1.80168534751949787e-05
2.73706011121351051e-05
2.75159208434583869e-05
2.75806656227336517e-05
2.72186129730763694e-05
2.695753430850714e-05
2.67620797603586492e-05
2.66045698283255449e-05
2.64914547618742363e-05
2.61482421806185406e-05
2.52207645691532678e-05
2.40302687186325764e-05
2.27475285103598905e-05
2.14738815449286102e-05
1.98737307135644694e-05
1.80188723127782775e-05
1.77058872014316419e-05
2.68563258932598931e-05
2.73961098781620804e-05
2.75594158029593125e-05
2.72459716415722415e-05
2.68516899051483612e-05
2.65037086565005398e-05
2.61905018559283132e-05
2.59419541670094599e-05
2.55494642235447288e-05
2.46003461922173881e-05
2.33782702363477734e-05
2.20890071430510278e-05
2.08313999878938004e-05
1.9173820111425484e-05
1.72515418815555313e-05
1.78248570605964373e-05
2.64682738210715041e-05
2.72366310272456288e-05
2.74403496894467902e-05
2.72789574901562892e-05
2.67522004759494066e-05
2.62260258471366082e-05
2.57380764424723538e-05
2.53454719789585766e-05
2.49292526041155979e-05
2.40087749627047204e-05
2.27608164575351915e-05
2.1493584933443203e-05
2.02523761740501973e-05
1.85896187858378949e-05
1.67929912851529424e-05
1.81267989108849185e-05
2.62013852293465695e-05
2.70626868241541021e-05
2.72432487598832706e-05
2.71708542141358974e-05
2.67207114933410518e-05
2.59798703612377456e-05
2.5290979367030267e-05
2.47532752147830836e-05
2.43107217618960208e-05
2.34200950812168555e-05
2.21476255237054987e-05
2.09287693891002142e-05
1.97315965811260642e-05
1.82399426477855153e-05
1.66291822571007887e-05
1.85392746434202157e-05
2.60467975972551364e-05
2.6853450761915104e-05
2.69427965074641316e-05
2.68434461342549359e-05
2.67262516798785044e-05
2.57549811157816735e-05
2.48329315459882717e-05
2.41519565564862584e-05
2.36826990862268224e-05
2.28063634011794808e-05
2.15157205328091952e-05
2.03691533864906471e-05
1.93066130560557067e-05
1.82519592891394554e-05
1.67338330357325516e-05
1.81781807532140434e-05
2.5985428753924704e-05
2.65739239651153399e-05
2.64915097595229309e-05
2.63682633033068978e-05
2.65085191656438699e-05
2.55099492635875986e-05
2.4331535466690771e-05
2.35439061971447126e-05
2.30405755708779185e-05
2.21575578758928795e-05
2.08717973990318893e-05
1.98300966242688971e-05
1.90524172428788208e-05
1.86798256834148441e-05
1.7210649760423647e-05
1.76970113442385742e-05
2.59450142927361059e-05
2.61719602634341483e-05
2.58690851933260765e-05
2.57669291495501262e-05
2.60501429815441117e-05
2.52130982985049295e-05
2.37475656133998715e-05
2.28487624154594792e-05
2.22874363828415428e-05
2.15166158447470503e-05
2.03787811763730866e-05
1.94914568601741663e-05
1.91341959131154798e-05
1.95354225727760045e-05
1.88694812267686102e-05
1.72951689706012569e-05
2.81961232630209949e-05
2.71493977696681594e-05
2.60103332492965933e-05
2.54025277304469732e-05
2.55667030190744046e-05
2.48847499583277333e-05
2.30334873884421505e-05
2.18611393022693889e-05
2.10718478448284142e-05
2.05121523990929209e-05
2.00957270654429601e-05
1.99470511898886424e-05
2.07476593677752199e-05
2.54094581725882956e-05
4.10947747825345534e-05
3.12101025959757156e-05
5.27987483014899167e-05
4.86889708459305903e-05
4.20071034311495496e-05
3.73306365712054193e-05
3.53969358952052176e-05
3.19494088547715737e-05
2.55386731957101671e-05
2.22407931199185131e-05
2.1234800327555344e-05
2.1539894181756066e-05
2.28055535588516087e-05
2.61266138189068223e-05
3.68715323005249198e-05
8.62078868898902327e-05
0.00024697710017432961
0.000177696299746409281
0.000239638923886623047
0.000199045917735221926
0.000132423009577623609
9.09488796271398417e-05
6.30064339524667201e-05
5.10602989006959379e-05
4.92182781911034019e-05
5.18109272514317653e-05
5.74344318713064094e-05
6.6906905751151042e-05
8.91899201042318894e-05
0.000147929029144339299
0.000265818026820692987
0.000398335847416645577
0.000445136198611337393
0.000576852453352627559
0.000322976938994114823
0.000598492042393708392
0.000632056837420612869
0.000654978288499286705
0.000461534868567442893
0.000593845234556636663
0.000976138943449934046
0.00131197410731734429
0.00188787776565917543
0.00209237410083006883
0.00135653864812502003
0.00122606667642288563
0.000897978026805934222
0.000607919878078278008
0.000424420537729189686
0.000775106652860407135
0.000369523664021527832
0.000759297169262404146
0.00119018544822163609
0.00106309221353520088
0.00171242306463174551
0.00358548634083278705
0.00626536663148464373
0.0059016836516945087
0.00511426138956570797
0.00458275364921552006
0.00395374988323104852
0.00339393092641039878
0.00201837224351128367
0.000736845032193817243
0.000281799740049575877
0.000424151923004704296
0.000449359902466614112
0.000709476155662215006
0.00149611661961338753
0.00180398407029770127
0.00248924842995669688
0.00226491436565831247
0.00343757449439103255
0.00570031326526853829
0.00547189181895311929
0.00548131450291105063
0.00508510554108022612
0.00498549992769012004
0.0034133628041649669
0.00109473596046626436
0.000244694253059410773
0.000246382898978535453
0.000359291804036390391
0.000457553259228322593
0.00143369883813371582
0.00243369143071388468
0.00889468291750699323
0.0106077296283357252
0.0065306209880115285
0.00334171225499095342
0.00342094873919527535
0.00375866990327562494
0.00521266730239428305
0.00593809143526418098
0.00505575433190169881
0.00234274844427311132
0.000447289856172127572
0.000246368088363965948
0.000366302113614583335
0.000514485128997396821
0.00163876774061283014
0.00425043337192897424
0.00804330001184996347
0.0140631471113457866
0.014795724772267425
0.00642237399969355135
0.00358293682181633037
0.00375658994401116813
0.00538016636803484785
0.00908323394500475285
0.00715491123162564739
0.00380964938615142249
0.00103760833506081934
0.000253573709007467096
2.81193690862612618e-05
2.76195135973231529e-05
2.74662359961397963e-05
2.72834436205893153e-05
2.72106746569030521e-05
2.71310630458709953e-05
2.70444372121329262e-05
2.69903517555552263e-05
2.68450778328065802e-05
2.6189835339473709e-05
2.51499196134116515e-05
2.39998496184166889e-05
2.28757873042522084e-05
2.15485071521203322e-05
2.01025152787850047e-05
2.03932167598560015e-05
2.73726838251927074e-05
2.74771483765908818e-05
2.75205357171861584e-05
2.71811057891237712e-05
2.68720341697684682e-05
2.66269755554263809e-05
2.6417407130859768e-05
2.62625896985906348e-05
2.61901315238381343e-05
2.56135091453692641e-05
2.44978450334942722e-05
2.33078419814359878e-05
2.21839925124546734e-05
2.07813408738980912e-05
1.92198691901453515e-05
1.97290348137147606e-05
2.68498340975792845e-05
2.73277279940328384e-05
2.74390169213157816e-05
2.72346669376804505e-05
2.67645750541021588e-05
2.6340256045608044e-05
2.59656948526803951e-05
2.56784381651752214e-05
2.54885635541320583e-05
2.48829136054076045e-05
2.3783500789194248e-05
2.25910506774771185e-05
2.14541447127858845e-05
1.99654503042666289e-05
1.84005205189305804e-05
1.96710774889740575e-05
2.64360508621919697e-05
2.71138440259625439e-05
2.72574050981674675e-05
2.7162674519901019e-05
2.66394086742729337e-05
2.60130148440811033e-05
2.54535511951912065e-05
2.50372802425143016e-05
2.47575632316795577e-05
2.41695058038003517e-05
2.31212936050399363e-05
2.19489841564979588e-05
2.07930436891949101e-05
1.92942867815292578e-05
1.78897433257286986e-05
1.9784973979936439e-05
2.61242247434106418e-05
2.68687602563816163e-05
2.69956223485994957e-05
2.69261314846929855e-05
2.65513257361121052e-05
2.56973589390220475e-05
2.49378073372589136e-05
2.4389217533124387e-05
2.40328770971827551e-05
2.34799894985269454e-05
2.24753229478307472e-05
2.13419645249716591e-05
2.02080183247338544e-05
1.8900020158075457e-05
1.76593912273472593e-05
2.02858267518863149e-05
2.59079406251919682e-05
2.65961075676420842e-05
2.66564107649338572e-05
2.65964410259987925e-05
2.65107082614643413e-05
2.53862501271982273e-05
2.44025966667881018e-05
2.37384834142193688e-05
2.33243824605965578e-05
2.27877022352863057e-05
2.18023446157111767e-05
2.07324312680785346e-05
1.97628729252469466e-05
1.89082694500809634e-05
1.76723933241035992e-05
2.09544477134088199e-05
2.576428625278721e-05
2.62693601886640937e-05
2.62145895064785105e-05
2.61811320001435721e-05
2.64025855352832834e-05
2.50458337310311857e-05
2.38304605197936186e-05
2.30876374923447347e-05
2.26466925600503202e-05
2.20902614118990721e-05
2.11013493784387165e-05
2.01416540708365029e-05
1.95540578679911635e-05
1.94223671513620148e-05
1.76325977651486219e-05
2.02008341657543404e-05
2.56374722927920322e-05
2.58421142335860144e-05
2.56415865914491414e-05
2.56751772244406153e-05
2.61075481052530916e-05
2.46558651733173946e-05
2.31904332019732184e-05
2.23628343731649983e-05
2.184038428291854e-05
2.13968699789637094e-05
2.05786666063191402e-05
1.97954969365290724e-05
1.9736537320096957e-05
1.99810671306578414e-05
1.8532696105267295e-05
1.86098813087267321e-05
2.73027522771181629e-05
2.66514653617449373e-05
2.56483507148356341e-05
2.53296268989631922e-05
2.56343723143386869e-05
2.42587672024044167e-05
2.23578486634048128e-05
2.12621831727596724e-05
2.05430706732342018e-05
2.00105296177320892e-05
1.95453379117100066e-05
1.95843287048303199e-05
2.08125277538585047e-05
2.710638588844961e-05
3.89589082117660422e-05
2.7896349117598446e-05
5.46424066786869382e-05
4.84250613615058742e-05
4.10446019373602284e-05
3.73942574673377548e-05
3.57209643816437731e-05
3.02173537265826238e-05
2.43548444024310179e-05
2.1844530215777682e-05
2.14723273349793095e-05
2.23400121238270714e-05
2.40069455158231412e-05
2.79014986124944488e-05
4.15818958661253566e-05
0.00010319992358593638
0.000216495814394691285
0.000122299762401917127
0.000263171615383871931
0.00019182370128643586
0.000134502504389547186
8.55438755964528367e-05
6.21967449790904463e-05
5.37401504288128156e-05
5.41536947149488248e-05
5.90745532364084303e-05
6.83163848291705114e-05
8.45471445811098768e-05
0.000109808240663986382
0.000169742347061600286
0.000282375563954425388
0.000415471784007829679
0.000423286906905367629
0.000424390082197432259
0.00032504742839289995
0.000573009139598897738
0.000690439544157128043
0.000859871266477309519
0.000864216085558930716
0.00101073186076869694
0.00150554602036928739
0.00248236294520122122
0.00361312504475245783
0.0025168809552226605
0.00176835501983135476
0.00117592433115247768
0.000938702042915135772
0.00068629424330808196
0.000444637827456977346
0.000602019787712600846
0.000362281957756388571
0.00072350189570761776
0.0012497837696102364
0.00101512572573061468
0.00131590119438448438
0.00309317906874318361
0.00526106319758958257
0.00584032934340681167
0.00519201467461105452
0.0047533009187931078
0.00403426142747954561
0.00339002370790337203
0.00220725485212327479
0.000813517355431560524
0.000309149922926360544
0.000402902653074991993
0.000416117107964283646
0.00065448819541602467
0.00128105618921797531
0.0016959894641986337
0.00310773678813654241
0.00276038773540888526
0.00276319018114951813
0.00463929539147318274
0.00575683209495675419
0.00650451727271922873
0.00642384455946442504
0.00586261970974907929
0.00391838376521546055
0.00117701200283810915
0.000250993101075707781
0.000277450448640057011
0.000335837186204415185
0.000496173685489633516
0.00151835651760404275
0.00229179977817458094
0.00898488246551426215
0.0124046427207254052
0.00680091005950205722
0.0039136951420595343
0.00424962916001445871
0.00563185758014463252
0.007451181150445115
0.00838209759552718814
0.00578099598972874919
0.00225076859467024208
0.000357106200996108042
0.000255663524687115148
0.000379117518299610528
0.000452959812217531687
0.00132676385488998292
0.00346008579939885907
0.00818871078941002008
0.0155288089551859042
0.0113738645893469072
0.00493791540585820487
0.00457417931176629881
0.00470728595072499555
0.00750919849083501924
0.00984099392352083373
0.0080835624286190403
0.00417657427872692583
0.000816730159007941032
0.000247285078515888535
2.81458960619833334e-05
2.76137347555284075e-05
2.74376841727048437e-05
2.72469047908686956e-05
2.71521740884365818e-05
2.7058769100288824e-05
2.69569703002546916e-05
2.68889932559686984e-05
2.68648912502535088e-05
2.65690011585893607e-05
2.57651783170742495e-05
2.47084820210348399e-05
2.36972973487087017e-05
2.25085220922400989e-05
2.12997660659832899e-05
2.23491641368288562e-05
2.73772783833581463e-05
2.74213239266339467e-05
2.74428360049876851e-05
2.71298170843044833e-05
2.67835201157261339e-05
2.6517229809845006e-05
2.62993471813363838e-05
2.61542504294227339e-05
2.60777737066328816e-05
2.58238915352781314e-05
2.50508045794023319e-05
2.39490612245089668e-05
2.29410671428558023e-05
2.16552928371504281e-05
2.03961290692131852e-05
2.12685049016349804e-05
2.68060548076863338e-05
2.72148462157217698e-05
2.73200181094565809e-05
2.71771012605237231e-05
2.66515918809448764e-05
2.61952986985675746e-05
2.58123808298812677e-05
2.55355652982464477e-05
2.53514006977317072e-05
2.5054008678189082e-05
2.42768364107301957e-05
2.31628282269396332e-05
2.2125233170583816e-05
2.07338425119550069e-05
1.95578703100948072e-05
2.09238365891792448e-05
2.63272547539364525e-05
2.692674008289593e-05
2.70811240665275055e-05
2.70771530140355294e-05
2.64918382619193755e-05
2.58295310483984652e-05
2.52774095842317809e-05
2.48828069257223603e-05
2.46131251725376856e-05
2.43234888410972002e-05
2.35709730226964524e-05
2.24650859259798045e-05
2.13797754330021887e-05
1.99875164053738496e-05
1.90280150389607601e-05
2.08748228270345999e-05
2.59390394587874882e-05
2.66064065944283656e-05
2.67805813591980335e-05
2.68281257412542936e-05
2.63506783590327005e-05
2.54609338498903679e-05
2.47313585946209408e-05
2.42336081031753077e-05
2.38974546307861002e-05
2.36249933224570836e-05
2.28926071065696069e-05
2.18125377394178987e-05
2.07385698947653445e-05
1.95679732465539124e-05
1.87765434533732295e-05
2.15173749757052688e-05
2.56485815514040746e-05
2.62818345739026191e-05
2.64390634689959675e-05
2.65314408367152296e-05
2.62440989395147314e-05
2.50900219793449174e-05
2.41673237137900748e-05
2.35830558060194e-05
2.32131424963551115e-05
2.29177984685146624e-05
2.21728052050618578e-05
2.11635080197887802e-05
2.0302310645181077e-05
1.96296740146222535e-05
1.87114356486080534e-05
2.2786340304598247e-05
2.54549390295457044e-05
2.59512772230562067e-05
2.6034313310151669e-05
2.61697350262341251e-05
2.61638125759260032e-05
2.4696687179490247e-05
2.3572921923262914e-05
2.29208381394804815e-05
2.25276006704925626e-05
2.22045873562210733e-05
2.14433556682053548e-05
2.05510109981169648e-05
2.01609964129026846e-05
1.97175202017591181e-05
1.78013009671340929e-05
2.18817761894086072e-05
2.53292777778791601e-05
2.55513900187827049e-05
2.55153233964622674e-05
2.57143763971403657e-05
2.60763521060050945e-05
2.42577759827031716e-05
2.29014917055889173e-05
2.21499186799139214e-05
2.16597552921351947e-05
2.12388635946193309e-05
2.06942064054220971e-05
2.02259503056337285e-05
2.03190920464720508e-05
2.01768261009464771e-05
1.85480756874670522e-05
1.98961788592607699e-05
2.65876254302642746e-05
2.62484150915682718e-05
2.5515705057307824e-05
2.53539818006591567e-05
2.57463888358742963e-05
2.37718902171628232e-05
2.19794871371470344e-05
2.09435298640654954e-05
2.02694748158728805e-05
1.97500118311184034e-05
1.93467664248572314e-05
1.95200879893298821e-05
2.11922076312442762e-05
2.86495918704460082e-05
3.81053983389525029e-05
2.67260505723454968e-05
5.58154875931173578e-05
4.81590817192413634e-05
4.03840874749835469e-05
3.7381114980708189e-05
3.57404469866974859e-05
2.90924499463952451e-05
2.37978398361883517e-05
2.18504206946012688e-05
2.19684993332495366e-05
2.32351714104627521e-05
2.51466022845851229e-05
2.93533821765741416e-05
4.58587503897422939e-05
0.000116653609364264081
0.000189659552476706021
0.0001007912308248297
0.000244861625432365537
0.000169691075662832715
0.000134941032953896794
8.59320543492921328e-05
6.52193286538079174e-05
5.79647249968077353e-05
5.93766948445231349e-05
6.64056389200630545e-05
8.00484386809159913e-05
9.98896940483301113e-05
0.000124379682040729947
0.000180855399053063301
0.000293467583776656302
0.000421001535121782067
0.00038563984453958628
0.000365834501630221839
0.000341907767125158282
0.000641240385271192939
0.000832353553815545376
0.00110620019400794111
0.00119084157704547108
0.00146337982901452012
0.00211651854732633395
0.00486875271070095952
0.00363347082569357143
0.00249075015266612401
0.0017853431090868975
0.00119459543568139711
0.000887587127137258848
0.000669013336306381818
0.000415309298924632542
0.000446662560313967004
0.000374258458346182874
0.000854625804073274567
0.00149723490324297896
0.00116801557383508308
0.00120317047927715262
0.00275351571386588329
0.00512827278689988088
0.00615713472445027481
0.00573677941479504641
0.00520184630791055425
0.00406357338683469536
0.00330997463349928063
0.00220761551109367
0.000792928405252010696
0.000303400230144922436
0.000323105526284953731
0.00042367221034138677
0.000766031059265278799
0.00169193748555991706
0.00185760091063897357
0.00312233149265682408
0.0028452882661840922
0.00284868521721077421
0.00477244945223996835
0.00615018296418403353
0.00756483833146472714
0.00726655427408425328
0.00673953317288598572
0.0043656463147927569
0.00107997234939496414
0.000254325011393584822
0.000265050937857334943
0.000318908576618985053
0.000621745914175590633
0.00146745398201242024
0.00188855340721848751
0.00938450655078604951
0.013605846342474066
0.00735569183211028446
0.00418333805956997481
0.00484081305477047572
0.00680114488050967414
0.00740611694867967813
0.00973351462084043675
0.00701008402487862062
0.00202782064004290111
0.000328397922512228303
0.000250771150040297842
0.000356321747129471618
0.000460927229308713917
0.00125995215387700549
0.00249603674110127115
0.0102991971048188597
0.014675861975225326
0.0114895894104420845
0.00541580679279814094
0.00441260804985355547
0.0047154375644401017
0.0077547093272880268
0.0103970454786813122
0.0103395497251548112
0.0044933946455901529
0.000704385040082699393
0.000243104553781989729
2.82082769511485125e-05
2.76422065850999692e-05
2.74582541194679004e-05
2.72474123788215457e-05
2.71480549542961778e-05
2.70462505791769301e-05
2.69367249800016682e-05
2.68624680316845463e-05
2.68257350943249372e-05
2.68157592365454629e-05
2.63867162284026982e-05
2.54607845836009723e-05
2.45682170346099622e-05
2.35062133724520532e-05
2.24134376390195506e-05
2.37308601237671844e-05
2.74270691184757745e-05
2.74461315573609772e-05
2.74591847269468459e-05
2.70965345030299638e-05
2.67588062045687788e-05
2.65037623666203876e-05
2.62960935441575888e-05
2.61574749211251828e-05
2.60814136185069949e-05
2.60310683222877097e-05
2.55663339946282382e-05
2.46138484298863369e-05
2.37079428406780643e-05
2.24774709635464567e-05
2.13904354096077828e-05
2.2521469896250003e-05
2.68352006570749839e-05
2.72174279826960567e-05
2.7326761083065608e-05
2.71193652949831956e-05
2.6594364482224509e-05
2.61567751346192326e-05
2.57945977207434659e-05
2.55276277432719701e-05
2.53388716629324195e-05
2.51798870356279205e-05
2.46851197891036462e-05
2.3764593957267628e-05
2.28043274588543511e-05
2.14542709836877645e-05
2.05110605404220109e-05
2.18804820742433652e-05
2.63319406942204419e-05
2.69015349430793645e-05
2.7084567924759941e-05
2.70856857231659284e-05
2.64055362752137931e-05
2.57710085613453627e-05
2.52560538315925006e-05
2.48727206175900665e-05
2.4580595503237154e-05
2.43260232480038576e-05
2.38459944573400089e-05
2.30122912569080764e-05
2.19764333895504987e-05
2.06431547410447344e-05
1.99576355924493269e-05
2.17809948642188364e-05
2.59070672542340264e-05
2.65499316728862356e-05
2.67882737066022725e-05
2.69278898318174641e-05
2.62355954454504016e-05
2.53835856334569788e-05
2.47046075406487836e-05
2.42240684470778773e-05
2.38506802324733564e-05
2.35224172597360466e-05
2.30582462438264042e-05
2.23103803837967687e-05
2.129006275026456e-05
2.02193883342757001e-05
1.9710479060095571e-05
2.25127834687801686e-05
2.5576271266968561e-05
2.62131853210222385e-05
2.64682785472167741e-05
2.6662256266333593e-05
2.61014473059744526e-05
2.49950097982758081e-05
2.41406057605780673e-05
2.35804423695043101e-05
2.316381747255281e-05
2.27950784076135938e-05
2.23101866909954247e-05
2.1627526082880531e-05
2.08752331772414781e-05
2.02348318361918636e-05
1.9320129448533779e-05
2.38511440310058271e-05
2.53458169892839121e-05
2.58948421966370586e-05
2.60929360334353286e-05
2.63149544869993793e-05
2.60055042677966402e-05
2.45949037801202502e-05
2.35614975071879736e-05
2.29415083546710543e-05
2.25035192238761554e-05
2.21014542831794612e-05
2.15893375018359162e-05
2.10279965775220305e-05
2.0809206311894855e-05
2.00270525159069604e-05
1.81065445174991233e-05
2.30445238537520926e-05
2.52106088163937165e-05
2.55348123003329509e-05
2.56054731959136082e-05
2.58636779196684533e-05
2.59300505973122362e-05
2.41518437259644434e-05
2.28940823559375346e-05
2.21671562662338087e-05
2.16534618742771067e-05
2.11756003941184717e-05
2.08056239759922353e-05
2.06754358322802297e-05
2.07082945916988902e-05
2.02566367956550766e-05
1.8826224782183805e-05
2.08464820431506622e-05
2.63768678378079262e-05
2.61907474252781684e-05
2.55770774345470617e-05
2.54810102508563962e-05
2.57953233004884614e-05
2.35858625159675686e-05
2.19311232063349766e-05
2.09238645276472139e-05
2.02625449341896135e-05
1.97331211871959754e-05
1.94485650584801742e-05
1.97686109872188073e-05
2.18825622561181135e-05
3.00884860652726774e-05
3.78510433718115682e-05
2.65507002704665645e-05
5.53253609025311163e-05
4.75531685529904027e-05
4.04491293394826989e-05
3.77448000007312044e-05
3.59969685074480877e-05
2.84870168836879463e-05
2.36362091716803753e-05
2.20924473346194551e-05
2.2547361232020468e-05
2.41353758265969333e-05
2.62824344411700809e-05
3.09579259877410158e-05
5.01079549470488523e-05
0.000127386790778154116
0.00017286038950195106
9.0575291236546116e-05
0.000243950281272305652
0.000174647867374103907
0.000137232162634664081
8.73037497572470242e-05
6.77831180838683108e-05
6.28699419247106574e-05
6.50610736858390663e-05
7.32070897427097427e-05
8.99799467579547355e-05
0.000111470597502533373
0.000136307029783930972
0.000194338831144658071
0.000312637808895166827
0.000438814177461245667
0.000374056352800400708
0.000327679108475905007
0.000367014364885188938
0.000653404732718040546
0.000916005014279818114
0.00146927002819420278
0.00157092940170707428
0.00248941527270670057
0.00426122241157150805
0.00557346145128882232
0.00413614254309745653
0.0027726394948128499
0.00194607265825502197
0.00127968426859834746
0.000912665629499332005
0.000712918943450494697
0.000416026240350714758
0.000410567532703744967
0.000399328054434222709
0.000936117674671044816
0.00148172275128304227
0.00179960334621912053
0.00125212015140118565
0.00275138252540715585
0.00778643222068170927
0.00792448845130175675
0.00718849664607579784
0.00649130701881272393
0.00485463203262246658
0.00363886524928693509
0.00239342776713658435
0.000886765517975404943
0.00030476856801509982
0.000300612958035449489
0.000433796120995496356
0.000827556671955323973
0.00170828684817196262
0.00188155991561612924
0.00272622075402509378
0.0029164469912491605
0.00324025835901007491
0.00575485345734230973
0.00729079016045864215
0.00949284534147239525
0.00993112417635014927
0.00915300129115951405
0.00574103853259686891
0.00124258932223179604
0.000260057180850783087
0.000259584713069134488
0.000320429767431623083
0.000662140061078838791
0.00149649738720678493
0.00198727594443135012
0.0064298563445646462
0.0129904388505751277
0.00654185911494128709
0.00427625934609623427
0.00555888215064196615
0.00864367495480547303
0.00985691624684939018
0.0136167980381233997
0.0116043346623590851
0.00267164264910486763
0.000346135976407318082
0.000247455103969135108
0.000332048666908022557
0.000571754124519177793
0.00127651103332173787
0.00303241042915230411
0.00997535609408286422
0.0137720258123312442
0.0128646569469588641
0.00539746974647087319
0.00462053528019441221
0.00565910679041570133
0.00792248620317976757
0.013978301083923091
0.0178051425155713976
0.00712226644695399588
0.000741726913535009527
0.000241498183862457334
2.82930500793686525e-05
2.77091762309308309e-05
2.75152587056952229e-05
2.73050516593320756e-05
2.72196330467301907e-05
2.71200649822121275e-05
2.70124935395345054e-05
2.69470565298167109e-05
2.69330568525344205e-05
2.6943226769269923e-05
2.68515421984450475e-05
2.62884496029272519e-05
2.55040980674853069e-05
2.44960213692590681e-05
2.34293037227649614e-05
2.49012453762425834e-05
2.74770489673691522e-05
2.75106060528153404e-05
2.75292270498137411e-05
2.71267825321316948e-05
2.68135631853712757e-05
2.65712714794378411e-05
2.6362852561054082e-05
2.6217566189098457e-05
2.61407823675742839e-05
2.61022770184119276e-05
2.59380809666567983e-05
2.53136399230857497e-05
2.44770145662835461e-05
2.32489495557403845e-05
2.22565538870347061e-05
2.35649481824961487e-05
2.68434552692864123e-05
2.7273615286699555e-05
2.7421560301020228e-05
2.7125706529981566e-05
2.66365598294317885e-05
2.62201079882102722e-05
2.58551535821719153e-05
2.55732117411475586e-05
2.53653066052978238e-05
2.52088559868889174e-05
2.50026974247036467e-05
2.44066595309773439e-05
2.34807409892797503e-05
2.21299427453344967e-05
2.13488727476925318e-05
2.28149815964822233e-05
2.62808187834972397e-05
2.69448054237297568e-05
2.71912038005041566e-05
2.71359112591532054e-05
2.64443480707392263e-05
2.58330419385477425e-05
2.53095933477259983e-05
2.48941006012568434e-05
2.45685493307928012e-05
2.43119027957229157e-05
2.41129617563723726e-05
2.36002220507867555e-05
2.25724236627498475e-05
2.12687297702971878e-05
2.08018517353066799e-05
2.26836915368137267e-05
2.57886499122215039e-05
2.65796634021435634e-05
2.68975778776324989e-05
2.70389624440916112e-05
2.62762374188204608e-05
2.54394083392930003e-05
2.47426368541254601e-05
2.42030030145234133e-05
2.37784211837635743e-05
2.34462961458051939e-05
2.32196981445954174e-05
2.27950670554822617e-05
2.18566836081004913e-05
2.08830488409612942e-05
2.05829087651054347e-05
2.34115403891321881e-05
2.54079478134376517e-05
2.62405515484755141e-05
2.6581386483708191e-05
2.67753829434995631e-05
2.61349663104262418e-05
2.5034196555489825e-05
2.41574787086355261e-05
2.35239484775604061e-05
2.3043800590865872e-05
2.2667857610125651e-05
2.24242263803554548e-05
2.20815269027783299e-05
2.15164833825500672e-05
2.06754383150135073e-05
1.97709610632600332e-05
2.47564903292500907e-05
2.51707689299362415e-05
2.59440010392682919e-05
2.62262086998467035e-05
2.64282743788310349e-05
2.60215329496975577e-05
2.46140775159052802e-05
2.35737223024820227e-05
2.28917760452990553e-05
2.23862024306421736e-05
2.19698027328942409e-05
2.17008886225249043e-05
2.15031599504432041e-05
2.11808669367256958e-05
2.00827672854185834e-05
1.85264816081116997e-05
2.40882961484150566e-05
2.51114266358395553e-05
2.56577191166821515e-05
2.5777138816055968e-05
2.59927800531849564e-05
2.59407522267840315e-05
2.41731235397026619e-05
2.29405960517716e-05
2.21740871311322735e-05
2.1610086983820796e-05
2.11174538884503109e-05
2.08096874802367943e-05
2.0812040272559054e-05
2.09530505157015706e-05
2.04839494831717195e-05
1.92676788399203015e-05
2.17074620722961199e-05
2.6342477978500146e-05
2.63466337157973416e-05
2.57845310110201985e-05
2.55947526336758812e-05
2.59115715977403953e-05
2.36102677432286967e-05
2.20306225932792157e-05
2.1024673002221603e-05
2.03518068445840669e-05
1.98065493577734811e-05
1.96324249624768236e-05
2.01208987347153352e-05
2.27261386939925418e-05
3.1695581844043236e-05
3.83189617086863006e-05
2.67854675621599201e-05
5.47402555013192063e-05
4.71299727231625791e-05
4.07002832475398908e-05
3.82184426705322008e-05
3.6317811827098518e-05
2.82218557840654041e-05
2.37745124670287191e-05
2.25368901461232803e-05
2.32443426726809443e-05
2.50579415632177886e-05
2.73859820815556821e-05
3.26634964034143682e-05
5.48282235517014331e-05
0.000138572178485096603
0.000165013518568632792
8.57534137754164947e-05
0.000251550843621239234
0.000191717016854533605
0.000141054311785582725
9.08338283627009861e-05
7.17010432764094438e-05
6.75828757199789721e-05
7.01696771246341936e-05
7.95817824819119703e-05
9.81688739352144649e-05
0.000120619184113162153
0.000146600817096596045
0.000208052229566200271
0.000332433160300636189
0.000454864696600985473
0.000368923358088463237
0.000321628268842303201
0.000432190706084855183
0.00073012836362529776
0.00106426308173224746
0.00182900880691721363
0.00188509478133718216
0.00393461161352804192
0.00675186944869812702
0.00630697094189064909
0.00480489483628378407
0.00338735431575893763
0.00227367955216812873
0.00135434264842268178
0.00095860994974999341
0.000748616447802342099
0.000412599026614929917
0.000406719033615197208
0.000457552349874566344
0.000922015215344985754
0.00157637352721964538
0.00199938815722494178
0.00132402951268286296
0.00262932178782091181
0.00887269989482028509
0.00842463194708272314
0.00850427410852703548
0.00789107360399044985
0.00582316145178451809