/*--------------------------------*- C++ -*----------------------------------*\
| =========                 |                                                 |
| \\      /  F ield         | OpenFOAM: The Open Source CFD Toolbox           |
|  \\    /   O peration     | Version:  2206                                  |
|   \\  /    A nd           | Website:  www.openfoam.com                      |
|    \\/     M anipulation  |                                                 |
\*---------------------------------------------------------------------------*/
FoamFile
{
    version     2.0;
    format      ascii;
    arch        "LSB;label=32;scalar=64";
    class       volVectorField;
    location    "0.960000000000000631";
    object      U;
}
// * * * * * * * * * * * * * * * * * * * * * * * * * * * * * * * * * * * * * //

dimensions      [0 1 -1 0 0 0 0];

internalField   nonuniform List<vector> 
29184
(
(-0.0199393524677956915 0.00726753662272812406 -0.0281852047839343881)
(-0.0398640929630134019 0.00266355255489815479 -0.0334711045668005663)
(-0.0452918642797054266 -0.000685822319336950323 -0.0368021929759994523)
(-0.0413695541857566976 -0.00258154196651945705 -0.0411303243255860124)
(-0.0346327658847601014 -0.0029806334410707536 -0.0464553265893116671)
(-0.0291942795617022785 -0.00278827972240774675 -0.053033907279756147)
(-0.0205038665676511161 -0.00298659489403297479 -0.0610537697848239358)
(-0.00775573331432417336 -0.00375913644730562109 -0.0708978504872630477)
(0.00988368224163694437 -0.00451343110969714811 -0.08296453416438479)
(0.032539626384788474 -0.00544686812299341547 -0.0983342047159375954)
(0.0586396803312141668 -0.00627999817191135078 -0.116813082702719409)
(0.0926936826164251881 -0.00713514405877570604 -0.142523986495093041)
(0.121353854481647302 -0.00759112051159391201 -0.17252688408265951)
(0.156856331018662809 -0.00974238363028721507 -0.230966812898334234)
(0.206644436004407295 -0.0187089939645453777 -0.276416536651908018)
(0.153439311539402212 0.00282136957873240293 -0.503275958948014468)
(-0.0183933811272842737 0.0198028030784880675 -0.0291611209570451987)
(-0.0346227348665772081 0.00663207590686447704 -0.0328089333280981235)
(-0.0399145590003457743 -0.000158693499493538551 -0.0361394547593779022)
(-0.0435127315175307047 -0.00313131717363852478 -0.0405806565106687361)
(-0.0443102706698712892 -0.00411519785531375571 -0.0463640564615232995)
(-0.0407747797444779486 -0.00519104133619907246 -0.0536494883298303873)
(-0.0319285083481562273 -0.0075879672770616741 -0.0622919840367258462)
(-0.0179484468325479124 -0.0110162396076753672 -0.0726307664986430151)
(0.00138800555741340655 -0.0143010109764379421 -0.084522721802973072)
(0.0260993069945732459 -0.0177694464723471973 -0.0993027355642354809)
(0.054548441438968559 -0.0207351119336177739 -0.117326413173639621)
(0.0878705873335579868 -0.0239153066725547939 -0.141418323647746508)
(0.122482504584146085 -0.0262349684104062099 -0.171415863763681897)
(0.156116393623108252 -0.0320003422792032172 -0.222857850766739723)
(0.213427376806109598 -0.0564073491508385802 -0.278272880676858403)
(0.150092240653755205 0.0114076287158024307 -0.513422249627058513)
(-0.0140281096558518507 0.0304072846736362506 -0.0281990830695796404)
(-0.0289166283279751676 0.0107891323913807194 -0.0328483481083863688)
(-0.037227974863368811 0.00172594055170154342 -0.0366172646235750632)
(-0.0430403858255441474 -0.00231744066967426617 -0.0412367880612045101)
(-0.0453512081298850303 -0.00508259645037526225 -0.0471814885145769303)
(-0.0430158007038595261 -0.00865597749313378427 -0.0547064535145532424)
(-0.0348328520774915593 -0.0136770026062451814 -0.0635677380414447629)
(-0.0208690783910163886 -0.0195404007165387687 -0.0739760949315492328)
(-0.00125947757445765696 -0.0250696422498918152 -0.085912275910697472)
(0.0238550132301943892 -0.030911216837966507 -0.100480268253552871)
(0.0525378036883691196 -0.0357587678589702529 -0.118360260129120681)
(0.0863314139733017266 -0.0409808672792903173 -0.142306265770882401)
(0.118245869070776569 -0.0452066141798057666 -0.172382516290138094)
(0.156416004343825549 -0.0564765777218068712 -0.222599461242587837)
(0.205538228711381887 -0.0926585446705981558 -0.277547168278773071)
(0.136321135573369639 0.0170835547871051666 -0.507255063736349321)
(-0.0107563732251680227 0.0387144176579417576 -0.0273266429060190878)
(-0.0243640608165125554 0.0151910825457366554 -0.0324762957940879227)
(-0.0351520297977871016 0.00433498119713739052 -0.0365875347344233812)
(-0.0435910185419903715 -0.000961954270191605091 -0.041679566839254549)
(-0.0480770895168194587 -0.00537361112032423878 -0.0481265046707124583)
(-0.0472145088980618841 -0.0111992648809938963 -0.0562098175346751813)
(-0.0396973520427093482 -0.0189884888815068688 -0.0655606728567266345)
(-0.025532288922576557 -0.0276706425109482408 -0.0760590703142238339)
(-0.00545194788002098356 -0.0358712296976602674 -0.0879711915108465081)
(0.0202553796391727395 -0.0440021702518076235 -0.102192804844766283)
(0.0494106914093030355 -0.0507865076976590502 -0.119748755551177921)
(0.0838632006180314443 -0.0574054108778118549 -0.143280859075209238)
(0.112861853335638931 -0.0635202945148230225 -0.173183883859794802)
(0.156661594358480316 -0.0808383950609147528 -0.222147701721897295)
(0.183179165766851754 -0.119317405541402077 -0.278460662278297189)
(0.119510674919701271 0.0160348525507123495 -0.501099315933562162)
(-0.00796755613238801785 0.0448766655548468035 -0.0257166741191595452)
(-0.0197320496666908499 0.0201758195880457625 -0.0307336062527723101)
(-0.0330289121355688484 0.00869323364708838794 -0.035470272100518882)
(-0.0444232414531952891 0.00221981937357336196 -0.0415539599351935698)
(-0.0513181582443940146 -0.00411129203102737414 -0.0490068153038156623)
(-0.0520345422554154141 -0.0127250510143641152 -0.0580121543889323132)
(-0.0450921148735188709 -0.0240303433783237395 -0.0679931338952510789)
(-0.0304917655121874492 -0.0360252049404539906 -0.0786250705545104983)
(-0.00957078760188693686 -0.0473442369207951186 -0.0902560027206754101)
(0.0169807970721620738 -0.0576030363886992913 -0.10390181847559532)
(0.04696455533475246 -0.0663550039852639634 -0.120842425610319881)
(0.0826475263856839837 -0.0738035738169529748 -0.143536532062372907)
(0.109306775788539923 -0.0816353785485623845 -0.173568522791183816)
(0.153940354030840665 -0.100979244953140951 -0.222989225670844365)
(0.13790520182340063 -0.136129729034538266 -0.287494479656401791)
(0.0927566525301324885 0.00309071927587832671 -0.498393001656800005)
(-0.00472392125363777469 0.0495616872905246184 -0.0226985479401195026)
(-0.0146024815676157778 0.0265369115464967262 -0.0277203750663039226)
(-0.0309555439788716732 0.0152312131392905309 -0.0336288277690535847)
(-0.0459558553192830135 0.00730752897915015395 -0.0410964285801026716)
(-0.0555603799178726113 -0.00158921909804279502 -0.0498254058477585957)
(-0.0579076457627107702 -0.013614587367092576 -0.0599804822525942666)
(-0.0512659342963488127 -0.0292170519559579456 -0.0706611741016480166)
(-0.0355813467505157049 -0.0448991988525845667 -0.0812666143630802751)
(-0.0130924901325708658 -0.0593780024789698213 -0.0923401272535683826)
(0.0150079971224914913 -0.0721062355881320338 -0.105082088341200294)
(0.0470202831473586838 -0.0827164385160744225 -0.121294787763374948)
(0.084557789444509715 -0.0900746728895575888 -0.143338314468695077)
(0.109429763421652879 -0.0971090215429074449 -0.175085730282040469)
(0.142686380892793702 -0.108536180486711875 -0.22809769897256757)
(0.0707237885117311393 -0.140253083339959311 -0.311435164229124817)
(0.0536603634521122391 -0.0209500075764041463 -0.492643116759135136)
(-0.000559600545907240577 0.054903357416233721 -0.0178654680774895068)
(-0.00938854332411789144 0.0347858043532111721 -0.0250153443701352264)
(-0.029770517894575653 0.0243056903459080778 -0.0324308358358327414)
(-0.0491205708967805965 0.0145022498010748107 -0.0412475011708423739)
(-0.0615873675255145941 0.00204225069969365177 -0.05101009033319856)
(-0.0653962600389157989 -0.0144422456806860781 -0.062247766815563009)
(-0.0581666984829048717 -0.0361372864825693432 -0.0733955729907809079)
(-0.040110328763835898 -0.0564172673683961887 -0.0834328723584737142)
(-0.015293381779239789 -0.0738445336257222001 -0.093934080586206406)
(0.0147663420851671147 -0.0885597923157872696 -0.106466179083227447)
(0.0490489244565042032 -0.100142286014731158 -0.123453788642628182)
(0.0868707727894167114 -0.105569026779308864 -0.146897939808291994)
(0.109158246939915687 -0.106114665685064183 -0.182365521759108973)
(0.118759106329052039 -0.0975437931330258579 -0.240293521558183065)
(-0.000108758700020198523 -0.128448554608932813 -0.347074650787676964)
(-0.000845598438007372916 -0.0672754672641792256 -0.469671850827775184)
(0.00442664506372314297 0.0615448131872924978 -0.0136329079671034942)
(-0.00548959671233919134 0.0488007154265304166 -0.0242409004595936124)
(-0.0308641528043572602 0.0399568669707808244 -0.0329028794229547575)
(-0.0546552337143949435 0.0268504157699588387 -0.0425289844669486036)
(-0.0691946911987718211 0.00813826092971901144 -0.0527095649507283021)
(-0.0745208035707538019 -0.0158577459084067 -0.064733003411979087)
(-0.0663619741999943724 -0.0441490378578112547 -0.0758693827003546206)
(-0.0473110409452638589 -0.0685836742850450265 -0.086110414701156518)
(-0.0225017010085383946 -0.0876488068778480817 -0.0983654787292949778)
(0.00674371327731402691 -0.103076868016992035 -0.114301444317676248)
(0.0394315812593062504 -0.115563487123417061 -0.135860794182169231)
(0.0729320718513362526 -0.118501417775855669 -0.163727554317456725)
(0.0909280401391107662 -0.107610631432950757 -0.202435683826247936)
(0.0744997498014502019 -0.0783114598411573382 -0.262031655388832607)
(-0.0482881509537771009 -0.126678000351872933 -0.381666197946839814)
(-0.0393417318930168319 -0.162020671269441141 -0.425330580778685297)
(0.00834418150579569265 0.0450950786531294501 -0.00658445118278661208)
(-0.00442569104332906499 0.0394879741443341092 -0.0230999467175807029)
(-0.0356835453439421635 0.0364651552304315132 -0.0324795331813530902)
(-0.0617411190804386945 0.0260023786628275945 -0.0410071926968078038)
(-0.0800700429937074853 0.0115657561426068325 -0.0520478417433417676)
(-0.0891732547596963132 -0.0125311448881959518 -0.0660460730426399578)
(-0.0868087299884335861 -0.0457860618427337746 -0.0795033442981649685)
(-0.0787043024556180748 -0.0721633919222181008 -0.0959781978188343349)
(-0.0630146037274502135 -0.0934810501811914052 -0.115652242044537085)
(-0.0405576795702650567 -0.111674972029240011 -0.139351893748341005)
(-0.0164580911120763632 -0.126778080060889947 -0.168068015877540694)
(0.00439409496842201562 -0.127929325041014036 -0.201554558881692214)
(0.00814382782506729158 -0.106267763022483225 -0.242169314537289765)
(-0.0250342409606180358 -0.0724603250166633434 -0.30171213858968049)
(-0.0664072861001282766 -0.127643107917513737 -0.403046963279209414)
(-0.038668748693144829 -0.239593242110631294 -0.38961662486679699)
(-0.0195669531511771695 0.0571782687248295618 0.152233169074359187)
(-0.031602819049990738 0.0592902783749293602 0.0292643415379647172)
(-0.100911186553070117 0.0552906707685889565 0.0064095633843379695)
(-0.139806681490684093 0.0409961979461044429 -0.0207032888524574174)
(-0.155535933980721491 0.0173817879074095287 -0.0455117223074968588)
(-0.164632686983652299 -0.00878327244393431635 -0.066964037951548025)
(-0.20074027258456742 -0.0435367557002834596 -0.0926016149537388367)
(-0.207685398613585037 -0.0762272565031864857 -0.119692538986334973)
(-0.195257548593501334 -0.102575307830915508 -0.147560961844524191)
(-0.176372205960409673 -0.122953137373628493 -0.177097183754348075)
(-0.167753674370585637 -0.136167673753792545 -0.212184439267988773)
(-0.180491473258476642 -0.130615073339401616 -0.25336005864920258)
(-0.223142723382315 -0.101331161878228854 -0.304599122016875667)
(-0.252735213396813374 -0.0678180162361229494 -0.374539846826890954)
(-0.102237235218409314 -0.115498073234146403 -0.421848206196313635)
(0.0255757966644331348 -0.242570108113532329 -0.244687567779738602)
(-0.168232802351036576 0.173376274871621633 0.322621487297534926)
(-0.339543480772831641 0.14540418568323793 -0.0247752059922163974)
(-0.464677597847202917 0.102679728770326537 -0.0575052904120171848)
(-0.499366909279599758 0.0548269974676083016 -0.0739990848625069059)
(-0.486856267926168984 0.0127380257490738256 -0.0811421767599232874)
(-0.451356063316939338 -0.0184038051006450258 -0.0933318126908233014)
(-0.427146235674814911 -0.0579649755433476604 -0.108461791518746339)
(-0.428807687003003979 -0.0939122440576143219 -0.125252620010105453)
(-0.431831622203735777 -0.118004041875800658 -0.146116649738338378)
(-0.442235832261683115 -0.132122312279432386 -0.179356948281229001)
(-0.4744466623717013 -0.134479540511700496 -0.229725425575999176)
(-0.567123164270312841 -0.117902019885259723 -0.296941244662350834)
(-0.726167405599657978 -0.0935294442893543354 -0.391409014729936666)
(-0.724103312377691544 -0.149554865980297158 -0.499328554965334459)
(-0.268380153078204398 -0.368755973977421603 -0.431080620408141213)
(0.0619471594335048725 -0.157535537945732468 -0.108658963159249417)
(-0.0975596108038574994 0.299784292784003481 0.529993005023309482)
(-0.264233496017630132 0.180265343207352796 -0.0638412659162289342)
(-0.464326811959482277 0.0901000795672405319 -0.0872016400714328288)
(-0.484946064168349067 0.0340605613448221184 -0.0570158747390299009)
(-0.464008089937561041 -0.0193153105296087688 -0.0449588945736342019)
(-0.442644562174440759 -0.0336369935025822853 -0.0504195315149035886)
(-0.45178743477439598 -0.0429821238989758006 -0.0516584582524931973)
(-0.543940391752737007 -0.0673022141567621995 -0.0177535974096306622)
(-0.703614853194778456 -0.0924535142422333311 -0.0174769104616361928)
(-0.875191568012208321 -0.106670737400729077 -0.0751884285552905235)
(-0.974114808812834077 -0.101224472180554276 -0.167065537470814124)
(-1.07650301199852771 -0.0943080541844279474 -0.285537159441535959)
(-1.11408656143706941 -0.185354333792184467 -0.404266395525432753)
(-0.823838275537523201 -0.494080340310364297 -0.502449527622632175)
(-0.417082513433057578 -0.726440639114525166 -0.453237950089820152)
(-0.114454076938306282 -0.149263100018650563 -0.135322063842638313)
(-0.0272916787542157452 0.309506025973634635 0.735286850934690928)
(0.182964811910182823 0.323348215404269501 0.187100172736242382)
(-0.140987267643491399 0.127736278849686163 -0.0638309830123616612)
(-0.284688229936266968 -0.0164042833892413843 -0.0579447417539786236)
(-0.2435958472028949 -0.037676099475624461 -0.0881533399724001437)
(-0.241334319690214322 -0.0212717739446497411 -0.106551929394216094)
(-0.250442219171596536 0.0218133880740294453 -0.0638865476776920294)
(-0.415774159004801191 0.00285557468043105139 0.100994370388910251)
(-0.597125531665998022 -0.0314003161416473789 0.183472202838286191)
(-0.729596972919440478 -0.0720921177146750247 0.151441787293740387)
(-0.842439880578725209 -0.105550492882135402 0.0771098123143204861)
(-0.917195753248022605 -0.168157419365541044 -0.0526858336673301231)
(-0.861464811632124183 -0.369200959896767988 -0.225801278753745172)
(-0.62326126997737874 -0.74993014938587288 -0.399447808204189347)
(-0.429954658289436742 -0.935462560306483004 -0.433981531057344772)
(-0.328238581121960693 -0.337177248256491813 -0.216453799487347193)
(-0.0298798464053389654 0.188985026508688009 0.820166481507905054)
(0.463763955445948284 0.324705633467227583 0.345978733646698566)
(0.122369595766893061 0.217034807944161134 -0.0439784083450985297)
(-0.223745691663622015 -0.0333722114840131895 -0.0543370914725376103)
(-0.296952226624721038 -0.0550956262492190291 -0.0957214006528467332)
(-0.403530743855902485 -0.0823144602701657985 -0.119058078240238535)
(-0.407004513836398019 -0.0366688705961187786 -0.0691145478222871396)
(-0.356143075487833138 0.00447186636369956841 0.0868049184190836237)
(-0.313736580462395664 -0.0104862105157026118 0.30220568392963959)
(-0.4112263260719074 -0.0377991164905070939 0.418456899540892657)
(-0.514191009965801138 -0.0517357385785536944 0.405430075363425957)
(-0.584813463751523765 -0.0986744136120438903 0.29297669887469302)
(-0.569946729287529874 -0.334764416582415847 0.0866189764143032032)
(-0.486579649410768533 -0.792106852566955788 -0.21971072390522739)
(-0.410947924920687102 -1.03442750614431267 -0.376336553021635767)
(-0.398546446575751778 -0.607738343386950763 -0.271201640708448821)
(-0.11492544693616305 0.0564188023819061635 0.831449157412199935)
(0.430574922855463393 0.214503712265426583 0.409478710676024149)
(0.366493658967612823 0.305736078742133932 -0.0134381963757745568)
(-0.0709556970812164761 -0.0162793599031208353 -0.0650909893163526126)
(-0.05294315480045092 0.0250720817681371125 -0.130387583850387734)
(-0.27464986710239514 0.029490391427311257 -0.190339724983921765)
(-0.475868046529524968 -0.0385280214360199658 -0.18947281450240791)
(-0.426973432053825874 -0.141736425466783 -0.107746968299844134)
(-0.359344996301763142 -0.133672468480341755 0.135612869616336673)
(-0.340583340619563413 -0.081739119577180358 0.434362736559204377)
(-0.426137093724145877 -0.0437048536894470291 0.526372051389857654)
(-0.520376437506652523 -0.0393085684583674433 0.479539776854865873)
(-0.485811785282294795 -0.273604765301634967 0.379148191019315794)
(-0.413443057384450308 -0.689713112757547098 0.056463569694845249)
(-0.39580353090105147 -1.01554520178189245 -0.320803868406051296)
(-0.457494833688188218 -0.840843408592030439 -0.350163729816564517)
(-0.173926706727664138 -0.0472124130475844866 0.796309978015791176)
(0.37894201618013551 0.0474351669704825632 0.51792042649222636)
(0.469029790231046018 0.285594480382997062 0.0542897239332459786)
(0.309527002348880254 0.0935873443873200817 -0.0762653052717132268)
(-0.0493860892362954357 -0.0330059851385045358 -0.0399952028562612777)
(-0.110011433824715205 0.0761254216255393829 -0.138832167833063791)
(-0.284805797854850107 0.0373026767450010815 -0.249374777341004827)
(-0.358135293941869715 -0.172154466639667797 -0.239140379229871025)
(-0.341198189269694196 -0.255929362246795578 -0.0644204155501731379)
(-0.33395334027286494 -0.192467845257444009 0.298832918548762039)
(-0.349497565692878653 -0.0884336334815915281 0.489540981820192511)
(-0.434497743432953887 -0.0430672745151491829 0.536238440600914856)
(-0.475323884051918555 -0.29752642557155079 0.52007233722854973)
(-0.42382139802077895 -0.628615294822545856 0.288901517410473485)
(-0.426769514296378549 -0.942313113905131172 -0.198582297275127717)
(-0.528728642256307557 -0.927551008108719488 -0.441339205054469053)
(-0.0207351144688957163 0.00728564711157544519 -0.0273581887150664491)
(-0.0419499117335930954 0.00269523581137380563 -0.0317529171840614868)
(-0.0484324759434192342 -0.000564229213579489457 -0.0349765765254241925)
(-0.0454397461431646915 -0.00246364070188222857 -0.0392756161288264974)
(-0.0403114833951424278 -0.00283055145643102204 -0.0446881202755388396)
(-0.036321620549164553 -0.00271411985792698995 -0.0512299626157744978)
(-0.0293334464181809161 -0.00310580023796860156 -0.059064336853443776)
(-0.01862446526790024 -0.0039050119899271549 -0.0686658258815322498)
(-0.00322115511689750108 -0.00476321733328956536 -0.0798890404683262889)
(0.0163790630076765045 -0.00558517190258988466 -0.0945779560091833255)
(0.0387671969089880414 -0.00635309765890437837 -0.112666218344294203)
(0.0637001371498640834 -0.00760954789405201767 -0.13562222468226845)
(0.0905053866734724377 -0.00786802847932910679 -0.164407720883639363)
(0.109493948140439473 -0.0114305436832419487 -0.205012315475781803)
(0.14380645886110513 -0.0209261316366589761 -0.251250675310595917)
(0.162712068105934332 0.00636044115543814292 -0.286935524351384696)
(-0.0192989501881996386 0.019901721133977885 -0.0278131502198088153)
(-0.0368969337129016681 0.00703406497763735868 -0.0305570687040406519)
(-0.0435217714310097148 0.000484292519645678583 -0.0336846962971570144)
(-0.0484762480318679939 -0.00256175001811634025 -0.0384512103660076265)
(-0.0505143717586230209 -0.00378760165143180718 -0.044553563687040991)
(-0.048121373827341607 -0.005395088528691948 -0.051809932964310558)
(-0.0404828078603261879 -0.00835859967607997974 -0.0601842014079145907)
(-0.0277275844157532543 -0.0119794998247632328 -0.0699110380147747595)
(-0.0102751159390244706 -0.0155386030653418845 -0.0810860877964860172)
(0.0115467649707434224 -0.0186828190534536268 -0.0947951241908764758)
(0.0360842104129753677 -0.0215215106436030153 -0.111775412198135193)
(0.0643706074182230498 -0.0251125445974514604 -0.133273314638418156)
(0.0890766232119748341 -0.0269179155526191108 -0.159967596840003251)
(0.119223925189113747 -0.0342850922841955522 -0.19778489683664377)
(0.140444716102021694 -0.0544580150829624965 -0.231818393991248678)
(0.15399510949847145 0.022056954876103145 -0.312265078299650167)
(-0.0149286636207877303 0.0307229655642372 -0.026276549090012466)
(-0.0314813805724887125 0.0119241808486555776 -0.029845462326303869)
(-0.0412684415342461156 0.00308100766439638749 -0.0337201379808041782)
(-0.0484184212995572572 -0.00117725447428484531 -0.0388726200081198764)
(-0.0520097781540242166 -0.00463849540766742442 -0.0453285685194148996)
(-0.050765436022683616 -0.00925170588136259991 -0.0528803416827044737)
(-0.0436361411890556702 -0.0151523548857352922 -0.0614101049102600549)
(-0.0307840861481176037 -0.0214107026727731811 -0.0710823697966468104)
(-0.0128751784307828306 -0.0273810921996433566 -0.0821658609230609127)
(0.0094416048205181527 -0.0327961328693434709 -0.0956853427032524212)
(0.034086359450508405 -0.037482539507373458 -0.112668352519559034)
(0.0626946073366674572 -0.0428185815178980522 -0.134344299639829357)
(0.0849324707713599025 -0.0468842889435998195 -0.16119600891765451)
(0.120631724433433424 -0.0593136204782777343 -0.198430056371440955)
(0.134518512648129224 -0.0861328015275032166 -0.233941446810343873)
(0.141807679695524574 0.0340371578179203202 -0.304632238978459091)
(-0.0117383800910385999 0.0395300126087567219 -0.0247669611644446806)
(-0.0273773928817796497 0.0170495895517652138 -0.0296442060354375064)
(-0.039767378486968083 0.00642010978041130352 -0.0343261727421866752)
(-0.049540738629428191 0.000656177621063940377 -0.0399825148161469662)
(-0.0553009359322877009 -0.00486154086223322679 -0.0467993697809528861)
(-0.0554423385651869466 -0.0123099118286585305 -0.0546340219023362869)
(-0.0487120154458159302 -0.0214983725151832589 -0.0632408279467860657)
(-0.0355113054372481057 -0.0308078849169107008 -0.0727084791416561516)
(-0.0169639397259852415 -0.0392585886821139596 -0.083558288485320889)
(0.00597226281485076921 -0.0468342282572929425 -0.0967989240275912849)
(0.0309369937035164216 -0.0532183997150349267 -0.113743978150852978)
(0.0600755746557543463 -0.0598206327136903068 -0.135354547058749192)
(0.0798280253706512705 -0.0665233900943066198 -0.162187309161893584)
(0.121161965249903511 -0.0846642616507506385 -0.199014654124663043)
(0.113059400459931444 -0.110368564529933211 -0.237771528598775872)
(0.126266628584491614 0.0390879358776069288 -0.300639236222549011)
(-0.0091901054249957162 0.0464583724305871887 -0.0233158324983349062)
(-0.0233862987916140692 0.0224672973760668762 -0.0297425924292087258)
(-0.0382315212269672619 0.0110633046329573111 -0.0352250899517270316)
(-0.0508728482302246085 0.00397035412805575062 -0.0414033201589017741)
(-0.0590181290646643944 -0.00397834215846106301 -0.0485807976710339734)
(-0.0606374266235683024 -0.0148927629201575946 -0.0566339318658151403)
(-0.0542244260172314446 -0.0281576960940357161 -0.0651823102267523186)
(-0.0403933947745432551 -0.0408809334942435987 -0.0743183727082522005)
(-0.0210439399788797943 -0.0518285405257195853 -0.0848590469836190547)
(0.0025844868635364858 -0.0611134712726378038 -0.0978341648451394597)
(0.0284555935347669403 -0.0692487670784796006 -0.11455453353878868)
(0.0587167669352881699 -0.0766933410875545174 -0.135753491433599965)
(0.0767354791904940048 -0.085938317032928091 -0.16316525904366655)
(0.115211525300957074 -0.105184218505932153 -0.201709787993331918)
(0.0683914706395916394 -0.127996835165147649 -0.250082257958678555)
(0.103025375260359459 0.0330889385093955796 -0.302262657316209327)
(-0.00645533510927895609 0.0518234449946274045 -0.0220827776920325923)
(-0.0191015091920790532 0.0289495238487686921 -0.029520369735877558)
(-0.0367966401403929805 0.0173953381800094967 -0.0354992601431986798)
(-0.0527888704656971144 0.008499632531421452 -0.0421748975664796438)
(-0.0635591566848687506 -0.0024885224275228387 -0.0498003006968144729)
(-0.0667127184791162509 -0.0176029351156711637 -0.0582582266933895296)
(-0.0603145594046410743 -0.0356111281767394344 -0.0669745421823423059)
(-0.0452532745436576636 -0.0518276970521625718 -0.0759699653055952856)
(-0.024452551776655649 -0.0651756741225568564 -0.0863082355133597268)
(0.000667377920989848869 -0.0762295492455364182 -0.0989480713062176054)
(0.0288356367528448398 -0.0860503376391948405 -0.115200397389257234)
(0.0605384552033248133 -0.0933999319881206463 -0.136180638352320527)
(0.0768952611903274269 -0.101761567661500532 -0.165647202231228668)
(0.0957932530429424639 -0.112497200192975183 -0.209067628794879834)
(0.00372901488849446301 -0.136923235774971952 -0.274315147883967714)
(0.0681850137047268073 0.0137888877456621237 -0.312329671537514786)
(-0.00303277939568999226 0.0571692359053375745 -0.0210925658892991696)
(-0.0151656019515109819 0.037159054875941247 -0.028305946510247898)
(-0.036827508727330642 0.0257961721769015828 -0.0345787364924723742)
(-0.0566276417403214771 0.0144706171648344567 -0.041924167978134759)
(-0.0699429243973103965 -0.00039767109220850954 -0.0501314339270948622)
(-0.0743849692466287543 -0.0208030081965555058 -0.0595529496039820874)
(-0.0669011794295276685 -0.0449766421760630294 -0.0688093598183852351)
(-0.0493791841626569847 -0.0651680256152286919 -0.0780444892803395518)
(-0.0265540609676833544 -0.0807438596198079561 -0.0886941593071935985)
(0.00032369585484927875 -0.0932588159089159513 -0.101751310063994085)
(0.0306825973104043331 -0.104078347134669444 -0.11868438355645386)
(0.0616890549010652295 -0.10964773343948192 -0.140954617180908015)
(0.0751767191543101926 -0.109783624766567958 -0.173482937567403656)
(0.0596448938742608903 -0.101816115497306597 -0.223218492527377022)
(-0.0615696690616382575 -0.136170768395278224 -0.309104708447490772)
(0.00784842725636450932 -0.0292674964256394096 -0.307581059802968126)
(0.000523961689279492729 0.0639312488741937274 -0.0202908505850100396)
(-0.0132919922395567519 0.0513894875772483439 -0.0262796425526797134)
(-0.0404369150820337933 0.0408672456411283899 -0.0329061907746237975)
(-0.0634511980223947808 0.0250871556804917462 -0.0411091161220251897)
(-0.0783050258995247883 0.00378256781675186159 -0.0500526042379850003)
(-0.084119075828843759 -0.0241532487659253045 -0.0608634376938108276)
(-0.0759006362076111579 -0.0544198917310468044 -0.071117231315212498)
(-0.057941233423273758 -0.0775960741116335367 -0.0823922203715146267)
(-0.0357680882071785347 -0.0944554975125052598 -0.0959184816042203819)
(-0.0105619887033748371 -0.108287780541117248 -0.112459605205792706)
(0.0174812958754126391 -0.121128584173715748 -0.132927277645233932)
(0.0434559610861960308 -0.124846774923034518 -0.15826574206847685)
(0.0525885783276966584 -0.110975516182910183 -0.19225913878220291)
(0.00414196662232052884 -0.08736285433349264 -0.24598492664183072)
(-0.108762370941535652 -0.150030741648795096 -0.33633025215126966)
(-0.0490335858986338663 -0.119136887756329246 -0.303030663579407111)
(0.00201704668092702721 0.0478737825924566152 -0.0143722492197879623)
(-0.0148628303785840743 0.0411407962543637179 -0.0214069259955598223)
(-0.0460408862579751443 0.0363628370949715257 -0.0286026412835974873)
(-0.0724327821566901481 0.024015497307351228 -0.0370745819875852381)
(-0.0920001900487269764 0.0075229960758233334 -0.0486055010306527188)
(-0.102014553700038299 -0.0212846739269658969 -0.0619184104732400237)
(-0.104585681784520823 -0.0567134720413611237 -0.0774103120456425403)
(-0.0982915837491752653 -0.0816479719686501043 -0.0957889959478204767)
(-0.0845005947686931769 -0.101416196467506756 -0.115999396886817749)
(-0.0664929440607627265 -0.119167142768147299 -0.138929440385509251)
(-0.0473927822439999258 -0.136414894984127427 -0.164299660640090245)
(-0.0335403092282587773 -0.138288913985446932 -0.19232459870150978)
(-0.0385576834988921452 -0.111893123440442888 -0.225052741497438841)
(-0.0944523995702528513 -0.0877053824397019954 -0.275178512417426857)
(-0.13414437734971546 -0.169760852194550338 -0.351843144959420429)
(-0.0627433207100231843 -0.218602761768201898 -0.313269754031439196)
(-0.00915906907017565233 0.061850072527933557 0.0713388530788565955)
(-0.0571606387742244204 0.062120154602714632 0.0199284886602142282)
(-0.1252921425147204 0.0578182707495970144 0.00349583337451426016)
(-0.163050658375991753 0.0381903621455732742 -0.0221789087955166254)
(-0.177946934145613966 0.0133680296992835217 -0.0440982455266606052)
(-0.199998482506126118 -0.018757659587240641 -0.0665604408405579828)
(-0.230306405996951152 -0.0568504859708329618 -0.0939361547075003717)
(-0.234267276573247862 -0.0883304994541976723 -0.120059325372440059)
(-0.226309676592844705 -0.113229335010644666 -0.144959040696744645)
(-0.215376506064575091 -0.133723898505271749 -0.171496162022000909)
(-0.210799958171990653 -0.150140631893273785 -0.19958068875206797)
(-0.228817447441160227 -0.144867243067393958 -0.228831621314348366)
(-0.275327210614140228 -0.111198354879805214 -0.260296390368638553)
(-0.31733470031341815 -0.0767099223113580919 -0.302283240514367113)
(-0.16827197493587448 -0.183090914864655091 -0.355267992935578092)
(-0.0469089766729248597 -0.279935557799926737 -0.319876800587022447)
(-0.140148574464757009 0.172179236924379725 0.240905589680175558)
(-0.390657619786256904 0.138960915947756725 -0.0027106313705887973)
(-0.487209260955439427 0.0907840179058473917 -0.0382193003349663996)
(-0.5231311055492468 0.0386437675026919392 -0.0588778741991320687)