/*--------------------------------*- C++ -*----------------------------------*\
| =========                 |                                                 |
| \\      /  F ield         | OpenFOAM: The Open Source CFD Toolbox           |
|  \\    /   O peration     | Version:  2206                                  |
|   \\  /    A nd           | Website:  www.openfoam.com                      |
|    \\/     M anipulation  |                                                 |
\*---------------------------------------------------------------------------*/
FoamFile
{
    version     2.0;
    format      ascii;
    arch        "LSB;label=32;scalar=64";
    class       volVectorField;
    location    "0.570000000000000284";
    object      faceTraction;
}
// * * * * * * * * * * * * * * * * * * * * * * * * * * * * * * * * * * * * * //

dimensions      [1 -1 -2 0 0 0 0];

internalField   uniform (0 0 0);

boundaryField
{
    inlet
    {
        type            calculated;
        value           nonuniform List<vector> 0();
    }
    outlet
    {
        type            calculated;
        value           nonuniform List<vector> 0();
    }
    top
    {
        type            calculated;
        value           uniform (0 0 0);
    }
    bottom
    {
        type            calculated;
        value           nonuniform List<vector> 0();
    }
    left
    {
        type            calculated;
        value           uniform (0 0 0);
    }
    symmetry
    {
        type            symmetryPlane;
    }
    interface
    {
        type            calculated;
        value           nonuniform List<vector> 
67
(
(0.014081274890050675 -0.012649176042741855 -104.525004619765738)
(5.04247932970697686e-05 -0.00107134632829753774 -31.0988488706712047)
(0.00805355946877314884 -0.016929811116665635 -57.5663358189103178)
(0.000134161363093877873 -0.00102342245053026258 1.54694578258419591)
(0.000349190540253140654 -0.001804942579502238 -7.4300623668340684)
(0.00058561871004597036 -0.00294982989779739432 -23.5233243533926561)
(0.000798838761023146801 -0.00356571083901771786 -34.2031739471879845)
(-0.00010098362700854497 -0.000350468577976555931 3.94312347560088039)
(-3.91967000400768729e-05 -0.000921322801999728482 -1.37833540907686114)
(0.000291725979922975774 -0.00216851144476040876 -11.5414189208261124)
(0.000752114339092535208 -0.00292835053670358015 -18.7296599009959834)
(-2.71636392637379886 4.70906708420828571e-05 -4.16323755566561579e-05)
(-1.41144447533986694 -0.000270501233013683466 -0.000200938230011810792)
(2.58268374249667598 -0.00160599399895303943 -0.000726247389275287204)
(-2.7387753736092515 6.75922682874216426e-05 -2.12464649858076698e-05)
(-2.23985665011895607 -2.02296393347011713e-06 -4.11698940837867684e-05)
(0.956879983715501536 -0.00107195961875831925 -0.000404173148731429754)
(-2.82305691470614706 4.33336152502156627e-05 -1.91732854782050819e-05)
(-2.50149604099321632 3.17046578125005428e-05 -1.0734450772577308e-05)
(-0.86842385125831012 -0.000625303814667778563 -0.000219085514190070995)
(-3.00612832105596794 3.41979217727196949e-05 -1.71499002642298441e-05)
(-2.74237278834985343 3.6198617298711816e-05 -6.05858597558153846e-06)
(-1.36681074598702468 -0.000504092953468081328 -0.000125451481757903673)
(-3.19657819217308115 4.15534838831612891e-05 -1.15595504856843011e-05)
(-2.96156883538962168 2.73142465196931745e-05 -7.57074788321587603e-06)
(-1.67720769422363247 -0.000423779219699462395 -0.000137584123200519803)
(-3.28759306995270295 4.41803336189708625e-05 -7.34681311440362013e-06)
(-3.01663443932040432 2.8585527519463724e-05 -1.02035594437759762e-06)
(-1.5243472938919238 -0.00048806555682657447 -8.87433528623131134e-05)
(-3.31150685163310232 5.19901418441453248e-05 -3.61591563865804566e-06)
(-2.89340061107326285 4.58500637123889851e-05 5.06272084067427469e-06)
(-0.58190383442715321 -0.000938088963918361804 -6.19654600381621399e-05)
(-3.58249360174034859 4.13179374371854381e-05 8.87509542923253192e-06)
(-1.83977460033017803 -0.00023500727818858688 1.48132541451549148e-05)
(2.97125670951499821 -0.00209887226423880391 -6.3179193857473205e-05)
(0.011249762884631009 -216.545765174171265 -0.0191021946688024434)
(0.0104632199140038476 -253.326670517925919 -0.0164810726317869347)
(0.0105103305263716806 -265.692702781496052 -0.0132002037481919153)
(0.012059696047895108 -271.254909455125528 -0.0102804526459914173)
(0.0114246689366204485 -274.989646575559846 -0.00875409630387139794)
(0.0115632999174457261 -281.722341128666415 -0.00571775491329656708)
(0.0128368544710022545 -284.992343023415856 -0.00328343805486627349)
(0.0104072233659365694 -290.462564374063277 -0.00096987705321549436)
(0.000334116294791327658 -130.037745630520647 -0.0106364682632381757)
(-6.91716393310489143e-06 -180.46571686429877 -0.00970810106441467695)
(-0.000167402217388030436 -209.161333843684673 -0.00761586122695066467)
(0.00020253755143858398 -222.332496673728059 -0.00617244325672924431)
(0.000568882183885940592 -225.525529832131866 -0.00568558446487434262)
(-3.68074135144337561e-05 -217.992767470805973 -0.00361740561327360136)
(-0.00117775346497116132 -227.722990974014067 -0.0023245001788218863)
(-0.000946030756969895776 -266.513858652383362 -0.000867626419394241155)
(0.00323504976790087552 -70.9419884127279943 -0.00554844861658204767)
(0.00456119448119795927 -98.3600838655824106 -0.00375121438035747826)
(0.00468328366230336742 -110.65590362993035 -0.00269646578723330794)
(0.00482130640649234155 -115.155061556571724 -0.00201085253771140582)
(0.00467317730910865245 -114.807757566336974 -0.00173712872469725804)
(0.00422897657444794468 -113.287216074922853 -0.0013117695636736535)
(0.00465342132939507939 -123.976897208580056 -0.00104191617241302151)
(0.00610871638103517491 -149.29356600728886 -0.000419765833937640464)
(0.00123542095929706332 -36.2857968786465221 -0.00117693653329014334)
(0.00173104293785591155 -49.5602764530090312 -0.000875626201784934039)
(0.00197945673360736809 -55.5373098500720417 -0.000612251715301305021)
(0.00204858047130650374 -56.1200417036205152 -0.000463678632486436138)
(0.00207829109117422086 -56.9439268706420094 -0.000532677659187401776)
(0.00216459224301113673 -60.0294447797235762 -0.000587370363975274977)
(0.00227027386558958846 -65.7761193007767559 -0.000415291779731736404)
(0.00233469697202067688 -68.9033266334828483 -0.000134008010746846686)
)
;
    }
    procBoundary1to0
    {
        type            processor;
        value           uniform (0 0 0);
    }
    procBoundary1to2
    {
        type            processor;
        value           uniform (0 0 0);
    }
    procBoundary1to3
    {
        type            processor;
        value           uniform (0 0 0);
    }
}


// ************************************************************************* //
