/*--------------------------------*- C++ -*----------------------------------*\
| =========                 |                                                 |
| \\      /  F ield         | OpenFOAM: The Open Source CFD Toolbox           |
|  \\    /   O peration     | Version:  2206                                  |
|   \\  /    A nd           | Website:  www.openfoam.com                      |
|    \\/     M anipulation  |                                                 |
\*---------------------------------------------------------------------------*/
FoamFile
{
    version     2.0;
    format      ascii;
    arch        "LSB;label=32;scalar=64";
    class       surfaceVectorField;
    location    "0.930000000000000604";
    object      Uf;
}
// * * * * * * * * * * * * * * * * * * * * * * * * * * * * * * * * * * * * * //

dimensions      [0 1 -1 0 0 0 0];

internalField   nonuniform List<vector> 
20789
(
(-0.0289938147664513778 0.00461528175277959099 -0.0315198893777803094)
(-0.0178615043700131523 0.0127642592233788623 -0.0291292909447864526)
(-0.0193651127404260333 0.00694822640003521421 -0.0283655095051142461)
(-0.0181982843652307158 0.00702747704697865259 -0.0286092708507084612)
(-0.0398624579295854403 0.000744328152372207021 -0.0362063790942428604)
(-0.0344336627172558696 0.00412496173041438687 -0.0339051426426054126)
(-0.0384745631665049936 0.00236437310964503255 -0.0332723120350889023)
(-0.0358308380968348633 0.00269622164078342063 -0.0346834985874241927)
(-0.0400443906209809602 -0.00171804259991373081 -0.0407141971247050316)
(-0.0387359477046500533 -0.000655024236933141654 -0.0378008032343618225)
(-0.0436101690181168386 -0.000762907830148800239 -0.0370719956321712216)
(-0.0398862060333214641 -0.000369014576982840494 -0.0385438160287130197)
(-0.035397074951019257 -0.00273614629366281158 -0.0464841231482731806)
(-0.0381725877227992449 -0.00283144330900341563 -0.0430009103995130509)
(-0.0398318822085275345 -0.00253220233652432826 -0.0422018532517124539)
(-0.035036171813517189 -0.00228539865143976943 -0.0437337873844419744)
(-0.0300372675035513841 -0.00270250302340736652 -0.0535802862413902181)
(-0.0356880294812328622 -0.00303003502307304167 -0.0495596550701114663)
(-0.0343094294968768893 -0.00278750736183888985 -0.0486598757039987534)
(-0.027736975734416143 -0.00266813147232503826 -0.0499556293923407238)
(-0.0241631801199941078 -0.00257454837961328988 -0.0622339811777775156)
(-0.0326478070403932105 -0.00314433998165907858 -0.0577175786477349406)
(-0.03101184162419858 -0.00249815758182406851 -0.0565321008401592148)
(-0.0226062831110613802 -0.00237876405965659673 -0.0575993444882483344)
(-0.0159275604710440756 -0.0029907322177440852 -0.0727621012419764762)
(-0.0259662880812112466 -0.0042372612819550912 -0.0674958182246951921)
(-0.0252318122245801246 -0.0026885587451609236 -0.0658346215793920303)
(-0.0149245609212878983 -0.0025620316582950259 -0.0669886249598080075)
(-0.00251704745127972985 -0.00377395696452597447 -0.0855214915064416159)
(-0.0150721593838822991 -0.00644825703838085296 -0.0793004394553409458)
(-0.0159633016344585613 -0.00346990993656167519 -0.0773563664564496795)
(-0.00343203070704462942 -0.00322471505321851983 -0.0783324983069969422)
(0.0145747940793005092 -0.00471679596121540781 -0.101125435513452516)
(0.000921764188731636486 -0.00860746405006632825 -0.0932392190233358731)
(-0.00198994271746462739 -0.00433487817061306221 -0.0904586659125947157)
(0.0130931669515313813 -0.00407692984840639372 -0.0924809096352321447)
(0.0370751411184421578 -0.00575428307421051426 -0.119993815778570753)
(0.0223063666686622794 -0.0111535139467147035 -0.110252854451340421)
(0.0168368208392447385 -0.00536748439828379706 -0.107393162310181298)
(0.0350218001498007886 -0.00514677393544467517 -0.109699904063921189)
(0.0652476916582831745 -0.0068095043702821427 -0.144093858192251761)
(0.0477875802116631831 -0.013483742927058253 -0.130535308688826845)
(0.0392731825264727441 -0.00634380903884771731 -0.127691689429438315)
(0.0627870268712593105 -0.00606994058357663256 -0.129616903269549388)
(0.0953566187270651344 -0.00783250991713244603 -0.174023149528540477)
(0.0799576637750988445 -0.0159321886240984846 -0.157480769568453138)
(0.0672049038177659763 -0.00762872158939846383 -0.153695723492013159)
(0.0954788405456832717 -0.00738785237097240328 -0.15879660247903668)
(0.132353473724353021 -0.00954603618975637114 -0.220094772936633848)
(0.111646203270811428 -0.0182782675797819594 -0.189595666589489203)
(0.0947832768310395701 -0.00845515248378177382 -0.185851853273298923)
(0.139997365896532555 -0.00810571654900619706 -0.189522289105705177)
(0.158320765968990002 -0.0156014134929750616 -0.273466461134638072)
(0.147692406858250053 -0.0228273643657710898 -0.246342619929400902)
(0.12398588210150005 -0.0117331187928733649 -0.235703685992084522)
(0.170609407827624016 -0.0110454827341476269 -0.258276372146974353)
(0.212174313878943088 -0.00950663351282754997 -0.411587490619499397)
(0.203453293008464181 -0.0397824467216143993 -0.29817794850511109)
(0.169177608559138021 -0.0216881272481267047 -0.277698374140548654)
(0.302433997650001785 -0.0212477425489058791 -0.309393456344853879)
(0.148240163538172515 0.00389368748069796088 -0.53142366373064609)
(0.155789016465355451 0.00321151951543804937 -0.400835915671036713)
(0.294725755638403142 -0.00341511443323869309 -0.581647962459623136)
(-0.0246726194713435196 0.0120495347563719102 -0.0315145442096115558)
(-0.0146607752376619743 0.0234237133376105321 -0.0290031523376428277)
(-0.0173137894379719846 0.0187184786611849924 -0.0288571063451880383)
(-0.0161582591088991513 0.0190209645676933832 -0.0294696059357293233)
(-0.0337978881930695446 0.00235514096152343241 -0.0354995667827243677)
(-0.0285844004835762548 0.00720142846636951956 -0.0335254630679093085)
(-0.0329172373059710838 0.00579649679063607044 -0.0322542961228797914)
(-0.0303374071038162996 0.00666386064910174259 -0.0342128730228638128)
(-0.0379880127003420012 -0.00199454002790943425 -0.0400875165091698488)
(-0.0341389026528287134 0.000100251708440296457 -0.0376785132944237044)
(-0.0378227938377780071 -0.000413007484208450203 -0.036101255668533748)
(-0.0338514148894395045 0.000427728753885888227 -0.0383152663751011591)
(-0.0407769705271627952 -0.00341370042196491395 -0.0460764423213513297)
(-0.0384729398150969668 -0.00260393974352599641 -0.0430025498804095241)
(-0.0418055182291557359 -0.00286276170798177359 -0.0414570085935499072)
(-0.0363303989342430994 -0.00228230250193617226 -0.0434809842997057952)
(-0.0407610755724220133 -0.0039327230403103583 -0.0536969474764561958)
(-0.0407288737111855259 -0.00386052280849372891 -0.0498499853958557643)
(-0.043982580736602564 -0.00345021551618729817 -0.0483808175746601593)
(-0.037035070771897223 -0.00302310599814232519 -0.0500276082508694445)
(-0.0365846309849832615 -0.00524856740231866275 -0.062979415694652624)
(-0.0394282006776979291 -0.00566571735872195992 -0.0584638182876026299)
(-0.0426980850682374888 -0.00430836947083649766 -0.0569132991018244314)
(-0.0343471188711340358 -0.00370353749370356394 -0.0582437390830733495)
(-0.0272138566180404017 -0.00797654604420529843 -0.0740341564380596617)
(-0.033199124084235497 -0.00897013039889642781 -0.0686648823901313682)
(-0.0367709769831138303 -0.0066874119082514713 -0.0668826698784163176)
(-0.0269106705749187526 -0.00581350980838408419 -0.0680190202980543029)
(-0.0125332604436219647 -0.0114285699828171154 -0.0870181669722351753)
(-0.0218427282186925524 -0.013521207223110435 -0.0807665610325875583)
(-0.0260270020602500832 -0.0102290795417742421 -0.0786656977731032686)
(-0.0144436499264248962 -0.00904612202865919847 -0.0797623593054841845)
(0.00677825827352068321 -0.0151269029691592193 -0.102366637961223791)
(-0.00495504073931887085 -0.0182568456141174694 -0.0947254836743190443)
(-0.0102054069230700754 -0.0138972754014701685 -0.0918367485891888879)
(0.00353207066227290319 -0.012561587337890541 -0.0939698027717001672)
(0.0313733553760170009 -0.0188429363835633593 -0.120794347361596527)
(0.0175956767618945381 -0.0234528528067492262 -0.111427083889628603)
(0.010731127493739518 -0.0176666327103849365 -0.108034783914223914)
(0.0272950624157941892 -0.0163760493108599421 -0.110771159477591821)
(0.0606246901439529279 -0.0225889877422578642 -0.143922220065028222)
(0.0442761995458857555 -0.0281408072299336488 -0.131463612873568558)
(0.0353882962322072878 -0.0211551305929418391 -0.127517907496635691)
(0.0563446007531217125 -0.0198133032288672281 -0.130830833067963781)
(0.0935373572820892007 -0.0264049387867141168 -0.173053286629401892)
(0.0764499446309598457 -0.0334533497252273229 -0.157562431584010482)
(0.0649032835468753844 -0.025295438004146846 -0.152211762556693941)
(0.0910188672266454557 -0.0240480730972200997 -0.157998363834489397)
(0.130704154144985013 -0.0316277705301409653 -0.215843513582256202)
(0.10966109081093614 -0.038436350335332034 -0.189712618291420138)
(0.0945475575621491093 -0.0287120967373490354 -0.182884412523948325)
(0.134396096042121271 -0.0276013485685364379 -0.190163416450401274)
(0.163239581956397095 -0.0483563554591844164 -0.271054107299874003)
(0.145929652196983728 -0.0482242782185916541 -0.242721140877610958)
(0.127527087987877319 -0.0363991125239938804 -0.228639041469317267)
(0.172879746762191616 -0.0346207469764555423 -0.250512520562933605)
(0.208259220408074458 -0.027777469631564071 -0.418014121616257062)
(0.201764600418500278 -0.0818327769672442529 -0.299379645445347009)
(0.169176359392281705 -0.0611255512880859789 -0.270565139685263578)
(0.281542080235229253 -0.0635740931547426336 -0.314648431323224731)
(0.138709767722810767 0.00705301948954641707 -0.534050154147072131)
(0.148225633679048174 0.0115630633518805162 -0.416441440176800737)
(0.282519973210915709 -0.0105757358351735962 -0.595242173500910243)
(-0.0192613922738615641 0.0184817383864958121 -0.0310140711959405804)
(-0.0108398533979337987 0.0314837658596625949 -0.0279786036652025678)
(-0.0130094757255963187 0.0283886570982953799 -0.0275305635214747012)
(-0.0119386251398620798 0.0290393526415366546 -0.028531847431915322)
(-0.029580085561487314 0.00478706236661486425 -0.0357044095796086453)
(-0.0230031478783338308 0.0105821667444462898 -0.0332248367109447898)
(-0.0270027945085266896 0.0095841638309710226 -0.0319116214243516452)
(-0.0243424564792378527 0.0110030365701170255 -0.0343224441044318179)
(-0.0360397302623096036 -0.000808401578882785932 -0.0405935466656633867)
(-0.0311330074785635576 0.00173270569103332948 -0.0377652202489675501)
(-0.0348454933750583715 0.00149157764509366686 -0.0363091636414088689)
(-0.0306638990785965959 0.00281807524202449654 -0.0387861615718216035)
(-0.040634622370328978 -0.00321355001602666862 -0.0467760929549139587)
(-0.0379301075664544018 -0.00167331623198720245 -0.0434549256216609781)
(-0.0410757026253354487 -0.00166419216731943749 -0.0419537872000804932)
(-0.0353857993348699468 -0.00063751407651178513 -0.0441768086577164973)
(-0.0421204937168597471 -0.00550118816201709999 -0.0546168562070022123)
(-0.0421429689979993111 -0.00407242276972666351 -0.0506735195277198333)
(-0.0448732995285296282 -0.00383927074779162516 -0.0491479813204799623)
(-0.0376537271680186386 -0.00297427646586821345 -0.0508925097517145819)
(-0.0389996543011507865 -0.00915114471841266437 -0.0641492849830813811)
(-0.0423285582288426832 -0.00773584793124577636 -0.0597073015790458364)
(-0.0448868198728097356 -0.00715276575180024982 -0.0579610148716303217)
(-0.0362227412627142836 -0.00602832813251239288 -0.0593272646001608076)
(-0.0301776622591795919 -0.014347840374559195 -0.0753972869846592647)
(-0.0369729253478144129 -0.0134640939534296546 -0.0703164762528418613)
(-0.0397119219184870753 -0.0121780324728144301 -0.0681548250637787068)
(-0.0295826300108119646 -0.0104577699579221552 -0.0693011366515000338)
(-0.0152504912890441997 -0.0202267887974405952 -0.0884738777346714134)
(-0.025729904273015046 -0.0207648775532830246 -0.0825829261422561522)
(-0.0290891450427349652 -0.0183085233143881927 -0.0799813036222841167)
(-0.0173358243380985697 -0.0162067202488417536 -0.0812001901982282726)
(0.00422277298693554508 -0.026458599567944073 -0.103785929602723884)
(-0.00863642340142516465 -0.0279612939521355144 -0.0966039915676326771)
(-0.0130224859525368865 -0.0245114178364990581 -0.0932463872390144888)
(0.000766123696216556259 -0.0219885984897510087 -0.0953457793111162077)
(0.0290822452869420045 -0.0326645416600454888 -0.122096349401600607)
(0.0142863967935636244 -0.0359840324009096588 -0.113139276431734909)
(0.00828111085804169797 -0.0309161682681236387 -0.109207615701004707)
(0.0248317327489149149 -0.0283169813206424238 -0.112172665838576033)
(0.0584661719743137867 -0.0388635037814887979 -0.14510382439255079)
(0.0412128227569939082 -0.0429900538710902211 -0.132986178974143998)
(0.0330416371498124042 -0.0366969109903749965 -0.128608469536476422)
(0.0539591236281022624 -0.0341245969955941073 -0.132187897190366249)
(0.0906685232145500591 -0.0453038037971150859 -0.174221763246028838)
(0.0736454276649079337 -0.050615406499600786 -0.158866871008054744)
(0.0627366906816074904 -0.0433142881424497042 -0.15336481064052826)
(0.0889066744555829791 -0.0408142028042378299 -0.159064593056196552)
(0.126650846991862437 -0.0548044519227088578 -0.216590245586774893)
(0.104172544365361691 -0.0581281917076665322 -0.191006151490450915)
(0.08995116881715845 -0.0495414580713977246 -0.184044797664720788)
(0.129745901613882664 -0.0472294632311413623 -0.191444187084670508)
(0.16133111794111199 -0.0810308009116983557 -0.271046679023084103)
(0.144030440208917476 -0.0741765522658274917 -0.243012408588635043)
(0.126490340897228187 -0.0628998974139678146 -0.229250205125311357)
(0.170319789717232967 -0.0589879554887861174 -0.250327878242688096)
(0.194400757579175854 -0.0469816751823996515 -0.415415677976161968)
(0.187431249700390767 -0.116905194125884959 -0.299513671592779529)
(0.161745941619914457 -0.0984259647112453728 -0.271807861474645251)
(0.272447902032280642 -0.102503876496729679 -0.312557532763258539)
(0.124101614889332926 0.00475400408853266909 -0.528756676875020926)
(0.135095540031537287 0.0159670693849805756 -0.411219225595486459)
(0.267217324395451816 -0.0217468532689791376 -0.588618002651323691)
(-0.0148591293092872091 0.0237503262888243624 -0.0301893691802067772)
(-0.0076598172096558996 0.0374098136442849241 -0.0264698736555678896)
(-0.00971063078908130164 0.0357526399448677146 -0.0261831688314570626)
(-0.00864033832521735913 0.0370302772935611132 -0.0275393225710320391)
(-0.0256711363976657274 0.00766034139727293437 -0.0352856473803036946)
(-0.0177512974211698447 0.0143520516950125295 -0.0318250763421956268)
(-0.022122336933773537 0.0135084187092787654 -0.0314796921932306989)
(-0.0193716917409580344 0.0156743144992489702 -0.0335507037109713385)
(-0.0346959132403405132 0.00103826936764614451 -0.0406265992049651414)
(-0.0281769693602051743 0.00485997323701036973 -0.0369013225360648942)
(-0.0323291451484213344 0.00412024024881914048 -0.0364739239153250155)
(-0.0279764978368765016 0.00607263968538921707 -0.0382414041137440833)
(-0.0417047823385970629 -0.00238763994687707414 -0.0473523521944668527)
(-0.0378309434584409368 0.000698568168619082778 -0.0434179637630295601)
(-0.0412434542921905761 5.34339525687998551e-05 -0.0426493088975621326)
(-0.0352988500434326669 0.0015252319116163841 -0.0441355690524068145)
(-0.045180972629237634 -0.00626158938072399369 -0.0557639648997634504)
(-0.0444944944418510513 -0.00309136447824447666 -0.0514673326774582052)
(-0.0473496827727067776 -0.00357301379506388831 -0.0502967382324411572)
(-0.0397743669158261356 -0.00236372412570708124 -0.0514245309740065173)
(-0.0433447232553523798 -0.0121490342157423818 -0.0658744928488063375)
(-0.0464249216073372439 -0.00896538585493707185 -0.0612907120638955319)
(-0.0489866104419409351 -0.00909319989533042064 -0.0595961385926693787)
(-0.0398747484419685327 -0.0074799192780267967 -0.0604230616651115909)
(-0.035080257812123046 -0.0200336387030871713 -0.0775021154104387489)
(-0.0419974811536230896 -0.0176230212328780007 -0.0725680086713619971)
(-0.0446156861018463802 -0.0169538009054031429 -0.070110884769508372)
(-0.0341572001853372165 -0.0143670418837047748 -0.0710826911601322442)
(-0.0204817107609277654 -0.0287432910651093838 -0.0907130399752174299)
(-0.0307498859200285267 -0.0279366264440167635 -0.0850933107225153168)
(-0.0339762874221044356 -0.0260782605641447091 -0.0819178331418405209)
(-0.0220685474810942209 -0.0227361807041711016 -0.0832849687125299526)
(0.00050769451360620861 -0.0377053756902907058 -0.10595733839664373)
(-0.0132571563146752346 -0.0383950036283745855 -0.099100960646055905)
(-0.0175441778936875903 -0.0350836100998001624 -0.0952688164667726545)
(-0.00373107257379384338 -0.0311563927735423359 -0.0974790351444068115)
(0.0253040572832112856 -0.0464049934433429581 -0.1240291060042783)
(0.0101725164552817493 -0.048758792683041334 -0.115338945266118237)
(0.004247160207622982 -0.0440924661838865001 -0.110878316846796096)
(0.0207186214959800136 -0.0400814778134544261 -0.11438661667780381)
(0.0548763904345193482 -0.0548036620924246681 -0.146749225589647952)
(0.0374784947842895441 -0.0581645163287384248 -0.134809769426819825)
(0.0292616567096866988 -0.0520945209599325346 -0.13016390848088924)
(0.0500926081290376454 -0.0482896313236436669 -0.134226291319354901)
(0.0863030025895640818 -0.0634812659506721888 -0.175651259252476821)
(0.070381131205621561 -0.0675482580144321915 -0.160193056369075437)
(0.0591771947533391435 -0.0606701513296103723 -0.154774615193974174)
(0.0854189612861410014 -0.057105692694874706 -0.160705534939235645)
(0.121088939748812435 -0.0774876085422233907 -0.217428314492311092)
(0.0981003822031683709 -0.0774312096565539926 -0.192267254297529111)
(0.08361906578070194 -0.069639199688021472 -0.185316063850990448)
(0.123102213269151869 -0.0658054276939882693 -0.193001270509204126)
(0.153444214787320982 -0.110357810784175447 -0.271479401158330469)
(0.14059765480741318 -0.0987924984407504009 -0.243771279253461398)
(0.124501785057116704 -0.0895176477493470901 -0.229853482491113231)
(0.167514857128096467 -0.0840002630463635436 -0.250325172424356979)
(0.173062422072443184 -0.0661315496429981386 -0.412854670491638709)
(0.157421880695375077 -0.144669534319283088 -0.303239464192287866)
(0.142104517573484856 -0.129909955282518613 -0.273891611752876352)
(0.25032674490101775 -0.136121383942944707 -0.311981958084454669)
(0.10419657442451459 -0.00480068149814971441 -0.523915293090902456)
(0.119932140671643164 0.0135944983519750706 -0.407943551124329562)
(0.244774801168311656 -0.034735264293910488 -0.580886254022128679)
(-0.0105353822607644702 0.0281141740135438974 -0.0281055808175567391)
(-0.0043234793967326492 0.0415788480987186529 -0.0236718693594827577)
(-0.00682044135565845495 0.0409910927101666822 -0.0243868688692032362)
(-0.00575061017282457992 0.0430892513483126516 -0.0254137035850602461)
(-0.0215546111039120296 0.0116009439709091559 -0.0334407514979568193)
(-0.0119855759520689081 0.0191360257162820069 -0.0289139646084368915)
(-0.0170582595220016564 0.0177528252887723115 -0.0304210746217728305)
(-0.0142147795902742673 0.0206863673161562928 -0.0306480861744446546)
(-0.0332226711599346303 0.00465400465036351456 -0.0396926870941293197)
(-0.0249565165168067933 0.0101489429854955786 -0.0349951665597889663)
(-0.0295479217390620039 0.00824346829611340669 -0.0361396057222336392)
(-0.0249099298049948806 0.0106899240796593901 -0.0359332575687684175)
(-0.0430058587721534463 0.000191722018221083569 -0.0475329442460209195)
(-0.0379946269365549344 0.00513507587647921582 -0.0428625084138021389)
(-0.0414515098030991958 0.00345981516042733871 -0.0431526657289976467)
(-0.0351022773314058276 0.00528519067922616007 -0.0429757435538061575)
(-0.0487109298498488094 -0.00561216099556475015 -0.0569940798415902658)
(-0.0474395137967931965 -0.000478681890468317633 -0.0521749078632778446)
(-0.0501343936790909842 -0.00186825595013849531 -0.0515673844104917525)
(-0.0420705988025012814 -0.000279083590585865 -0.0514131635436230056)
(-0.0482707530071740248 -0.0143414910937932748 -0.0679842278864511984)
(-0.0512654398298367509 -0.00914157768999777041 -0.0631140332765638967)
(-0.053568739432474019 -0.0101087799766749059 -0.0615166284130305996)
(-0.0439378555289623163 -0.00779899293319138726 -0.0614778137982802952)
(-0.0403697430502678797 -0.0255549568747793637 -0.0801592039834385511)
(-0.0477165587012744752 -0.0214648243015690965 -0.0752321974406545135)
(-0.0500182827381849687 -0.0215822423697678567 -0.0724357399292284015)
(-0.0391795035571885775 -0.0178004787209129628 -0.0730963567326581992)
(-0.0254568552983333411 -0.0376566109782171185 -0.0934812313933537919)
(-0.0362248932652898328 -0.0353971586228747775 -0.0880775920130929535)
(-0.0392136031492111362 -0.0342268512582329654 -0.0842582651889376283)
(-0.0271815969394735915 -0.029124898656145471 -0.0859235337799295756)
(-0.00419494168533269922 -0.0495411685616872766 -0.108482567515530412)
(-0.0179492840821220898 -0.0492716312180769347 -0.101892862481614652)
(-0.0222406167063421735 -0.0463935158214207888 -0.0974061637690914472)
(-0.00847862553926274388 -0.0407063698864876949 -0.100259971928271449)
(0.021477455494256923 -0.0606334829401222741 -0.126119608688659762)
(0.00630668097174138381 -0.0622442657280024986 -0.11758047654700278)
(6.65819928870656067e-05 -0.0576635766049652873 -0.112785419472860554)
(0.0165043583225553958 -0.0521908502770056931 -0.116936437600398707)
(0.0515798304949144845 -0.0709547819471593733 -0.148253600206247255)
(0.034512058824122463 -0.0738668342513512516 -0.136422891161389642)
(0.0254978163647824538 -0.0678370196267203129 -0.131746541310183457)
(0.0462671617440393729 -0.0628363364218912923 -0.136393483186673381)
(0.0824510373854487333 -0.0815078458073497658 -0.176809051414127727)
(0.0684973577890657104 -0.0843486735479304084 -0.161053474056133378)
(0.0560202911009410401 -0.077891158200578306 -0.155876337949664212)
(0.0823652325690103493 -0.0733755978998191505 -0.162036083922593999)
(0.114768131247843921 -0.0986243826550586844 -0.218610219058679445)
(0.0936798248333231554 -0.095601501707522199 -0.193721467287401999)
(0.077938710537708164 -0.0895110835007049133 -0.186539404924275759)
(0.116890829982299105 -0.0841176638568678636 -0.1941536991589628)
(0.134873866816961341 -0.133417488990593386 -0.275531342287418657)
(0.132367330961214558 -0.117268250555625009 -0.246696324830395886)
(0.118889333268899611 -0.113113644217316206 -0.231643677798421155)
(0.163838647777871271 -0.10673631313105035 -0.25072346905466647)
(0.1366103503745488 -0.0856043986840999277 -0.414300086791552058)
(0.107301581962955167 -0.163222944287432836 -0.316474965741245728)
(0.103191923699216787 -0.153238714227355577 -0.282766160133450184)
(0.20912970152871016 -0.160483866118279916 -0.31832951228567602)
(0.0745375505541123196 -0.0267625582685065422 -0.518379855401377765)
(0.0968383616492917293 0.00100856233254087717 -0.408896622932761022)
(0.210666035131534451 -0.0516054416292875059 -0.574251863089773273)
(-0.00567938752692022548 0.03221681396392026 -0.0244802531503628962)
(-0.000137177287285938628 0.0444439196309709614 -0.0190018205968364544)
(-0.00344010558976629369 0.0444350793125289495 -0.021886766667055961)
(-0.00243183061747270302 0.0471903582787487133 -0.0212050699533322083)
(-0.017025632396895779 0.0172584898733990078 -0.0304683796702690177)
(-0.00570839077722119781 0.025427497995851988 -0.025447057799366693)
(-0.0113830597930364048 0.0231252530041506713 -0.0284553312054802443)
(-0.00808501368352831928 0.0262258383411730633 -0.0259580060569886313)
(-0.0315981943231445628 0.0103603297886792171 -0.0381649878794617925)
(-0.0219044297349185978 0.0177953476182782094 -0.0330183192271923803)
(-0.0265904971251414435 0.0143388978676571976 -0.0350232434843872134)
(-0.0210201380244531763 0.016770026075180744 -0.0326837972338906019)
(-0.0449670551959659506 0.00444726861556429126 -0.047504472031059071)
(-0.0390743553890449402 0.0119059048882760501 -0.0424756767098057042)
(-0.0420918106422522448 0.00853111231638851303 -0.0431076211741280163)
(-0.0347445757649894327 0.0105040635309873905 -0.0414493285470661083)
(-0.0531436343004778391 -0.00389197149365642838 -0.0582948612982514686)
(-0.0516066648886890217 0.00373664594433617677 -0.0530988757465410688)
(-0.0536660441418872064 0.000863419096259295492 -0.0525261823064741215)
(-0.0447451525684444962 0.00300233973816625395 -0.0513635757003160776)
(-0.0541514073531986773 -0.0161015162986465031 -0.0703620028307672118)
(-0.0573891819863145899 -0.00839786407800969734 -0.0652198325206632817)
(-0.0590167415765365036 -0.0107228230183041597 -0.0633641520644565026)
(-0.0487147011638045177 -0.0072406346808270702 -0.0627725914514632166)
(-0.046145420803495478 -0.0311636036484402128 -0.0831505854703089159)
(-0.0544090987483876604 -0.0253670429506047332 -0.0782044945090250715)
(-0.0561928772819945826 -0.0264740660748903588 -0.074883436065089945)
(-0.0449843037971806373 -0.0207424002967861211 -0.0755715557206025762)
(-0.0305102923995708326 -0.0468161874538363457 -0.0964892231013538271)
(-0.0419747713726738997 -0.0435240006585526917 -0.09111147161076881)
(-0.0449005736901238323 -0.0428407613894830203 -0.0867915486196466079)
(-0.0328897775592846484 -0.0354173493818151983 -0.0891474234783021097)
(-0.00850230979033769242 -0.061788492451975624 -0.110990771513086992)
(-0.0222251990891051965 -0.0608556529067315402 -0.104501603383553243)
(-0.0269445040363682706 -0.0580791016277753813 -0.0997750207773317882)
(-0.0134369240873774554 -0.0501083719784963105 -0.103380426830192509)
(0.0185825129410897953 -0.0754165511447142667 -0.127883759019732701)
(0.00353704511158048178 -0.0766187220829261384 -0.119469846791208367)
(-0.0035872679070393515 -0.0717779532139005 -0.114683044118349287)
(0.0125872883706156444 -0.0645645221925033458 -0.119356529794611782)
(0.0502218853109319061 -0.0872883813522635221 -0.14922276501127571)
(0.0336190280745800943 -0.0903879755380367911 -0.137864790417255134)
(0.0233385954210857186 -0.0840625336608226414 -0.133030000370240653)
(0.0436657021246538643 -0.0777986687617942679 -0.137948366982116433)
(0.0809984973516902906 -0.0984866036958885888 -0.177965889929407761)
(0.0687460756219240438 -0.100916635381371439 -0.162412972351183765)
(0.0552362959603521775 -0.0949299779732535182 -0.156567751766363783)
(0.081534835215432977 -0.0895636796368887989 -0.162346680460359771)
(0.106551009883171025 -0.114042553928365334 -0.221807573059118496)
(0.0910316980231136719 -0.110289154555741148 -0.197466907003460423)
(0.0748170340608186324 -0.107153436053547393 -0.188578612907308679)
(0.113461212181264801 -0.100836148421739283 -0.195240600957211796)
(0.102273933844043791 -0.146418057729332696 -0.287639948284222957)
(0.114540311601442263 -0.123677623354771143 -0.254554876671875596)
(0.103878747427311791 -0.127061945319761421 -0.237094152090287558)
(0.155182415674662455 -0.120714873612856641 -0.253714803538837685)
(0.0828848106760194381 -0.104501533414069245 -0.420554734351071657)
(0.0424455764735362853 -0.172091098465698061 -0.342372764806903429)
(0.0444928177384276841 -0.167432199736243625 -0.303197573190788772)
(0.147085754151633025 -0.170945143578469377 -0.338168731824895263)
(0.0333814410212554813 -0.0657465131961202237 -0.504676602549644193)
(0.0634894691972728714 -0.0230409318709829947 -0.412583736532149525)
(0.160667453007149491 -0.0766275617973303097 -0.564227093616707309)
(0.000870139395874641036 0.0377875115643394877 -0.0199686252458402547)
(0.00509993842020589182 0.0461149284897791056 -0.0136068569199531177)
(0.00084882003641508939 0.0482434283683210383 -0.0184527460488812384)
(0.00205733176237972958 0.0510839373595157464 -0.0143373525254506303)
(-0.0120659000884689623 0.0255486219081950856 -0.0279969973562900487)
(0.000180683416926603245 0.0330761184594418264 -0.0231113467285879517)
(-0.0056622335409230503 0.0307636725975177633 -0.0258411767509233517)
(-0.000805803463084879914 0.033227060032823795 -0.0220426818475549652)
(-0.0313739075214241464 0.0187852861942055249 -0.037329008057536292)
(-0.0201961497120442882 0.0275869991023902118 -0.0322068755418162614)
(-0.024561408506694294 0.0231907560767149051 -0.0333762461246821518)
(-0.0166682898354637565 0.0251696622519355998 -0.0309555850906761167)
(-0.0484650676747886699 0.0106055620349759048 -0.048070080425287709)
(-0.0419557724465464341 0.0203271242483424909 -0.0430562973515876343)
(-0.044301369059885895 0.0157317949602630743 -0.0428601476025003147)
(-0.0348442733171843502 0.0178953092823475185 -0.0412097928782929127)
(-0.0591501735140027782 -0.0013324950616986405 -0.0600238469689528958)
(-0.0573049831346471861 0.00889573348138683086 -0.0545955245546746876)
(-0.0588480821837764345 0.00461906778937293695 -0.0532696133634747715)
(-0.0484073878589396794 0.00761119982948318691 -0.0524492974349035634)
(-0.0614094515939581226 -0.0182477110447368113 -0.0730623241989211414)
(-0.065094584276274306 -0.00732685007081086172 -0.0676602732872854523)
(-0.0660835646446864822 -0.0111881099486657778 -0.0651961153704709445)
(-0.0548315062645838153 -0.00602850259788098412 -0.0650623976725393377)
(-0.0521440202453905335 -0.0383743397283882737 -0.0861653806494849517)
(-0.0620180066961717319 -0.030237635461211311 -0.0812007654381162319)
(-0.0634094752242331527 -0.0326249243631053232 -0.0774990960498919967)
(-0.0519649872960026571 -0.0241955120429825157 -0.0790044370346830171)
(-0.0346360603304364939 -0.0580398454335697839 -0.0991238518929682261)
(-0.0480717928702099478 -0.0529768880239182977 -0.0937590260756608895)
(-0.050586851372132445 -0.0534756275228905689 -0.0893669639245909253)
(-0.0389016280202681211 -0.0433257337529831393 -0.0927101662158224954)
(-0.0113751156093751075 -0.0760846913173009454 -0.112980678661674591)
(-0.0267827116238314698 -0.0733042301929392182 -0.107025620986807984)
(-0.0307847025811074718 -0.071852967957826655 -0.102107333551335513)
(-0.017732319635325882 -0.0614441954581739294 -0.106328089427935993)
(0.017800256184073715 -0.0919127204265317854 -0.129450878188730828)
(0.000296456770000053365 -0.0917246775118932128 -0.122434999727276408)