/*--------------------------------*- C++ -*----------------------------------*\
| =========                 |                                                 |
| \\      /  F ield         | OpenFOAM: The Open Source CFD Toolbox           |
|  \\    /   O peration     | Version:  2206                                  |
|   \\  /    A nd           | Website:  www.openfoam.com                      |
|    \\/     M anipulation  |                                                 |
\*---------------------------------------------------------------------------*/
FoamFile
{
    version     2.0;
    format      ascii;
    arch        "LSB;label=32;scalar=64";
    class       volScalarField;
    location    "0.960000000000000631";
    object      alpha.water;
}
// * * * * * * * * * * * * * * * * * * * * * * * * * * * * * * * * * * * * * //

dimensions      [0 0 0 0 0 0 0];

internalField   nonuniform List<scalar> 
7248
(
-6.4776100592082242e-06
0.013366128552886495
3.21163138500893356e-07
6.68447629298916263e-06
1.8954319909618292e-07
7.93306613012263287e-08
1.07445313218503998e-07
1.37239417844273082e-07
4.57837041683304961e-07
1.62939499785021279e-07
3.6655195659821625e-08
4.85263495322521471e-08
6.25207429394910122e-08
1.1159249066256361e-05
1.50747264852875587e-08
1.31634192772887337e-08
3.50891786377700443e-08
3.98051302737747002e-08
9.99408498510687842e-09
8.04279571910449627e-09
2.78332333407430442e-08
2.11261156145502762e-08
6.94084489389607108e-08
2.09049417436334759e-09
1.48247223302420552e-10
8.45289607975260677e-09
7.39585770628959334e-09
4.33752773364270327e-10
1.15538840335039554e-10
3.36010593903186318e-08
2.20051877801464469e-10
4.27992172653010116e-12
1.79357876827203938e-11
1.30335326338420774e-10
2.33485569473195044e-32
1.10942573417278151e-12
4.52892823011887995e-12
2.27859345588406029e-11
5.2676031483109169e-10
9.83069036282465359e-14
4.49486131938786354e-12
9.63465524234665734e-12
3.33086566924227761e-11
6.93738363004034876e-10
2.56569098566877551e-13
3.27460929429844065e-12
1.61545833897052307e-12
1.89135245157038928e-11
2.71002237959307374e-10
4.46401936775049933e-14
4.38361420064377042e-14
2.39617325007042408e-13
1.7053877138959374e-11
1.55361139490656487e-10
-2.50629136104382452e-19
6.19973475432562569e-17
5.26813954451392849e-16
1.09174584339663212e-15
1.47739114109454771e-13
7.39458771946377326e-12
6.28403165669111549e-11
-7.72309406871669392e-20
-6.79514122386459502e-21
3.16843622449569557e-18
1.88713790369456099e-16
1.19512672097618882e-14
5.02218256079619532e-13
1.93767255820081709e-11
-7.70918800196180338e-21
-2.28736933655397019e-21
4.53409442924799339e-25
5.25705254525532981e-20
1.39987116540015698e-17
2.73303846534858002e-14
1.14665506913529296e-12
-6.89807610190086169e-22
-1.13394729955231285e-22
-2.16869845824257359e-25
-1.71480375468170942e-26
-2.78440791629666288e-24
-3.38779334555802284e-22
-4.79926065317140468e-22
1.5708254967724091e-05
0.0190652525780180201
8.57939775408878226e-06
6.85372116982207189e-06
1.54541374271546762e-05
6.74068868501839997e-05
9.68542607769165044e-05
2.98990039848086441e-05
1.16205374287659416e-06
4.71719510047203572e-07
1.12794661429419883e-07
2.48068776761203553e-08
2.00189579008490515e-08
5.93780030346087984e-09
1.43221875620959728e-07
3.04994024319634797e-08
5.73957382171002213e-09
2.80820482464912546e-09
1.36141942717672978e-09
4.93257203913325613e-08
1.30270592849399714e-08
1.61211324809004755e-09
2.85201376146947835e-10
3.78448066540627701e-10
7.00421173888921361e-08
1.56590740416407967e-08
2.10433580226119633e-10
4.89105537396155427e-11
3.34890417862216256e-10
5.43152688295576067e-09
2.31862141700422202e-09
1.7077679114407048e-10
2.5561072093176505e-11
3.89265674638917472e-10
7.0969854217731127e-10
4.4976333114631646e-10
7.6934928739651114e-11
1.5866812481691098e-11
6.87667330088552436e-10
0
5.61798430255867335e-15
7.03216642997705676e-12
5.08950926054454924e-12
7.30424085523456586e-10
2.57460719030107576e-13
1.1403850550373903e-12
3.22319146910880813e-12
3.90094715919292084e-12
3.69362034121458732e-10
2.44424176195103187e-13
1.13086015998169892e-13
1.6835879468150575e-12
6.14660782320484455e-12
6.95431824466150929e-11
1.25481134884588755e-15
1.21514682998928649e-15
2.93524087449916074e-13
2.99005075023263828e-12
6.58525486532534566e-12
2.69972744234628181e-18
3.10122497211684718e-17
1.97818934629374483e-16
2.72261191633647719e-14
1.88089326506838524e-12
-5.30977057566778675e-30
6.57763194392226785e-22
3.25572313010080198e-19
1.50162254471090463e-15
1.61611280508221305e-13
-3.9117800184024332e-25
-2.75198130575284218e-28
-4.3781886193885004e-25
-1.05575073053727062e-21
-1.01863870457571657e-21
3.71517930059990598e-05
0.0217086386711414399
1.62896118228286597e-05
6.17350952566477686e-06
3.0258167741446195e-05
0.000295913351352960043
0.000277741836142117319
8.44361318877488937e-05
1.53635797422412411e-07
1.60165736845414962e-06
4.47686565388546706e-07
1.06316534400963866e-07
2.55557192827037648e-08
6.26512735133586385e-09
4.47687934905557607e-07
1.24409067792865684e-07
2.40709361661676649e-08
7.3027489357695482e-09
1.87237759036166189e-09
1.03830606979634752e-06
1.03744372166025186e-07
4.55909118540179556e-09
2.41746715468942363e-09
8.05329706559806807e-10
2.77078038666361094e-06
1.64526088102139999e-07
1.70174505038965146e-10
5.76910598545581265e-10
2.18561999340501574e-10
3.24362426302990788e-11
1.30010797319396978e-09
1.31793224407882015e-11
1.02049292772043885e-11
2.08628999681885541e-10
1.54888202574992893e-11
1.53645537495771356e-11
8.33743638155737211e-12
8.88860929211550466e-12
4.32561104169533582e-10
7.46503483116321198e-14
3.14469658600173475e-13
8.43602861845037701e-12
7.24075643828610017e-12
5.36572224015441064e-10
5.16323065293768911e-13
1.47077527532160364e-12
4.27435742053015276e-12
8.77698042792383332e-12
2.9086802874388174e-10
3.43921077624142673e-13
1.58451501346749627e-13
2.21239403391307217e-12
1.3320088160398295e-11
2.76474316464092106e-11
1.61574617325862877e-15
1.46008430791853081e-15
7.45256769207782319e-13
6.76483832285653181e-12
1.19005313027709964e-12
-2.63045368799466563e-18
3.79754627280891283e-17
2.42165540609437778e-17
9.32841286470867005e-16
1.82805562724587835e-13
-6.10404203674285849e-19
-1.06975322653163615e-25
4.13513281910198229e-21
1.23742037247564658e-18
2.16327412552758129e-15
-1.75110379442168262e-23
-8.64284821109219082e-28
-2.92757707025694237e-25
-2.69298996579379449e-24
-1.51595530104319227e-21
5.42215171190539864e-05
0.0232443617771743091
1.89041375762238817e-05
5.07710934781620368e-06
6.85404607686727462e-05
0.000209880374902386387
0.000260620627892956197
0.000200595048256409746
9.67956094804836372e-07
1.69503724855862311e-05
4.45225610252258876e-05
3.37699226687877081e-05
3.70264928526533591e-07
2.68463518707609511e-08
1.76371603775026387e-06
4.24322770514283009e-07
1.95603928651887739e-07
3.50906905076160524e-08
6.68925048441491388e-09
6.57542187510736695e-06
6.86775034227887648e-08
1.19590608142135897e-07
1.04991907342864549e-07
1.35979821696624559e-08
9.19381726033198906e-08
1.08332447218289947e-07
2.95549080723862307e-07
2.87853357115715528e-07
8.01420971740007754e-08
1.41493105068314168e-11
2.78847136109535454e-12
1.76537399428856496e-11
2.57953020738384742e-11
4.04851733762415888e-11
1.25937409112344115e-13
6.89254710636388344e-13
1.27798108944914399e-11
3.35286003971552024e-11
2.29172783329104669e-10
2.11005984298392524e-13
1.02624092347120928e-12
6.34726307107809276e-11
7.08227299631464217e-11
3.20497969031574249e-10
1.00463228861779004e-12
2.00196070456719665e-12
2.2242396057290509e-12
4.83492442858737194e-12
2.34459341059849346e-10
3.39140798048625262e-13
1.83878801822241967e-13
1.02692531631627335e-12
8.07974665079528757e-12
4.77271994460546814e-11
3.24504035995060577e-15
3.23711448030450804e-15
3.10817714345363181e-13
6.38865660588100537e-12
4.07456332945918433e-13
2.14810165030310443e-17
3.22246161371576936e-16
5.61518286070505784e-17
5.97620229772533308e-17
1.01247609567636144e-14
-1.14591657706910469e-19
-2.32166137303636788e-20
-6.4927676187054476e-25
1.55931534614989104e-20
3.41693910949035622e-18
-1.30264424328186738e-24
-5.68397591809394389e-26
-1.12477513555041086e-25
-3.93265935976899911e-25
-2.4393154757155826e-25
2.20795370275200857e-05
0.023631433320863357
1.11243885830008194e-05
4.10318556602155138e-06
4.47433703112458484e-05
5.59751885962098282e-05
6.29488930446466769e-05
6.68636479580153272e-05
1.65155571982941507e-05
8.10249024758858945e-06
4.12204235839941759e-05
6.06679588902544646e-05
2.56228612673149634e-05
4.61395782200861318e-08
7.33803559414401088e-07
6.18730455605627014e-07
4.08898254893937749e-07
2.9581283539538735e-08
1.06347723365331654e-08
1.07881711940248218e-07
7.46419686212169553e-09
2.13358523917992214e-08
2.46027132236617826e-08
1.1517271926484317e-08
3.00932117691332053e-09
4.76131980136961236e-09
2.22330781408887666e-08
4.59741950794178269e-08
3.54917888749789429e-08
9.85768919769925783e-12
9.48010813904786719e-12
2.63476019344557658e-11
3.79668807204294724e-11
4.88406223207149194e-11
1.07759025677980027e-10
1.61380690194685475e-11
5.21881326825664263e-11
1.71056805587341519e-10
3.5814945849893377e-10
9.92849254395292571e-13
9.76577290506884804e-12
8.1678430450625374e-11
6.70727337236716267e-11
2.94432418709877327e-10
1.23512163685897262e-12
5.15216520889457529e-12
5.95227011428091754e-12
1.61044718068898759e-11
2.48804493905667734e-10
1.57210537700630023e-13
7.78912043682073728e-14
1.0583496154310824e-12
2.52332892257249699e-11
7.52992787082220605e-11
1.08456320510936475e-15
1.17585212196310117e-14
6.79937806842665695e-13
1.84157244173363323e-11
2.68182146052258275e-12
7.30289998996928679e-17
6.02103135035549119e-15
2.49043326110961562e-15
2.06930174434168229e-18
2.15253701482878737e-16
-1.20424214671351789e-20
-3.47934873419406349e-21
-3.02442019613836705e-30
1.20274083985853918e-22
4.53101453083099681e-20
-6.19612160597134301e-22
-1.2680315145992059e-22
-1.39009616802395329e-23
-5.59331169521900169e-31
4.17953546959034157e-37
1.26222739358545998e-05
0.0226183367195778133
7.05130973458067125e-06
3.53000217149542324e-06
3.76391276702391843e-05
3.58160551757008382e-05
1.99393010469924325e-05
3.73299080209337095e-06
2.03666623879672517e-06
5.68080754585060773e-05
4.38298655562793907e-05
2.25074271283399736e-05
2.26767524770190106e-06
4.65837890232192884e-08
1.15411859219451369e-05
1.77657522318959866e-07
3.45707918678411208e-08
5.23001823565821222e-09
2.86740160551192705e-09
3.99807003400858503e-09
6.40096694203921951e-10
3.05639302106765095e-10
1.10102911791628559e-09
1.02656683543042733e-09
-8.29454743193342321e-11
1.12180613147169453e-11
2.09597370489551865e-11
1.25515110834212143e-10
7.06497922705546927e-10
3.91569712832871244e-12
1.15626346834718011e-11
2.39921740605937529e-11
2.00042037945508458e-10
6.87986029495505145e-10
9.53745415081266526e-12
1.44687535699029904e-11
1.23887950043614485e-10
5.39725046265707425e-10
6.47567564266732074e-10
1.35470303976650983e-12
2.58940942602073866e-11
4.54298146893478182e-11
1.88281143287534122e-10
2.0684848484150665e-10
9.64411604691335297e-13
2.08475448933942187e-11
1.10701421569066156e-11
4.59100234803150824e-11
7.62276501076489798e-11
1.07348344102360609e-13
8.05340252401796076e-14
3.12745914294424267e-13
2.38780993776542463e-11
3.80785827435377971e-11
1.66281580762550228e-15
3.22418084421083407e-14
2.54761992566571577e-13
3.6822667200147589e-12
1.4196363285362166e-12
1.29119523748657707e-16
5.17233900761219469e-15
2.28474806506759427e-14
1.82294001997497969e-15
4.77095400922088919e-18
-6.44243099654381049e-22
-2.37387845259071469e-22
1.12091226953785403e-38
5.82395819666854921e-37
7.30141441138804428e-34
-2.88888217981475268e-23
-6.72547332215572973e-24
-1.2699383736755155e-24
-1.4140219434137641e-22
-7.66241681874285428e-20
2.98582551617615533e-05
0.0220264737213005796
1.10460766177644474e-05
4.13750888810765433e-06
0.000122618708155489202
0.000118741592830032576
0.000109488341664702856
1.29204245044585675e-05
1.86291973393849757e-06
0.00012703405402506371
0.000116165255975082707
3.50163691922582179e-05
8.10844438738906523e-07
1.36249631812187313e-07
9.66324487236708838e-05
1.34073404813597139e-05
1.26227351155728793e-07
1.94643173132041369e-08
3.49247044001936216e-09
3.40745652594855973e-07
-8.7213950586245492e-10
-2.73168543245492256e-10
-4.98811245908482666e-10
3.29877103834064349e-10
-5.94973820555209223e-12
7.9513571483529353e-12
1.82455499219945595e-11
1.7341334906269976e-10
3.33523366299824893e-10
7.94645204558665772e-13
6.89759725553493209e-12
2.39271329384389774e-11
2.3186816927798218e-10
6.3062397480574125e-10
1.17095600392193996e-12
1.82805471303954362e-11
1.25530655218889905e-10
6.05294852442115495e-10
6.41669521165468997e-10
5.03091422366144045e-12
4.1887600600371819e-11
6.22122157306860165e-11
2.52029690674962755e-10
2.36981834061756068e-10
2.64214772991363611e-12
2.33871887255695796e-11
1.35643296404613664e-11
3.68422887405297354e-11
3.38359836864590286e-11
6.56262763570375577e-14
1.53221957399006525e-13
6.03204933417234322e-13
1.14789933006574091e-11
1.18268570682471353e-11
1.3756038293995962e-15
2.92621055331494145e-14
2.78723340591146591e-13
5.69895194595323835e-13
9.0953148870910189e-13
9.0076807461902169e-17
1.40889767505745773e-14
9.70255131718677569e-15
7.5390878112285917e-16
1.35716180022948615e-13
-1.73289721547995085e-23
-7.85304841200154539e-24
-1.15115834628145722e-24
0
0
-4.84857648598253688e-25
-1.33094552159409953e-25
-1.22599028415505977e-25
-2.30593638712161119e-23
-2.89873069755616655e-20
5.18380316777198826e-05
0.0224403368253352359
3.54284604239408764e-05
8.11694359137270254e-06
2.82962437115598897e-05
3.0384206342686975e-05
8.16101915921942306e-05
8.45233755074635334e-05
1.64888555074666824e-05
2.97645245661290003e-05
0.00010322590887823106
9.44261398320840156e-05
8.73200243350524439e-05
2.51791539810559949e-05
9.75584610668401469e-05
9.73791689277202455e-05
7.9068214461768842e-05
3.17024809106738042e-06
3.32320441993620984e-08
9.10582489439729201e-05
1.92563649766764854e-05
6.37371543662948896e-09
3.98803145582831106e-10
-1.19236744549870862e-09
6.59271795799030129e-11
-1.52773034496302073e-10
1.82342103685727448e-11
6.00240243954716254e-11
2.34180905154549041e-10
4.84411357559148527e-14
1.04691455303276647e-12
1.63424222950422198e-11
7.68255028617508258e-11
3.2310632187221266e-10
1.73180613420914227e-14
1.11923816598087895e-12
3.82230288063880205e-11
3.37189287918867958e-10
6.35479501487081325e-10
6.10911394842566513e-13
1.7268999980095078e-11
9.53516821378574692e-11
3.72234095582179857e-10
3.66799541431486853e-10
8.74617793692093825e-13
1.86138511621951102e-11
8.46752998234175215e-12
1.51073200474777878e-10
6.19857252797623494e-11
1.53395457341809706e-13
7.81665276067444611e-14
1.40738950805240398e-13
5.61592803537674001e-12
1.00329868729996318e-13
1.81888785547708281e-15
5.24538100643861631e-15
6.2661214436082514e-14
3.69278691085314081e-15
9.69321320443478081e-14
4.88814730633551534e-17
6.38586328727166283e-16
3.36531658338482845e-15
5.6617013125301716e-16
-1.86916208931534612e-31
-2.17635536487078474e-25
-1.08198398762191157e-25
-7.93422453370440795e-26
-1.3768656362748837e-24
-1.20232873444654443e-20
-3.46255967165818858e-27
-1.04735647655325228e-27
-8.37395814736994692e-27
-6.23773172067074527e-25
-2.1762247721898587e-21
4.21272985370968412e-06
1.16913108622533213e-05
2.35986836434521004e-06
2.23383224535148826e-06
3.17232059210315769e-05
1.39596356636160602e-05
2.98957321569927998e-06
1.53349194961554152e-06
5.64729769662111425e-07
2.5296448415997608e-05
2.4008794698907454e-05
3.96379675014034185e-06
1.61943635435592881e-06
4.84504872056398281e-07
1.84053183717301056e-09
1.04565195311318668e-09
1.73577046956874496e-09
6.0894449952987455e-07
1.20257246598912812e-06
6.26995372322534313e-10
9.64615685404337706e-10
1.76676128171116715e-09
1.57398219275551456e-07
7.6209292587126374e-07
1.09944705442547294e-10
1.16622192489333291e-09
3.94641246252053774e-10
3.49945727798228864e-10
3.39290594811780363e-10
1.40834162758117841e-11
1.9620030310425701e-11
6.10212571586838939e-11
9.10597005564590923e-10
7.23370917036956244e-10
1.06870255608396052e-11
2.21481963011331712e-11
1.3555797920540828e-10
3.59023264121129733e-10
3.08359992468143078e-10
1.19247461090767213e-11
7.49696032913219911e-12
5.07644742930391739e-11
3.29299792490716341e-11
7.26105195326227767e-11
-5.80193438145719648e-14
-7.89860190338284794e-14
2.57498804090059139e-13
8.53090152226569269e-12
1.9078659658556177e-10
-5.29306250213050024e-14
4.90076984334165758e-15
1.24433882101709168e-12
1.49323242192417344e-11
2.48843311922087434e-10
-1.17056198045734953e-16
-1.37443305261551327e-15
-7.05217099594884524e-15
1.61287237257187359e-14
5.39160770017311922e-13
1.39879994753081743e-11
2.24135470254079766e-10
-3.28090917352040952e-19
-9.51162631882621115e-23
5.01503757266015058e-17
5.15085795608187049e-15
2.42298043058221613e-13
6.23387079615914518e-12
1.04414996554020132e-10
-1.09779399516488258e-22
-2.12789152060646878e-23
1.66011723326650335e-19
8.29084327105107116e-17
1.7547360046656901e-14
5.65704183346467142e-13
9.38347027695272135e-12
0
-7.33796482922395436e-25
-1.07391000816897047e-21
-1.03659988782956932e-19
2.96935094939498875e-17
1.6779207398841671e-14
9.72382615083139485e-13
2.55209889807604166e-06
4.08832605313211496e-06
1.74562238980033059e-06
5.6794848449252489e-07
8.3366552449747408e-05
8.3358478542731087e-05
4.92106947195589101e-05
1.80686810752675883e-06
1.96899206790069824e-07
3.38680514033557567e-09
1.50946009866203037e-07
1.93208284576329825e-09
1.47495073204505651e-06
3.92251665528172834e-07
9.00667419888540863e-10
6.48227483192020798e-10
1.40295090653600264e-09
1.93208682593478059e-09
1.32848821853975851e-07
2.75631011922759941e-10
5.08048741664661268e-10
1.40968208044534473e-09
7.47364756763055961e-09
8.95193327961020033e-08
6.08455518263309809e-11
4.73275313734929471e-10
2.7553549002102171e-11
2.29030470505297886e-09
2.46554431854803204e-09
-1.79509681543626451e-27
1.26033837672644716e-11
1.88620381821819517e-11
3.58106943250164405e-09
8.38441460956392678e-10
0
1.4665872264337266e-11
8.81531603228069909e-11
2.63458655997147158e-11
5.7091718686003904e-11
-1.52436594844624177e-12
5.83965841710407161e-12
5.82908080497979282e-11
5.35890872520926125e-11
4.80224684954734719e-10
-7.36629804228643303e-15
3.28353708487322824e-14
3.51948504330980314e-12
9.93642153395234589e-11
1.39142934689058819e-09
-1.30237378808753986e-15
2.83002453667297225e-13
1.85902170714630458e-12
5.80405511814294291e-11
1.15550207607590145e-09
-2.60335878271065444e-17
-3.30184213116815868e-16
2.19128029228059195e-31
5.92472091940560758e-14
4.25574906993661359e-12
1.29268807463232103e-10
2.24260307062675963e-09
-1.109970950527462e-19
-6.36802702869095042e-22
1.71318982563003709e-16
3.09184802908942683e-14
1.68897950969517681e-12
4.6899003536321537e-11
8.07868627762165238e-10
-3.52916418341437052e-23
-9.16491131912598683e-22
7.80050729351597932e-19
3.79913572313316601e-16
5.928612559030251e-14
2.20440794033881673e-12
7.81158809878125837e-11
0
-3.18074560721479806e-24
-6.15027923197102105e-21
-2.04370976458851504e-19
6.48633887418460641e-17
9.6602342013092675e-14
2.57303558026089008e-12
0.000105770165918754686
0.000268207426638705662
2.66164136096098488e-06
6.47973534766715913e-07
9.68950168427475828e-09
2.4644018568312215e-05
5.09163084410302428e-05
1.97081618102225035e-05
3.5998533490709887e-08
9.00641866050348606e-10
1.20325762895942605e-09
4.53393053556084471e-08
3.52629431415710019e-09
1.37210339574259587e-08
3.16748636665612056e-10
9.42903225715808514e-10
1.20325827792489401e-09
1.75503129096208534e-09
3.52629432452803759e-09
1.25481511147113932e-10
2.64382738154945929e-09
5.34709572091641131e-09
3.52629432450754129e-09
6.05884622673638534e-09
-2.6294578152510319e-26
3.74877652385725627e-09
6.3393794066805868e-09
1.32284438381791766e-08
1.43745170673354032e-08
-2.03935728427258779e-10
3.75155139384373659e-10
1.83859036898712659e-09
6.84696376093242683e-09
4.03596540044992448e-09
-8.31953542115619761e-11
-2.64517877313716594e-11
-1.43778192833341258e-17
1.1082547450562066e-12
1.5007357711886015e-11
-4.02436544284751298e-12
3.02922587604868522e-30
1.20520708802901501e-11
4.16256790753299258e-11
1.34152991548978042e-09
-1.43016520020389925e-15
2.07467630922194361e-13
2.0217236042242233e-11
3.20141245556821496e-10
4.99201018630689275e-09
1.36787650064093731e-14
8.45878193042837916e-13
7.1880734765570141e-12
2.81557997107618481e-10
5.86866441114804136e-09
-4.91137455485237689e-18
-4.90166607677798332e-18
-3.6193311465009647e-19
2.76663474228323127e-13
1.98413787863179065e-11
5.94058149879793021e-10
9.92210923871834537e-09
-1.44824913991586482e-20
-2.43164959186320939e-22
7.54821894476062805e-16
1.36876013992839937e-13
7.33017262556543041e-12
2.07042940345185269e-10
3.46523868113859864e-09
-3.33668505753136908e-24
-1.04029395087029522e-21
8.45890441642043114e-18
1.84452846109518141e-15
1.62421222348922163e-13
1.00705859249808556e-11
3.55915212601852218e-10
0
-5.86444729478751455e-23
-2.95467060895248098e-20
-1.51735305255443518e-19
-1.11912577296553618e-16
1.82411156341834555e-13
1.04882734706803886e-11
4.05218375161040561e-05
0.000155351205228049152
3.17389642350476097e-06
9.59781924823551474e-07
2.1965506169382713e-09
1.00936075614908395e-05
5.04540699868394864e-05
3.10601222561038924e-05
1.92912976633014132e-07
4.99247967986733236e-10
8.36487567264228548e-10
1.54351402997095101e-09
3.10067222845333688e-09
5.33184391301946342e-07
3.43409683165293703e-10
7.35765510813633968e-10
8.80089949249219228e-10
1.26577175129268056e-08
1.57695307766013808e-08
1.57964614288692707e-10
2.71725347008107285e-10
4.36231904853602886e-08
2.25983979732503978e-07
1.92822046088299333e-07
2.6718726842800109e-09
5.75547441172933954e-10
1.10217868251311855e-07
1.69891952768817271e-07
1.16707465659006608e-07
8.0749234253660807e-09
2.39837899807571228e-08
3.02511621563222261e-10
2.14987349225967746e-11
1.29628793012216905e-10
-9.0910995364828822e-11
-3.46852700530744624e-11
-7.53720746579172257e-22
1.22845792462554362e-13
2.14945109093546061e-11
-5.14960292398789349e-12
-4.61174894918346713e-13
1.62504892305596159e-11
9.2966455969436322e-11
1.88810009217802519e-09
1.20372831612881711e-13
1.00477015084568379e-12
3.19087993874598332e-11
5.10426091556239529e-10
8.39907764455738358e-09
2.19418691749402527e-14
1.14088263619756978e-12
1.04849237489815091e-11
4.43220842391918436e-10
9.29763690927674455e-09
-5.74215204189372996e-19
3.66622683936068722e-17
3.50383682936962925e-17
3.89699573374686226e-13
3.0743893363269123e-11
9.54103191762212949e-10
1.58680935673326593e-08
-2.35624716499866014e-21
-8.14019259607034276e-24
9.22242286110285788e-16
1.96979203656507598e-13
1.15493418853423656e-11
3.34633342149876224e-10
5.60666126990681089e-09
-2.08972251357053113e-22
-1.25013403902248746e-22
1.56206925143026062e-17
2.4591918355705749e-15
2.48870851260852025e-13
1.55688292905631169e-11
5.65929138964884094e-10
0
4.04304157625166419e-23
-2.5840804052925535e-21
-2.29234709502439131e-19
-2.08524391953504683e-16
2.68282263125447233e-13
1.58045682833485701e-11
4.39472960212010865e-05
0.000105625353513097043
1.17875049698202658e-05
1.11757025821734231e-05
1.2441111805753504e-08
3.09650231225572769e-09
2.93190250305530409e-05
1.98134193991331947e-05
5.6449483322882471e-08
1.92845700045042058e-09
1.54351381556276356e-09
3.09685224479980046e-09
6.51390117991400951e-09
4.03609450229454332e-08
6.18446839673515488e-11
5.68416783071513019e-10
5.73560997615016275e-08
3.54224028360200104e-08
1.50740723509340116e-08
1.53069553529359243e-11
5.73955044048487714e-09
2.49382175206437946e-07
2.62232838714853202e-07
2.19797424368428279e-07
2.28595469968299298e-11
3.0146279203204293e-08
2.15201665243278e-07
2.01694037631147841e-07
3.30744586799995615e-08
1.49204826864391553e-08
8.31807663567777058e-09
1.20412151236386476e-12
2.3752246800367572e-11
7.82996627580599554e-11
-4.68759557757603273e-11
-1.76428702342375767e-11
-5.91562880776355054e-24
1.20397878333970661e-12
2.3734717176354455e-11
-2.1538482399186393e-12
9.86529464582565583e-14
3.55427765171050394e-11
1.60089327642358135e-10
1.87480054518932637e-09
2.69033034518960174e-13
1.42209939796816434e-12
2.85665536528773613e-11
5.32871036256698282e-10
8.59893990403519429e-09
1.39885648537268505e-14
1.25539755548092366e-12
6.93406879760181789e-12
3.34752409140780501e-10
7.69114097236878053e-09
-7.5386356999772136e-21
1.55985839595932915e-17
6.28327035061619658e-15
2.18464908460393547e-13
2.17826074468100288e-11
7.47154112290002435e-10
1.31920180060962044e-08
-4.07763352282459553e-22
3.16096561083392976e-18
3.59651810940539832e-16
1.230940832172725e-13
7.98328081188722027e-12
2.52521188331555404e-10
4.43018196636693464e-09
-2.71184468769301116e-23
-8.06048921724470126e-24
7.7960664576405651e-18
1.40228811199251681e-15
1.4285060798795929e-13
9.77732253263513113e-12
3.71900194228817052e-10
-4.32809526075147314e-26
1.97958257649861039e-24
-2.72339002521703365e-24
-5.15519476894704244e-19
-1.32653839201683556e-16
1.6013393879449305e-13
1.00232289082415842e-11
0.000535516627042368319
0.000832921903444369801
1.08243943282516465e-05
1.27360481029559681e-05
7.02079731942147985e-09
6.26758804463836133e-09
4.30578496372392953e-06
6.97871497655527149e-06
3.73841559741260193e-07
2.13684141881281255e-09
3.09660411856264505e-09
1.35679412395861031e-06
2.61694077998337232e-06
5.64494839807914899e-08
7.36958983417346373e-11
1.76404800206489711e-08
2.77960663542665745e-07
2.09938286915535746e-07
4.31339568151511289e-06
1.76306406393284182e-11
1.56533701459628735e-07
3.00467215750381246e-07
6.53043078313223809e-08
4.42183000606608789e-09
-3.41241855475124623e-16
1.24180067018100852e-07
2.09026141334429615e-07
8.19706265512702376e-08
1.12896193069854949e-10
1.26354387186559598e-08
-1.30640404454145004e-20
4.733833484682927e-13
2.34544722121103478e-11
5.78044340172025236e-11
-1.40146630214201817e-11
-1.91930680624844924e-12
-2.27193343123038094e-23
1.9482434602732831e-10
2.19400518045390155e-10
4.91870029028875381e-13
5.68188504513416266e-12
8.89184797394392539e-12
3.59370955002564658e-10
1.70700878429017434e-09
1.3225548780421286e-12
9.80879116960708424e-13
8.77985684665431525e-12
3.95952051748013161e-10
6.514027502172523e-09
9.69552111297723286e-15
6.49865196042936266e-13
2.12618331500464799e-12
1.37970326949645565e-10
3.85025781163179312e-09
7.54294571745714201e-19
1.26739221644693452e-17
3.60849536774375231e-15
4.9076709167306313e-14
7.98949108383936101e-12
3.35159340463019533e-10
6.68744291645826987e-09
6.20256320437549612e-22
2.13105045639003858e-18
5.95626947536446394e-16
3.69258084864379481e-14
3.01086295988949922e-12
1.06711835741436781e-10
2.06900999406337735e-09
-5.94176034434779926e-24
1.88322670113292114e-26
1.47385723526495611e-18
3.3092941913737788e-16
3.41096276404384711e-14
2.68395689938924509e-12
1.16998025599122084e-10
-9.58737318345704188e-25
-3.169796656644705e-26
-1.18749382462030678e-25
-7.11123418797157286e-22
-6.23776612571242689e-17
-1.71343935190425797e-15
3.12491207441515003e-12
0.000224944942980147722
0.000589862373434345754
1.11578009359148522e-05
3.77431714905544986e-05
1.67022681954301935e-08
1.03391738601243044e-08
2.5271767330694846e-08
1.88465199505744023e-06
4.73798009902491559e-06
5.65406732504304118e-10
4.72978482805593157e-09
1.033410312318822e-08
5.24424230593191343e-06
2.0153942783192391e-05
3.63594501722111422e-11
5.724812030706443e-10
5.08146365678616563e-09
7.32269115011996409e-06
9.17623619920842774e-06
-1.82946238916863755e-14
8.64924658846129111e-08
3.58943355522201269e-07
5.32350803456101606e-09
1.48398026202435022e-09
9.87084697955514255e-10
1.70927280027940218e-07
1.25136304715047328e-07
7.89933531122838734e-10
6.5440509821346429e-11
3.44935551943593382e-10
4.60913723183563706e-10
1.58146136854022166e-12
2.77119177565677406e-11
3.5072474048985256e-11
-4.37869275207176499e-13
-1.16411765527405821e-31
7.30242183153556628e-13
2.59247307012143722e-10
9.90420912833889758e-11
2.51435354114460676e-12
8.8738752443963718e-12
1.58266446731004003e-11
3.54773193663339328e-10
9.13552833463514833e-10
6.69327577540712262e-13
5.91064801997558635e-13
3.72026584939646137e-12
2.62966904264727569e-10
3.16749696061451803e-09
6.48876385079336949e-15
1.35451937377914247e-13
6.95053133475986914e-12
3.59029017645265225e-11
1.1285598172481921e-09
9.10532327734652061e-19
3.20146870067330062e-17
7.44637546487714019e-16
8.96328643380806991e-14
1.60025984306979379e-12
8.76673196375120946e-11
2.12731836397896228e-09
-7.12668858985068322e-21
5.39409673689863314e-20
1.70531297242683084e-16
8.88377131147165488e-15
6.31085521932683458e-13
2.74952444610115269e-11
6.1623969407170578e-10
-5.96721730621222358e-25
1.94275336081319296e-22
1.19275739683456849e-19
3.75705303836733447e-17
2.29900735146475955e-14
3.84721976329933839e-13
1.94397780380386831e-11
-5.69196781054632041e-26
-2.30651072067942217e-29
-6.12488563213806816e-26
-2.77254033911802988e-23
-1.86945079538838033e-18
-6.20870953390814566e-16
4.10655937810840546e-13
1.30114539959814418e-05
2.79984009661058332e-05
6.55222117318172326e-07
1.4418159204710499e-05
6.75750288101640815e-08
2.56133405432578239e-08
7.90071046198323675e-08
1.02215518128384895e-07
2.26218581341648345e-05
3.44439548770852955e-07
1.03314070650904709e-08
8.39635783581540127e-08
2.22717587981007308e-07
2.70176524757844399e-05
5.61800532820231092e-10
5.05108433979756718e-09
2.0261603850836138e-07
5.11666267318619148e-06
5.08626498070412338e-07
3.55082261420338378e-11
4.28249641318395431e-08
1.45154273934400043e-07
5.09618644123326341e-07
5.09311459026428617e-08
1.39376863818003812e-10
1.70910144181459954e-07
9.60306603690048003e-08
1.8182756733124726e-11
3.23020708354577569e-11
1.95896332244160712e-13
2.80440987293753146e-11
5.70399608820420989e-12
1.04909402943652141e-11
2.32950416903444082e-11
2.86479140935190807e-12
5.85486586212417011e-12
7.96798466106202931e-12
1.33101682192862549e-10
1.44724432155310596e-10
4.10225969388339818e-12
1.38184458933873599e-11
1.37656425335163048e-11
2.11722940858109656e-10
6.34439112721020033e-10