/*--------------------------------*- C++ -*----------------------------------*\
| =========                 |                                                 |
| \\      /  F ield         | OpenFOAM: The Open Source CFD Toolbox           |
|  \\    /   O peration     | Version:  2206                                  |
|   \\  /    A nd           | Website:  www.openfoam.com                      |
|    \\/     M anipulation  |                                                 |
\*---------------------------------------------------------------------------*/
FoamFile
{
    version     2.0;
    format      ascii;
    arch        "LSB;label=32;scalar=64";
    class       volScalarField;
    location    "0.960000000000000631";
    object      p_rgh;
}
// * * * * * * * * * * * * * * * * * * * * * * * * * * * * * * * * * * * * * //

dimensions      [1 -1 -2 0 0 0 0];

internalField   nonuniform List<scalar> 
7248
(
1.37802422588348072
30.2705002384008814
1.44912504077718052
1.44234323196030645
1.24912689782602682
1.32410880328119918
1.42530898956434715
1.52745597837209135
1.61504781076172632
1.2281376124258363
1.29665667018123854
1.37681918817824123
1.46428918893760218
1.58942243333399347
1.16933911010789626
1.23116111807861195
1.29936260098450407
1.37331317917930673
1.44981245666806013
1.08795394184039163
1.1415175678843823
1.19837931786808349
1.25807655130701934
1.31790485497805521
0.995804604310127739
1.04031810161401439
1.08586596908267308
1.1314098530546437
1.17531093687886234
0.895717064799567586
0.930859624824625698
0.965564101678603848
0.998266874622516065
1.0269973268751369
0.791549923448448434
0.818573822131044571
0.843768449689439759
0.865351861084754259
0.88085151037681364
0.686152008208561037
0.706467409559627169
0.724313440932806141
0.737720810868810473
0.743843757235201131
0.580845144226150634
0.596330890136400948
0.609513734952949138
0.618659186791306603
0.621164767866868583
0.476032160429495255
0.488298014592949747
0.499103562902712794
0.507357075198044072
0.511382083518763353
0.351310646730769671
0.36126595450325022
0.371325588377610538
0.38125050630519508
0.390760386163541529
0.399500603209590632
0.406858202145147896
0.251598186971353832
0.258683432488887977
0.266066631106315732
0.27374195321173056
0.281757386230928553
0.290254899885947049
0.299261506705254809
0.1509462977952713
0.155201753756134986
0.159795194428404952
0.164843436288052425
0.170394871487283689
0.177006335923253127
0.184841427146058113
0.0495484725296518047
0.0508792566172644803
0.0524105555758525368
0.0542340736250893837
0.0564645082579740276
0.0593451440622356427
0.0630252169066946311
1.27857574187246303
44.2454748372504056
1.43796133031424178
1.52992489153210376
1.27748002955840523
1.47840134190106354
1.65362188597716031
1.55398985062247963
1.53780664448789595
1.2137980798910486
1.26943934928185365
1.3404760231014281
1.42287261629286843
1.51218623410146935
1.15625762260744303
1.21291347785436932
1.27511191168712523
1.34346568985519665
1.41552286110478698
1.07676422962155582
1.1268312252036401
1.17981294521355684
1.23521606125433725
1.29142355893742011
0.987179288542552102
1.0291623056913819
1.07200112972395112
1.11451398009760938
1.15526740539880413
0.888277972106967795
0.922100275909977118
0.955064356632749245
0.98590131499627498
1.01294756333514169
0.785630322138319737
0.811755739860827163
0.836049147726189656
0.856933097407172384
0.872323594457037443
0.681479886806330537
0.701255377229888843
0.718721592020026168
0.732179222724580137
0.739294195955988775
0.577084834537749836
0.592152324127546037
0.605059339361197268
0.6143060003095836
0.617763046579568154
0.472889325800489813
0.484656249196375621
0.494929811830426059
0.502688894599265024
0.506449480989290768
0.368648655250757296
0.377940090074292634
0.38657580008881065
0.394075357002348248
0.399713270224926309
0.263881682509006121
0.27088281673192588
0.277892182630912421
0.2848401171083349
0.291535429872755658
0.158226684327920031
0.162697895491608235
0.167478875916842546
0.172738740185704787
0.178594667584333011
0.0516021725671234194
0.0531347546222286915
0.0549554868558655915
0.0572078773497004325
0.0600337282619830964
1.33057799329551418
50.1373469319088017
1.41860758678644139
1.54356369534206661
1.31038827069976849
2.11908805409682621
2.1459387010112736
1.67892519177643962
1.50187329889085608
1.21087136687221708
1.25022338658515419
1.31507429522286645
1.3966445552634601
1.48667674418439821
1.14957684504265978
1.19999491798006663
1.25748534488159103
1.32163952865633316
1.39003678906075079
1.07256894194693553
1.11610574721831091
1.1654661308741856
1.21747789362097603
1.27097668212290338
0.991386848783190611
1.02056909614603941
1.06075591329049668
1.1009604562053017
1.13957136221201094
0.882095051584835921
0.914752904147400292
0.946353829489146148
0.975847532895934955
1.00189600544967305
0.780533800254758159
0.805919584760688923
0.829534279510628303
0.849989505940735746
0.865555054686547698
0.677384854785713086
0.696701344858982052
0.713864882888755603
0.727411885578863826
0.735427648171122716
0.573702328071934664
0.588384865480253816
0.601028630604416025
0.610321136233941686
0.614486959563125601
0.469999421778208915
0.481295707940404216
0.491064766031736044
0.498343383774549342
0.501797638888793252
0.366149760321608675
0.374848718779878354
0.382690395533793803
0.389117328560203701
0.393323759929708028
0.26182146576835541
0.268195687788372217
0.274292824156111892
0.279900567195659811
0.284672365314315501
0.156737015015385478
0.160682703917426201
0.164699657379687503
0.168800462496293269
0.172957361808893761
0.0508142351903751108
0.0520601100766794958
0.0534735012444852165
0.0551300189799731402
0.0571301825697775253
1.349230526946265
53.2254350552586928
1.38826117983486097
1.47963151813209426
1.43355331642153505
1.87587387599069277
2.09356988998381421
2.0023210213527971
1.48858409970711758
1.26250459553754801
1.39464830204722179
1.42005454808037102
1.38444680004896892
1.46857080201817092
1.15161727436154582
1.19314167298032725
1.24600189648517556
1.30652158995446555
1.37220384097932202
1.08686723599972579
1.10679478095806627
1.15511218322407538
1.20512410237598377
1.25612524849395202
0.973136137723369488
1.01378245591016469
1.05401378256899214
1.09231937828592285
1.12833903088773702
0.877286999640122578
0.90903096058743349
0.939555348978565519
0.968057081427021848
0.993510313607159912
0.776318987784574865
0.801129778221652655
0.824239602439043373
0.844449145772042886
0.86031317565578358
0.673909390717218115
0.692860081467221889
0.709794928357238564
0.723447014806047561
0.732223926454574681
0.570785368315167907
0.585135430674381007
0.597550454124532671
0.606867286543494422
0.611574400200402879
0.467470949411197323
0.478356257955539876
0.487692196937473454
0.494568232500578908
0.497770045000264783
0.363941529995784274
0.372127227857239673
0.379300961199038666
0.384864253894498687
0.387991423993918894
0.259987262383219175
0.265818897652243147
0.271149254596042
0.275673474863076307
0.278949209127532793
0.155399256486282111
0.158889507287430676
0.16224442137418324
0.165384082588124981
0.168179110382423891
0.050091283075966532
0.0510731646321574001
0.0521127016528361922
0.0532461128442901915
0.0545090444662889931
1.31102338570228327
53.9953643224346465
1.31907370966950177
1.42515668569969267
1.38521176958012493
1.43992578225557111
1.51449016509750689
1.6020109273400216
1.52090186607148836
1.23670831512375834
1.38535998360128398
1.50300955971068495
1.45703634369364332
1.45472047855335962
1.14508288529482249
1.18967263206747753
1.2393843760511194
1.29698253668287644
1.36110354560648728
1.05373309581772179
1.09954478709338721
1.14797648261018592
1.19677814471277566
1.24619366932969289
0.966869627922156472
1.00725983887648596
1.04654804280476577
1.08395867166841242
1.11975396590875786
0.873049624784711042
0.904162911796568824
0.934110981367990312
0.962110823015891348
0.987329296959991498
0.772846283960922698
0.797255931497400039
0.820046382673022545
0.840168866499778177
0.856371033851711871
0.671071924291716804
0.689732828765534212
0.706503817631983444
0.720268308738137741
0.729662351047976387
0.568396177696154581
0.582474034792806794
0.594707315433954053
0.604045841090081859
0.609166960108916355
0.465380143681845548
0.475930369948429133
0.484923843872402394
0.491497170350143231
0.494531802015334421
0.362103326176511531
0.369874936465414861
0.376526190384979476
0.381441374326876026
0.383800034002757473
0.258451308836624871
0.263844951633338098
0.268572942859379382
0.272273595955887182
0.274456511604273312
0.154269857054393861
0.157388773088230849
0.160216218396087268
0.162605399486665081
0.16436802739146697
0.04946893309724857
0.0502284592102993296
0.0509492877020789603
0.0516411273782141425
0.0523197882411168685
1.57402647885922908
51.9093652548228803
1.32040225461583494
1.41583097850586359
1.38569227886526214
1.39661209850903112
1.38823414427242686
1.41429042959629525
1.47621503498605855
1.39702004891646259
1.3923032437344034
1.37257125890565423
1.37088452171147401
1.44576440521766236
1.17323425894896216
1.17901380332194283
1.23061540752634246
1.29029920987533142
1.35494747642197622
1.04596330591227593
1.09233703870116794
1.14110435008058353
1.19090155975495748
1.24003323773876439
0.961671069975148174
1.00218689555285723
1.04114238473255316
1.07821541598900028
1.11373063575629749
0.869624908331094404
0.900349833842831959
0.929926667939690477
0.957740133334765709
0.982995452443277795
0.770246132845753717
0.794297401135750425
0.816883056589092882
0.837002423850155997
0.853521440367801087
0.668931579290652056
0.687355285186207143
0.704012123549375812
0.717880173722511894
0.727740922007062752
0.566586313620715987
0.580449405025365017
0.592547661113471458
0.601908655464642006
0.607335349235312294
0.463780894566181323
0.474077171602881542
0.482821503390423179
0.489188687384743193
0.492133887135603854
0.360689128693286232
0.368152124445914053
0.374425556784312719
0.378890811373460479
0.380746980764202658
0.257263359620919119
0.262330843736331254
0.266619935863233959
0.269739188011201725
0.271176551623103612
0.153389974174834243
0.15622983383893907
0.158666337205512653
0.160515012723455947
0.161543137293787331
0.0489761215306105183
0.0495637361343427701
0.0500390910065655822
0.0503841489554866725
0.050590471781025409
1.73235287716273101
50.8101166735743561
1.33975190027176194
1.41332368332594771
1.60540344392411849
1.62730852870142484
1.6531770600118596
1.44776970683383577
1.47960966181677622
1.60848994596936401
1.62518041750091702
1.41677436343310847
1.36623740800665749
1.44527622306502534
1.48406335730204009
1.22837720197665035
1.22934676999969139
1.28680960593450244
1.35208573042143354
1.05317354496306637
1.09194902333964339
1.13733661967198052
1.18705952373701185
1.23640525959337677
0.959777957969887963
0.998967879670021985
1.03765026837799668
1.07459272155051067
1.11006202334807313
0.868009773463944034
0.898121058569868347
0.927298029568511928
0.954937347570388839
0.98025218054162877
0.76868661402534999
0.792369162087129375
0.814775492353935094
0.834904082623658561
0.851661366573938095
0.667543758024796152
0.685782821179804714
0.702356192126148082
0.716293918084496273
0.726462386314053354
0.56538817912506889
0.579094869648041133
0.591099852337773402
0.600478005951151084
0.606109055001526675
0.462705382582924318
0.472830583858849296
0.481413963509200959
0.48765642808006171
0.490564600515972005
0.359732668525502119
0.366991760954666291
0.373022015474464286
0.37720798798514138
0.378770127502034148
0.256456181093352054
0.261308591785810562
0.265313171105549028
0.268064257418379748
0.269045738219102992
0.152788543416600614
0.155443335192155724
0.157622683473616382
0.159120903959709153
0.159684109864351192
0.0486350140049578647
0.0491061672774849231
0.049415274717336477
0.049527122010491087
0.0494137727535035251
1.49079422944853479
51.4203492240359097
1.3737735418296313
1.38542546003278622
1.3318760591287222
1.38972799470167518
1.60046950399622667
1.67383688098213335
1.53742489725894615
1.31468442522973228
1.61340359372156428
1.63479080373418406
1.66115650148706551
1.53592058128060938
1.5137808737836691
1.55089970246580755
1.52442652630503983
1.30149665842265927
1.35334117037044499
1.42896710423958107
1.17443146033407686
1.13878982078634206
1.18694181219069406
1.23558374173262786
0.961526415525293832
0.998827515045603187
1.03673769021191209
1.0730731947296126
1.10841907194496136
0.867728976349193437
0.897152036133192832
0.926109358854413256
0.95364232249631653
0.978971244720210687
0.768055183542091346
0.791501284583410958
0.813780098252120276
0.833887209392304984
0.850751407291702844
0.666900539234793532
0.6850129587397773
0.701529115266713577
0.715500548418376736
0.72582245147776947
0.564790664965309053
0.57841751262298291
0.590376607514541019
0.599764237178448734
0.605494445799458547
0.462167832781151866
0.472206364249103727
0.480710221312844965
0.486893079960944386
0.489786200907943337
0.35925125652177764
0.36640883228500537
0.372320050988619922
0.376372068664185266
0.37779549388167577
0.25604894193516714
0.260794088184287787
0.264658594365796918
0.267231248389555975
0.267993307374687073
0.152483780939792146
0.155046096254989524
0.157097792585039614
0.15842333390465882
0.158757571405250042
0.048460594849785224
0.0488730194795498132
0.0490978171336448402
0.0490911781768476954
0.0488137567576659923
1.92362160581917152
2.09271889579145798
1.88738577612988268
2.04555021569658146
1.51946170336803243
1.57872780528400214
1.67232355629706486
1.81067067334049314
1.97603511912829521
1.44406490580429847
1.54250291008658391
1.59503800086186764
1.7235276426488042
1.87671639759042153
1.2764965349235613
1.36712475880078554
1.47240717348635508
1.59574108637022705
1.73750289466875252
1.17939008244613186
1.2557062809029178
1.34383110085141833
1.4459606015997517
1.56527459645505918
1.07051024386844973
1.13330132616676527
1.20410887629114804
1.28435069112938982
1.37589941132469518
0.95516222988768773
1.00395068560083223
1.05722029310592869
1.11563142134391735
1.18036005261933807
0.837180233915765348
0.873175968860817275
0.91032990616072651
0.948043866234211663
0.985772965769981524
0.7199607103462905
0.745390904893912021
0.769165159766556417
0.789515816186010189
0.803777350658556933
0.605163703376648376
0.622812929695207518
0.637271881610416369
0.647055027463562915
0.646172344908125251
0.493401307947055112
0.50634215386514303
0.516451507579615554
0.521336072698285302
0.516816723102793807
0.361956871274272174
0.372929576635906923
0.383839784757015412
0.394122080809989561
0.402921704112935986
0.408551932784142202
0.408361940421287872
0.25904821493521879
0.26693459148266685
0.27503453149988405
0.283287880743269105
0.291423350188193486
0.298845476943167543
0.304369664483511881
0.155696077133035488
0.160592435249547888
0.165671450260160863
0.171401545068979477
0.177589862325802983
0.184186437320069424
0.190998903176426038
0.0518130487714938553
0.0535066676209198927
0.0553917254062285397
0.0576478542639826189
0.0602377544351431274
0.063183854268700046
0.0665410273543206587
1.88933152185185427
2.03867358365591977
1.85850977148536778
1.99818997753972849
1.66619607464172548
1.78041971503880481
1.80705315814944223
1.8057395092526809
1.95785116056552622
1.35685782787875131
1.45823491221386625
1.57477397191849433
1.71421265095280528
1.86209753987831084
1.27335970354571892
1.36231159127682488
1.46541509849591134
1.58404099147082955
1.72056100834250891
1.1758969533603103
1.25152264570053795
1.3381012058037931
1.43743349340621651
1.55177010723010755
1.06733719526601667
1.12924382332706474
1.19873212679037855
1.27704781703719195
1.36619541845926951
0.95262123876094984
1.00072080390393103
1.05296298872813554
1.10984172005568982
1.17228577571506798
0.835297926396938895
0.87076274747964999
0.907072305298267434
0.943462380818341551
0.97917834494671685
0.718491719535010231
0.743572638546892817
0.766850164170738258
0.786272696113498482
0.798643551481560965
0.6041768215962382
0.62174018305729073
0.636116625082696729
0.645295962050817296
0.643283291979387051
0.492845319635819734
0.505917252735147871
0.516310896291796273
0.521670150455241233
0.517873544113890971
0.361574733943927473
0.372588995835558157
0.38361792703078551
0.394158420323258263
0.403495628434273945
0.41041236816124238
0.413054800642987108
0.258815096571274827
0.266750526551461586
0.274980889264236139
0.283488992069210077
0.292133358446657387
0.300691988787409825
0.308693771332813061
0.155558850189784104
0.160493025919457133
0.165658969167430004
0.171569126832745888
0.178151294281667066
0.185649984113377076
0.194325699414466146
0.0517376320641534243
0.0534471483581170012
0.0553682508345518729
0.057699227835021856
0.0604486102850146298
0.0637111645491133805
0.0677250340197211309
2.0962644233570904
2.56468207246349866
1.85067215908017668
1.94854696508381076
1.42314026970027974
1.60848657918623439
1.81067444774051189
1.85359066169615105
1.94292354462495154
1.35268697475033983
1.45191474643865348
1.56540338930595668
1.69432610201598055
1.83805694480607973
1.26692875525106352
1.353921945489589
1.45331283680552259
1.56651150762989744
1.69493902912290451
1.16865494863018782
1.24261424775958451
1.32623935289109962
1.42087820334316595
1.52807964420942732
1.06100154249367251
1.12142497801157592
1.18850710293582029
1.2631943960523051
1.34672288049806665
0.947543778391293889
0.99450791359374191
1.04494286559108129
1.09895547623752221
1.15694167159149686
0.831473991614552155
0.866119258434390193
0.901093376248965128
0.9353134939230765
0.967504472036359142
0.715747285595346283
0.740308267334238268
0.762740123729411135
0.780714911416027224
0.790448256848848785
0.602340583555942555
0.619745536890849102
0.633880552268292541
0.64270429518100658
0.639586757603359479
0.491759428673607613
0.505022619348890367
0.515879908114358798
0.522171253529857382
0.519758492728492394
0.360836860800347436
0.371897430612340874
0.383085873178362291
0.394004563647387895
0.404237367046580032
0.41302637867221309
0.41910257433728626
0.258355128747869756
0.266350103883411682
0.274752795668859129
0.283652413328848996
0.293172261008496915
0.303561630248407877
0.31518560790376049
0.155291037546288979
0.160268201731680437
0.165563125313795467
0.171748308521290693
0.17893999803089633
0.187705928023326446
0.198855441402511379
0.0516159970182146835
0.0533428204276998122
0.055299572166403764
0.0577367254079058229
0.0607142869585435979
0.0644234718183248206
0.0692929081717822137
1.95440531483178925
2.25795745083669352
1.87647465016341242
1.97100559660703656
1.40464210504198794
1.5501528486908267
1.79740003686473115
1.88911423266896894
1.95864059089104225
1.33995975412629131
1.43829230208910186
1.55058371288843988
1.67812650861074708
1.81895891742091553
1.25537070901062653
1.34047866449818454
1.43686647617927021
1.54500577804369943
1.66477507754452758
1.15830137831010238
1.22992929193107559
1.31017490365543754
1.40008335438626053
1.49861472117242944
1.05228096690887396
1.1105844814082062
1.17495713755767861
1.24508020708163492
1.32101202661052786
0.940541954057460217
0.98594909200680414
1.03378183703424309
1.08401538699568345
1.13619276417302539
0.826101369428672405
0.859613186058482692
0.89287161899054035
0.924443272495419688
0.952390852410041955
0.711889594401684644
0.735808713712155948
0.757305700299266027
0.773791471620503435
0.781029906328121637
0.599764584039942705
0.617011129665857583
0.631091280796452714
0.639429397590624449
0.6359942864791851
0.490167182586765837
0.503611802421317423
0.514970435331255416
0.52229202497604188
0.521819157736783112
0.359780154151740528
0.370858321234481203
0.382182316077379292
0.393432541382569112
0.4045088049876715
0.415054796564922723
0.424450006165075722
0.257668246928981604
0.265696881500041671
0.274247662298115147
0.283484885846899459
0.29378283594072413
0.305788156460972571
0.320473050867759179
0.154873897632612528
0.159854475421382841
0.165309992821284252
0.171698891356689448
0.179407680089630012
0.189253703905920917
0.202439108137505264
0.051425998560290509
0.0531592864595746145
0.0551422380463280071
0.057664619172994154
0.0608429672519264567
0.0649330962038731502
0.0705018660864420305
1.9303238835791936
2.10337646983991489
1.89801698352022763
2.00065526542117489
1.37949303263095624
1.49433278800210001
1.71652248716543543
1.85174154526096468
1.97694711798628164
1.3228131438478461
1.41874278674841614
1.52991419817339858
1.65720022155376134
1.79527121559162661
1.24061342182100964
1.32241479683376117
1.41535328068777844
1.51857983391968698
1.6310345211089925
1.14575615622362936
1.21431310636316003
1.29121208506056107
1.37462605649435821
1.46445741237893778
1.04180867530725396
1.09761809781499076
1.15862964187566542
1.22312559042844438
1.29057340538577114
0.932151835362297398
0.975457891579601499
1.02050408341832188
1.06655443363836011
1.11238005373602333
0.819662412013721475
0.851828709260961547
0.883182214114434649
0.911969851825849775
0.935628328574787838
0.707221970199936267
0.730401112602857228
0.750949635915094893
0.766151088990282947
0.771527038555878342
0.596562610586055864
0.613583100987117103
0.627582543732440268
0.635770721064531252
0.632885375033969466
0.488048827193208912
0.501565335869496809
0.51328004267352334
0.521465548924009648
0.522900718036959034
0.35843371590300116
0.369454165409778768
0.380782439569665287
0.392242382752715335
0.403789587233458924
0.415381979082378894
0.426818658432856379
0.256760302364413218
0.264759680465447345
0.273351984171602669
0.28272533854614762
0.293408336463596098
0.306207783654037724
0.322340540718261959
0.154310312410574385
0.159257955447299815
0.164771572543523703
0.171218047819426455
0.179142593282917179
0.189452886959463579
0.203466731535116158
0.0511644681326440601
0.0528678994565607019
0.0548742330049938262
0.0574056787626093315
0.0606758115566509715
0.0649417753783333301
0.0707636187859752019
2.93821590281685463
3.70268309878533586
1.8359334556167195
1.93117281818461417
1.35053098686837147
1.46079505747542182
1.60599198494961404
1.77318992285081078
1.92853055737059309
1.30186070850400837
1.39236915090406321
1.50368735413662646
1.63059178875571131
1.75222941802846277
1.22339768935562976
1.3009748113472781
1.38968103844427571
1.4868268615160356
1.6065387720395885
1.13170679041524758
1.19720656146971249
1.26902845162565159
1.34529210383137077
1.42662903922451934
1.03028467255334966
1.08356667500605375
1.14021680690098193
1.19882049431116355
1.25900198938301355
0.922925474613212615
0.964024178944886123
1.00615530235873507
1.04808227209285265
1.08795501452351195
0.812607297300738107
0.843346471084058247
0.872819577466784624
0.899059320717633059
0.919098591621568151
0.702045866774995364
0.724447153417121958
0.744122405858533398
0.758386235932848485
0.762858071425288053
0.592889136271365969
0.609599319189046418
0.623450257354894122
0.631749191184746484
0.630209805188380323
0.485452412216115015
0.498868650944304715
0.510687748202395708
0.519404032862258114
0.522307996322226353
0.356844831930833162
0.367715783138945818
0.378909717327001183
0.390295727016651328
0.401842345669103373
0.413580679390724071
0.425390424432768366
0.255653546536029008
0.263539400071805929
0.272032594201758904
0.281245597218158283
0.291810348161889443
0.304409803475173879
0.32013080982313491
0.153610290411539951
0.158469905721699611
0.163912095523726237
0.170208236112506184
0.17797430876105122
0.188006217165022638
0.201490676473903535
0.0508363366556143295
0.0524863448035020053
0.0544528725799418925
0.0569074518261698317
0.0601095000154910561
0.064321990583793065
0.0699461915520859512
2.21308751022363204
3.10197997370700085
1.73452239507760342
1.85025248324357738
1.32181330854572132
1.42339827277084008
1.54267315626185364
1.68927143880903108
1.85030856044411807
1.27887218755614351
1.3627954580219106
1.46112468627529624
1.58934306180575891
1.75358199172881202
1.20513208804712213
1.27736981554917839
1.35885672972860871
1.47485302666864904
1.57654123532356061
1.11686292232641837
1.17808885377499672
1.24540045837920044
1.31461687313704245
1.38792384966487248
1.01833380424481779
1.06881869869634616
1.1209870181284689
1.17443697385928147
1.22817382533895336
0.913371231093049518
0.952368990951611427
0.991687921291707131
1.02991040233645315
1.06486530329128271
0.805335782732882199
0.834689393599947538
0.862464155722860171
0.886633826732314501
0.904164122683263405
0.696642825579434244
0.718284484862222405
0.737215672389459731
0.750923780439273991
0.755401274418204371
0.588921148016690488
0.60525687713218923
0.618933478096506895
0.627603572070176696
0.627369826970155087
0.4824813623772502
0.495627661315616086
0.507285216857481958
0.516160346079421628
0.519897998076078283
0.355076406018036639
0.365705190039885608
0.376618803145597369
0.387683004643988083
0.398776267274586871
0.409901521858389184
0.420763313099316305
0.254386037566933454
0.262066064789295672
0.270280668562275617
0.279153225800188809
0.289103495368745467
0.300697040597668441
0.314663031258451686
0.152793335585250045
0.157502873790619918
0.162766609764240733
0.168688501369980981
0.175962800702572808
0.185124859570274913
0.197098705847616379
0.0504484378378921086
0.0520174498893164194
0.0538862982297996299
0.0561736428368451723
0.0591661186735771838
0.0630989949431817049
0.0682113699986127836
1.66852069061611163
1.53197399791809596
1.57805169340134466
1.61624643991176509
1.28680238832391458
1.37597270807259409
1.48562001451046255
1.60600521314266453
1.78857853042136616
1.25610749917582121
1.33092348153568429
1.41959847512795601
1.51690660961110679
1.70175437638362204
1.1865820784541754
1.25353472093632146
1.32883233437156734
1.42792068169126174
1.49541486843908333
1.10197459336656078
1.15915651084572868
1.22086143844622108
1.28686352613434996
1.35091312558014698
1.00667291440418127
1.05434205626752853
1.10273220879025402
1.15169224283485949
1.19986505296052837
0.904155988984604031
0.941160808909056956
0.9779672868755096
1.01309126686220896
1.04436034158562285
0.798228685278592143
0.826323707661085427
0.852663288796569163
0.875299470393667067
0.891406525150537088
0.691271635080491387
0.712210347364078622
0.730536024137716677
0.743992873589339188
0.749150188424908992
0.584845795345568353
0.600763814643188399
0.614211295879723673
0.623166874104882584
0.624376288639134192
0.479284655769107837
0.492029491935374763
0.503323924912643661
0.511993136949038252
0.516074450146722152
0.353204827348089723
0.363517825324958854
0.374036073082522957
0.384576450888484023
0.394953872140757334
0.404975297532962075
0.414185253434309508
0.253012925970764135
0.260416299014934405
0.26824579964982459
0.276577637407970034
0.285615698304859278
0.29573938019674656
0.307284126519793144
0.151890371309506195
0.156389086986011006
0.161334536539661066
0.166869226366532758
0.173348917617030945
0.181288438987026013
0.191241331503705092
0.0500129605235407962
0.0514724906756333991
0.0531878790922807668
0.0552643984183920634
0.0579144969681860758
0.0613747871143229054
0.0658366027542896526
11.7590084930905991
8.75020041704127394
7.22395114363062607
6.16936704111206513
5.73071549708874706
7.7237079987329782
6.1577940851361328
2.43490133654895224
2.77021849969311429
3.46797136675288575
4.08529076618175324
14.5863726392387463
14.6332435571695694
8.01983992084737096
8.07043330744731691
3.66779003972728201
5.30086060811481197
4.68203884880265608
2.35043342816576484
2.71485640184712773
3.43533335590685596
3.80044910776023803
32.7590065444817924
34.8096808909460123
8.71867980972599277
13.6259715907168619
3.01923565922999781
3.32398500240952854
4.00486410259494452
2.55317662077031526
2.86720438971911173
2.80220457224612796
3.55038133957393987
39.5643520252022682
39.5858225105914556
88.8945587531602683
91.0728105014534179
30.0025022241849335
62.1486914036118279
67.3590178375964257
6.14641827041739663
2.79108562256441761
2.24520490788743965
4.61660919549982651
23.940923695814309
23.2362025584572187
59.2543698378704065
25.4765282909683535
63.2713602388589749
60.9637590068014177
66.3500688152660416
10.5324666379813454
14.8410353514516338
48.4943055821331086
60.0699560004501478
21.7528555452964305
22.503017816669292
22.2025635527867529
21.0604593373624489
19.9171910816623559
26.4525934282400073
31.4435800558546994
6.65358799319457983
15.2390667209479318
21.8998186728721791
28.2394130990820003
22.6235476854721291
23.1903404725549791
20.6728690752233213
28.215020385731119
16.8032964278877301
20.1463315772829716
22.1788561607174763
4.64713729951470089
8.01029864201663422
11.8525370127743752
9.72358926992109218
21.5299449603892761
19.7522089858086751
13.9143296474432674
18.2001632616203537
7.81208711299639447
10.5562953752546598
18.2963641106151549
76.76859510287521
11.4795633029602904
21.3831854834547173
40.7478445394514566
2.30622500935830832
2.58081811082465684
2.95476413128847382
3.43135137592409611
2.24137290697496017
2.4915925574194695
2.82880699901272026
3.25658619700480978
2.17526119256761818
2.41684859813209663
2.75151070139141485
3.21342921480309007
2.05607566474224646
2.27178600659842811
2.5603066155383214
2.95325357990225079
1.8900865998530858
2.06868934176204178
2.29494107675180725
2.59993412597294027
1.69232504614228985
1.83663048714961885
2.00820174675587992
2.22003525685008229
1.47627733704865594
1.58670836544178617
1.71493679236211882
1.85784045369483675
1.24927300918344009
1.32338263449481097
1.40884393432527744
1.51688326485028369
1.02146031892380318
1.05576479952687841
1.0930058783785912
1.14606926189960134
0.808679460861989274
0.804124666491637052
0.792240788127252071
0.776196734281346834
0.630561623061470455
0.5969770375659601
0.542913696380530331
0.476401681656469123
0.497760051216513622
0.458036423847455632
0.387488644696308893
0.29722810273850403
0.4001946946231702
0.378739860281064378
0.330703324298054935
0.252035666687081328
0.306557324395472508
0.303937752965252439
0.289914364197041752
0.252581013703128077
0.197295611865059034
0.201773971916111544
0.201659406289649179
0.191487580387041112
0.0700151457335713573
0.072839698601823738
0.0744017758206339946
0.073264619074334375
2.20160448709624568
2.40845138852982998
2.72634135959338231
3.11321093396281068
2.16507004513589552
2.36586718737142165
2.63389719213537044
2.96255367901084332