/*--------------------------------*- C++ -*----------------------------------*\
| =========                 |                                                 |
| \\      /  F ield         | OpenFOAM: The Open Source CFD Toolbox           |
|  \\    /   O peration     | Version:  2206                                  |
|   \\  /    A nd           | Website:  www.openfoam.com                      |
|    \\/     M anipulation  |                                                 |
\*---------------------------------------------------------------------------*/
FoamFile
{
    version     2.0;
    format      ascii;
    arch        "LSB;label=32;scalar=64";
    class       surfaceScalarField;
    location    "0.960000000000000631";
    object      phi;
}
// * * * * * * * * * * * * * * * * * * * * * * * * * * * * * * * * * * * * * //

dimensions      [0 3 -1 0 0 0 0];

oriented        oriented;

internalField   nonuniform List<scalar> 
20536
(
-0.000494788668343100176
-0.000391488546695141742
0.000120047322597304621
-0.000264997942849563069
-0.00070448796725608746
-0.000278257249199833473
0.000292248029027036577
-0.000515553155988866221
0.000111920434357883861
-0.000261626149325352802
0.000599454386925563228
-0.000746324671944895591
-0.000341985226733355126
0.000663968785567710515
-0.000894492508027286025
-2.00576172104364409e-05
0.00023194684383690632
-6.29208695745546703e-05
3.01469893830883206e-05
-0.000108758289785057242
0.00021636857616153199
-9.28844642995681533e-05
0.000104018921488451021
-0.000163683861452761743
0.000194857301752720895
-0.00011388632078173894
0.000162720896410595587
-0.000225506632755444306
0.000168699500879118311
-0.000136440863274158363
0.000222752349166433042
-0.000321778625456559206
-0.000173094039391313907
0.000304940464721478331
-0.000451078190540036379
0.000145946787780367837
0.00028044667137883903
-6.09366988852693054e-05
2.35394940210660998e-05
-2.6614960334154883e-05
0.000269423303472261398
-8.24732058633253367e-05
7.3294386253321543e-05
-7.26804190731285504e-05
0.000256830968097083122
-9.81474878572313454e-05
0.000128094945487249999
-0.000131240632814619062
0.000241245414051963761
-0.00010184198903367465
0.000177263413959072058
-0.000196276675305999166
-0.000107921880523435766
0.000206312628512888272
-0.000249734673435874006
0.000219494834847981527
0.000165480110983324305
-7.20786377250881203e-05
8.27283947667744707e-06
-9.03888068194127181e-06
0.000171597514232249261
-8.47496292751254003e-05
2.76871410742362241e-05
-3.15273531806922706e-05
0.00017771266426006821
-9.3627930809933623e-05
5.2431524704908564e-05
-6.30665445473341815e-05
0.000189958302447266667
-9.47038074419503419e-05
8.28956813631089853e-05
-0.000102280313172151016
-9.43202779348382622e-05
0.00011381197770846772
-0.000141566698816657623
0.000204110329216780894
0.000132550088005916922
-7.12987586765341335e-05
-1.85657970453972114e-06
-1.58818265285653223e-05
0.000144866233564165409
-7.87862946486468587e-05
1.36140847237429601e-05
-3.18939646573529001e-05
0.000155455067876157069
-8.59256960696622515e-05
3.66506817232780381e-05
-5.49425478959900826e-05
0.000168614814267694052
-9.09217231569276428e-05
6.32280764024752601e-05
-8.01705610829290329e-05
-9.50157450900126349e-05
8.7769774316867426e-05
-0.000104458041228609673
0.000185997971896657231
0.000125478963447711578
-6.89613277214991684e-05
1.35315823459955542e-05
-2.86762926935055625e-05
0.000137281555077811788
-7.59170325440872422e-05
2.25529333200450929e-05
-3.72256355325896793e-05
0.000149652499038374002
-8.41468383418631915e-05
3.77239014666206005e-05
-5.18743694626574336e-05
0.000164898904431168703
-9.30286710868090524e-05
5.65732461268504835e-05
-6.97129372974723696e-05
-0.000102265854149661899
7.58971183866836031e-05
-8.90017470078723451e-05
0.000185253485867484263
0.000110890821169962314
-6.88181681766397192e-05
2.92739190356562819e-05
-3.68863224130410204e-05
0.000120258815141245125
-7.80773469139108922e-05
3.57521357033458104e-05
-4.29601546019874302e-05
0.000132044487748549067
-8.89722832087593018e-05
4.65613280444347055e-05
-5.35221166238222058e-05
0.000147616791246350928
-0.00010138222484316206
6.02388444435802484e-05
-6.74580990028579716e-05
-0.000115336244591163033
7.49984889636335283e-05
-8.36529425610874804e-05
0.000169340979363941048
9.19423805757007634e-05
-6.99499191164743668e-05
3.57782036778518013e-05
-3.9177378616617287e-05
9.82920386487934621e-05
-8.11649379843800382e-05
4.27359671125473973e-05
-4.59977159452464339e-05
0.000107272859312810699
-9.43469224436290302e-05
5.22504558467706186e-05
-5.5857177585405139e-05
0.000120454736781015087
-0.000110037150680160302
6.39023103134845157e-05
-6.84301513926932972e-05
-0.000129050423510851625
7.71349951367446252e-05
-8.32305927048065003e-05
0.000140263531938658576
7.06911243275478411e-05
-6.97882264513203317e-05
3.670910012267296e-05
-3.86063855302253345e-05
7.32078050118119907e-05
-8.14865048911813115e-05
4.38695764753511142e-05
-4.60641188274122973e-05
7.71660807434547278e-05
-9.5552117482237259e-05
5.36571100330841708e-05
-5.64103885484848331e-05
8.37521118268550342e-05
-0.000112984688126054254
6.62809784539330652e-05
-6.99200175703949492e-05
-0.000135223939721206086
8.18433691402388388e-05
-8.67824183864025056e-05
9.4864097939262391e-05
4.85946290811382312e-05
-6.7012657041715199e-05
3.58084780287449246e-05
-3.70889410432543901e-05
4.65033880825852921e-05
-7.78187027570842753e-05
4.35242594929394097e-05
-4.51002699231703411e-05
4.38595367773615609e-05
-9.08059768132891997e-05
5.42897346682627297e-05
-5.63917407389771103e-05
4.088539340758432e-05
-0.000107014803667964143
6.89193600305947556e-05
-7.1915291556933278e-05
-0.000127985503745654485
8.84729821546572206e-05
-9.29143703566375954e-05
3.80873804874924139e-05
2.86867261685256943e-05
-6.18008818498597075e-05
3.29607528955552228e-05
-3.39364725508102378e-05
2.25164472309962273e-05
-7.04007235933565962e-05
4.09481735947820038e-05
-4.21954024073024382e-05
1.37803441659960193e-05
-8.02981550227071508e-05
5.23576652898892397e-05
-5.4128967833357803e-05
1.6840142434100732e-06
-9.21146373861411738e-05
6.85268036965491187e-05
-7.13314639897376617e-05
-0.000106722903920446874
9.14462239239095982e-05
-9.63413383681052682e-05
-1.46860866114219542e-05
2.29487403117005576e-05
-4.41496966730438732e-05
-2.02570886065110031e-05
1.91754872929044411e-05
-4.97057864637100126e-05
-2.37240290621912236e-05
1.34251216399534464e-05
-5.53296998099265315e-05
2.82484677679586798e-05
-2.89695843032644843e-05
4.9809047771739398e-06
-6.09934733297853027e-05
3.57680274475788171e-05
-3.67309758872046938e-05
-7.16462025606239899e-06
-6.66833034230501385e-05
4.66665006252393329e-05
-4.81355570215998647e-05
-2.43274544028616612e-05
-7.24030245897057102e-05
6.24678049930287618e-05
-6.5017927114136321e-05
-7.81334163352332214e-05
8.54945927812057727e-05
-9.03888488173290762e-05
-4.80252244268847386e-05
1.34193090287405327e-05
-4.14522476039600696e-05
-1.51100005795908943e-05
9.68505662649498131e-06
-4.55523605231946045e-05
-1.79608550571729313e-05
4.03339108506757116e-06
-4.91714578883869905e-05
2.17417918611135701e-05
-2.22490092080336614e-05
-4.25073576361595055e-06
-5.20273000558934772e-05
2.79126782232309095e-05
-2.85951804533627761e-05
-1.61795810302397993e-05
-5.36745034809439021e-05
3.68890812676773262e-05
-3.79684121777992698e-05
-3.29550068186013396e-05
-5.36915173480746294e-05
4.99756435707719731e-05
-5.19109733853977186e-05
-5.13699665087485454e-05
6.90669842777877254e-05
-7.28636177314183824e-05
-5.59199617541812632e-05
6.87370026786965651e-06
-3.95560918088462161e-05
-9.36193479670143869e-06
4.1944601403681189e-06
-4.2630165029549952e-05
-1.12403091381829385e-05
1.33806544920687877e-07
-4.48189753143841496e-05
1.37567850010257153e-05
-1.40497269116607969e-05
-5.93629500257953708e-06
-4.56449436706549971e-05
1.78390847912561661e-05
-1.81519321115777857e-05
-1.44014431790509913e-05
-4.45275425413492514e-05
2.36671395283703323e-05
-2.43463068339634126e-05
-2.63830498897328221e-05
-4.04964212513861022e-05
3.22709449403185255e-05
-3.34788999745225794e-05
-3.24103581144898612e-05
4.47908301433150069e-05
-4.71397584162487588e-05
-4.29864480341297055e-05
2.17879879833387443e-06
-3.18582193798184831e-06
1.21429984770377653e-06
-3.84900788493438166e-06
-2.53609697288460159e-07
4.73857841762784008e-06
-4.83401379499312714e-06
-2.4255554526993916e-06
6.16045864920131343e-06
-6.2650399523075147e-06
-5.55100061202088696e-06
8.21383309340438931e-06
-8.40331588756566491e-06
-9.91728262938006907e-06
1.11991845288676591e-05
-1.15917556487178737e-05
1.55423470852159839e-05
-1.63324442390006494e-05
-1.6012616327047739e-05
-0.000447877932704917377
-0.000484674024052067129
4.61198766346510567e-05
-0.00086053829752768575
-0.000173807764551787411
-0.000450511333892670033
0.000240123909845886449
-0.000248034140670773265
0.000353415878405276078
-0.000466343915328985706
0.000476999844875990219
3.28992853782478863e-05
0.000174409284692159133
1.33007782287580911e-05
-1.48275969640824846e-05
0.000224192659147539892
-3.45457963040707398e-05
2.3273157987666656e-05
0.000265696986585422569
-0.000102941045481336121
6.11484239005436999e-05
0.000302327936289677917
-0.000162391307586489113
0.000100478914124253339
-0.00018961879782984986
0.000132973907184491443
0.000197569047920057765
0.000310102078057861532
-6.3430208605498463e-06
1.87601535200392205e-05
0.000308154420265674737
-2.93302861155197741e-05
7.00269954270483759e-05
0.000290832691228205408
-7.02901671320766851e-05
0.000112765509732443153
0.000261804485296145476
-9.90262996667990895e-05
0.000142925700383863418
-0.000115018076171848467
0.00016176014355878996
0.000231754669144766049
0.000187623424436572032
-4.28184379536242216e-05
2.12469714866207626e-05
0.00019656044571517072
-5.22056223484109572e-05
4.1624757351678204e-05
0.000197848112455223987
-7.48218968142577918e-05
5.56747047817160429e-05
0.000204870550653527965
-9.41135689424059624e-05
7.09594665702203482e-05
-0.000105338535898836388
8.89672842938624082e-05
0.000220034326316627773
0.000128264925507446862
-5.3114897870951254e-05
-1.82846604137603771e-05
0.000151673311326673788
-5.8881991811960591e-05
-3.11921536516469399e-06
0.000170001284574246736
-7.27181431189693301e-05
1.62184474775577947e-05
0.000185833747361592854
-8.67655275860237105e-05
4.00474162458773567e-05
-9.73745278184000231e-05
6.41634264023119397e-05
0.00020147574198217403
0.00012483593048670191
-5.89709207594464298e-05
-3.16029972353165547e-06
0.000146405942293461526
-6.61139267148755415e-05
8.21363439181032459e-06
0.000164703930911498533
-7.77292971593018182e-05
2.44368990379372305e-05
0.000181386733415992937
-9.04025705540408817e-05
4.35275866007252884e-05
-0.000102382655333886342
6.21300136961249665e-05
0.000200161652147668004
0.000116622236673846763
-6.61635820632891925e-05
2.43350763670968503e-05
0.00012966381197853196
-7.56602351636492321e-05
3.22559507239163635e-05
0.000143216672159329219
-8.73440062239478395e-05
4.26226815347813959e-05
0.000159045064877498494
-0.000100540639079189345
5.45480709574796654e-05
-0.000114954284171642961
6.67060155485175868e-05
0.000179908451189675247
9.80900532629641527e-05
-6.91851615215696475e-05
3.25816738556591778e-05
0.000106147021575108127
-8.01988708043513366e-05
3.9217085250706377e-05
0.000116669750000643286
-9.32717447641345955e-05
4.76549111334169728e-05
0.000130976621726871823
-0.000108681886350863322
5.77362304538552219e-05
-0.000126891385655168487
6.89991922426904704e-05
0.000151049354259077094
7.63953241426087667e-05
-7.00035545876274902e-05
3.39262009464607854e-05
8.1111891553770768e-05
-8.1472451796257546e-05
4.04266074710604153e-05
8.74528175111937117e-05
-9.5165771992650498e-05
4.92102640163648734e-05
9.6452033583714969e-05
-0.00011178559139778357
6.03854476643639646e-05
-0.000132361881950584018
7.39500418901246648e-05
0.000109815919152553079
5.49638509628240323e-05
-6.81810758897503791e-05
3.34716471607742006e-05
5.54111975829235553e-05
-7.88593904409588321e-05
4.04642579732698593e-05
5.59797305290041382e-05
-9.15539853406328532e-05
5.01095942870409216e-05
5.71482478488693533e-05
-0.000107066853224246499
6.30311915556681105e-05
-0.000126536396834615173
8.00109352848351902e-05
5.97828004682351101e-05
3.52874558230247885e-05
-6.38203255048829172e-05
3.07728372118521413e-05
3.19491379172901594e-05
-7.26037846019531599e-05
3.80312949749680377e-05
2.71709410512827084e-05
-8.26892033175975608e-05
4.82705294775875781e-05
2.07257899253527685e-05
-9.46122818735805422e-05
6.25146192338445715e-05
-0.000109116387037010693
8.21735671874186826e-05
1.2574437700499111e-05
1.9597683626726153e-05
-5.81755056622207183e-05
2.63912994983832999e-05
1.39397448362629793e-05
-6.44253720045528749e-05
3.3247902372609471e-05
5.83890556382772575e-06
-7.09513107693367836e-05
4.30287504274171149e-05
-5.34184228985562676e-06
-7.7850780324363524e-05
5.68848593073824045e-05
-8.52596759531347383e-05
7.64544988016659024e-05
-2.01598862373909496e-05
9.07591939505716197e-06
-5.27109401761432117e-05
2.0322110057393862e-05
3.09426310395737238e-06
-5.64888531447934979e-05
2.59584902095350649e-05
-5.46750575878450718e-06
-5.95339177048297111e-05
3.40351259158764484e-05
-1.73425431783799749e-05
-6.15409924007805412e-05
4.55435736132971277e-05
-6.21374891424932789e-05
6.18427802351462891e-05
-3.32360270592123113e-05
3.44004598813497264e-06
-4.88192822677280727e-05
1.2857313868137202e-05
-9.55164028336630519e-07
-5.08275814085090987e-05
1.65754315634134469e-05
-7.30897651228435082e-06
-5.13961264326450953e-05
2.18888703224006765e-05
-1.61618938343840207e-05
-4.98809702555373958e-05
2.94711231284615786e-05
-4.54724934826599694e-05
4.02023938075634556e-05
-2.82322112680929486e-05
9.08612197847313908e-07
4.42911893605349156e-06
-7.07095268073475515e-07
5.73489896028216655e-06
-3.03483688984935554e-06
7.59592596132086204e-06
-6.30242419315394568e-06
1.02428605050875256e-05
1.39814169984775272e-05
-1.08216706448656286e-05
-0.000538066113991499204
-0.000397423799629527353
-1.56254419092449558e-05
-0.000862913153412310507
-0.00014472035259532472
-0.000470728936617168274
0.00033484616396809271
-0.0001933261796975782
0.000162654049453515588
-0.000414820148108113328
0.000299322890227936864
6.44295967290059869e-05
0.000229653550873245801
9.60134350630898197e-05
-3.87751678834229776e-05
0.000287629500958371865
-5.50903241409745215e-06
-2.52966899772599611e-05
0.000327792135164692788
-9.63633810580850144e-05
-5.12984150660847967e-06
0.000360933102455216533
-0.000155839368608045464
2.98503403342517139e-05
-0.000192082275365568585
6.40585031310895954e-05
0.000207109262060613144
0.000337369518634427303
5.76700716751049467e-05
1.36901464188566053e-05
0.000342290567718509279
2.61041358113476986e-05
3.34922180761280215e-05
0.000320742989594752714
-3.0211370673512825e-05
6.8160477609819259e-05
0.000276993191909943024
-7.90418116085436816e-05
0.000109876791775849898
-0.000114184896412635421
0.000136648792738868944
0.0002242054678055356
0.000233081713915119784
1.37201565361158879e-05
3.61883601017735205e-05
0.000238834306889253563
-7.46301541946707396e-06
6.9438503913644124e-05
0.000231319820424850085
-4.55909051630877079e-05
7.8568303161886976e-05
0.000226991473833641468
-8.10736499996038927e-05
7.73189337906791198e-05
-0.00010476458704429481
7.67832548321478557e-05
0.000229753836929366353
0.000153398693087682336
-2.4640934472836752e-05
-3.7659273031663999e-06
0.000176169563668294034
-3.94281701874368387e-05
6.07425862353688755e-06
0.000194028466739755711
-6.00242428363397342e-05
1.27930219359149961e-05
0.000207280548258095506
-7.99249839947766265e-05
2.56466159295298707e-05
-9.51644028877627284e-05
4.26953158094237886e-05
0.000219147607229362788
0.000141758961052148907
-5.06567322544867798e-05
3.92509434118516694e-06
0.0001613396018011456
-6.00750537758193382e-05
9.2794187062304543e-06
0.000179063336465244179
-7.33870885686155024e-05
2.0076526918634185e-05
0.000194884997518014275
-8.81093172696403892e-05
3.58905900926334993e-05
-0.000101999362750389077
5.21888872988817372e-05
0.000211660625517887287
0.000124439491764259365
-6.26137065788905897e-05
2.46898154249363038e-05
0.000137964883562251734
-7.30933958063187909e-05
3.17487144249792942e-05
0.000152246689984351046
-8.55197395125053151e-05
4.04741350255892262e-05
0.000168234794597869723
-9.93304529240007263e-05
4.9781751693518767e-05
-0.000113996893088763964
5.87511890004066884e-05
0.000188187524040614755
0.000103596442541216158
-6.76762804164315239e-05
3.01753193271468493e-05
0.000113093406752356714
-7.88444692191317084e-05
3.54711221126883215e-05
0.000124916520018275438
-9.19290087321868692e-05
4.22419278931688126e-05
0.000140046567540464827
-0.000107080719859411702
5.03576364449364314e-05
-0.000124517970552644668
5.94563816512345562e-05
0.000160111931175153504
8.18270892629007558e-05
-7.0099754860274854e-05
3.11870989935304798e-05
8.8320674290352647e-05
-8.14020020883075314e-05
3.64907366499082054e-05
9.65621090702971206e-05
-9.47395065635173042e-05
4.37803244320072849e-05
0.000107463266933352264
-0.000110623939667989091
5.30285432490534091e-05
-0.000129767591057877452
6.41389763554343418e-05
0.000122524957638832593
6.0720969729804589e-05
-6.92034944601644444e-05
3.03153310065293085e-05
6.33523977746604992e-05
-7.97731836727067606e-05
3.62043477017507677e-05
6.66293254898056152e-05
-9.22137191392152517e-05
4.43072458949828028e-05
7.11507606479543401e-05
-0.000107150548078345704
5.5035796968342087e-05
-0.000125442112761847354
6.89046721548584678e-05
7.79300400498414349e-05
4.12656934017628256e-05
-6.57016384465135386e-05
2.76055198871540762e-05
4.037541859131394e-05
-7.46490268566547951e-05
3.37974902373648175e-05
3.88906835736347646e-05
-8.49073762555786467e-05
4.24481702810757905e-05
3.69249972073792203e-05
-9.69500484596833674e-05
5.42776572184234911e-05
-0.000111422198093663073
7.02045584743643634e-05
3.48712287855823492e-05
2.52096422934627756e-05
-6.08367631063615668e-05
2.35806560459564526e-05
2.19473547020563026e-05
-6.76099792174879885e-05
2.94705842899495134e-05
1.71806190043867072e-05
-7.48697074017929363e-05
3.77564828673174221e-05
1.06494341852237097e-05
-8.27870575180766107e-05
4.92515615330627783e-05
-9.16133071625486431e-05
6.49961643186302754e-05
2.29859455934703804e-06
1.36711755064562157e-05
-5.6018052516204362e-05
1.81287817734527432e-05
9.67527816048378362e-06
-6.06408405399073454e-05
2.29845047880040318e-05
3.90747123465296998e-06
-6.49101768923164145e-05
2.98429568413043771e-05
-4.08487219236432283e-06
-6.8661375714844299e-05
3.94113828031667009e-05
-7.17230012350567931e-05
5.25904472560999905e-05
-1.47192619969528659e-05
6.44681881643733445e-06
-5.2554179865018921e-05
1.14583256788119482e-05
3.34878745520728415e-06
-5.5632625160140586e-05
1.46654209069264961e-05
-1.13490274098172232e-06
-5.7738709873829012e-05
1.92015001805933221e-05
-7.43726249465908526e-06
-5.84267734813727073e-05
2.55403088093263696e-05
-5.71497499357877294e-05
3.42643633886859119e-05
-1.60696478846978949e-05
1.96175072392602775e-06
3.94530479347030834e-06
8.01213712197372895e-07
5.08160299751742738e-06
-8.9663174417655023e-07
6.67898064170862554e-06
-3.28045963449678406e-06
8.89207900113938299e-06
1.19347447972311807e-05
-6.58377555270695806e-06
-0.000523344420642022756
-0.000214453761204503132
-7.31607965113931214e-05
-0.000831112703429635023
-0.000133714884855995551
-0.000480196144967744631
0.000470548201354453939
-7.0545029139610873e-05
1.01524843954165395e-05
-0.000338376353472515459
0.00014245601695050741
0.000134677858479039821
0.000293657195062919062
0.000131924403632724526
-3.11660179547276699e-05
0.000347829006942534133
7.3946476334873617e-05
-1.78428318267159162e-05
0.000401172155376359606
-1.13730578492781981e-05
2.91606371987691978e-06
0.000429101869489639939
-0.000109186755781867125
4.05612656558505824e-05
-0.000181888825238950177
7.66565211434928813e-05
0.000260015093407392278
0.000360532152912851377
7.41049485312776456e-05
3.19033262784712779e-05
0.000376891168729318298
4.45983378345928428e-05
4.64804157099441858e-05
0.000361362608098619745
-2.47070533643508673e-06
7.47860397680025153e-05
0.000307505078644890423
-5.31926003867269761e-05
0.00010773931424330677
-9.96488723288688129e-05
0.000126482097914776249
0.00023543063127742759
0.000268082062504751753
5.45101806945326244e-05
3.2128828165625678e-05
0.000273784192804530215
3.46750168990378561e-05
7.36588232069027964e-05
0.000265378827453166077
-6.49183614565275956e-06
9.09945486525692621e-05
0.000256163062062204829
-5.16498731346320391e-05
8.49916061879260273e-05
-8.82956000847585573e-05
7.06619052011023545e-05
0.000250930057727023368
0.000186729024764098846
1.39126387770947143e-05
2.25139278579565232e-05
0.000204877511064673664
-6.60923803522673312e-06
2.92092687845264634e-05
0.000220400849211581742
-3.73583823913360203e-05
2.81365154366199159e-05
0.000231349084946723995
-6.75292959634886717e-05
3.05780727544089403e-05
-9.06143528255740381e-05
3.78262452849609216e-05
0.000238536096096732725
0.000156316253634224665
-3.66194276535120728e-05
3.77436361196096588e-05
0.000176083086081074995
-5.12810517236221902e-05
3.41839803922762065e-05
0.000192721763152493998
-6.88683157613981538e-05
3.4948493206123191e-05
0.000206499208233253356
-8.64338308378403438e-05
4.10185527137767441e-05
-0.000101846203984882181
4.94751701550789609e-05
0.000220444707824704806
0.000129470625442446334
-5.81069706715656159e-05
3.28523813252411755e-05
0.000144173853204920333
-6.97065866156347161e-05
3.54708496490218587e-05
0.000159105275441599042
-8.30368830429650123e-05
3.97123669007467248e-05
0.000175193752985511509
-9.74855948082496032e-05
4.47466752691842869e-05
-0.000112435142545992754
5.00604216533156009e-05
0.00019447479617508255
0.000108075901465572191
-6.65545766872181071e-05
2.96465310409250131e-05
0.000118864018808191352
-7.77330210040888721e-05
3.27094234129044774e-05
0.000131721888840333104
-9.08054503907786636e-05
3.71541066806755073e-05
0.000147451111213991353
-0.000105720088452098711
4.28652076622238327e-05
-0.000122485258632496743
4.95547429306850978e-05
0.000167405483094093104
8.62393387181549769e-05
-7.05044313736221946e-05
2.85654753678597626e-05
9.42604828296005558e-05
-8.15838268083750014e-05
3.23206192987957329e-05
0.000104053490011242494
-9.454326663661038e-05
3.77264212142419501e-05
0.000116419441666847366
-0.000109746358353602708
4.469058590355627e-05
-0.000127701055148181868
5.3103017331372553e-05
0.000132673122581027043
6.55779688297699758e-05
-7.02266091535007684e-05
2.62963413605468176e-05
6.99974173497869463e-05
-8.06579049135257553e-05
3.08592041674294741e-05
7.54215475255643652e-05
-9.28628514594141442e-05
3.72029421351626169e-05
8.24839851947967178e-05
-0.000107334382331946755
4.55612606965906505e-05
-0.000124738626585956512
5.62404090286740667e-05
9.21854410123976067e-05
4.6330499564257588e-05
-6.74400627464002842e-05
2.35843036677380972e-05
4.74586216357265016e-05
-7.65125677579376847e-05
2.8523861510054245e-05
4.8569710657332896e-05
-8.69127702916293478e-05
3.53861716834337147e-05
4.99387882325997036e-05
-9.90654305924213932e-05
4.46383867847800959e-05
-0.000113547430562871817
5.68350605034207757e-05
5.21159868340914379e-05
3.00203928680302701e-05
-6.32325068522471647e-05
1.99658133156932453e-05
2.87080804098623727e-05
-7.04448677216977769e-05
2.47143354360083637e-05
2.6542772141495908e-05
-7.83165775688225078e-05
3.13245064780472328e-05
2.34525498249979478e-05
-8.70608357890551352e-05
4.03369796148069718e-05
-9.69934161609350835e-05
5.23802049877368779e-05
1.95156519887156091e-05
1.76233701995926e-05
-5.89696707799679585e-05
1.5295004940224101e-05
1.52465425354172411e-05
-6.43189399860702123e-05
1.92342098229994928e-05
1.16611814450489125e-05
-6.96157440336196443e-05
2.47266820833504737e-05
6.56011306532660357e-06
-7.47995822629686751e-05
3.2252349285745945e-05
-7.98374558802633367e-05
4.23642884161098862e-05
-3.66459319501361798e-07
9.04259433764730484e-06
-5.58822975129999111e-05
9.65234845566344619e-06
7.00186380467860238e-06
-5.98771793910449904e-05
1.2263099312489843e-05
3.97073323381962943e-06
-6.32894076376788441e-05
1.59043239492440326e-05
-3.86668960329229101e-07
-6.58149217130998094e-05
2.09124330096648934e-05
-6.70711127150357866e-05
2.76641079698809384e-05
-6.55102274218173701e-06
2.86917094394388199e-06
3.32074494578661844e-06
2.101267107015432e-06
4.24508683009002277e-06
9.3141409772906729e-07
5.53980000986310224e-06
-7.89076574077807317e-07
7.30742593030537947e-06
9.66373023031187084e-06
-3.24212252691098227e-06
-0.000486808122157776548
-0.000140899347981149559
-0.000136200703929137992
-0.00082487664541590431
-0.000118716478322791389
-0.00045808270278515945
0.00058978597792230217
-1.79020988253075487e-05
-9.78061877446665252e-05
-0.000301892401296074769
3.21861873363675624e-05
0.000177070904213533296
0.000370579200867492131
9.60642212040570319e-05
1.81857985108659729e-05
0.00041782529963164288
8.62181994813968484e-05
2.48404921569871334e-05
0.00044742466236933091
2.6156464991682689e-05
4.39342144562521509e-05
0.000463608279124836699
-6.43226430051677589e-05
7.07974052353074887e-05
-0.000158409906839107584
9.502364461171168e-05
0.000301758054393058586
0.000375757490901228793
5.48543528221026431e-05
4.33284192893866062e-05
0.000393077476245466109
4.3632432978000443e-05
7.17449648598442798e-05
0.000386316633805396722
7.09771218430292183e-06
0.000100604992659370746
0.00034277419834845838
-3.5814888707791724e-05
0.000122773552457577337
-7.85658947902915074e-05
0.000122168797906403276
0.000267242652716244552
0.000298366591563610322
5.37739585142734474e-05
2.1764382071742439e-05
0.000302795804741174594
4.32862024035132259e-05
6.95746489705901795e-05
0.000293760572358667954
1.21122350751025741e-05
9.5014847920980088e-05
0.000282675950872959228
-3.31279676645600157e-05
9.33889439917765874e-05
-7.43215702749301383e-05
7.53518033114471917e-05
0.000273740399449030403
0.000218399746225409434
1.58809510195764885e-05
5.06023540110593393e-05
0.000227458624595923854
-3.6592343058715324e-06
6.70946679921728928e-05
0.000237398172418469712
-3.23926438403690102e-05
6.270171224033459e-05
0.000245296186694996096
-6.42842545219949343e-05
5.38362984384725405e-05
-9.01166977330155185e-05
4.9033051502320017e-05
0.000249883218177785632
0.00015480186790151873
-3.54462717212809659e-05
7.05967435790481608e-05
0.000175847943684005856
-5.1945348595296663e-05
6.14231325429418298e-05
0.000194844635737537896
-6.95418301490526394e-05
5.31012235705582037e-05
0.000210060969552972228
-8.67946314322531328e-05
4.83131719963997782e-05
-0.000102062173495722901
4.73509771104346495e-05
0.000224130215098042524
0.000131405403648639002
-5.83855844168464365e-05
4.0092569746418252e-05
0.000147346743777200252
-6.93500563172073453e-05
3.69336804799902477e-05
0.000163161538953058931
-8.22774837641678967e-05
3.66340657300470582e-05
0.000179708654905585133
-9.65209948838937238e-05
3.79274626618312686e-05
-0.000111382095651164234
4.02896325076362462e-05
0.000198800487296212531
0.000110322450600861032
-6.73872731330698964e-05
2.80962055114688452e-05
0.000122454435612216224
-7.82106572624488377e-05
2.94378013730339205e-05
0.00013639676674487137
-9.09154655388743293e-05
3.18510438195776497e-05
0.000152795735795744784
-0.0001052898712491371
3.52373457413113959e-05
-0.000121250460451185338
3.94376764413802811e-05
0.000172783564633990444
8.93521864321781205e-05
-7.13594895463257783e-05
2.46947202767280836e-05
9.86327849570924222e-05
-8.20929552718084328e-05
2.69223031633730988e-05
0.000109649729698389908
-9.46301792643597112e-05
3.04251580610173598e-05
0.000123133335740951738
-0.000109220299518878789
3.51391680816719431e-05
-0.000126235771035599801
4.0978710402272259e-05
0.000140245024457511886
6.93054203627607555e-05
-7.13694186781619916e-05
2.13098478616209984e-05
7.51695435638371275e-05
-8.1622790226408505e-05
2.45247859648542223e-05
8.22467185643320985e-05
-9.35950612997622371e-05
2.90906650294494959e-05
9.11530442921400507e-05
-0.000107677807187688576
3.51129661493581677e-05
-0.00012441503826470413
4.27497058118661742e-05
0.000102823775863783716
5.0351228844166957e-05
-6.90126372407373059e-05
1.87292468033703057e-05
5.30478747349962445e-05
-7.81562089216797492e-05
2.23601591275456428e-05
5.60971131654000533e-05
-8.86532063732324474e-05
2.73946421215368258e-05
5.98307585983379837e-05
-0.000100889008292244444
3.41161828928246067e-05
-0.000115393014316548311
4.28296707179076522e-05
6.48148095557425581e-05
3.38861110709311937e-05
-6.52940870041737785e-05
1.567197417908797e-05
3.40820644175083521e-05
-7.28497484543340118e-05
1.92111400930624452e-05
3.38484506556690915e-05
-8.12009856025369713e-05
2.41059675725281587e-05
3.3187405165396946e-05
-9.05827378274065879e-05
3.06930512009135506e-05
-0.000101336642681465223
3.93204426260176148e-05
3.21927115630658676e-05
2.08226404432676274e-05
-6.14698451646376876e-05
1.19471400380439399e-05
1.97000301121333893e-05
-6.74024239860851351e-05
1.49085750338107717e-05
1.77420204359214628e-05
-7.35162472683651043e-05
1.89999781443831466e-05
1.46979485125576646e-05
-7.9811702664191696e-05
2.45267627451024963e-05
-8.63344967768997718e-05
3.18155029970288816e-05
1.02469175497541728e-05
1.11534508748019372e-05
-5.86876656370559477e-05
7.52535617555140821e-06
9.94395202426848364e-06
-6.34269633567876516e-05
9.49524937585581945e-06
7.98970285826749377e-06
-6.7878854037141357e-05
1.22187144717775247e-05
5.02545766851243012e-06
-7.18438617474192554e-05
1.59079060316062318e-05
-7.50538069924944228e-05
2.08172704585367554e-05
5.93236666746125396e-07
3.60585515321181786e-06
2.58636628518792941e-06
3.13364077177078361e-06
3.28367006346149567e-06
2.37479111074591315e-06
4.25136588281341863e-06
1.17916047459383537e-06
5.57280475784465663e-06
7.32650108712796327e-06
-7.00156773937434747e-07
-0.000484897944023454219
-0.000249004957361421845
-9.2420380788027967e-05
-0.000827369137241584091
-8.38927472980544812e-05
-0.000464234841910362607
0.000617076860714762957
-0.000202196409912799667
-8.99664445982622304e-05
-0.000345494473768093396
-3.07546273760407978e-05
0.000198142781928247548
0.000425458201333998116
-0.000165888730151583774