/*--------------------------------*- C++ -*----------------------------------*\
| =========                 |                                                 |
| \\      /  F ield         | OpenFOAM: The Open Source CFD Toolbox           |
|  \\    /   O peration     | Version:  2206                                  |
|   \\  /    A nd           | Website:  www.openfoam.com                      |
|    \\/     M anipulation  |                                                 |
\*---------------------------------------------------------------------------*/
FoamFile
{
    version     2.0;
    format      ascii;
    arch        "LSB;label=32;scalar=64";
    class       surfaceVectorField;
    location    "0.960000000000000631";
    object      Uf;
}
// * * * * * * * * * * * * * * * * * * * * * * * * * * * * * * * * * * * * * //

dimensions      [0 1 -1 0 0 0 0];

internalField   nonuniform List<vector> 
20536
(
(-0.527774579565973734 -0.793206522487413745 -0.105467647562198008)
(-0.187152047810091621 -0.556783710855313196 0.392583180489743555)
(-0.455240837300079304 -0.925792458206823543 0.113822646610777511)
(-0.432188543805917591 -0.599900961753225381 0.251257308775881594)
(-0.286798005040211801 -1.00193844231977169 0.236469793087117713)
(-0.518386601465157026 -0.848874233444723347 -0.26382909553762024)
(-0.518517502027355026 -0.652989719991576512 -0.277094427521932141)
(-0.54992336638812378 -0.440032388463411583 -0.439163360991045859)
(0.119381796648409616 -0.662341258330669813 0.73452062113905825)
(0.158621927375929089 -0.372090523484947644 0.474162504030498089)
(0.204125627286797312 -0.349813517306628075 0.568371566862757471)
(-0.00561849109348446559 -0.351887958380944776 0.707626355621827519)
(0.0967223091086715642 -0.486378989131883765 0.576182759297944047)
(0.100976204027134295 -1.17130416815029248 0.629540774464200426)
(-0.0996406718214083303 -0.578679451062499961 0.848111415018465875)
(-0.0213947916911322068 -1.18178343130428032 0.705555487933417935)
(0.247409966759366884 -0.16062068502029192 0.100388323837464308)
(0.264783102600578413 -0.0894874589504773971 0.0462020149482124665)
(0.180343403435211824 -0.0743506729469391447 0.0285838121558169775)
(0.235969044751137752 -0.120379533433657024 0.103118971055461556)
(0.230793147905634405 -0.203423939714411917 0.160419144082476428)
(0.269645922380044478 -0.132102349226052851 0.0992690173058773662)
(0.232015843339162364 -0.143815904445769555 0.098625347781642711)
(0.229975613793210965 -0.176768214863514794 0.155196550118174154)
(0.207847788536236255 -0.260530841315536277 0.225337109366112953)
(0.257575822623060446 -0.161971656222917731 0.15440391863161676)
(0.256318263230455812 -0.22624988478615124 0.154283516596712661)
(0.196791858131969477 -0.200876104639984648 0.213813696242199813)
(0.179946134271059877 -0.347394287453888784 0.31582464218938372)
(0.231209585726374817 -0.194049227767692095 0.220047802727020514)
(0.251876845206075228 -0.332488823763180286 0.211202227357803252)
(0.132628850064457904 -0.271787224932364846 0.305093807840293552)
(0.204692040682811632 -0.246178189356535126 0.2944791976627536)
(0.218519334634476425 -0.362207133825059258 0.289128736921105745)
(0.0765595574223764674 -0.39423235286246705 0.427688951030552322)
(0.15567657363239043 -0.395534266407199298 0.405609833160985644)
(0.299143116137428777 -0.0726709476543088151 0.0450827084166253653)
(0.235591161378982838 -0.0866655273034937362 0.013199838246393451)
(0.307839724763544931 -0.00473177207179612067 0.0223189276644180055)
(0.283911339615539493 -0.1010369849374676 0.0252349253538657337)
(0.28738485703707739 -0.108440690304106385 0.0932537918550176287)
(0.236488954643434557 -0.117295226116729739 0.0449402176770902981)
(0.313250469214738869 -0.0494919645493779106 0.0694939365957428917)
(0.276080934457024196 -0.12618158341691435 0.0689118047508175541)
(0.27395303263688936 -0.129799465529471136 0.149114611992524099)
(0.23377905900804774 -0.13958753828584064 0.0854690674898151842)
(0.304025352480514155 -0.101934831200777537 0.121452985350873205)
(0.265078385539239958 -0.132115059865550943 0.124435562964972851)
(0.257328441655427564 -0.149767628479432424 0.198702358200390006)
(0.231768049665863923 -0.144841939959003102 0.131982401597522891)
(0.281949254748815881 -0.130839635038304397 0.168071977679712908)
(0.246704213559701152 -0.130011074818494027 0.186099366216058354)
(0.229890937038765231 -0.153488896744441605 0.169785655253822693)
(0.255363576033100115 -0.17314162391505955 0.195614936664071204)
(0.220440064167391814 -0.150897340565952442 0.236785468146605893)
(0.234127823837846583 -0.185730834814736234 0.22675711926320416)
(0.176512118382213173 -0.130247038926778386 0.0130573475068584063)
(0.152262494208267457 -0.102511840320125114 0.00513806547156659115)
(0.181070296460769775 -0.0909093246651016956 0.00784387742973848695)
(0.169977056560787043 -0.126920142847370687 0.00857019797991500666)
(0.183037348514399123 -0.147697897858701077 0.0371554933118879299)
(0.164004135743917201 -0.120532806080178898 0.0224638378194232866)
(0.192913458671032684 -0.114114470763558129 0.02625151153705408)
(0.173213780544351076 -0.143434392336373506 0.0298926015342858113)
(0.189560175210739423 -0.152460079937885323 0.0683368570948140464)
(0.172835784196457731 -0.133159723818572412 0.0473913672301827377)
(0.197787763998140798 -0.140082916237096872 0.049712853053542741)
(0.177729348036665985 -0.143336286413315167 0.0597964274226576789)
(0.202622189277084169 -0.150237407679094104 0.103065698650955287)
(0.184276134869549163 -0.13468985947299586 0.0772232146063348002)
(0.204957491511112005 -0.154281680263800208 0.0785973867739111071)
(0.186751488578380531 -0.135930550653657112 0.0969768895261874236)
(0.199995869156045225 -0.134144395285103135 0.106339637548237526)
(0.218181435374129484 -0.159563147409056305 0.107910615901361903)
(0.196064761821790917 -0.135423676704289786 0.134226203322460574)
(0.21771768449789955 -0.147844030769575002 0.136169117447378252)
(0.141386760539644801 -0.107942506374320069 0.0145445557841315208)
(0.130310068028446913 -0.101402679006626278 0.0149331025763741049)
(0.127974384039578615 -0.0864809974297159195 -0.00176031260874870898)
(0.138404060709575255 -0.102293687237414457 0.0150583244122693225)
(0.154523982468443288 -0.120206006221062797 0.0326997117377181776)
(0.144640748878847869 -0.11205161905585323 0.0254635236297296869)
(0.149485158977344768 -0.0974695800058538037 0.0129081692195486437)
(0.146116559753749764 -0.114995148761932231 0.0302402035269718518)
(0.165818739067900178 -0.127999456654143584 0.0562777247417035054)
(0.156634550362030556 -0.122205434410185845 0.043404310668831908)
(0.166515549973631355 -0.114392215496493352 0.0347502760042933123)
(0.153544412257767965 -0.120476897638515976 0.0520936750421236439)
(0.179855801885540179 -0.131103160352646936 0.0804971535036168861)
(0.170027390642027099 -0.129310895156519418 0.064768753528306286)
(0.18169120556927984 -0.127501728819333249 0.059949583551976271)
(0.164803331366340733 -0.121305594091800764 0.0760135690267772085)
(0.187546515366278616 -0.135133504128018223 0.0856605856183638992)
(0.197980281748291215 -0.135907017446805861 0.0832187489819187221)
(0.181118763388321585 -0.12193557146057904 0.0990416983500888859)
(0.198397836689767543 -0.132987164825604437 0.102323230303558499)
(0.133844227677559047 -0.106641786338243949 0.0258520704219722883)
(0.120725959881633718 -0.098078332759466022 0.0272698879018566237)
(0.124182631531545823 -0.0906853236001301383 0.0128299447428700652)
(0.127689619495970574 -0.0998041747223177289 0.0271893738131015784)
(0.146433658749665768 -0.116207030718023685 0.0361681225608434451)
(0.131921984645904794 -0.107970890729367761 0.0333615320982683997)
(0.143167333152058457 -0.0996542429031410243 0.0213835219627093003)
(0.136292003242834497 -0.110230304942369781 0.0352954173938629864)
(0.159629332307599126 -0.126335284085876798 0.0518953394554346331)
(0.143737996474969459 -0.119675503419539447 0.0453387566429974548)
(0.160002565941863045 -0.113654827693871488 0.0357678473164997554)
(0.146064026430496402 -0.120016675621890778 0.0491845873423712304)
(0.175892164726580036 -0.13645099197871291 0.0699321856430531741)
(0.158151716053089197 -0.132307443323461532 0.0607296293866187026)
(0.176288392249858733 -0.128108400760107266 0.0536398185499027194)
(0.15952909508847582 -0.129678603892572131 0.0660981924005665938)
(0.177242653000207639 -0.145444770346186081 0.0773394215884466579)
(0.194733106929310729 -0.141150173765004189 0.071961712248114873)
(0.177967477433751242 -0.138995715769666489 0.0843868416074638611)
(0.19760371825864953 -0.145576339063488491 0.0881339764117929775)
(0.118283542581292977 -0.103652036937236722 0.0347793495781527143)
(0.104951263666020436 -0.0978747280734433012 0.0339335111275720705)
(0.11605180942500834 -0.0953439609441685543 0.0277560121226964295)
(0.112440542622609579 -0.097173694805657379 0.0349736982879202962)
(0.128276069483994948 -0.116238297140189711 0.0425321661804223816)
(0.11245120290191768 -0.111043337833117581 0.0399018350369322039)
(0.127544088187725613 -0.107225425790302628 0.0338983212594686709)
(0.119842144027667949 -0.109627173762240501 0.0407325910300324542)
(0.140847453598452604 -0.130721725017073048 0.0541730465741814479)
(0.122109928852769431 -0.126538358341346663 0.0495778196024427228)
(0.140134165310637021 -0.121861784136042151 0.0441470369606490332)
(0.129659243324928425 -0.123350575721342517 0.0507468957618465236)
(0.157457910662774869 -0.146575440435448179 0.0681368653320121309)
(0.135086218349631637 -0.144188053110275077 0.061965115093878316)
(0.154911495220849571 -0.138063204400472456 0.0571153488057650413)
(0.142912264941780109 -0.138137136090494134 0.0639602716471543015)
(0.153400971834766586 -0.164033770085209807 0.0760561342193027679)
(0.174144545305418563 -0.155198121640026193 0.0711096784247786523)
(0.161654182471964253 -0.153861136768941975 0.0793153825764384424)
(0.180630377988203944 -0.162978797382715673 0.0827971063374764726)
(0.0980718726140807073 -0.107090590624915896 0.0390559965863515393)
(0.0853113545260438672 -0.0994843294100966058 0.0358583291808572888)
(0.0985633134699690217 -0.0984658130104491131 0.0339230375612224744)
(0.0934147993267760574 -0.0998055440557379658 0.0371459589846446017)
(0.104844841225379348 -0.123608850872898815 0.0469474884589525521)
(0.0894269016819996404 -0.115434578466674473 0.0426193926492178243)
(0.105325164854102676 -0.113666884265217205 0.0405200280770823887)
(0.0981105669598544144 -0.115140116519094157 0.0436126491925296414)
(0.114424383266998192 -0.142741207240742796 0.0573698881221395215)
(0.0952285706379945446 -0.1341822896976054 0.0520713938395172618)
(0.114267066314594448 -0.131459008445987485 0.0495411729510117568)
(0.105004864875023043 -0.132679033822978881 0.0529608794883844533)
(0.128485052566416041 -0.165059443773829251 0.0698843839811689044)
(0.103864273855158062 -0.156497280967339031 0.0641404782242370602)
(0.12659191483857038 -0.152053172181377011 0.0605888571861187067)
(0.115546451147691451 -0.15315341124008755 0.0648819213204795964)
(0.117159809563073591 -0.183538380104322135 0.0786580784662077453)
(0.144194431133157719 -0.175936805471329866 0.0731354027963205811)
(0.132117619787314455 -0.177490568315275404 0.0789149323423354032)
(0.149614434067902924 -0.191055281740750704 0.0835440226982123724)
(0.0754038659493844743 -0.108859317010293832 0.0394217252437235599)
(0.0640434736802009685 -0.0992543665085439952 0.0353436429213644168)
(0.0773464089411473876 -0.100313038779488328 0.0348056653014969866)
(0.0722210841377564638 -0.100333390443496068 0.0366045729471766931)
(0.0780883253459324356 -0.127128156522373303 0.0477432980297824855)
(0.0643634812538976808 -0.115891918067458313 0.0426098721836429897)
(0.0807855504318467782 -0.116813733588019858 0.041594857695148077)
(0.0734004750830946906 -0.11718604029704803 0.04367560896228731)
(0.08231048612635182 -0.149215383956258468 0.0588419839416147589)
(0.0649746024753508067 -0.135896344863626312 0.0527231764461063152)
(0.0854895067884404308 -0.136482029765839313 0.050874889512850012)
(0.0756174883698694927 -0.137325700561052894 0.0534854054385634284)
(0.0893355859486449772 -0.176618915880793453 0.0729141727092758596)
(0.0664918179054545117 -0.160689334223721114 0.0662367398817651637)
(0.0923897076441347193 -0.16031278104857008 0.0628441869785440616)
(0.0799333780847223813 -0.162150020938883227 0.0662945351778559122)
(0.0698622911773661148 -0.19231849204793755 0.0837783390656709204)
(0.102940292249126347 -0.189793871847941331 0.0775996388885225735)
(0.0879916834857614183 -0.193682392807414533 0.0822825892848852991)
(0.101188371135213187 -0.211238885923076852 0.089732900220809958)
(0.051834271019881098 -0.106442352702711115 0.0385317898612838328)
(0.0433731655435515701 -0.0953068900148839326 0.0333384296544016051)
(0.0560106997397840645 -0.0988503240771507058 0.0339517421309581541)
(0.0503234443856408822 -0.0976310830596603535 0.0351658107669375053)
(0.0496036139547575972 -0.124377021941441998 0.0475897505999667569)
(0.0398643029165667712 -0.110675488365630778 0.0409964310820475908)
(0.0554698360149326747 -0.114966733597641438 0.0412674460377500316)
(0.0473630612352096206 -0.114011922050813258 0.0427617374086357374)
(0.0467835058958523189 -0.146468719803634961 0.0601179323862566645)
(0.0349322726339176409 -0.129146278134456061 0.0518757464048253195)
(0.054663600194351146 -0.134323900460299461 0.0514747113891677946)
(0.0434810163120662313 -0.133891714332143974 0.0534677245525116557)
(0.0436110863014233102 -0.174665362162466253 0.0771009062381602245)
(0.0283486141324073779 -0.152198831883326835 0.0671178975288911489)
(0.0538922924172800036 -0.158295153636829167 0.0653457635845640233)
(0.0387874143441576183 -0.159080707338871696 0.0681863505132402764)
(0.0197741144628890211 -0.1820238275493756 0.0883572115124384994)
(0.0536455890466882648 -0.188888693725372175 0.083885494191082377)
(0.0334324706622056295 -0.192311936507848252 0.0880965881899969244)
(0.0406265391866587541 -0.211743816886235364 0.0997450708720791085)
(0.0305991745797605831 -0.0992341760056972277 0.0358030708751653076)
(0.0257661032858025017 -0.0878945875198005877 0.0295995666751447221)
(0.0364322755209048471 -0.0934434050887095885 0.0312516768194894615)
(0.0305458156065392568 -0.0910551127257505782 0.0321768036037311106)
(0.0240175437130625939 -0.114391471424858143 0.0452824268869061464)
(0.0194528548674112595 -0.100125473554995931 0.0371405538689891929)
(0.0324019242352535652 -0.107348343339211796 0.0388249349639413904)
(0.0238984491126552137 -0.104915601774353773 0.0400074926528496896)
(0.0146990337770623505 -0.132691054455349594 0.0588757115474597137)
(0.0103501741388949825 -0.114201820476739088 0.048065637049540838)
(0.0265620125236905764 -0.123728979094571562 0.04964282338596894)
(0.0144010938416270634 -0.121373836476097063 0.0513222806123689104)
(0.0017962818596374123 -0.155641262405930347 0.0783742028031694515)
(-0.00244491090712076458 -0.131007484282511993 0.0638935523645117187)
(0.0184640113355960811 -0.143692351643432858 0.0649735620233945488)
(0.0010879468120387301 -0.141785438045612333 0.0676327954865658942)
(-0.0202569817350370142 -0.151783685575747035 0.0869857710321659955)
(0.00749785532262249414 -0.168836207201303296 0.0867045678685958721)
(-0.0177045902102012376 -0.168294906724411636 0.0913458615638330224)
(-0.0156651590521836651 -0.185483443023448907 0.10658998556228462)
(0.0244786563324807145 -0.0697047301775136491 0.0206793660480373322)
(0.0209181438084772367 -0.0627906797127735644 0.0166180659438906093)
(0.0248241608724963404 -0.0637689529485212653 0.0192067210491364236)
(0.0204538531124314749 -0.0788414513593288652 0.0248050215653605639)
(0.0177762561687616234 -0.0706926740817209742 0.0196146739907140273)
(0.0210406736105830904 -0.0725399812279208661 0.0224938942219295619)
(0.0143201297492837939 -0.0885217210198185195 0.030937049668968597)
(0.0128744670073793876 -0.0786911286185620895 0.0241205309281345391)
(0.0207183680820337973 -0.0852761898367936366 0.0267837324022125872)
(0.015208416115960216 -0.0816948366427026063 0.0274674577097619513)
(0.00531296509565218518 -0.0989573030123679226 0.0399237640316239539)
(0.00558057525525211193 -0.0867462731801388609 0.0307601758940162506)
(0.0146237051966294426 -0.0955568861125399988 0.0339133889873339256)
(0.00656142549689674431 -0.0913787266228566208 0.0348264067671272964)
(-0.00764226160646661046 -0.110499257510156185 0.0530834778665927945)
(-0.00498221055083797673 -0.0948384759794492216 0.0404769128457053567)
(0.00576632130079703098 -0.1068263334492498 0.0442467561483752339)
(-0.00601153115129689133 -0.10185206713958897 0.0456396392501095816)
(-0.0259492846963858582 -0.12366460410776732 0.0725051205935082627)
(-0.0199430528889652306 -0.102973190527581637 0.0547631484238925506)
(-0.00672243556961233963 -0.119524521149103488 0.0592287336230200509)
(-0.0240270813065106628 -0.113541577004142968 0.0616466271896998)
(-0.0408370940918681147 -0.111123081010109578 0.0759374857157136818)
(-0.0240191520597020161 -0.134266814465038048 0.0810615398221803118)
(-0.0498158004524202128 -0.127033597207831084 0.0857020196193937073)
(-0.0512269060553438432 -0.139108718375774404 0.101390552553178845)
(0.0143139296306565387 -0.0642936770121241424 0.0155533738865673288)
(0.0120620130010281636 -0.0589543077034098695 0.0114969852978315697)
(0.0147772343578095877 -0.0592322007620776567 0.0143265190680565424)
(0.0103307270682613216 -0.0707905245698569469 0.0189301833534880337)
(0.0093383762949207378 -0.0647855794107656119 0.0137363207963759719)
(0.0111015509649180014 -0.0656461456492554579 0.0170295514616158918)
(0.00430228382407200297 -0.0768208060670138443 0.0239436571531822066)
(0.00511744399858618786 -0.0699327401079280486 0.0170894933219270587)
(0.00997686295134745521 -0.0762547833479063214 0.0206144396905373305)
(0.00546329310643376385 -0.0715802868110929219 0.0210953568787281866)
(-0.00453411814785695602 -0.0820793083871698137 0.0313133247080976534)
(-0.0011027497964387538 -0.0739943823017154001 0.0220246500274000161)
(0.00373760487951692137 -0.0825414565534782624 0.0264653541672116299)
(-0.00287868118639765915 -0.0767290849818454412 0.0271124673928179495)
(-0.0172582197655890592 -0.0862072632085244817 0.042156583403005099)
(-0.0101250331338194818 -0.076337071617342378 0.0292693032053514685)
(-0.00529656669940328697 -0.0881397833194054736 0.0349763140908346745)
(-0.0150051611392797539 -0.0806694219108678029 0.0359996796945059247)
(-0.0351520072731746486 -0.0887203136300831058 0.0581955135460978865)
(-0.0229410733870103675 -0.0763612691172616403 0.0399563017766889003)
(-0.0180278040792309774 -0.0927774424536079445 0.0473843139041390943)
(-0.0323288341502182205 -0.0828864559610124063 0.0492192932839325345)
(-0.0407542143690484415 -0.0730595079235533129 0.0557743563379127644)
(-0.0356019087263566153 -0.0960395495592768489 0.0654857332411614701)
(-0.0567808667807164422 -0.0825145791251385013 0.0690855042194188501)
(-0.0596479592044598939 -0.0889112958854512414 0.0819054183142424314)
(0.00733194695239430903 -0.0599226358269473736 0.00967993220764024227)
(0.00549683866806771788 -0.0562575527948034823 0.00589041791448996228)
(0.00766430291237321908 -0.055586117453953178 0.00887650114057620017)
(0.00447409081639263927 -0.0642842815210163815 0.0118956307648150281)
(0.00393575835992313657 -0.0606295680420265368 0.00709255871383344515)
(0.00503245947005607867 -0.0601128718750537777 0.010657478293980829)
(0.000142726981248733717 -0.0673264624394517008 0.0151704861961448768)
(0.0015183273270528712 -0.0637425426693461056 0.00888519490292826765)
(0.00395496126343459174 -0.0689197824880322246 0.013043470223194643)
(0.00101170548937512344 -0.0634265129430158503 0.013321222553278389)
(-0.00633204800275157485 -0.0683768162911679439 0.019980628524653845)
(-0.00202194734053999297 -0.0649172532204873309 0.0115105808827547403)
(-0.000579501898270674267 -0.0719219163846158832 0.0169140952094874071)
(-0.00489067632053063854 -0.0648751970002146988 0.0172107208169033944)
(-0.0153615393909877513 -0.0665199209693243809 0.0270690215790353114)
(-0.00716166297829727745 -0.0633280605032520566 0.0153682983613510384)
(-0.0071590231564873253 -0.0729002535536926177 0.0224399545157880353)
(-0.0135059899983788131 -0.0635675720789647819 0.0230839057388690962)
(-0.0281419198823816344 -0.0605175373392054378 0.0375351445685037782)
(-0.0144891662515440386 -0.0575949102241933089 0.0210592921888897583)
(-0.016502366785227169 -0.0709594803176827188 0.0305976366841537867)
(-0.0258515235234129462 -0.0582479088741906167 0.0317429570128808375)
(-0.0246754518768803714 -0.0460947315406077252 0.029447769515553026)
(-0.0294416262102001544 -0.0649245959484053836 0.0424683426544023995)
(-0.0432145581337129853 -0.0471632425837578556 0.0446954746465173594)
(-0.0458522112364049411 -0.048786428004714201 0.0529227841958861758)
(0.00232405205155612141 -0.0575238574697305716 0.00330304442068315605)
(0.00242612719632838642 -0.0535800273657188256 0.00302063117082723015)
(0.00129525317088402601 -0.0607143081167271434 0.00408212285194667172)
(0.00147862318722915111 -0.0570754266650251307 0.00364942969830814963)
(-0.000270517010441023655 -0.0621118313654643664 0.00522528958953817364)
(0.00106264531460008066 -0.0648958109624901969 0.00449287435152861091)
(2.6167887477145167e-05 -0.0589461982544157506 0.00458336122784531314)
(-0.00258725914954614344 -0.0608759330203978502 0.00689825071945201346)
(-0.000599557995127552755 -0.0660934196465349372 0.00584102745998350912)
(-0.00211796358600300312 -0.0583764647496887515 0.0059401860288545499)
(-0.00592106731948892871 -0.0558034796317938009 0.00935856897120548696)
(-0.00300277248255409294 -0.0645692503100434717 0.00778793063670943971)
(-0.00522226856255736827 -0.0542470946265111026 0.00796758839709931291)
(-0.0105784348046721148 -0.0452268976207535894 0.0129719171359390442)
(-0.00641276500322373808 -0.0590797845153109361 0.0106184860718153626)
(-0.00965000205234645136 -0.044901394868522751 0.0109907016521176137)
(-0.0111564575418345285 -0.0480085806659126674 0.0147364476067233258)
(-0.0159299790952298938 -0.0281203779311474181 0.0154855767599413607)
(-0.017080124082184258 -0.0270002510641570437 0.0183117518446750012)
(-0.47773646155191174 -0.981460169164133034 -0.0231512336037272004)
(-0.0639631622031894831 -0.689314167540719058 0.304736851783754592)
(-0.489760530427551966 -1.0259712841181825 0.043728475623965278)
(-0.130612392397810056 -1.22387668981715381 0.204965974004038848)
(-0.447739956302190267 -0.888691017087232749 -0.164795510093546371)
(-0.480545422818848156 -0.491154993569451581 -0.26398888718635044)
(0.256132170502278877 -0.858776427126248909 0.532854059391520196)
(0.297380545116943729 -0.352759666731766286 0.31932481153734299)
(0.343006478783921043 -0.246336893055819656 0.335090610636114505)
(0.222773229552939045 -0.663244679579002128 0.388502086795517565)
(0.227947760617096595 -1.35874656990472009 0.452266519586123517)
(0.035092571070132153 -1.216960734710967 0.472423780352817124)
(0.186036570338302815 -0.057545892372416918 0.0350326819452666111)
(0.223400025598178342 0.0189166623697897239 0.0141590641563381914)
(0.16768014358400285 0.0623346497543682126 -0.0140587586029819051)
(0.239138836424043238 -0.16664184951750835 0.0916333060386783915)
(0.275620390173856811 -0.0491317991880122762 0.0719236963443115884)
(0.251736566431600584 -0.0893227684055487442 0.0220664016475655145)
(0.283410119024451179 -0.298207867233794999 0.134442727161278447)
(0.302767793087909465 -0.14640504246234512 0.117553567159105629)
(0.311050756693338204 -0.242158353952826727 0.057977764883478243)
(0.322483132042323151 -0.34730167013435076 0.174972838941340719)
(0.302616514228516431 -0.230956526345229035 0.154721162250905514)
(0.34231002191430826 -0.370920649786840917 0.0952688963548482537)
(0.269190869984764658 -0.269680068024674757 0.185064084604529971)
(0.298347144779438189 -0.321348397613893999 0.126078963848999054)
(0.210740317781395153 -0.289132022690341606 0.199776235671609625)
(0.330775549928385537 0.018447211033134743 0.0510500785553836683)
(0.253318859845331867 -0.00902118522389287573 0.0192094875655373191)
(0.323541082773593835 0.0780610819242111009 0.0177874048189999683)
(0.328698048283387001 -0.0429861054460491734 0.0978439574647387844)
(0.269674973242336968 -0.0417141846976286507 0.0519443902612367128)
(0.351544586725093366 0.025152668657230922 0.0663959660345350422)
(0.31022153731008556 -0.102975000709610742 0.137832002248732655)
(0.268034057470607212 -0.0999682376989535354 0.0841685373423593231)
(0.345659393341052557 -0.0566375379240268984 0.106918409227797689)
(0.279258117649221815 -0.154213630473931246 0.164812407914094627)
(0.255138696594064074 -0.140837403970558689 0.113385153124985108)
(0.309439873112787256 -0.110230336603629103 0.135514738141737201)
(0.243654074368464452 -0.163581263888850886 0.135490331221964216)
(0.264034844038622152 -0.183480480270138219 0.153372580559444305)
(0.247204980421084408 -0.208609047974860851 0.173362211445015235)
(0.200131652732343901 -0.0747767565018814251 0.0201037992713905857)
(0.156782186292080822 -0.0608973339784877749 2.43834469944512189e-05)
(0.2143188366797458 -0.0111138737169478377 0.0201452766687958938)
(0.209664475429515884 -0.106499489141953729 0.0382689701388572723)
(0.178394481904460334 -0.0742479962288512818 0.0163838970338502747)
(0.231184211097957171 -0.0430448028450131776 0.0394664366001098166)
(0.211037986618905632 -0.141904516563011646 0.0597216882186115891)
(0.191467529775314393 -0.106413364358055471 0.0367704047998488673)
(0.231014663722358293 -0.0985640628296070853 0.0527878682374790312)
(0.218528587363763488 -0.163607419993762382 0.0840630764328545721)
(0.20237256221084271 -0.13385040916253288 0.0614787849585155879)
(0.228545277198136915 -0.1458887996934283 0.0672800868221350296)
(0.216165847966375446 -0.149814806611678397 0.0856666386184786188)
(0.233689957556776906 -0.170444955747441951 0.0843541658489952578)
(0.234703281404403663 -0.168945090476129905 0.10719419537141589)
(0.136815920541276864 -0.0760080710612496685 -0.0036955187905458502)
(0.121846947542677511 -0.0755411880831308169 -0.00376413592229626285)
(0.136131707049465617 -0.0418142702865668403 -0.017336566910824712)
(0.161784865415118717 -0.0916557892812844416 0.0148853316948418003)
(0.148011743250555355 -0.0837432772436773193 0.00896816071687031938)
(0.163222660392380703 -0.0601000095718878941 -0.00295747827215625189)
(0.181334703545863007 -0.113894487661683058 0.0385275015397528175)
(0.169883565553463872 -0.103421359102533861 0.0274407638722182629)
(0.185689132196908302 -0.0897363950815270595 0.0153774909416844914)
(0.198222663852365477 -0.13230558591349223 0.063082347144139822)
(0.187952207177111502 -0.123399861455678397 0.0491212855803322343)
(0.203050780558803101 -0.117226314350092856 0.0379708835516465865)
(0.205166873311323356 -0.138488217341724534 0.0699428006763637977)
(0.217654470195602356 -0.137055938574155267 0.0608364339221918252)
(0.214907458114319022 -0.144608755990033949 0.084343628989575592)
(0.133158325852482384 -0.0836977801650271719 0.00889954358511982693)
(0.119508481074920472 -0.0838697539689911009 0.0139522655498250971)
(0.130791179941736307 -0.0690956356644683162 -0.00299643233045972669)
(0.156166338446358632 -0.0971020398789887995 0.0215235928942467784)
(0.13878943669387922 -0.0940286957722667599 0.0224824435620845087)
(0.153901548551922368 -0.081094316849453757 0.00778774223816093396)
(0.17568419297226559 -0.115427944368101901 0.0380345479127976727)
(0.156398734777530607 -0.110548333737674295 0.0351932572101897739)
(0.174702237193011312 -0.101067430779573419 0.0231698005693035634)
(0.193479182310392128 -0.132807582546398517 0.0559817391125562655)
(0.173048171417619162 -0.128572544787968729 0.0503992793134260264)
(0.192573751296061746 -0.122178789222311998 0.0412706006288360572)
(0.191634999234521569 -0.145610887585971738 0.0659923242449327874)
(0.209987809797352931 -0.140227635857655353 0.0589084574303996855)
(0.213505762290845891 -0.146676831169594984 0.0730605545180469107)
(0.124397052452102988 -0.0989173497972344468 0.0275351655267897129)
(0.109663859228956898 -0.0940993167122334551 0.0281884404466062194)
(0.122123027115234747 -0.0903364586816533949 0.0230732575925065783)
(0.138308066110434502 -0.112848912786155067 0.0361521078780274521)
(0.120418050139910623 -0.107605667788301163 0.0349748002391895851)
(0.13594020778275312 -0.103329677169475304 0.0305834199456392238)
(0.152764450303284699 -0.129203263519441502 0.0475579886108180999)
(0.132291302772462038 -0.12422258662961505 0.0444597095045302579)
(0.150355351769873274 -0.119507223489783557 0.0404126165663111561)
(0.169648069202665341 -0.146685885605050359 0.0604098644458024719)
(0.146417191709788314 -0.142991131134847127 0.0559451817857859537)
(0.165868945954497748 -0.137268505059628732 0.0517196524633884505)
(0.164938004603809696 -0.163490537488558518 0.0683911908620657982)
(0.184746413352196437 -0.155572687963016321 0.0632471851126684831)
(0.191902347935653944 -0.16428414719418874 0.0730406319001862259)
(0.1046293901471613 -0.10504210665075045 0.0356280751590060882)
(0.0905983678850724589 -0.0983966741640093789 0.0329752343615460838)
(0.103952676115068171 -0.0953746381968993695 0.0308922537298100819)
(0.113223489680115794 -0.121517041838305889 0.0432824018656923909)
(0.0966838136039497725 -0.114060616255078184 0.0395596803568988784)
(0.112314218871320357 -0.110828641982232898 0.0371836067562253819)
(0.124447733334019248 -0.140770973386621645 0.0528469026794981186)
(0.104528002465040334 -0.132653148108991481 0.0483403750489147035)
(0.122837761907520646 -0.128989822844990137 0.0451839157413138834)
(0.139708396508663457 -0.162930533878877626 0.0639265082020492315)
(0.115117348627546995 -0.154569793921228271 0.0592525355242886839)
(0.136449216837600279 -0.149763034489953067 0.0547424999858774908)
(0.129974913819210613 -0.180467748487350699 0.0720806786902315755)
(0.154677090385717309 -0.173202045030410812 0.0654214563486247846)