/*--------------------------------*- C++ -*----------------------------------*\
| =========                 |                                                 |
| \\      /  F ield         | OpenFOAM: The Open Source CFD Toolbox           |
|  \\    /   O peration     | Version:  2206                                  |
|   \\  /    A nd           | Website:  www.openfoam.com                      |
|    \\/     M anipulation  |                                                 |
\*---------------------------------------------------------------------------*/
FoamFile
{
    version     2.0;
    format      ascii;
    arch        "LSB;label=32;scalar=64";
    class       surfaceScalarField;
    location    "0.420000000000000151";
    object      alphaPhi0.water;
}
// * * * * * * * * * * * * * * * * * * * * * * * * * * * * * * * * * * * * * //

dimensions      [0 3 -1 0 0 0 0];

oriented        oriented;

internalField   nonuniform List<scalar> 
20390
(
7.81629242647322693e-05
-4.63206293876604282e-05
1.49019331508339562e-05
-5.8276653105457298e-05
0.000170425397109006792
-5.41002990228571011e-05
4.49428254282077905e-05
-9.45940795407482649e-05
0.000252670322375203983
-4.82006049672190128e-05
7.55765638151014005e-05
-0.000127008780544008511
0.000322956250732880641
-4.09344100447386943e-05
0.000105493999503930699
-0.000150841624586658734
0.000388399980517646127
-3.55490460459142888e-05
0.000133467387797657445
-0.000169636315330387751
0.000443883493797159309
-3.26728483194680725e-05
0.000156440366710668978
-0.000185804032885876339
0.000489820711713190087
-3.02954305871110077e-05
0.000172579998747886439
-0.000199028643028242272
0.000530588500432851865
-3.00551647061644543e-05
0.000187429464806595825
-0.00021008830576750234
0.000567432702492537324
-3.03699837640939365e-05
0.000201912563678121785
-0.000219118694137081823
0.000600015414822124534
-3.0497142977210996e-05
0.000214176720830592485
-0.000226285996395751178
0.000628198110976090247
-3.13940777317889735e-05
0.000223218990077355648
-0.000231001394013916755
0.00065248786429835965
-3.09103783282141552e-05
0.00023032531045088676
-0.000233809730255339377
0.000675493260269475668
-2.93559477350334227e-05
0.000235838975761089699
-0.000235252517475268179
0.000692793936126070032
-2.79048448055348834e-05
0.000237904220307594803
-0.000235238413789829224
0.00070655565615308346
-2.71878145412906883e-05
0.000238093925319274449
-0.000234025078118101732
0.000717364819910102226
-2.78184950578320903e-05
0.000237406398930653387
-0.000231425767888457519
0.000725064279573341131
-2.74863354737780845e-05
0.000234767453035952486
-0.000227588603478927288
0.00072735649516630853
-2.68160388193719947e-05
0.000229658152576906773
-0.0002215841658126822
0.000727389887295622119
-2.73111560552794877e-05
0.000223253245107699028
-0.000213767196313430588
0.000727292403505781348
-2.80180805509355829e-05
0.000217514785222368658
-0.000206262118392106745
0.000721771393006699624
-2.61269382550617488e-05
0.000210032907291922281
-0.000199319561505539161
0.000712223004499880396
-2.41249522861715913e-05
0.000201282899415779865
-0.000191464557752742072
0.000698941663492158582
-2.45033960103809671e-05
0.000192188407367819257
-0.000181996364561056335
0.000681728818074047783
-2.30840376878670462e-05
0.000182015437464825376
-0.000172441897284425266
0.000662557478707606357
-2.15125457585222335e-05
0.000171492721957208565
-0.000161864651418257451
0.000639546510294532926
-1.99639480564527724e-05
0.000160721296769856094
-0.000151666169407502276
0.000613581873023572033
-1.81466164011927446e-05
0.000150015181215136788
-0.00014185430030658544
0.000585922121338817905
-1.65714918429413656e-05
0.000139343431897244528
-0.00013194793673407021
0.000557131087887304845
-1.52749845558962831e-05
0.000128959756604351758
-0.000121696565121345575
0.00052822010822832922
-1.32938296704159092e-05
0.000119202420076926533
-0.000112320277930324082
0.000498524257983475592
-1.18067531759347655e-05
0.000110154185633117008
-0.00010391788659637325
0.00046771390683333279
-1.08361825453756246e-05
0.000101655358198399735
-9.63960528306433736e-05
0.000434451167826983733
-9.92496819923641981e-06
9.3266920036622975e-05
-8.83532289802547598e-05
0.000396507104858094582
-8.98744498408097576e-06
8.53552767899213444e-05
-8.04404838692966359e-05
0.000356788063819800762
-3.77743129816551941e-06
7.83727912689918582e-05
-7.27003050445775885e-05
0.000291444949195647778
1.54143033572018075e-05
7.18185438472581847e-05
-6.48137965820111324e-05
0.000155773878650557288
7.26353851990261032e-05
5.91797724049923532e-05
-5.19262849056873775e-05
0.000102845190749377186
3.48241144592098144e-05
-2.71345537952325398e-05
2.15230061938614269e-05
-1.56163403870301035e-05
-5.06261129811048255e-11
-6.87075312240509995e-05
4.27021010400617599e-05
-2.28520205665156171e-05
1.73451865635275499e-05
-7.94772258540559146e-05
5.50748300166368506e-05
-2.14065699565372662e-05
2.76831082325251616e-05
-7.45900254166685146e-05
6.69291983978971192e-05
-1.99937050696205568e-05
3.18736828307639823e-05
-7.58138651490294978e-05
8.32509497306596396e-05
-2.05854885990287224e-05
3.54740590161844831e-05
-8.84092492428141589e-05
0.000105997653510309732
-2.28140989996250215e-05
4.00579308746863472e-05
-0.000107246053698393831
0.000141774029381331327
-2.51197177283519686e-05
4.47195415336198299e-05
-0.000122818311407114331
0.000202412241700505326
-2.71694367404276739e-05
4.80049199907630987e-05
-0.000136555900329413192
0.000272876162182649005
-2.95954419830813566e-05
5.23948336674055082e-05
-0.000149081824212484739
0.000347396654018630301
-3.14980440842938078e-05
6.64807088485443154e-05
-0.000164552753847879349
0.000402153671484822969
-3.34110498704983923e-05
8.90512604328577186e-05
-0.000174237877606243122
0.000427627600619133398
-3.24534272328009379e-05
9.58309581381878582e-05
-0.00017709619220169194
0.000461323526971424641
-3.05637013697741198e-05
0.000104296683424581486
-0.00018246210655902746
0.000504504387352170433
-2.8349950658620383e-05
0.000119636441996729477
-0.000182776804829917717
0.000519432508393532252
-2.67911362024008336e-05
0.000129727573837934689
-0.000183893179984734008
0.000503700656308763133
-2.63962131014540814e-05
0.000121297005068807571
-0.000180543608935244536
0.000514686242679840184
-2.46236139314942698e-05
0.000120461883055846135
-0.000176722377150368505
0.000536712872224783997
-2.25719283360248987e-05
0.000130358503586833083
-0.000166527218518967515
0.00051048301978573506
-2.09202414702015133e-05
0.000126782271550657374
-0.000163573529169900743
0.000451489269188259045
-1.96906244398237449e-05
0.000104339142842759788
-0.000155117067101450101
0.000423246736935569377
-1.73805395584208369e-05
9.58557773359025654e-05
-0.000135698746840344004
0.000397303122084728178
-1.51520327658076926e-05
9.12863260496267844e-05
-0.000122874848061478359
0.000347115235877080725
-1.45064523936679045e-05
7.94160892783822266e-05
-0.000116647005144577062
0.000306498704505460688
-1.2506515987900729e-05
7.36104778670182219e-05
-9.93872243801916617e-05
0.000268769413596378908
-1.07554202329064033e-05
6.77404720363400544e-05
-8.66382638758781315e-05
0.000231679335412959711
-9.22466879543181099e-06
5.71958892657601742e-05
-7.60008677649590825e-05
0.000203654679116203755
-7.67486482589100135e-06
5.13613878899532014e-05
-6.69227377008145183e-05
0.000173290451762944805
-6.46145533104503224e-06
4.8095980935983218e-05
-5.8642538148018686e-05
0.000138453568184268268
-5.47027072424185338e-06
4.04687189216595554e-05
-4.92066600102748298e-05
0.00011547639935984862
-4.26373520904543026e-06
3.17193268472818369e-05
-4.05644839817787396e-05
0.000102214442245311763
-3.41546066818973263e-06
2.67060698065575187e-05
-3.64378490406596069e-05
8.94856274880358302e-05
-2.84991118052621575e-06
2.46386975044855425e-05
-3.33134550564781468e-05
6.82529612360051633e-05
-2.29485228317832464e-06
2.16037536699459877e-05
-2.69926068726301875e-05
4.91587280316986807e-05
-1.85139114963134103e-06
1.63399362333734074e-05
-2.07845333619159289e-05
4.73586263585927894e-05
-7.50544564223558076e-07
9.27591911312390713e-06
-1.50426582494979805e-05
6.06311145804437889e-05
4.18911878045456467e-06
1.43773631768380544e-05
-1.74564962235389917e-05
8.10995276076667207e-05
4.38224263556772866e-05
3.2745137949428904e-05
-3.29720761991097615e-05
0.000142783621764464437
5.18984416389550312e-05
-4.68333524275422382e-05
1.33892503781527963e-05
-9.38589722773320315e-06
-6.34032539807571935e-09
-1.96387486988782384e-05
1.89857678169928765e-05
-1.00100933702986998e-05
5.90427106110733464e-06
-2.47820542507843603e-05
2.14378977011893155e-05
-8.73045643172342344e-06
8.05142222946497679e-06
-2.39635143406846441e-05
2.63382547570590229e-05
-9.2822622567864696e-06
9.03424209828579895e-06
-2.60802777325162328e-05
3.40990398120158937e-05
-1.07523777362741002e-05
1.10857747562638229e-05
-3.03762301188355082e-05
4.27112153629651033e-05
-1.17247156978057564e-05
1.36455972825046973e-05
-3.50972192937466473e-05
4.99091280876633457e-05
-1.13443608579181269e-05
1.55085460630558141e-05
-3.77896345584979783e-05
5.42907076266224968e-05
-1.04576072370392569e-05
1.67091430988763345e-05
-3.89802431981559321e-05
5.76094335121366533e-05
-9.73771386974594822e-06
1.71458462587831414e-05
-4.17076930109429013e-05
6.10500226202917142e-05
-9.12961518820430122e-06
1.75399332928069281e-05
-4.47705680635241782e-05
6.34312504267195594e-05
-8.7345868909377746e-06
1.81155697232511116e-05
-4.69699363087293918e-05
6.30549439563335597e-05
-8.26128129381175467e-06
1.78575570222084879e-05
-4.31401409867539999e-05
5.89232812930317869e-05
-7.79049211450223651e-06
1.80343351213306868e-05
-3.67479446896253872e-05
5.9134775427247403e-05
-7.24739256583710009e-06
1.8286696861582691e-05
-3.94778411659763996e-05
6.26691229062332247e-05
-6.72824894056234887e-06
1.86856452684043538e-05
-4.23101590179726514e-05
6.14972393832519473e-05
-6.43765991243187717e-06
1.84315476467180543e-05
-3.75750922579593612e-05
5.57212318339493875e-05
-6.08344400969347597e-06
1.82926921356231953e-05
-3.1221809358304184e-05
4.99501639009879503e-05
-5.51173709473938203e-06
1.74866436829426217e-05
-2.86965536865359353e-05
4.44973366819257922e-05
-4.92199430181677865e-06
1.64927036861058153e-05
-2.70281203885085623e-05
3.91857779227852964e-05
-4.42811777035714031e-06
1.51406570245229536e-05
-2.51245050356805379e-05
3.45359228911473068e-05
-3.85465998686697467e-06
1.39890667232096984e-05
-2.29355975985113286e-05
3.03360481466441954e-05
-3.26432949563820775e-06
1.28690862215589944e-05
-2.07314381886905481e-05
2.5872837333625165e-05
-2.9435535892337728e-06
1.14645737564007571e-05
-1.8769226371473991e-05
2.18913445050773222e-05
-2.60658929196390821e-06
1.02863631915361527e-05
-1.63755471310884499e-05
1.84446857187078712e-05
-2.22733757088802549e-06
9.1433493798096058e-06
-1.43762698059675365e-05
1.5533609811686067e-05
-1.87620153900166919e-06
7.85698317069482965e-06
-1.24214898556486237e-05
1.31200556164550904e-05
-1.52601894527318325e-06
6.69754934517586394e-06
-1.05105111205163429e-05
1.09666918050346074e-05
-1.21700548813055547e-06
5.64500244663154177e-06
-8.77917194109098353e-06
8.99897122076562286e-06
-9.81963187510676012e-07
4.60443706845196038e-06
-7.15637450088497159e-06
7.45142702364447414e-06
-7.47916400979384023e-07
3.66720247911396067e-06
-5.68915595631325692e-06
6.15479357562444541e-06
-5.40493641384268637e-07
2.90370554140127415e-06
-4.56997117081887726e-06
4.96622707912544946e-06
-3.60391460106508161e-07
2.31409672279896147e-06
-3.64525310329892289e-06
3.94196627770640015e-06
-2.40670168421832649e-07
1.8171339561437674e-06
-2.80428006428695579e-06
2.99149991434309871e-06
-1.53481485348666298e-07
1.39977141536359979e-06
-2.13954163192643206e-06
2.76171214576761606e-06
-7.44068164827595793e-08
1.06733853724666008e-06
-1.53665253658725623e-06
7.46445998158966098e-06
8.17927258594987308e-07
2.9411708112117091e-06
-4.3740670998395896e-06
2.80715269099046843e-05
2.41240625919591474e-05
1.70407491481714921e-05
-1.81742894378560838e-05
0.000144954429803477078
4.7846550231670274e-05
-4.62046383770021933e-05
4.79068155836755296e-06
-1.86882877840097185e-06
-2.38241261538368278e-09
-1.22654648996640285e-05
4.17322056104718531e-06
-1.78497647105242351e-09
-9.00654272834350978e-09
-9.37745944249956695e-06
5.13064715613392439e-06
-1.47647299238969724e-06
4.48056275450280376e-07
-8.76873247620111873e-06
8.281797583799596e-06
-3.18483435142900713e-06
1.9340829457940808e-06
-1.1756280289299983e-05
1.13782987345853546e-05
-3.66488936232151931e-06
3.59455803156320933e-06
-1.43094546864184276e-05
1.29483584357203122e-05
-3.27482997203061967e-06
4.27534504475117834e-06
-1.46061208545837483e-05
1.29262687475467636e-05
-2.58301705481467789e-06
4.1899954341114245e-06
-1.3273050916396604e-05
1.23131086306445413e-05
-2.14850998817211971e-06
3.90523327342102302e-06
-1.19442456900648669e-05
1.16642318218343514e-05
-2.10404629932099459e-06
3.74056965132827434e-06
-1.11566445762249702e-05
1.06867641370147677e-05
-2.13840970595797699e-06
3.71708388685062495e-06
-1.02869221100716451e-05
9.55813798525014752e-06
-2.1027969039643901e-06
3.66884866440254124e-06
-9.70662210613863377e-06
8.44127160648845223e-06
-2.12813079162183653e-06
3.54411760880675865e-06
-9.07743892609714332e-06
7.68147768431028088e-06
-2.23752395838728766e-06
3.43815900863471474e-06
-8.61565557584403428e-06
7.46501401077997197e-06
-2.17237332530897629e-06
3.59614931258544156e-06
-8.59400463199538375e-06
7.33619169635031134e-06
-2.00259772155398474e-06
3.80061706604087733e-06
-8.47882862998680992e-06
7.01996925918475408e-06
-1.74084856127340084e-06
3.77001678555985968e-06
-8.18868382843658814e-06
6.42572137216142603e-06
-1.59912038551712273e-06
3.50401362671333337e-06
-7.41931768901558917e-06
5.93612961366864396e-06
-1.41991403933249617e-06
3.27470015325459289e-06
-6.86158307477456154e-06
5.54148118152891155e-06
-1.2814204248086506e-06
3.10680688356712258e-06
-6.2882994445180247e-06
5.14114923557617106e-06
-1.15296229043981955e-06
2.89419070109047138e-06
-5.75868012707935178e-06
4.75188540080619385e-06
-1.01258679248679894e-06
2.67560089880455459e-06
-5.16716926220774663e-06
4.39899386291391267e-06
-8.81209482685703572e-07
2.45428712812197555e-06
-4.54846736896774864e-06
3.99941796473373947e-06
-7.9237830263490952e-07
2.19917722470109935e-06
-4.04033855593348227e-06
3.56733606982598249e-06
-7.1285956455608184e-07
1.93738976326008115e-06
-3.47903930403253784e-06
3.12316806727926455e-06
-6.09934539319745737e-07
1.68378548814077217e-06
-2.91324116078028054e-06
2.67568972438898723e-06
-4.93196131806069736e-07
1.41738371412647745e-06
-2.39538818249656595e-06
2.25895310554455402e-06
-3.68544070625130045e-07
1.17861378450484482e-06
-1.93011077473363881e-06
1.89242817859792079e-06
-2.56541167821476578e-07
9.80145188331330662e-07
-1.526893013804602e-06
1.53364442103238473e-06
-1.81069601001948389e-07
7.94220091472548445e-07
-1.19047689333625515e-06
1.20108938809473859e-06
-1.19400557393630193e-07
6.12974405092090382e-07
-8.87280439199707439e-07
9.0506227563873979e-07
-6.79488571542788251e-08
4.55717169663731425e-07
-6.32475129905913564e-07
6.69642292245911991e-07
-3.05510510076925545e-08
3.35982434976182241e-07
-4.29855395800620766e-07
5.15902115962512605e-07
-1.26835034349473785e-08
2.13373469971392122e-07
-2.82278531922376398e-07
4.09771537364054615e-07
-1.0478588829224561e-09
1.2469620731057313e-07
-1.92595719643867647e-07
3.48170422752075706e-07
1.00653739874866346e-08
8.81554567202400534e-08
-1.21634011688779958e-07
1.1226130447626466e-06
3.00909232214189995e-07
4.27204795840561712e-07
-7.10917644915414439e-07
1.30658417596579378e-05
1.26470804420516178e-05
9.29581676982560318e-06
-1.0115212434169865e-05
0.000150553779754621759
3.98884813096909028e-05
-3.97045849775905964e-05
-1.16385681429875611e-10
-3.63666906009369016e-10
-2.39241469730210934e-10
-1.85932399508926419e-06
6.58800687973073693e-11
-1.74231982143297839e-09
-1.01597313538790445e-09
8.28966916314280771e-11
5.38680907745234951e-07
-3.99444229210123539e-08
-1.32318912390216588e-08
-1.92220652330932758e-06
1.60052711286970575e-06
-3.96018667577406641e-07
1.16226327794671666e-07
-3.9831178253768727e-06
1.78827753956838181e-06
-9.50216055448932496e-08
3.24426325850877958e-07
-4.03692781990636809e-06
1.44603198643547445e-06
-1.28180774632390539e-07
3.35677975665777596e-07
-3.14290045333454653e-06
1.04330152254319126e-06
-2.12675633110705708e-07
3.0124662047340978e-07
-2.34526765478952279e-06
9.08094028534631712e-07
-3.41607358539113493e-07
3.27728581766689938e-07
-2.12304496879927035e-06
1.01668369840719319e-06
-4.83987329436546944e-07
4.19000570341780001e-07
-2.30981722145673541e-06
1.14212351550379646e-06
-5.73279926387810758e-07
5.75493397849772478e-07
-2.44616123502571811e-06
1.23753533297844107e-06
-6.23152481588741068e-07
6.8445760970877095e-07
-2.44551763011818262e-06
1.33808083638015716e-06
-6.87866793054043393e-07
7.57093460794210401e-07
-2.45923693610372834e-06
1.45886856949986944e-06
-7.39278739731440708e-07
8.35043255910049175e-07
-2.58630369666358422e-06
1.54161764748663498e-06
-6.92885156534726087e-07
9.46157120353615323e-07
-2.61007545559769717e-06
1.54721874150830224e-06
-5.9393501363045615e-07
9.69051225549103251e-07
-2.42330960406177142e-06
1.52635153957348618e-06
-4.7816701282527766e-07
8.90451279208897453e-07
-2.14138457452804934e-06
1.4699332117903245e-06
-4.06090047733026988e-07
7.87359156395445312e-07
-1.9101169160972183e-06
1.41729869421943288e-06
-3.43769259809385323e-07
7.39407120326237873e-07
-1.75947332574789574e-06
1.35791903063416462e-06
-3.1473102582732151e-07
7.0392050766993234e-07
-1.62834978515655689e-06
1.30184582158941853e-06
-2.97561109263356227e-07
6.69179766617261561e-07
-1.50354676783895777e-06
1.24662881800806819e-06
-2.76963106515897491e-07
6.34992436720973844e-07
-1.38058341202010722e-06
1.18123917158625619e-06
-2.43666496205072929e-07
5.9576952195325877e-07
-1.2454533912547911e-06
1.08870468001527824e-06
-2.03815054954037971e-07
5.4233122359513398e-07
-1.10340745763676416e-06
9.72169996528099196e-07
-1.67716117400491701e-07
4.80907473580289489e-07
-9.42582044886278912e-07
8.36927359855398264e-07
-1.34333643129123124e-07
4.19395655453474783e-07
-7.77261761751070092e-07
6.91227815523032619e-07
-9.52383369546896405e-08
3.39471478791264903e-07
-6.16447893965046154e-07
5.50418048227032452e-07
-5.46607961935258229e-08
2.66443696296518186e-07
-4.69517248719778325e-07
4.38224539255252284e-07
-2.08834299104580235e-08
2.04640158315531501e-07
-3.40231234272072858e-07
3.57031678176724597e-07
-5.5059652916392119e-10
1.56708123841694945e-07
-2.41191271152477216e-07
3.01022151693325954e-07
-1.41650278665229009e-09
1.34971711482748862e-07
-1.6573539810949572e-07
2.36019968701122822e-07
-1.31018470915069625e-10
1.00340332628066166e-07
-1.08848855444030938e-07
1.61010139061842867e-07
1.87128083723686788e-09
6.88279585690487703e-08
-7.97499680667374868e-08
9.75065986888628968e-08
3.69483139842098933e-09
4.15233385226727602e-08
-5.54560613116507513e-08
6.53135816343355499e-08
4.41944697272724056e-09
1.77437872474631751e-08
-2.91633393305243494e-08
6.59129510778606551e-08
8.6804403226622064e-09
9.8487241731960849e-09
-1.49729113238921634e-08
2.90864393639897974e-07
1.3270213900302009e-07
9.53864659042403719e-08
-1.71087589170205892e-07
6.29177393421699983e-06
7.17007029305127926e-06
5.09085299321386299e-06
-5.62161354088769739e-06
0.000135497294357202859
3.91725126290329629e-05
-3.70742501611223446e-05
-5.4187718454194653e-10
-6.05168200535352167e-13
-9.48423260439955856e-12
1.93418678461659131e-10
-5.49230849202053891e-09
-1.72341573825475213e-12
-5.7382945695095495e-12
3.26495254151241096e-09
-5.37308286650806265e-08
-1.07853820759698933e-11
-3.67885427803654483e-11
9.61238939245399394e-09
-1.07824277038459077e-08
-1.06343295637308567e-10
-1.43667102093456159e-10
-4.31983603197835584e-07
-2.93612489690652754e-08
-4.92800915472882753e-10
-3.19444771138297547e-10
-7.88118736934079519e-08
-6.53336508654177532e-08
-1.33440737473023773e-09
-1.64629088307469889e-09
-8.92940429086576768e-08
-5.61903473304036541e-08
-7.2061040997941034e-09
-4.41517159864381946e-09
-2.12215075575163805e-07
-1.04389302687864398e-08
-3.3194123407563305e-08
3.14413274663461488e-09
-3.77223770361241344e-07
5.3791321570008666e-08
-6.91262775051571408e-08
1.92394163963004097e-08
-5.35189186538341982e-07
1.42268047882185687e-07
-1.12103561990458262e-07
7.73350100585861924e-08
-6.83161940319415576e-07
2.26613534482980937e-07
-1.28057344459910723e-07
1.14160778639381882e-07
-7.45783091937412092e-07
2.98744680943168722e-07
-1.46437495485491861e-07
1.39874198353743964e-07
-7.95819131343180388e-07
3.39459243735919963e-07
-1.51121364007355334e-07
1.63509139606365277e-07
-8.18936457797869579e-07
3.43080300464294018e-07
-1.19848442237549507e-07
1.7532841007464655e-07
-7.70118877688938714e-07
3.18536769921185253e-07
-8.22871652367111563e-08
1.49176882826116298e-07
-6.41206009813744537e-07
2.9695835954181014e-07
-5.23236386955018198e-08
1.21561413445338691e-07
-5.18388652598593425e-07
2.76333092796441184e-07
-4.11697167134550238e-08
1.00617804283102272e-07
-4.35506975846856234e-07
2.72478534333150226e-07
-4.0382216651551719e-08
9.95766036658236234e-08
-3.99222017506903329e-07
2.82055643274640848e-07
-4.86806013151865575e-08
1.11257425068419372e-07
-4.05979746348105254e-07
2.9554794325967481e-07
-5.50870151153453174e-08
1.23808857930571232e-07
-4.11628857449469004e-07
3.08110330827613344e-07
-5.07546799613820051e-08
1.28983835258467547e-07
-3.98278921642732035e-07
3.0646162126125647e-07
-3.91458174315630317e-08
1.23378581401818346e-07
-3.60237437625446874e-07
2.82645195170003212e-07
-2.26973182315541149e-08
1.13965597221709256e-07
-3.17776951533773305e-07
2.4285838994859704e-07
-6.7112381814866626e-09
1.10224978190050234e-07
-2.61935166995010942e-07
2.08462720051588299e-07
-8.34412432034533109e-10
9.49901286059783488e-08
-1.93245690837015958e-07
1.85758964905010994e-07
-1.63299014054959014e-09
8.1610849738315736e-08
-1.38724219633431321e-07
1.45246079401597879e-07
2.90781698371553337e-10
6.41476546956232026e-08
-8.8063616580510851e-08
1.01457482230731333e-07
3.3347898274305943e-09
4.37421758800462434e-08
-7.02367833007545617e-08
6.24063039021643072e-08
3.08946193263797897e-09
2.57347211891442361e-08
-4.8870607930190134e-08
3.48893677930908287e-08
-4.42575078960891516e-10
1.00735727711605308e-08
-3.089245179295993e-08
1.94108641523403651e-08
-6.27279273652177337e-10
3.81820510457731216e-09
-1.72318103575561493e-08
1.10122919919741395e-08
-2.39355007268921336e-10
1.36541556321560063e-09
-8.22914605634938859e-09
7.13208553787369823e-09
4.51966347673546582e-10
-1.715502635907754e-11
-2.48519073615483538e-09
8.02415303387157409e-09
1.66858391030256456e-09
-7.99306775457596118e-10
-3.6653820348666048e-10
7.5427346062718785e-09
6.25846723313475155e-09
1.4225790413894061e-10
-1.51832308784152895e-09
8.64251491040739779e-08
7.24218548067583551e-08
3.21105698360478038e-08
-5.80936454120037473e-08
2.68179892256000694e-06
4.80681756950370251e-06
2.94631795180542633e-06
-3.25048928470699228e-06
0.00011064226525760725
3.77995019965601399e-05
-3.52320127302417239e-05
-4.50233797115923686e-13
-3.22600959958230648e-13
-8.22742912184753563e-13
9.85739229915003757e-13
-4.40137051381957739e-12
-1.07458644009592938e-12
-1.04921109916275242e-12
4.54706780063709252e-12
-3.06181011225295944e-11
-1.8347317123063662e-12
-2.82580896728999841e-12
2.18152745526290962e-11
-1.77449485661512645e-10
-2.89959174874374567e-12
-1.13222860622420961e-11
5.64473204743657412e-11
-8.56327434652412325e-10
-8.4908342779594185e-12
-3.61029901658642311e-11
2.27996379341991748e-10
-3.55801373207924303e-09
-1.55751952893746274e-11
-2.2976903147806755e-10
1.64405962317168796e-09
-1.28415798324081723e-08
-1.82989424788422428e-11
-9.54648101958233489e-10
3.2156110888962374e-09
-1.98500792816673776e-08
-1.12301494728878558e-10
-1.98704601659129967e-09
-2.36737376679098572e-08
-1.91682572109514073e-08
-2.17519068066939213e-09
-6.5639248112456324e-10
-6.79451828723759636e-08
6.27641792041104276e-10
-5.40939604959027628e-09
1.71998167941317939e-09
-1.36186935368313963e-07
1.84522418786758477e-08
-4.28301364415770647e-09
3.35587567066229719e-09
-1.50095224952348511e-07
2.95656014601555356e-08
-3.94705071165888093e-09
3.66276847707986509e-09
-1.58668399482737464e-07
2.98734041641272997e-08
-2.04699310984009749e-09
4.36459384409917569e-09
-1.50280778864154034e-07
2.21905449709063312e-08
-3.61311606475393546e-10
3.47936419880491299e-09
-1.11316841301827455e-07
1.49008015114263968e-08
-9.22768380587684559e-10
2.85893620989247182e-09
-7.3773524298542377e-08
1.2078550610636938e-08
-1.02901829235519647e-09
2.8700869942811841e-09
-4.85289895337771252e-08
1.40731994969388978e-08
-6.65602356035622375e-10
3.64759023852442027e-09
-4.23230835747546807e-08
2.35479130595588393e-08
-3.57380764086655867e-10
5.73435713481081738e-09
-5.45068056695997945e-08
3.94331611805092407e-08
-2.71524625103368765e-10
9.71186689479849323e-09
-7.85200295370603042e-08
5.45406841611036254e-08
-5.7705514313347238e-10
1.50805825081203415e-08
-9.32309998252300603e-08
6.85360982836806354e-08
-1.12655784115977172e-09
2.02517239626180997e-08
-8.90624763485863111e-08
8.26489998115957464e-08
-1.47527803286292443e-09
3.05097845764449938e-08
-9.0550508525657811e-08
7.2992314119000291e-08
6.864222421460914e-10
3.40695982924999627e-08
-7.12031836203651649e-08
5.26217001619190597e-08
4.80189998785174111e-09
2.63623781186457407e-08
-5.62075223674180334e-08
3.05528119105157489e-08
2.40611566972716224e-09
1.37423985751344706e-08
-3.97349442519041774e-08
1.65458760959508847e-08
6.79581563558292525e-11
5.26568673810759129e-09
-2.44412551745699291e-08
9.11222006624162744e-09
1.59961893681641812e-10
2.22582722460500006e-09
-1.2278420304867206e-08
4.91260416918841416e-09
2.25105099868148186e-10
7.52789292596803236e-10
-4.82207473272530396e-09
3.06013979812659275e-09
2.45678924578027864e-10
-7.64217746717664642e-11
-1.21179595853001887e-09
2.03658564429035083e-09
2.4365558596763365e-10
-4.80087581073278237e-10
-5.5266078064710809e-11
1.19235715116034842e-09
2.32543981149444236e-10
-7.3207383366261579e-10
4.90924151822108982e-10
6.78708581053339349e-10
2.93949169938342399e-10
-8.67665243531091611e-10
7.54651771251005211e-10
4.42799934501130765e-10
4.88601473945826141e-10
-9.67201179977701706e-10
9.35043512982564133e-10
2.86876665700052545e-10
1.12942306683473325e-09
-1.35813579754985373e-09
1.17359685552022517e-09
2.06983133640775886e-10
5.95434379016474839e-09
-1.20535006302047238e-09
2.17200064190448689e-10
8.3091068913574779e-10
5.93446980687208048e-08
2.125990455994754e-08
-2.65361928242264017e-08
1.24527473272298433e-06
3.10521684529894032e-06
2.14955982576093542e-06
-2.00544326516420668e-06
7.56023336041370845e-05
3.4144168481030712e-05
-2.63970841969542367e-05
-2.79255928125755979e-13
-6.91145264800499073e-13
-5.23077825151474506e-13
1.16442404366706395e-12
-5.15348482050209751e-13
-1.64221472868063508e-12
-1.52332429452569293e-12
1.91023469707068074e-12
-1.02903689996714305e-12
-1.68248466153587271e-12
-1.22695297743631311e-12
2.48718265508967768e-12
-3.2716611886316684e-12
-1.68947932489807786e-12
-1.0826803833505975e-12
2.88272958687666119e-12
-1.34851470341127217e-11
-1.56448613780986873e-12
-3.57534232536535303e-12
7.74214846094995037e-12
-5.41821910008207235e-11
-2.53498414686305499e-12
-1.47072940359991607e-11
4.33725697936586702e-11
-2.02788932528833532e-10
-2.6770726238103381e-12
-6.75461659314200311e-11
2.00249904988182119e-10
-7.61525719581502565e-10
6.39942548260828665e-12
-1.85885286342190451e-10
6.08862056538673873e-10
-3.53463690460148038e-09
8.46927862693530259e-11
-4.64990148942026701e-10
8.03233896654066032e-10
-2.74331781781188332e-09
6.56082406390500054e-10
-8.52725976607031367e-10
-5.22713120327459948e-09
-2.00429529233098928e-09
5.38263670982584246e-10
-8.33083479339190094e-10
-3.18422293250082798e-09
-1.03596369381742892e-09
2.79629805046807416e-10
-7.36953823423767745e-10
-2.96527960374358681e-09
-8.30347691158277209e-10
-5.34102053985821626e-11
-5.8654806930314706e-10
-7.42974927754506154e-10
-8.74552032449454664e-10
-1.23429729701515023e-10
-4.4717202457855695e-10
-1.05980264232923723e-10
-9.90043073484145385e-10
-1.69261970407953515e-10
-3.31114471228799511e-10
-1.36048971652129516e-10
-1.09451615492287822e-09
-2.11691312767343972e-10
-2.18958349997739008e-10
-4.58940504587463982e-10
-1.19749876906939922e-09
-3.29657540613784743e-10
4.28575338860441812e-12
-1.54052062615470749e-09
-1.68139096718550494e-10
-3.65324912108608895e-10
3.36321739057023696e-10
-4.68477506015298245e-09
3.40494643570292718e-09
-1.26466398681931089e-10
1.09084335420709846e-09
-1.08966106240240297e-08
6.94529989042160416e-09
4.68693433672426258e-10
2.49536645501715683e-09
-1.62965019823177806e-08
8.73816036745689994e-09
1.11973480693180341e-09
2.74071363674876559e-09
-2.29409671201501606e-08
6.84238404118205961e-09
9.57920182062775565e-10
2.45053916617789113e-09
-2.13095546043418616e-08
4.20421985988524728e-09
1.00045908783373966e-09
1.63317696581562693e-09
-1.34234460677128498e-08
2.5992028741361099e-09
8.39939006973123039e-10
7.88160545034987407e-10
-5.53236141803087694e-09
1.55451677764086358e-09
7.11027792879707141e-10
2.88906552882439154e-11
-1.31087539495484544e-09
7.83582529261818848e-10
4.99065440549222768e-10
-3.7065479512314136e-10
-1.0864022635168221e-10
3.04264172669933884e-10
3.18255934260135727e-10
-5.5241113614328856e-10
3.41429706487680979e-10
7.95789628001990084e-11
2.25523314720297091e-10
-5.44585058824688324e-10
4.86233027106016023e-10
-3.57830514495172112e-11
1.78299329899835932e-10
-5.11223312559014105e-10
5.38896654556753055e-10
-9.17485350920460808e-11
1.52117511802545111e-10
-4.62493258630501236e-10
5.3714028893270945e-10
-1.25385285274300437e-10
1.44198381343378537e-10
-4.39153148720581703e-10
5.32751302242997473e-10
-1.55603051650162509e-10
1.8463312180928673e-10
-4.76289389898464498e-10
5.50346170645566457e-10
-2.19808728013977159e-10
3.39036503563654522e-10
-5.85881838327853331e-10
6.11696612252890465e-10
-4.60487761352699962e-10