/*--------------------------------*- C++ -*----------------------------------*\
| =========                 |                                                 |
| \\      /  F ield         | OpenFOAM: The Open Source CFD Toolbox           |
|  \\    /   O peration     | Version:  2206                                  |
|   \\  /    A nd           | Website:  www.openfoam.com                      |
|    \\/     M anipulation  |                                                 |
\*---------------------------------------------------------------------------*/
FoamFile
{
    version     2.0;
    format      ascii;
    arch        "LSB;label=32;scalar=64";
    class       volVectorField;
    location    "0.420000000000000151";
    object      faceTraction;
}
// * * * * * * * * * * * * * * * * * * * * * * * * * * * * * * * * * * * * * //

dimensions      [1 -1 -2 0 0 0 0];

internalField   uniform (0 0 0);

boundaryField
{
    inlet
    {
        type            calculated;
        value           nonuniform List<vector> 0();
    }
    outlet
    {
        type            calculated;
        value           uniform (0 0 0);
    }
    top
    {
        type            calculated;
        value           nonuniform List<vector> 0();
    }
    bottom
    {
        type            calculated;
        value           uniform (0 0 0);
    }
    left
    {
        type            calculated;
        value           uniform (0 0 0);
    }
    symmetry
    {
        type            symmetryPlane;
    }
    interface
    {
        type            calculated;
        value           nonuniform List<vector> 
104
(
(-14.0495184698863387 0.0100331130396407262 0.000506911368646700486)
(-0.678215875208558638 -0.00119838198187533613 0.000463813267388272154)
(0.0606373060909050493 -1.48343598737959266e-05 2.74294093266021503e-06)
(0.0863981871756967224 -1.92759871887217537e-05 4.85905749793121963e-06)
(-0.0929963652663491902 -6.3031849261557075e-05 -1.94261752511119724e-05)
(-0.0660597550321770366 -1.55660333286243381e-05 -4.78123046223510685e-05)
(-0.0129633612146977609 -7.35342829538845145e-06 -4.50257769176003457e-05)
(0.0776205245968208807 -7.13552675774761594e-06 -4.21890998067742738e-05)
(0.178062290418064068 -7.21413801762991494e-06 -4.0025726006834773e-05)
(0.284023556850596381 -6.51785525069428493e-06 -4.11350109865245682e-05)
(0.386021510017625247 -6.48755028810085666e-06 -4.16363575507754243e-05)
(0.483187499915164409 -6.8202814373480425e-06 -3.96706818193523315e-05)
(0.577874892214738978 -7.03213128565289878e-06 -3.92647402299585893e-05)
(-2.42645250633579579 -0.000897582171244782202 0.00101896820428957211)
(-0.528375167724265071 -8.00043429139792472e-06 -6.09485677777285058e-05)
(-0.452257355802149263 -1.920154598550436e-06 -8.53585499277823668e-05)
(-0.406548546058568661 -5.70738832556738553e-06 -7.45699540452427606e-05)
(-0.288487914433758874 -7.07511244833361333e-07 -4.51179505136449811e-05)
(-0.165287546517457362 -6.71828631318797474e-06 -3.12991250395102465e-05)
(-0.0565121463418826325 -7.59913956837457425e-06 -3.06428051796955303e-05)
(0.0464265442364483125 -6.5025575568139148e-06 -3.02938064698658871e-05)
(0.147496630840691256 -5.7765001467985386e-06 -2.95027737087249261e-05)
(0.247876576897373913 -5.15874098916453507e-06 -2.86274809168178931e-05)
(0.346543186286262406 -4.63216073800508895e-06 -2.7638740045376344e-05)
(0.442151958262025302 -3.64099271577765025e-06 -2.68133592390074368e-05)
(0.534837029777403328 -3.24859055163578022e-06 -2.5677199290774555e-05)
(-0.762023955911587003 -8.62837371069933325e-06 6.64665260676499016e-05)
(-0.468391275066773582 2.17501430119288138e-05 -3.03039082308755348e-05)
(-0.422597302275128039 9.97335715173246484e-08 -2.71311146455170465e-05)
(-0.359491199482296298 -5.98556999691038162e-06 -2.38445117822332685e-05)
(-0.273040384674998415 -7.03112812590326976e-06 -2.89571465779415813e-05)
(-0.175767341560785023 -5.00048391412298972e-06 -3.01722333903904677e-05)
(-0.0759809214625327689 -4.12823762651879035e-06 -2.88011380685343692e-05)
(0.0244106725821828553 -3.79212263953416199e-06 -2.78454171695689785e-05)
(0.124920793746372494 -3.40685560433484635e-06 -2.66696610765262214e-05)
(0.224601909843343023 -2.92879076475284011e-06 -2.55342674111532826e-05)
(0.322774396336415803 -2.45112827397101198e-06 -2.44661740356744106e-05)
(0.418416978319442523 -1.5283271047561947e-06 -2.33359568839167576e-05)
(0.511140094250477128 -1.35907786924198515e-06 -2.22105327761150979e-05)
(-0.899670562313137467 -1.8659527842392769e-05 8.5388351355774773e-05)
(-0.577255580076223018 3.08994751108553585e-05 -5.77417327469163962e-06)
(-0.469821125382368254 8.49465715523097389e-06 -3.14462667760987061e-05)
(-0.393372855950056999 8.56205838324203189e-07 -3.03000801064740236e-05)
(-0.300428389257540396 -9.71516485293463791e-07 -2.63720179447384899e-05)
(-0.199930321632825064 -1.5433035409031053e-06 -2.27900191192696884e-05)
(-0.0977073030468195575 -1.75289648729188188e-06 -2.10490295029563096e-05)
(0.00505205084327725335 -1.56191809067864153e-06 -1.97367807441100339e-05)
(0.107384497070326088 -1.28018504800759176e-06 -1.86736081631134756e-05)
(0.208484343782249976 -8.82956339951079478e-07 -1.7711717464214379e-05)
(0.307705314169660793 -5.24437597173667927e-07 -1.68158027647201299e-05)
(0.404065723128250676 3.58332016589218472e-07 -1.59954396536210775e-05)
(0.497161711669340589 4.58924693741924165e-07 -1.52224253724077679e-05)
(-1.07482292252516287 -5.42758792755221918e-06 7.07366167216765164e-05)
(-0.73392457610738504 3.84679106838966027e-05 3.90398503727068129e-06)
(-0.552564787543023739 1.66838353177217673e-05 -1.95715706424116698e-05)
(-0.441052809846421812 6.62669634243069516e-06 -2.17571790770283274e-05)
(-0.33615500069563492 2.78928471232537134e-06 -2.10457137438161784e-05)
(-0.228331631734884272 1.48289942673843364e-06 -1.99831049862811178e-05)
(-0.120819896559716103 1.0197294914374852e-06 -1.86907902009997596e-05)
(-0.0145412340994478303 7.97595906907247322e-07 -1.74218708495658888e-05)
(0.090366049949029234 8.05813653108430227e-07 -1.62731152025444423e-05)
(0.193368190102306242 1.00452057441178736e-06 -1.5234925501916563e-05)
(0.293978384395317538 1.22098301148961801e-06 -1.42966370543439339e-05)
(0.391407503172802262 1.98949639071655599e-06 -1.34426428395197673e-05)
(0.485187490106031405 2.03379638867521055e-06 -1.26633610441536453e-05)
(-1.00157449560776501 1.19960617605931907e-06 1.0718513510182733e-05)
(-0.812874969549738813 2.15819152129634785e-05 -5.02552268239409172e-06)
(-0.633257744301589653 1.57634758000476137e-05 -1.65516802968979345e-05)
(-0.49452417187459019 1.02445591163908308e-05 -1.70845041072048636e-05)
(-0.374083582523525304 6.48341956014650733e-06 -1.59749861550876165e-05)
(-0.257297708739120889 4.44013067922796459e-06 -1.43972784720502638e-05)
(-0.143523838769231388 3.44880519912120049e-06 -1.30569997838586884e-05)
(-0.0327643710207308619 2.96085207831638747e-06 -1.19804097565836734e-05)
(0.0752721560239061199 2.69739255764478456e-06 -1.10792193610649268e-05)
(0.180595987768576022 2.68226691021824541e-06 -1.02995172670871066e-05)
(0.282902978795519622 2.73946828880520894e-06 -9.62271625144521574e-06)
(0.381642463441409729 3.29988205870903421e-06 -9.02198956061139813e-06)
(0.476329244968030752 3.28687916256336483e-06 -8.49269771007043796e-06)
(-0.980128781672324201 -7.28513255995799043e-07 -2.77471210810460959e-06)
(-0.829444707798707825 1.13252062614931326e-05 -8.01934769899574869e-06)
(-0.673725806336297306 1.3530920525376242e-05 -1.12523554578640047e-05)
(-0.533538972808806689 1.07469282694256242e-05 -1.13750118757612221e-05)
(-0.405083789013709672 8.07854905165728315e-06 -1.03750209307120397e-05)
(-0.282776307424908668 6.38275517323063439e-06 -9.36441505537590788e-06)
(-0.164462420134855097 5.33701310485423526e-06 -8.50253085521242668e-06)
(-0.0498095598466216372 4.64920824122628912e-06 -7.74543357780589227e-06)
(0.0613609824512777874 4.1972018391330221e-06 -7.08466166570975884e-06)
(0.169110324079489782 3.99573510261552295e-06 -6.51466965547519755e-06)
(0.273268586521067947 3.90816275257791502e-06 -6.02594561036415073e-06)
(0.373415944971916713 4.3126282455460134e-06 -5.60209592023731717e-06)
(0.469063995158817471 4.244124535120351e-06 -5.2398793027345835e-06)
(-0.993600789235075887 -6.48686824083070944e-06 -2.47168600574220239e-06)
(-0.851895322071697714 9.54360890496724439e-06 -4.01327491706589296e-06)
(-0.704373992562236428 1.3260601159873868e-05 -4.63579041344561853e-06)
(-0.561579913320023105 1.20519883941568764e-05 -4.39521381754081223e-06)
(-0.427309836203834892 9.79422240833668135e-06 -3.86448376728919155e-06)
(-0.300021425444292889 8.04024406567917874e-06 -3.37352110498796894e-06)
(-0.178002793625413075 6.76899245211400984e-06 -2.98675797689370018e-06)
(-0.0604351793872039134 5.85092847105280637e-06 -2.67517091191503261e-06)
(0.0530057804779821631 5.20933292904306544e-06 -2.41735338327309943e-06)
(0.162460091096637088 4.84046279015335318e-06 -2.20256849462230595e-06)
(0.267857898425954033 4.63323612952021041e-06 -2.02399353758918868e-06)
(0.368914720436438748 4.90168718063845923e-06 -1.87324669487264732e-06)
(0.465194416707422675 4.77163849595963557e-06 -1.7466413200700114e-06)
)
;
    }
    procBoundary3to0
    {
        type            processor;
        value           uniform (0 0 0);
    }
    procBoundary3to1
    {
        type            processor;
        value           uniform (0 0 0);
    }
    procBoundary3to2
    {
        type            processor;
        value           uniform (0 0 0);
    }
}


// ************************************************************************* //
