/*--------------------------------*- C++ -*----------------------------------*\
| =========                 |                                                 |
| \\      /  F ield         | OpenFOAM: The Open Source CFD Toolbox           |
|  \\    /   O peration     | Version:  2206                                  |
|   \\  /    A nd           | Website:  www.openfoam.com                      |
|    \\/     M anipulation  |                                                 |
\*---------------------------------------------------------------------------*/
FoamFile
{
    version     2.0;
    format      ascii;
    arch        "LSB;label=32;scalar=64";
    class       surfaceScalarField;
    location    "0.0899999999999999967";
    object      phi;
}
// * * * * * * * * * * * * * * * * * * * * * * * * * * * * * * * * * * * * * //

dimensions      [0 3 -1 0 0 0 0];

oriented        oriented;

internalField   nonuniform List<scalar> 
20390
(
0.000157668031245055231
-3.95859101771277799e-05
-0.000107921250948153573
-1.01608596567384448e-05
0.000257796745583564746
-6.58754712426899323e-05
-4.48525206202977578e-06
-2.97665645004382109e-05
0.000323233208133887702
-6.50151936489533724e-05
7.03588663670466863e-05
-7.07794624512836688e-05
0.000367162047604036306
-5.9712339085859543e-05
0.00011264678549424615
-9.68623368194648109e-05
0.000397759830246669399
-4.61896227837877576e-05
0.000127414311884657244
-0.000111822147101530488
0.000417341087399883935
-3.15729097395356319e-05
0.000132469803438641268
-0.000120478198400890003
0.000430957925998292951
-2.16129420620890457e-05
0.000135643243954114006
-0.000127647157011017245
0.000433580224093995184
-3.6317264165480138e-06
0.000135525176277269827
-0.000134515664743475822
0.000420543439445415605
1.62916157634016636e-05
0.00013615751029014852
-0.000139412245940402564
0.000388108483704443813
3.72450669162607744e-05
0.000138504308427501462
-0.000143314362102756515
0.000336140578785388286
5.70785384788350736e-05
0.000142301782782971585
-0.00014741240457056927
0.000268471038455610602
7.3021002912812262e-05
0.000145216057291552348
-0.000150567553871470738
0.000198793037162623435
7.71516075323003129e-05
0.000142412774306584011
-0.000149886449735916403
0.000143514206422638309
6.70727702233435712e-05
0.000131051030478454073
-0.000142845032870433621
0.000107786971160984382
5.07377623145729222e-05
0.00011302864793633893
-0.00012803918875666412
8.71630312059112195e-05
3.56583580829687431e-05
9.16679439803931497e-05
-0.000106702331676671516
7.51681206408010694e-05
2.38407011049079914e-05
7.08682146099853816e-05
-8.27139714540160991e-05
6.67635285959830631e-05
1.60385180321477649e-05
5.33127528770280349e-05
-6.09466815347276832e-05
5.94967013126829225e-05
1.15917456034831745e-05
3.99230857883388999e-05
-4.42480511764453249e-05
5.29346049510371792e-05
8.90109728230054707e-06
3.0242071797380852e-05
-3.25811447614666945e-05
4.71877399990190325e-05
7.09066737668021655e-06
2.32457766272831558e-05
-2.45896531413244733e-05
4.2204984717345389e-05
5.83178880269511552e-06
1.80721796193450383e-05
-1.89212778472166331e-05
3.78368970726441294e-05
4.93414311416805919e-06
1.4163197901989487e-05
-1.47293069983007678e-05
3.39534286651993773e-05
4.27284690966099042e-06
1.11673449284476647e-05
-1.1556766827964868e-05
3.04571416584478334e-05
3.77293422959689891e-06
8.84910886750755462e-06
-9.12578923389310323e-06
2.72713185131697274e-05
3.38762303944566237e-06
7.04289095773103693e-06
-7.24471318951356344e-06
2.43367241268925787e-05
3.08493909820810588e-06
5.62749347869654247e-06
-5.77784980478651986e-06
2.16074811684064374e-05
2.84318959769511929e-06
4.51380541500280933e-06
-4.62775413356343566e-06
1.90473112938021732e-05
2.64779149822467184e-06
3.63541966796089052e-06
-3.72303589101474392e-06
1.66268596679863329e-05
2.48871454654415771e-06
2.94219453318688166e-06
-3.01044698896451747e-06
1.43218482671183099e-05
2.35887431605703961e-06
2.39591003372243364e-06
-2.44975973024101313e-06
1.21117557923965863e-05
2.25317450975655167e-06
1.96727629205320147e-06
-2.01034428606644251e-06
9.97886831263393101e-06
2.1678946470576374e-06
1.63382132558697318e-06
-1.66881507134486708e-06
7.90757176758745639e-06
2.10030568123833537e-06
1.37837453300118463e-06
-1.40737180219292367e-06
5.88383510350779568e-06
2.04838676532491581e-06
1.18796985544507359e-06
-1.21261010610117858e-06
3.89687539475627613e-06
2.0085820825605026e-06
1.05305992149429975e-06
-1.07467451320388511e-06
1.93845083350299442e-06
1.9781400598434842e-06
9.66888032403968865e-07
-9.86597538733367448e-07
1.9572117577029796e-06
9.23377745501955509e-07
-9.42133945136190454e-07
4.54879304073332899e-05
-3.81688194335648711e-05
-0.000110986761554097952
6.40867829632071499e-05
8.61909915489514794e-05
-0.000105169394419076307
-1.05354258022251508e-05
9.13311066491148326e-06
0.000104486321653444645
-9.31808977994377384e-05
5.18748136936110645e-05
-4.20012010132263074e-05
0.000116453095346458828
-7.45159390303094706e-05
7.44579157575634847e-05
-7.1618546910118448e-05
0.00013132411241078209
-5.8607965029260729e-05
8.12660266324933476e-05
-8.37179586452938961e-05
0.000149054396515791311
-4.25356270137271179e-05
8.61380720226181289e-05
-9.29057849665165027e-05
0.000162209787355873904
-2.65673594875273026e-05
9.2353529006126964e-05
-0.000100554304254435732
0.000176249007076359368
-9.52874930634303464e-06
9.80180112203359895e-05
-0.000106159695971410465
0.000193982170329532285
8.25034322258636946e-06
0.000101827177055073442
-0.00011151860596532448
0.000209317228432758429
3.35131506226102663e-05
0.000106346961280607985
-0.000117949829820481215
0.0002153225562774086
6.3307461265661052e-05
0.00011375046322120819
-0.0001259846063737464
0.000206666762166405119
9.31621163709293724e-05
0.000122363825859334973
-0.000133849109906806379
0.000184236726797385516
0.000109643957476727807
0.000127814635771712586
-0.000137876907970691708
0.000154027028551390765
0.000108027204776816666
0.000124856172738345314
-0.000135600803960218971
0.000124118137926572419
9.34057096195382381e-05
0.000112613444088761005
-0.000125372357049952055
9.99836373693790037e-05
7.31546888711960596e-05
9.39757570720275125e-05
-0.000107337478841855943
8.24176077077454341e-05
5.29771555378123909e-05
7.35146630232234562e-05
-8.50850827885822261e-05
7.0054448321852099e-05
3.65418650725233616e-05
5.52241933198314685e-05
-6.33644897987321702e-05
6.09923434391771368e-05
2.54866175814765655e-05
4.10485397976463509e-05
-4.58814852676452437e-05
5.38161784743850183e-05
1.87081742156797796e-05
3.08570928107646477e-05
-3.34881975372395855e-05
4.78439223304935176e-05
1.45299525865105902e-05
2.3589790488657473e-05
-2.50569942431105255e-05
4.27527193979328126e-05
1.18129379251363929e-05
1.82820283100617996e-05
-1.9172122095379663e-05
3.83235970543845621e-05
9.9431841641042762e-06
1.43046904371987101e-05
-1.48847294413549106e-05
3.43965827038924897e-05
8.59550716857417809e-06
1.12701018315833747e-05
-1.16658402697512933e-05
3.08618565564564953e-05
7.58756050092147387e-06
8.92684357178913697e-06
-9.20680714857577973e-06
2.76402082915918191e-05
6.81298144726796646e-06
7.10279040602949128e-06
-7.30653508643493263e-06
2.46718264875630413e-05
6.20490867004300046e-06
5.67430337210384961e-06
-5.8258996520941134e-06
2.19105332212029692e-05
5.71930918714728717e-06
4.55080294353805216e-06
-4.665616976029218e-06
1.9319832611494269e-05
5.32677222923107178e-06
3.66491633467466387e-06
-3.75316969384785201e-06
1.68701936795345916e-05
5.0071269246495554e-06
2.96586889455814715e-06
-3.03460734131670221e-06
1.45371877134232235e-05
4.74614656632139131e-06
2.41501600297680685e-06
-2.46924438564170747e-06
1.23001734260410747e-05
4.5335926213119812e-06
1.98277121307804262e-06
-2.02613829433119683e-06
1.01413538503261578e-05
4.36198055634933089e-06
1.64644849932708377e-06
-1.68168194292588987e-06
8.04507310009434221e-06
4.22580590402294409e-06
1.38872095669297262e-06
-1.4179127889506467e-06
5.9972070745949051e-06
4.12107270909861689e-06
1.19650811973309729e-06
-1.22130590703319374e-06
3.98225246857845143e-06
4.04529504384405135e-06
1.0601724263600383e-06
-1.0819134941126774e-06
1.98474588147469814e-06
3.99547387714437265e-06
9.72926237660213927e-07
-9.9273967482362092e-07
3.96080399807478681e-06
9.28654991049488529e-07
-9.4749131168736148e-07
2.42867671261001859e-05
-4.80126846736965567e-05
-0.000112256093122001325
9.78217495922311926e-05
3.83222377525143211e-05
-0.000103605352136640547
-1.98600406190252023e-05
4.26571192271135217e-06
3.72740468156649473e-05
-8.62337662136651058e-05
3.39494025145924066e-05
-3.98446820113234945e-05
3.68266314858227558e-05
-6.14490138405093328e-05
5.17693628181205301e-05
-6.43848879241454497e-05
3.91057013142741703e-05
-4.21939501055861325e-05
5.88385858701236905e-05
-7.7530429535068075e-05
4.23644953448422683e-05
-2.4748456327407804e-05
6.4848185000294394e-05
-8.58940833170858029e-05
4.47838634213887019e-05
-7.92925314582414888e-06
7.05904520166419848e-05
-9.16472017589344142e-05
4.61895576612862975e-05
8.90270449320571593e-06
7.54846030902208543e-05
-9.53206065637923191e-05
4.7011177231286092e-05
2.64661603471403036e-05
8.00323708889817806e-05
-9.90688493190595743e-05
5.31456606556765618e-05
4.64150810188765936e-05
8.53497873903009491e-05
-0.000104385557181818449
6.65463433346563421e-05
6.88291662492844953e-05
9.17963537499521826e-05
-0.000110718317511488597
8.29199552056527717e-05
9.41204262792473746e-05
9.90412636455761442e-05
-0.00011637286958474021
9.4616636991818237e-05
0.000112780660400979969
0.000104329566605034562
-0.000119162683408052691
9.68894736368793507e-05
0.000118545818298994629
0.000103654043720813828
-0.000116445274376406429
9.15000739372076762e-05
0.00011028949598101456
9.5854962025380833e-05
-0.000107349197729406977
8.29023206328961831e-05
9.21446113140319243e-05
8.24138869223386712e-05
-9.28059946139804808e-05
7.40682407943658611e-05
7.0545087982423711e-05
6.64345163207668025e-05
-7.51684038928480903e-05
6.59931575582331737e-05
5.09654389520186311e-05
5.12733648255731144e-05
-5.76219679478506792e-05
5.88374478005111013e-05
3.66119109827274237e-05
3.89517171230237242e-05
-4.29214532113991461e-05
5.25467635857573289e-05
2.72878285740678791e-05
2.97208564380684878e-05
-3.20099841723090763e-05
4.70388724657120886e-05
2.13757047137673837e-05
2.29320753269329677e-05
-2.42700801056359101e-05
4.22070408781274661e-05
1.7479151799379971e-05
1.78738451505574582e-05
-1.87083513327171586e-05
3.79304436223509828e-05
1.47720735794561132e-05
1.40376462278342056e-05
-1.45900407026506049e-05
3.41008892684827261e-05
1.28062395123919608e-05
1.10890643504988049e-05
-1.14703213363157887e-05
3.06324124659012581e-05
1.13278537722301296e-05
8.80119836529610367e-06
-9.07306902440937343e-06
2.74575864579628992e-05
1.01867746301453899e-05
7.01373170960131039e-06
-7.21272850268976417e-06
2.45233926150028008e-05
9.28778619638267058e-06
5.61003949735103003e-06
-5.75873079418624235e-06
2.17878386267023971e-05
8.56783879858162944e-06
4.50375203598252407e-06
-4.61671770618119459e-06
1.92170383903445015e-05
7.98463089298798135e-06
3.63004625404163447e-06
-3.71708246844687837e-06
1.67831378196686634e-05
7.50896858413238022e-06
2.93974953137692224e-06
-3.00766136956149556e-06
1.44628304448617448e-05
7.1201371697994088e-06
2.39525691750197932e-06
-2.44890834222620433e-06
1.2236255475881904e-05
6.8031540738257344e-06
1.96767474958926601e-06
-2.01063030606228307e-06
1.00861779253433596e-05
6.54702072240209644e-06
1.63478935047934919e-06
-1.66972420880324835e-06
7.99736946053846694e-06
6.34360881661094743e-06
1.37960122303384551e-06
-1.40857229055778349e-06
5.95614296865952996e-06
6.1869481038451895e-06
1.18925842165619011e-06
-1.21388857202694135e-06
3.95021319476908993e-06
6.07284909891491557e-06
1.05428097851617133e-06
-1.07589060235110674e-06
1.96810475931483014e-06
5.99730080461646646e-06
9.68003274662518364e-07
-9.87710080459418409e-07
5.94766372258562433e-06
9.2431549436780412e-07
-9.43061820915815212e-07
-1.51652730003934822e-05
-6.42664372567708142e-05
-0.00012039050122645119
0.000151820796577585625
-2.34867233998609199e-05
-9.23398445079844289e-05
-1.99992637668047873e-05
1.70595042480990563e-05
-2.898301764743335e-05
-6.5609197849950346e-05
2.58333081446967587e-05
-4.09575153295248289e-05
-2.60650351690007228e-05
-4.31793025056464828e-05
4.16781835862884881e-05
-6.28611832965702709e-05
-1.93666537480703985e-05
-2.62978071630512098e-05
5.04679038873132263e-05
-7.3061143192018949e-05
-1.37046385129160661e-05
-8.82305196450749904e-06
5.58666582386048953e-05
-7.74539655729120232e-05
-9.28090838003698808e-06
8.56633726704169967e-06
6.17327587528535541e-05
-8.26509249368794776e-05
-6.05069770867659815e-06
2.50108616628960564e-05
6.65024619589291258e-05
-8.5839188842241936e-05
-3.38588544477148797e-06
4.18464857163227248e-05
7.08554118348362786e-05
-8.88992425588427796e-05
1.83018431171041947e-06
5.96008283830203674e-05
7.59969730230191406e-05
-9.43978898516631372e-05
1.26685228237890377e-05
7.71062343044851055e-05
8.12282252557101778e-05
-0.000100342964888286697
2.87327192478715667e-05
9.56315350580213739e-05
8.56413225944212438e-05
-0.000103216098627005687
4.53471473474523459e-05
0.000111407148820895981
8.83117986650446099e-05
-0.000103552309676041484
5.80869196629456842e-05
0.00011812618197249282
8.71242229346845895e-05
-9.94440946665045534e-05
6.51281128464774057e-05
0.000113073107984999272
8.11499939294423901e-05
-9.09746719006027555e-05
6.70641345017550776e-05
9.81609409343199297e-05
7.11567877263554252e-05
-7.91091264621300789e-05
6.53838617619271789e-05
7.85652913325212896e-05
5.90586659775374972e-05
-6.53986691380926586e-05
6.13764405884803077e-05
5.96798417407307287e-05
4.70386178446246568e-05
-5.17457250482946643e-05
5.62830583677928069e-05
4.4843477560330708e-05
3.66903918642535191e-05
-3.98287245351950227e-05
5.10196786686659235e-05
3.45047247665358631e-05
2.85002408022004943e-05
-3.04539062856744277e-05
4.60561592574698631e-05
2.75537261543839701e-05
2.22276405369494927e-05
-2.34422801926382903e-05
4.15354694490871422e-05
2.27847457004967102e-05
1.74371167578675303e-05
-1.82221414797377858e-05
3.7448794586800143e-05
1.93879302120092227e-05
1.3752307088950802e-05
-1.42815890542119845e-05
3.37420091689462655e-05
1.68823886438037766e-05
1.08958160470505749e-05
-1.12652567557810782e-05
3.0357293761509273e-05
1.49778634495368817e-05
8.66694534814426469e-06
-8.93229196158960436e-06
2.72419810617856417e-05
1.34972166469392153e-05
6.91846209589160144e-06
-7.11361970804806561e-06
2.43515652790916776e-05
1.2324500997992884e-05
5.54124046742940582e-06
-5.68754650368497351e-06
2.16492806737459354e-05
1.13815448456438214e-05
4.45334948063531803e-06
-4.56476107814369698e-06
1.91044959090839173e-05
1.06154220242698269e-05
3.59265845715929206e-06
-3.67864325375177807e-06
1.66914645938449662e-05
9.98920649181242058e-06
2.91169741789618104e-06
-2.97887572390716858e-06
1.43883017847469506e-05
9.47645674870096301e-06
2.37396884832501599e-06
-2.42709490388888258e-06
1.21761391538041428e-05
9.05791699406794363e-06
1.95131686959327241e-06
-1.99388729623970668e-06
1.00384589005195498e-05
8.71937375086818142e-06
1.62202916321511684e-06
-1.65667512112886274e-06
7.9605730210577447e-06
8.45026567107596096e-06
1.36945093537353917e-06
-1.39819929460024735e-06
5.9292300317802623e-06
8.24276174129015887e-06
1.18096781291614525e-06
-1.20542028747888547e-06
3.93244641011796483e-06
8.09110893059037891e-06
1.04726150964021327e-06
-1.06872347693251156e-06
1.95894474613473997e-06
7.99039155203973308e-06
9.61779971159468062e-07
-9.81357662706167117e-07
7.92524419903507381e-06
9.18512065003454105e-07
-9.37139384947424591e-07
-4.07647435851108211e-05
-8.24551281908700106e-05
-0.000122158061795954291
0.000181126226496211828
-5.8713821700874828e-05
-7.40997252012131101e-05
-2.29694194049309404e-05
2.26833410996260322e-05
-5.77098353194782459e-05
-4.7311212647736613e-05
2.13601798682305313e-05
-4.06567425848889367e-05
-4.99497100097336092e-05
-2.76589997130354296e-05
3.98942082649903512e-05
-6.31699238519031455e-05
-4.14732234197258496e-05
-1.20165792060550406e-05
4.81296841250275422e-05
-7.08866269101196403e-05
-3.35678670909776919e-05
3.97065633136472226e-06
5.48902722442518457e-05
-7.55894418178453274e-05
-2.603375193443203e-05
2.06508187352257415e-05
6.05099513552143127e-05
-8.01274623947828638e-05
-1.9195897476617764e-05
3.62172218003315081e-05
6.45207461666360459e-05
-8.25634155435790137e-05
-1.25519354852468592e-05
5.16457692412671042e-05
6.78285007290270372e-05
-8.42705660225230325e-05
-5.19951332076880096e-06
6.76660094855117131e-05
7.13276959890666348e-05
-8.67445279290911578e-05
3.66869999336649972e-06
8.35209376353044682e-05
7.49629910001249026e-05
-9.02453200232952453e-05
1.52252317795845397e-05
9.8592665885054894e-05
7.75823268295313106e-05
-9.20995051569021081e-05
2.90506588036985397e-05
0.000110537634341695751
7.83567615176031874e-05
-9.13123134064190581e-05
4.21577231755749146e-05
0.000115509674022691225
7.62465358491827084e-05
-8.67368847337628591e-05
5.20482905118869538e-05
0.000111247573768231901
7.085843296690856e-05
-7.89233985957280416e-05
5.76257801197441516e-05
9.88110265763748625e-05
6.27056447494182058e-05
-6.89332543832468065e-05
5.90578725785039052e-05
8.19694209339554171e-05
5.30076632587888564e-05
-5.78439825406502691e-05
5.72912296461987493e-05
6.50719770394052874e-05
4.31998619290906256e-05
-4.6825485312628402e-05
5.36538511075846742e-05
5.10179227580886247e-05
3.44162973574720505e-05
-3.69535092047867448e-05
4.92923755180709657e-05
4.0545693694570745e-05
2.715954401285341e-05
-2.88391834027653592e-05
4.48824331215355934e-05
3.30623543273052381e-05
2.14073267741284948e-05
-2.25061500377060423e-05
4.07071580732681608e-05
2.76933414091419316e-05
1.69117143863915525e-05
-1.76451569815066559e-05
3.68429989770273722e-05
2.37559788304122303e-05
1.34027912805208646e-05
-1.39067819377889515e-05
3.3285021147139206e-05
2.07963752423237066e-05
1.06563930647567642e-05
-1.10124787491918529e-05
3.00041074135521292e-05
1.85164899269750914e-05
8.49919189059431039e-06
-8.75695624043822758e-06
2.69635786608709961e-05
1.6728325611905077e-05
6.7986320182710856e-06
-6.98923967912701892e-06
2.41287744454660727e-05
1.53027298377189639e-05
5.45429089426467898e-06
-5.59772188182111359e-06
2.14691273940592237e-05
1.41507139093401255e-05
4.38942622341340693e-06
-4.49893803908060858e-06
1.89579192529733715e-05
1.32113377932426972e-05
3.54511491142469865e-06
-3.62980089527142316e-06
1.65719842825637227e-05
1.24414350543656729e-05
2.87595341316503374e-06
-2.94221884161347761e-06
1.42912008403089469e-05
1.18097396886324106e-05
2.34680259347586958e-06
-2.39927160251408225e-06
1.20979414927809381e-05
1.12932930441971627e-05
1.93041900386839489e-06
-1.972506093545328e-06
9.97658914150170419e-06
1.0875035075003225e-05
1.60571417380211669e-06
-1.63999654831927016e-06
7.91312902312463288e-06
1.05422158058271981e-05
1.35646430915029464e-06
-1.38493186616041009e-06
5.89481396640873482e-06
1.02853232636248975e-05
1.17035361753467879e-06
-1.1945819913901787e-06
3.9098999590405932e-06
1.00973128523770494e-05
1.03826878568511924e-06
-1.05954446791100196e-06
1.94702201946011559e-06
9.97269533051462083e-06
9.53796947490263855e-07
-9.73211349077676138e-07
9.89074963438293117e-06
9.1101459833608198e-07
-9.29489553170596525e-07
-6.2236627026628934e-05
-8.85870763633831164e-05
-0.000117754462752449991
0.000186135356192293955
-7.62641683319905859e-05
-6.25140393850097712e-05
-2.36748183384507657e-05
2.61226306608040547e-05
-6.99043608787817733e-05
-3.60621693598718108e-05
1.95434143477264642e-05
-3.71451740458296056e-05
-5.87602430226433366e-05
-1.76598431399932221e-05
3.92775782177829226e-05
-6.04157417515460799e-05
-4.78653917020409707e-05
-1.99793509849156034e-06
4.93803047464232646e-05
-7.02931901788590968e-05
-3.7963637760611224e-05
1.38474283416367621e-05
5.62515918912447305e-05
-7.60304604661986202e-05
-2.8896257090174154e-05
2.98710113343382116e-05
6.12474348108936213e-05
-7.95342606892538221e-05
-2.07447811191821466e-05
4.48159752467387163e-05
6.44981857320498485e-05
-8.12471684120525225e-05
-1.32332424404048728e-05
5.92776066835464468e-05
6.67648977770213579e-05
-8.19072815989722224e-05
-5.54841104704635732e-06
7.36533456449715959e-05
6.87749016903552374e-05
-8.24464216400517879e-05
3.24980052541338924e-06
8.76664269465013434e-05
7.07014674427702816e-05
-8.36446663365917665e-05
1.37581297019151451e-05
0.000100310557212469721
7.18257744201229563e-05
-8.4051568597406245e-05
2.55261906513451978e-05
0.000109562926934235835
7.12833914607759195e-05
-8.20764272112262523e-05
3.69601564423799705e-05
0.000112769860278686752
6.84733605384211868e-05
-7.71673380308860395e-05
4.62472209948537233e-05
0.000108591863943881798
6.33064449842183708e-05
-6.99377564702338163e-05
5.21762492226105561e-05
9.792241509211338e-05
5.62219779480119142e-05
-6.12624422292759824e-05
5.44774807051373239e-05
8.35468579105513181e-05
4.80506535089011847e-05
-5.19294219573673593e-05
5.37471961617401638e-05
6.8735839026365554e-05
3.97671700380970676e-05
-4.2700876124681465e-05
5.10627677196094559e-05
5.58172194973159913e-05
3.21868059709902172e-05
-3.43018177245156189e-05
4.74443002858349026e-05
4.5623145240075209e-05
2.574110583538267e-05
-2.72002373684403674e-05
4.35599987199017087e-05
3.79380871273821133e-05
2.04940801665782273e-05
-2.14856522822922648e-05
3.97425410313675883e-05
3.21911553699617733e-05
1.63087613362259697e-05
-1.69892427895005872e-05
3.61219879416763788e-05
2.78528704410799934e-05
1.29942349835812598e-05
-1.34706764159286227e-05
3.27330760127389362e-05
2.45261619285003753e-05
1.03731076080717389e-05
-1.07140594728105614e-05
2.95731627036835742e-05
2.19252555290021166e-05
8.29899514225174754e-06
-8.54789838108433895e-06
2.66212502389639579e-05
1.98654186535369683e-05
6.65468699072712996e-06
-6.83989419223137514e-06
2.38532321773172959e-05
1.82107153655682792e-05
5.34935571694845059e-06
-5.48932883364424817e-06
2.12453266947586317e-05
1.68658346025915376e-05
4.31201338163164572e-06
-4.41921790850906694e-06
1.87751892945450951e-05
1.57645965555116478e-05
3.48738478849309191e-06
-3.5704842569516013e-06
1.642261105120112e-05
1.48591878354673843e-05
2.83246236518147358e-06
-2.89760867388373364e-06
1.41695221152593228e-05
1.41145207560839262e-05
2.31369725725887834e-06
-2.36535894079882827e-06
1.19997552787983367e-05
1.35045818136591689e-05
1.90492343239611501e-06
-1.94641582911559442e-06
9.89876282369335441e-06
1.30098887337416157e-05
1.58579414022670143e-06
-1.61962880757291987e-06
7.85333288574373772e-06
1.2615789856473372e-05
1.34060087069133866e-06
-1.36872254089857886e-06
5.85132312157635563e-06
1.23113035709650706e-05
1.15738647035822418e-06
-1.18133888027280605e-06
3.88139943495326536e-06
1.2088297168351726e-05
1.02728473832563653e-06
-1.04833103672040143e-06
1.93256455306836995e-06
1.19407549770553508e-05
9.44048778502298903e-07
-9.63261962556290193e-07
1.18416097228176169e-05
9.0186257359270566e-07
-9.20149508444947472e-07
-7.37472218556518616e-05
-8.78403719094876349e-05
-0.000110712197948759929
0.000183720732271260809
-8.39150410548340103e-05
-5.72032202862407063e-05
-2.25386646226096872e-05
2.74023861267966534e-05
-7.4849024927353138e-05
-3.10710785382215275e-05
1.81704738764263909e-05
-3.22185020356319406e-05
-6.15590814374504227e-05
-1.21978116898957491e-05
3.98505795336882637e-05
-5.85968701729832023e-05
-4.91452957467797657e-05
5.32684111426838687e-06
5.11226655843777629e-05
-7.08604685007553035e-05
-3.82412646374176335e-05
2.15924419024413625e-05
5.78650587322992254e-05
-7.65144405317116612e-05
-2.82127898898347065e-05
3.68288142215695283e-05
6.20855587791271213e-05
-7.9071309921402048e-05
-1.92454851955754077e-05
5.14542549681005189e-05
6.45532887773296756e-05
-8.01578658407851353e-05
-1.11736877724352965e-05
6.51462565371891181e-05
6.58996927982495552e-05
-7.98392279183035667e-05
-3.19918096199257743e-06
7.82824605453939424e-05
6.6757729669751742e-05
-7.93606889253927931e-05
5.46610700425206902e-06
9.06486664095399001e-05
6.73065157072963883e-05
-7.89535010148861415e-05
1.51425974005601102e-05
0.000101292701171481857
6.71398225846114378e-05
-7.77979895072086205e-05
2.54039544089517118e-05
0.000108465738227360277
6.55906071302458449e-05
-7.47544229706476927e-05
3.51657536389246087e-05
0.000110325601922647601
6.2291020058968108e-05
-6.96083591330960932e-05
4.31739763632843179e-05
0.0001061619473176138
5.72781024728303474e-05
-6.28563451324041107e-05
4.84948611855184864e-05
9.68303919844712148e-05
5.09222305231488262e-05
-5.51511259631537812e-05
5.08417810374613803e-05
8.4441609456411011e-05
4.38232971268804426e-05
-4.70650610173310507e-05
5.06000024277846545e-05
7.14382564758609106e-05
3.66662976750015485e-05
-3.9127063884975699e-05
4.85656963100035121e-05
5.96563439745644345e-05
3.00424962441227946e-05
-3.18474618381906784e-05
4.55520408946954943e-05
4.99167961539511099e-05
2.42992157947526105e-05
-2.55793650838110221e-05
4.21446402801916133e-05
4.22406135017196026e-05
1.95263621054110609e-05
-2.04216349376652566e-05
3.86770321268378205e-05
3.62876060405355861e-05
1.56513167433101994e-05
-1.62802887415213237e-05
3.53076921392625085e-05
3.16701030717662709e-05
1.25400542130829333e-05
-1.29880517606218862e-05
3.21002074332101428e-05
2.80581272409443685e-05
1.00538984151200121e-05
-1.03784561534598545e-05
2.90734943712969524e-05
2.51909752305402724e-05
8.07109969727524395e-06
-8.31015644680780457e-06
2.62209372488361989e-05
2.28970639311973598e-05
6.4895734398825469e-06
-6.66868735273521619e-06
2.35290060694697029e-05
2.10386439109739632e-05
5.22833603653330745e-06
-5.36433834061176382e-06
2.09807457851662269e-05
1.95186309050408316e-05
4.22235777186085296e-06
-4.32688260469357686e-06
1.85583774413888879e-05
1.8268230984084841e-05
3.42030179434381792e-06
-3.50154571379041512e-06
1.62448744053185194e-05
1.72365498339356943e-05
2.78179261928350849e-06
-2.84562326468566811e-06
1.4024413943019122e-05
1.63857205580656814e-05
2.2750466453642817e-06
-2.32575555430146089e-06
1.18824527105831567e-05
1.56873609627770574e-05
1.87510719560615372e-06
-1.91589562596147584e-06
9.80564786768997851e-06
1.51200234312387414e-05
1.56246710454901835e-06
-1.59577045306105911e-06
7.78170183905711879e-06
1.46674688857969075e-05
1.32200493753693738e-06
-1.34971547448254491e-06
5.79917515446743658e-06
1.43174727930799925e-05
1.14217420712241106e-06
-1.16579852545101579e-06
3.84727615230330078e-06
1.40609842872246433e-05
1.01439263562776137e-06
-1.03516627329762197e-06
1.9155378302262348e-06
1.38914791317982368e-05
9.32603536051203872e-07
-9.51577593543657038e-07
1.37752201413330118e-05
8.91118189001897192e-07
-9.0918199015598007e-07
-7.82218009803776549e-05
-8.2486227854892014e-05
-0.000101805458470664108
0.000174676548785852203
-8.71581203142208203e-05
-5.62559981623864271e-05
-1.85475016774626307e-05
2.65443971135411019e-05
-7.65795822210738698e-05
-3.03022530778171076e-05
1.91511880633714283e-05
-3.04882095363489484e-05
-6.24119580630225749e-05
-8.50353814727868864e-06
4.1481640833360435e-05
-5.93379060336089896e-05
-4.8546783745246815e-05
1.07093731733271278e-05
5.31240325303275951e-05
-7.23710216714449413e-05
-3.61904881433604676e-05
2.74141100546618276e-05
5.94255031708613418e-05
-7.76038353750499731e-05
-2.54974189842114307e-05
4.2831370928363278e-05
6.28096451688583344e-05
-7.95049189696267033e-05
-1.62988000748293543e-05
5.70029138164625371e-05
6.43416985344017758e-05
-7.90881519691470907e-05
-8.07342042243640263e-06
7.01076656309525086e-05
6.48209396304440558e-05
-7.80068722910377664e-05
-1.77006547718491769e-07
8.2215424759447326e-05
6.47237684499276023e-05
-7.65524160334107737e-05
8.05276953634769668e-06
9.30870586954699373e-05
6.41983436172765707e-05
-7.48658649871115824e-05
1.68322955826935794e-05
0.00010194141949101322
6.29890217357113375e-05
-7.24167066453244959e-05
2.58057377366486339e-05
0.000107412126327375841
6.06762136435237364e-05
-6.85956237822854715e-05
3.41521341084938897e-05
0.000108260036244233469
5.70516847397384139e-05
-6.33322672692881588e-05
4.09629818843089991e-05
0.000104151168351656386
5.21949163079010311e-05
-5.69948932687162961e-05
4.55655354907366883e-05
9.58716274725845291e-05
4.64053172750223831e-05
-5.00491272754114097e-05
4.77425304040319726e-05
8.50497514744577934e-05
4.0125364378150387e-05
-4.29105935275855669e-05
4.77578612198289012e-05
7.35372574253397498e-05
3.38482768617260078e-05
-3.59627438416662191e-05
4.61899220972377051e-05
6.27911772950794989e-05
2.80064700685275081e-05
-2.95735226678906806e-05
4.3666960742953365e-05
5.35728667671955285e-05
2.28715495358023394e-05
-2.40048232161871829e-05
4.06803902401001052e-05
4.60373138351068617e-05
1.85343385860740499e-05
-1.93446232889318498e-05
3.75421890190492875e-05
4.00061043080129542e-05
1.49593869419772018e-05
-1.55398180287732136e-05
3.44206475354884921e-05
3.52112094447576922e-05
1.20526342449677611e-05
-1.24723058646190753e-05
3.14009495377313112e-05
3.13843851959637316e-05
9.70712785841058295e-06
-1.00137643959044095e-05
2.85147867779824404e-05
2.8305379332817552e-05
7.82053914607239108e-06
-8.04882929028437529e-06
2.57692103474940515e-05
2.58150461236252466e-05
6.30639940488771959e-06
-6.4788299394673411e-06
2.31606941173749482e-05
2.37787039397087174e-05
5.09327153320961861e-06
-5.22481966436659386e-06
2.06786594695135579e-05
2.21021586146994077e-05
4.12181475037692332e-06
-4.22329631871615054e-06
1.83098616493040348e-05
2.07161708906058852e-05
3.34478110918445552e-06
-3.42390098625868379e-06
1.60405299802614341e-05
1.95682246079382797e-05
2.72457256119079335e-06
-2.78688749295092185e-06
1.38571858328048053e-05
1.86187015631556973e-05
2.23128861678105281e-06
-2.28089527281546599e-06
1.17470129022146931e-05
1.78375358195056087e-05
1.84127971726662147e-06
-1.88125238350614015e-06
9.69797328514838208e-06
1.72017771316712028e-05
1.53595491314868903e-06
-1.56864265366169296e-06
7.69877509458919057e-06
1.66939239335831592e-05
1.30083856223514589e-06
-1.32807302223299294e-06
5.73876466003043403e-06
1.63007458093106579e-05
1.1248386924068119e-06
-1.14808301449352679e-06
3.80778219858404298e-06
1.60124388453465555e-05