/*--------------------------------*- C++ -*----------------------------------*\
| =========                 |                                                 |
| \\      /  F ield         | OpenFOAM: The Open Source CFD Toolbox           |
|  \\    /   O peration     | Version:  2206                                  |
|   \\  /    A nd           | Website:  www.openfoam.com                      |
|    \\/     M anipulation  |                                                 |
\*---------------------------------------------------------------------------*/
FoamFile
{
    version     2.0;
    format      ascii;
    arch        "LSB;label=32;scalar=64";
    class       volScalarField;
    location    "0.0899999999999999967";
    object      rAU;
}
// * * * * * * * * * * * * * * * * * * * * * * * * * * * * * * * * * * * * * //

dimensions      [-1 3 1 0 0 0 0];

internalField   nonuniform List<scalar> 
7236
(
0.0141863279920371194
0.00664863285164952935
0.00302405443794935861
0.00204657039040887379
0.00188873922547694631
0.0019804959088584647
0.00218509734091029565
0.00270203590271123235
0.00324025114078377915
0.00385449276928621128
0.00478883161335839393
0.00623980959582585461
0.00854022457425967704
0.0110970533910050486
0.0134913255969372464
0.0157979775777242586
0.0178124653323144741
0.019485117999725618
0.0208491257318010326
0.0219748339591824132
0.0229163793508870249
0.0237109877085917645
0.0243902538316741468
0.0249782949671436202
0.0254929658528258475
0.0259482783039649244
0.0263555631986523639
0.0267238165930544364
0.0270601964158646152
0.0273704741176890518
0.0276593641640101862
0.0279307607573169685
0.0281879134379671298
0.0284335585601363829
0.0286700201170475323
0.0288992838698270936
0.0291228351605102263
0.0293215456386907748
0.0181469494999627196
0.0126182606900454349
0.00890525631916495169
0.00799436773636038461
0.00820422892312430534
0.00853674329121976647
0.00863519333478041107
0.00893897264625701307
0.0088363984142318195
0.00865940350561193554
0.00842095408456160557
0.00842031887890919324
0.00895835653804045833
0.0102139515434487467
0.0120940528645666501
0.0142638314811745787
0.0164061768788366889
0.0183501940717221874
0.0200081116553126499
0.0213408992018963954
0.0224102609590756535
0.0232870123130763454
0.0240229589932620669
0.024652868945939297
0.0252004532865820231
0.0256826281019675792
0.0261122615427659133
0.026499357263739861
0.0268517620062763869
0.0271757269985198786
0.0274763093946155702
0.0277576509570759203
0.0280231794110717448
0.0282757549945772194
0.0285177836753446219
0.028751526989368132
0.0289791874621769356
0.0291825614547751092
0.0166111330166155147
0.0146148929167793686
0.0134946441948661493
0.0139299638688654293
0.0146361718883775728
0.0154254372330053097
0.0162991269579438013
0.0169798286197743488
0.0168998488144655422
0.0159885372738925273
0.0146057736046538624
0.0133203754907706903
0.0124771329638600544
0.0125934393846507606
0.0133633950403346004
0.0146834262675390372
0.0163671977571696881
0.0180966938228861764
0.0196695234432439463
0.020988617509946874
0.0220697888695804909
0.0229644917214994054
0.0237189192963797729
0.0243657638114030128
0.0249282422050652111
0.0254233584251508486
0.0258641345333408372
0.0262607392680246042
0.0266211628532449264
0.0269517782619701739
0.0272577425286573589
0.0275432747258137628
0.0278118588345518392
0.0280663912958154793
0.0283092870931219605
0.0285425242299356952
0.0287678654110169428
0.0289680312933280164
0.01608483198024439
0.0166613107002149333
0.0170529646513685983
0.0178659082154957252
0.0188536013645661145
0.0203101713982884145
0.0211663940685126832
0.0208407635256573805
0.0199518404041893159
0.0188682776886856078
0.0175012928598339799
0.0160157284330974502
0.0149547675788093901
0.0145616037304847484
0.0147976214225911708
0.0155513270078329168
0.0167230937642314156
0.018120443022744754
0.0195053444808934787
0.0207404919321009761
0.0217934841513066149
0.0226846406200579172
0.0234449581685926764
0.0241008709873994607
0.0246731090880537331
0.0251775892244984478
0.0256269056068007192
0.0260310665353390459
0.0263979987154844137
0.0267340657734361775
0.0270444389763677163
0.0273333567161906307
0.0276043191033587092
0.027860231436527709
0.028103508992610958
0.0283361425432694068
0.0285598699506021715
0.028757769544777767
0.014648779216512307
0.0171421818617068095
0.0179742955289974998
0.0186056188205904992
0.0196143818035084717
0.020607192662781687
0.0203982721019149126
0.0198117803664043246
0.0192623438133154891
0.018669397427866611
0.0179674976166064176
0.0169993167986159412
0.0160702937552174158
0.0155993543643029656
0.0156479390302419891
0.0161778220537423974
0.0170900638414986407
0.0182386165522704161
0.0194456670352312171
0.0205785411811329824
0.0215819836424518824
0.0224528930713545107
0.0232072792798895047
0.0238639931969898585
0.0244401799383902468
0.024949800955886739
0.0254045255553344909
0.0258138732953329432
0.0261854825090015175
0.026525560840214072
0.0268391943965695101
0.0271305715964897665
0.0274031597932859264
0.02765983864974704
0.0279030007860234207
0.0281346296797689716
0.0283564363008889618
0.0285519749510899333
0.014087476879421636
0.0174947193981131351
0.0186606231412744308
0.0191946150758055128
0.0201509346502542486
0.0203453718758108727
0.019799356785254435
0.0193745009578548295
0.0189901830646813964
0.0185930487776934071
0.0180911062943740243
0.0173302333798175875
0.0165781484152229749
0.0161897442155533346
0.0162153466828714107
0.0166426116940411838
0.0174039071588840931
0.0183846899022407639
0.0194476411010265637
0.020481061825547521
0.0214257654877783345
0.0222653906063521104
0.0230045021270484512
0.0236548393803038895
0.0242296338549997381
0.0247403527685402733
0.0251974237534942254
0.0256096048939513099
0.0259840496856208331
0.0263266793879985174
0.0266424028430877168
0.0269352926326571762
0.0272087360360046132
0.0274655526002867273
0.027708085725273196
0.0279382770646718036
0.0281577622701987378
0.028350781828719529
0.0141383069513265399
0.017783067818576876
0.0191570002651833514
0.0195669898043496319
0.0202688009014600455
0.0198606171711972271
0.0194609149767831988
0.0191422690892710697
0.0188747544819500984
0.0186129423594229432
0.0181616454556031461
0.0174704113796557148
0.0168728770740961473
0.0165829271103551702
0.0166343331796463753
0.0170178167844598112
0.017682596844675439
0.0185408828572648926
0.0194869736527428332
0.0204297677148401365
0.0213135859328604862
0.0221157905325842681
0.0228331360546563111
0.0234714883264094468
0.0240403862536201773
0.0245486230959543923
0.0250052567463515708
0.0254180792916765055
0.0257936147056960843
0.0261373963407808621
0.0264540785591047371
0.0267475609800528202
0.0270211086273454103
0.0272774492377464185
0.0275188518564000312
0.0277471913729881343
0.027964015017531197
0.028154316056736902
0.014520418586499495
0.0180655689932257141
0.019333030671538437
0.0197411831104151274
0.0199849025505638156
0.0195548506944519876
0.0192645887582172035
0.0190446725731546647
0.018852539156957334
0.0186865540427537564
0.0182293453760952219
0.0175630434921984976
0.017098380237642416
0.0168961783619393409
0.0169796429278582517
0.0173397021667704709
0.0179356444460819255
0.0186995450528511208
0.0195494159615750458
0.0204114807141000144
0.0212359340391185154
0.0219979858394813883
0.0226894567229613091
0.0233117834259758891
0.0238710557331903127
0.0243737603247793887
0.024827512499270607
0.0252389871256836242
0.0256139963033966585
0.0259576139690074793
0.02627417969553612
0.0265673738965374641
0.026840303931721661
0.0270955779360674553
0.0273353682184441539
0.0275614646054193058
0.027775321339402477
0.0279626921812557577
0.0150445589036109582
0.0184362954414601481
0.0192559053340725997
0.0198195960738904546
0.0197152352282128837
0.0193685858272181315
0.0191533511907571591
0.0189912205306868899
0.0188644841525944656
0.0186591735730089886
0.0181916320568045464
0.0176501641202473636
0.0172971146479978348
0.0171688210902447499
0.0172810232116043551
0.0176250787243946057
0.0181680684204579106
0.0188565238822594287
0.0196260987690876146
0.0204168539851339974
0.0211852285570131686
0.0219065863560014736
0.0225698090179127439
0.0231734610359521469
0.0237200770456201145
0.0242148248162900835
0.024663612028321253
0.0250719564760908849
0.0254449587041945847
0.0257871882948209549
0.0261026261133447332
0.02639469714107473
0.0266663215366327554
0.0269199645051376203
0.0271576832461899176
0.0273811684667719414
0.0275917773930481024
0.0277760094317980981
0.0155948462570388597
0.0189709696017144255
0.0191251733875660614
0.0199362488359028332
0.0195086502599019843
0.0192344047953050996
0.0190786134224255957
0.0189669751676961491
0.0189003912743257001
0.0186516223057598234
0.0181722064458132229
0.017742142060226708
0.0174814173221905962
0.0174141157468029398
0.0175503835074141447
0.0178821568168245591
0.0183826621952945489
0.0190093931995888553
0.0197112281752881528
0.0204391711712983253
0.0211555139049575056
0.0218369431485765791
0.0161937480223874435
0.0193562719481500146
0.019019691283591475
0.0198698557234236045
0.0193380006259757896
0.0191384356845140484
0.0190308730847292724
0.0189708209217008816
0.018940698544715466
0.0186518511906657962
0.0181762964313515046
0.0178402278193150049
0.0176555577028852939
0.0176381010732061874
0.0177939824180375315
0.0181157079795195956
0.0185813252223233812
0.0191567239932715003
0.0198009009195178887
0.0204735426738575678
0.0211421667144983186
0.0217852391900270129
0.0170075336729264802
0.0191309004188821609
0.0190101717662648564
0.0196196104772238117
0.0192002820450807091
0.0190697587466390969
0.0190113393970504363
0.018997847193418297
0.0189072529363256484
0.0185852851905436468
0.0182002296466590337
0.0179433995283071086
0.0178214956827589498
0.0178446026154757582
0.0180161496380768296
0.0183292210542901519
0.018765631677461838
0.0192977512649630464
0.0198924517085255319
0.0205163644931377169
0.0211415868120155143
0.0217481566625087538
0.0182932290705593026
0.0190096683352342158
0.0190761606530320156
0.0193959013482581689
0.0191006247609208056
0.0190295883209989219
0.0190171716996773259
0.0190430950575229407
0.0188973404870268272
0.018545852590211926
0.0182399383743351226
0.0180502217631576811
0.0179804056072382056
0.0180363297017546963
0.0182201856928503117
0.0185254837029870667
0.0189370036108427627
0.0194321650249705269
0.0199840695048954659
0.0205648934708290571
0.0211506922751363603
0.0217229412734686322
0.0185295459603744307
0.0182920558770634616
0.018159349594442091
0.0181328936362279286
0.0182152596661072572
0.0184086102781506819
0.018706687678499305
0.0190966809496302577
0.0195599346218084183
0.0200745163880249877
0.0182703700628001689
0.0182794278407013185
0.0183830921042453105
0.0185836479820744756
0.0188748845779179164
0.0192459638553846533
0.0196813808253553518
0.0201632042116310362
0.0185547036206802976
0.0187608238858645859
0.0190463628105334883
0.0194016855843046447
0.020748038900261237
0.0248512186736438816
0.015820213404583304
0.0103140560379661461
0.00884944340573264043
0.00842430844886584394
0.00858672913330794409
0.00909928282985891443
0.00982088631471621405
0.0106802886097819814
0.011622089413230046
0.0127087578315845419
0.0140670757034627534
0.0156785124451141906
0.0172886100993048693
0.018702710928929913
0.0199036199585969631
0.0209529778328258164
0.0218997744784390561
0.0227529818462350111
0.0235058958730248284
0.0241653000334548784
0.0247446888895877376
0.0252571925675929912
0.0257141514967415483
0.0261248943282584613
0.0264972119016370841
0.0268377241879350567
0.027151914965658424
0.0274443205569196401
0.0277187198492601546
0.0279782831310821066
0.0282256889556922463
0.0284632148425096668
0.0286928084813245499
0.0289161391609615778
0.0291344210582532154
0.0293282749632848769
0.0201325574566957946
0.022602628837063838
0.0203936298146523212
0.0196183781854660129
0.01820805265144421
0.0159478018569089545
0.0145047174767780149
0.0139096578898351541
0.0137738419645518188
0.0137085491086091672
0.0135861080695797963
0.0135089790641540908
0.0138345749308292614
0.0147107594471015801
0.0159709753909302553
0.0173740476874317644
0.0187686086543434535
0.0200720770153505097
0.0212201883881372733
0.0222063330283121495
0.0230484956931014118
0.0237713621597281828
0.0243979727844911773
0.0249468395561220357
0.02543279367108571
0.0258675390413363945
0.0262601729546704382
0.0266180594161438237
0.0269471933437403742
0.0272524779972662737
0.0275379601389480998
0.0278070067993755367
0.0280624398451985654
0.0283066367077700852
0.0285416106810535974
0.0287692930573226861
0.0289915966153128299
0.0291900449325069519
0.0199568375303334974
0.0212439295876556966
0.0208965063516975379
0.0214071396901649204
0.0219472975412953707
0.0214970982501532827
0.0209052948204305929
0.0200722519101964349
0.0191700216208798187
0.0183388980837621215
0.0173940968874825713
0.0163467914568805987
0.0156604848480606032
0.0156763418568303392
0.0162789910235270896
0.017297558041166089
0.018504515290974289
0.0197328086534536602
0.0208668207738080917
0.0218608551208937692
0.0227177046393401832
0.0234572337840033077
0.0241004362782797216
0.024664853342477186
0.0251647044446488971
0.0256115257216386998
0.0260145859658923971
0.0263814155924653251
0.0267181308153139896
0.0270297317206982732
0.0273203439609876926
0.0275933955153134722
0.0278517522547738622
0.0280978190704912548
0.0283336127401891263
0.0285607827853992385
0.028780808469862508
0.0289761482168153055
0.019452936160419574
0.0205593160538358952
0.021231472106294294
0.0217408090249937014
0.0214549948583677361
0.0209793918819072868
0.0204249752368006743
0.0199272569285998645
0.01955440214553026
0.019205540708271792
0.0187398655807637995
0.0178920765558032366
0.0170303984873021279
0.0166974341098149702
0.0169014356581601854
0.0175531066794417136
0.0185041897098474732
0.0195756858744060257
0.0206280081735012895
0.0215880918737306679
0.0224360891982691886
0.0231784404081389547
0.023829267670265001
0.0244029547709227745
0.0249123079517350812
0.0253680945158522922
0.0257792775217989233
0.0261532901609439032
0.0264962045932435192
0.026813010116128539
0.027107840098726306
0.0273841345891376702
0.0276447690715861567
0.0278921522088210784
0.0281282977650572502
0.0283548659670280895
0.0285733138063524461
0.0287664610242685317
0.0192115005973133093
0.0206300573580744141
0.0218164345536341758
0.0215629153123994659
0.0210207907593132244
0.0206112431320745818
0.020180218645741814
0.0197977483739941486
0.0194862865523761641
0.0192105933313360192
0.0189548862937481653
0.0183769729272040237
0.0176356598557794973
0.0172692245183810877
0.0173480492322121461
0.0178262424060101378
0.0185956381129775278
0.0195218652350411907
0.0204786620975784123
0.0213853174526395309
0.0222077381751236945
0.022940345630068925
0.0235896976705227412
0.0241660555210857046
0.0246800706584470037
0.0251412319721453469
0.0255578229714336046
0.0259369314060187116
0.026284408528972316
0.0266051152913808833
0.0269031123218413763
0.0271817945851776308
0.0274440062794207226
0.0276921307135856443
0.0279281593448633125
0.0281537459706213966
0.0283703240131460074
0.0285611932026790631
0.0193313740441755436
0.0210081310441647302
0.0222768537812621133
0.0212516975695134606
0.0207303233995856165
0.0203894425089971194
0.0200581695197817912
0.0197721580027838996
0.0195316869415639721
0.0193277676149478245
0.0190688105009066793
0.0185335608132223759
0.0179291622955561371
0.0176223797881337359
0.0176731461171452109
0.0180630451647049613
0.0187158793923678547
0.0195275199787049575
0.0203941412080225516
0.021240580800628836
0.022027290121341761
0.0227407078013136636
0.0233809411290528783
0.0239540654196827817
0.0244682375285356843
0.0249313183853939191
0.0253506508231347086
0.0257327767921456674
0.0260831686051018231
0.026406454170824524
0.0267065468491317071
0.0269867421353894368
0.0272498133744001406
0.0274980893533157134
0.0277335163787527962
0.0279577101656779993
0.028172033642105531
0.0283604772762648775
0.0196001847735370709
0.0214571537321835565
0.0224867927109583532
0.0210858725021218565
0.0205526528412580504
0.0202347633132727509
0.019967618530823128
0.0197482633003235458
0.0195723747325515091
0.0194385480816914626
0.0191520617045044216
0.018615244889620762
0.0181184693090651674
0.0178785561073548857
0.0179351396006822844
0.0182767011625603083
0.0188479682201119041
0.0195685021098533397
0.0203547302063054603
0.0211407992376931655
0.021886882222322334
0.022574996203493413
0.0232004038845700679
0.0237654949440491946
0.0242759562758166139
0.024737853323791522
0.0251574828027330138
0.0255406821977185519
0.0258924214412921509
0.0262170149749926008
0.0265181661083061307
0.026799023483548217
0.0270622542837554124
0.0273101059117759302
0.0275444578203328759
0.0277668651905319842
0.0279786088433694007
0.0281644374117382724
0.0200421033083265469
0.0220386599056194184
0.0224265779941145681
0.0209803287552964707
0.0204089783939072691
0.0201093010484365772
0.0198935766323402909
0.0197291276280383426
0.01960841444134288
0.0195356748592265123
0.0192222980180686773
0.0186808588079993704
0.0182737003007519341
0.0180924093625743493
0.01816239112712505
0.0184736902275708451
0.0189840114393716487
0.0196307271586994188
0.020346600685363956
0.0210752980239441931
0.0217792474780236743
0.0224385689693188534
0.0230452004603055247
0.0235985081105499102
0.0241021292944051807
0.0245601297963653244
0.0249778871690701683
0.0253603858992851906
0.0257120139464816974
0.0260367172329040372
0.0263379390400536734
0.0266186428044070077
0.0268813598918744776
0.0271282326344328001
0.0273610542963111728
0.0275813034903088748
0.0277901758483071019
0.0279731868589331231
0.0206904453391796757
0.0227279989595654992
0.022244835118728417
0.0208345264193115325
0.0202756946448263142
0.0200022775840663532
0.0198285256193255731
0.019711207468482643
0.0196404084619575918
0.0195729002019277842
0.0192383320167815487
0.0187415875717608336
0.0184123086299865131
0.018281756374349041
0.0183662253816987281
0.0186565817757617484
0.019119483618758721
0.0197054625684615105
0.0203601640560219545
0.0210358284432072724
0.0216981905363037159
0.0223271032977566466
0.0229123908508140454
0.0234513401651178649
0.023945445733398095
0.0243973061951442069
0.0248113761971721289
0.0251915799083285222
0.0255417502057540199
0.0258654424113422612
0.0261658020237560025
0.02644557659640695
0.0267071367448557875
0.0269524998742406083
0.0271833570842253229
0.0274010980589801736
0.0276068305733527738
0.0277868233231824413
0.0215687893517721545
0.02346855998813073
0.0219398069831291953
0.0206450077865883257
0.0201372395662491009
0.0199008863257315351
0.0197705590872144753
0.0196972484906383707
0.0196728160768154074
0.0195679042292912185
0.0192167523495433458
0.0188008693329092189
0.0185393441850638212
0.0184528047472787837
0.0185513390844375473
0.01882652600664763
0.019251618493802105
0.0197870736980342021
0.0203886862011885481
0.0210160785637096351
0.0216385805379899696
0.0222367414658617389
0.0227992554442257196
0.0227445529635828814
0.0235294908075680924
0.0215212030229013744
0.0204138386880302995
0.0199893149595567234
0.019806204642728642
0.0197213199995494304
0.0196911372898741673
0.0197097259854369482
0.0195707345437950569
0.019204815072447777
0.018860633192876456
0.0186576258513109564
0.0186090106198535075
0.0187205510152851605
0.0189844189434786072
0.0193788333348561791
0.0198718663086898638
0.0204273792737994578
0.0210112284690268762
0.0215962240313503466
0.0221641550506928228
0.0244145502872041738
0.0229591637685500963
0.0210210473243951645
0.0201541520879163667
0.0198393222180164065
0.0197211226519272906
0.0196840612677232803
0.0196955020365801141
0.0197531142053061458
0.0195826982965639496
0.0192031838951488877
0.018921917770095345
0.0187692334846075205
0.018753006900643323
0.018876116305877863
0.0191312268152261863
0.0195003395803431123
0.019957423738720028
0.0204728073669947601
0.021017583650983291
0.0215678432137587535
0.0221064434927967304
0.0249477296699717258
0.021886355927447549
0.020466657068214638
0.019885339453779953
0.0196989760140904684
0.019650944767645926
0.0196617447115982578
0.0197122769955036664
0.0197516269335991125
0.0195523226660125928
0.019211203154439388
0.0189851012786600333
0.0188756794217988209
0.01888679132176347
0.0190199121290022255
0.0192679600697810913
0.0196158640015257416
0.0200421893308160917
0.020522497009766813
0.0210322401797629864
0.0215505346144969426
0.0220610680494504434
0.0195118369790390662
0.019227854541312369
0.0190500126969704239
0.0189777460477322212
0.0190118557120026212
0.0191534342592452576
0.0193955225733157578
0.019725401648506672
0.0201251788109577147
0.0205746461991428743
0.0191172476556433872
0.0190760601954446662
0.019129448028834449
0.0192780884611854809
0.019515002081544882
0.0198293007667665853
0.0202059295462471075
0.0206281864905596309
0.0192554831509348483
0.0194100793616341118
0.0196431352527982848
0.0199447696105984271
0.0226173202963559708
0.0245328437540374387
0.0225600947609233063
0.0209643052695444657
0.0201469303484452592
0.0193542659286006051
0.0188162678372097367
0.0187844237061456538
0.0190113620938141513
0.0192246524879552474
0.0192692347235401303
0.0192270261462235657
0.019335870799826075
0.0197334602503931068
0.0202990942547180246
0.0209188028444521959
0.0215627390963023524
0.0222220909045832311
0.0228819610880661092
0.0235153605720343287
0.0241011301252005636
0.0246336363727702179
0.0251156921030622274
0.025552676543579577
0.0259504900928886235
0.0263146764881050932
0.0266501120285175218
0.0269611664563207398
0.0272516857975426165
0.0275249758492100011
0.0277838666186958974
0.0280307852772148439
0.0282678203232534439
0.0284967736327705334
0.0287192039879556361
0.0289364580405947341
0.0291494790527917907
0.0293386421151348165
0.0227788224017533847
0.0243929305780917309
0.0227111997829774724
0.0209542212583396087
0.0201579903692138303
0.0198537796670510448
0.019650731750260924
0.0194701340107560905
0.019250955524113024
0.0192194462688621316
0.0190406965067741844
0.0187162193815541451
0.018504408110158653
0.0186609739666834355
0.019177566278034127
0.0199085493719437026
0.0207230083893674595
0.0215396378445610985
0.0223173019140914773
0.0230353231947598748
0.0236843230967862389
0.0242658911232798806
0.0247869414137826642
0.0252554089923836787
0.0256790184469972566
0.0260648166876612138
0.0264187788764654735
0.0267458913578567728
0.0270503763602004503
0.0273358105869129057
0.027605227118122036
0.0278612054502735129
0.0281059464183767947
0.0283413304528114564
0.0285689672758307998
0.0287904489567556779
0.0290073977566586115
0.0292010754899153756
0.023109795811561331
0.0240796391241643176
0.0232041340317804962
0.0216966077503244793
0.020987688979048149
0.0205599732104483519
0.0202569698533619953
0.0200599378674684962
0.0200418417386565885
0.0201352342563696045
0.0198917115956382881
0.019281849760558533
0.0187891607646971069
0.0186900987834256217
0.0190030633798113011
0.0196032118715258469
0.0203630317920795202
0.0211727971204293333
0.0219620424791998406
0.0226954202306807323
0.0233606324769193262
0.0239583430446516261
0.0244947423207205403
0.0249774694606246725
0.0254140347921536329
0.0258112377900947126
0.0261750825495797
0.0265107074925050416
0.0268224422190739518
0.0271139414261615044
0.027388300713913457
0.0276481477581224586
0.0278957179414201749
0.0281329126825726542
0.0283613415809727716
0.0285823216149636121
0.0287970504022652431
0.0289877167947079975
0.0234361043776371257
0.0238391885405895045
0.0230779393155619919
0.0217537172841213607
0.0211376125103908442
0.0207499312123270788
0.0204417415312798285
0.0202213030289431425
0.0201331862050072759
0.020146097752363059
0.020076854366272559
0.0196451530033228267
0.0190901247276801661
0.0188697573272008333
0.0190276490581241589
0.0194955259175473988
0.0201617377758769624
0.0209178446629152449
0.0216822469883955794
0.02240801382099376
0.0230752465431298195
0.0236798885630751556
0.0242252830262049898
0.0247175442449269929
0.0251634634137697551
0.0255693810137631004
0.0259410777497030356
0.0262836365606902017
0.026601360248649588
0.0268978954264145823
0.0271763426005337642
0.0274393372239737053
0.0276891202518885562
0.0279275938589915729
0.028156362930305906
0.0283767539449173989
0.0285899450023640589
0.0287784914570796135
0.0236217219100710273
0.0236697400094273529
0.0229725761914802672
0.0217256141841616832
0.0211627034728703763
0.0208104140143385886
0.0205388695707404111
0.020343322576806145
0.0202428562586604507
0.0202228109950168405
0.0201528326949005805
0.0197642258873031718
0.0192522011249657739
0.019016015375351674
0.0191046923014161693
0.0194806371867191908
0.0200607782912254513
0.0207514050184632523
0.0214736821898878459
0.0221763066055270033
0.022833322158705243
0.0234356397358940587
0.0239831172999047972
0.0244797346430100718
0.0249310978465137993
0.0253427273683188743
0.025719954961336066
0.0260676316023353595
0.02638989672487696
0.0266902983285187446
0.0269718788506631522
0.0272372358442978801
0.0274885825578652515
0.0277277979122672255
0.02795646626974118
0.0281759093846595775
0.0283872854627738487
0.0285736349306383274
0.0238385200824738214
0.0236473163268108681
0.0228467056254910289
0.0216590585335363801
0.0211235066655425657
0.0208068110092137562
0.0205771105722721386
0.02041837388349255
0.0203330207980940009
0.0203168656285128667
0.0201991909767661355
0.0197967015903198346
0.0193456792765222228
0.0191317689565638112
0.0191942212868532538
0.019511712498642083
0.0200223785628501939
0.0206497020995612054
0.0213237207336747815
0.0219941678101590148
0.0226320689457562459
0.0232244798959103105
0.0237679551838067028
0.0242641559766091156
0.024717257354769092
0.0251316820664286532
0.0255121483421724519
0.0258631274259598851
0.0261884719215058175
0.0264915507576421738
0.0267752897603580411
0.027042204987413325
0.0272944497295223715
0.0275338555170969133
0.0277619669013898958
0.027980072122181919
0.0281892640871510523
0.0283732791304752915
0.0240293671731391031
0.0237414743849028338
0.0226965602100878891
0.0215636844034783615
0.0210495167364435805
0.0207601862851398457
0.0205675179418029312
0.0204445940172006402
0.020385417837180668
0.0203903379583379937
0.0202319960966643037
0.0198112966255756077
0.0194170714106349715
0.0192338806560653185
0.0192889211234460248
0.0195675766429466158
0.0200229399460661768
0.0205933195308729798
0.0212188185699891708
0.0218529816406514248
0.022466257726937805
0.0230433051183591871
0.0235779673498616379
0.024069735094648697
0.0245213095857866568
0.0249358669552557088
0.0253174521205074762
0.0256700233673909615
0.0259970491832381759
0.0263016578722756848
0.0265866087734051883
0.0268542982023473736
0.0271067905730908512
0.027345847686287908
0.027572955827168958
0.0277893496806556201
0.0279960466965876141
0.0281775472549291653
0.0242533720138875496
0.0239309318951393818
0.0224998961186431493
0.0214340362931674938
0.0209430942139785629
0.0206824965555917686
0.0205265085774041338
0.0204390153119053154
0.0204109898830133855
0.0204440869222755166
0.0202561609870827303
0.0198233331939165064
0.0194816578555159874
0.0193296860305663398
0.0193853407327031629
0.0196369600840711651
0.0200479389139091684
0.0205684692958211478
0.0211480011449290614
0.0217449218065296455
0.022330653539960707
0.0228887359626070049
0.0234109973171871093
0.0238951179194414956
0.0243424196425120372
0.0247547224279975053
0.0251355254093717853
0.0254881141096968342
0.025815511103190112
0.0261205623017924798
0.0264058201395653211
0.0266735300113131353
0.0269256430280555431
0.02716383142279594
0.0273895067405135577
0.0276038361762802054
0.0278077600010946946
0.0279865521983218291
0.0244388663987255839
0.0238862802290852848
0.0222139874713786142
0.0212444722475107831
0.0208024896105233441
0.0205824370386279085
0.0204669466230972541
0.0204169402067069655
0.0204224181610484883
0.0204844671404532074
0.0202736273686535441
0.01983480293772448
0.0195424323260671232
0.0194205964808942047
0.0194808064191598143
0.0197130638584264752
0.0200881336689269635
0.0205655424702017829
0.0211028525291982079
0.0216634194139977976
0.0222204932717674497
0.0227574584298901941
0.0232648041410461817
0.0237388016855614725
0.0241794774578166921
0.0245875660037141106
0.0249659807198686703
0.0253171540889836448
0.0256437024559195322
0.0259481726836032316
0.0262328785323004444
0.0264998891601824771
0.0267510218477920204
0.0269878426863769116
0.0272116747814845038
0.0274236071003449121
0.0276245012591513003
0.0278003921767317093
0.024528535550265556
0.0235256093952115122
0.0218161612436231708
0.0209932146865307312
0.0206335204267475876
0.020468727932036395
0.0203992955442142132
0.0203885380301816188
0.020428480351090357
0.020459556671086062
0.0202308589864486112
0.0198468269569245445
0.0196000984079804375
0.0195066796913791439
0.0195735166357161178
0.0197917159194461664
0.0201375160073057925
0.0205777978642355738
0.0210769850952927801
0.0216031038095317665
0.0221316121323062165
0.0226463954884101315
0.023137053129128466
0.0242104405148779386
0.0226344128394708917
0.0213202576889952936
0.020697599089652817
0.0204461746622441216
0.0203501954092634926
0.0203313781348342798
0.0203607296395721116
0.0204348109733768941
0.0204377742151477144
0.0201934110716977533
0.0198605536588823128
0.0196553722728019901
0.0195881393703041425
0.0196625156229629817
0.0198703872376089254
0.0201921359715513601
0.020600470357452768
0.0210655648349761943
0.0215596490793533331
0.022060471564526455
0.02255274179546507
0.0233641165224939516
0.0216086393153451101
0.0207378329530521245
0.0203700431895045726
0.0202520283968296265
0.0202352513870010658
0.0202695798781058201
0.0203386569715649848
0.0204451126562722602
0.0204217934236870062
0.0201629755105915062
0.019876821891228906
0.0197089837953857462
0.019665394104953552
0.019747446680242451
0.0199475962519145775
0.0202493975100171801
0.0206301797551931565
0.0210649288408845912
0.0215295857605212609
0.0220041925154998881
0.0224740893225094905
0.0217231253818828476
0.0204891873464484418
0.0201188153752739698
0.0200331943757608884
0.0200645643247022269
0.0201321332460439317
0.0202194821150870688
0.0203263582242497985
0.0204619445728106038
0.0204128726396497484
0.0201398430447802569
0.01989610033379062
0.0197615557753762841
0.0197388481343998175