/*--------------------------------*- C++ -*----------------------------------*\
| =========                 |                                                 |
| \\      /  F ield         | OpenFOAM: The Open Source CFD Toolbox           |
|  \\    /   O peration     | Version:  2206                                  |
|   \\  /    A nd           | Website:  www.openfoam.com                      |
|    \\/     M anipulation  |                                                 |
\*---------------------------------------------------------------------------*/
FoamFile
{
    version     2.0;
    format      ascii;
    arch        "LSB;label=32;scalar=64";
    class       surfaceVectorField;
    location    "0.0899999999999999967";
    object      Uf;
}
// * * * * * * * * * * * * * * * * * * * * * * * * * * * * * * * * * * * * * //

dimensions      [0 1 -1 0 0 0 0];

internalField   nonuniform List<vector> 
20390
(
(0.50453769998417719 -0.027823237364156303 0.0288307996619368498)
(0.21526453624003028 -0.0633374562834045085 -0.144996301061981664)
(0.114998329430251914 -0.0141723578376367308 -0.345348003034091189)
(0.987387612394666103 -0.00510077959872468761 0.0325147509015624378)
(0.824949585867407631 -0.0404718374903844311 0.168839312575686296)
(0.486021273505303941 -0.105400753988304327 0.040538782694675965)
(0.350106550591178067 -0.0351183865697163103 -0.0143528065984951519)
(1.22254402166648424 -0.0164299880050080699 0.0952530064014023153)
(1.03434626602844215 -0.040958143480765416 0.302759698832566648)
(0.633187010631696912 -0.10402430983832521 0.213328295323137185)
(0.56763409600764847 -0.0407524160627592766 0.225148372374548295)
(1.36703947171718032 -0.0208823256234457744 0.226494279844107388)
(1.17491855233291886 -0.0365558502175176853 0.383243815693341705)
(0.733134344338827404 -0.0955397425373755854 0.314405384863838955)
(0.739843369827176689 -0.0337817897392899968 0.360469713581588413)
(1.47681212147205798 -0.0218576838764331788 0.309959477822289331)
(1.27283145678934151 -0.0302747356072703595 0.416814581669456563)
(0.810271471763136075 -0.073903396454060799 0.351755003295034396)
(0.854314394161538537 -0.0235823850380130415 0.407725798030905529)
(1.56351476209067464 -0.0212108243903921939 0.357830870724896222)
(1.33549147967962667 -0.0242147176754694687 0.431577291891082682)
(0.881213589546843368 -0.0505166555832565825 0.368132171434176036)
(0.923127506588349189 -0.0125822661088866635 0.42390337100365133)
(1.62942195272733348 -0.0186906587618778548 0.385530234882846989)
(1.37906536319453932 -0.0176324048739240763 0.443638106540874599)
(0.933109716242344733 -0.0345807072993422962 0.384783387667613885)
(0.956766178502271192 -0.00387799098515780385 0.434058380653162823)
(1.66317681742173895 -0.0158554621064330575 0.408470902435256633)
(1.38745671710078478 -0.00832593844741149475 0.454551766562983961)
(0.964503866627806739 -0.00581076226647683075 0.39902561954110044)
(0.967585686350998064 0.00354464455192204583 0.433680564087264853)
(1.67642401603891233 -0.0117261775918236465 0.430450127179122177)
(1.34573900622533071 0.00588177396154453136 0.463300027326457975)
(0.985701641090003688 0.0260665852214424405 0.410036367791206169)
(0.949177835385368041 0.0118146703151059997 0.435704032928472318)
(1.6529331886345644 -0.00335254235152726435 0.446119187009285711)
(1.24194714785421856 0.0245783455665228717 0.47224388524538552)
(0.980895939564250918 0.0595921070660178562 0.42141052348729735)
(0.893338118410819337 0.0234592373708820308 0.443213786968007784)
(1.57364692259351679 0.0114856095757408933 0.458605958728822483)
(1.0756498521132416 0.0442105439107401618 0.481165315911469826)
(0.933795291984949039 0.09132566156613664 0.436653614232586862)
(0.79899706558159389 0.0369214793258645854 0.455365704905511426)
(1.43491994060302375 0.0300530074174959819 0.47171969462582497)
(0.859107323057956007 0.0589789574726524921 0.482086496751876092)
(0.836297689036936687 0.116833604660498719 0.451662846732445944)
(0.6682694752784335 0.0495218335686129704 0.464691383332962449)
(1.23640537287023777 0.0488665228852974837 0.481816172388703778)
(0.636137718920393169 0.0605938997568135698 0.463740134091964629)
(0.689154673800746242 0.123442572051680882 0.455090209525185085)
(0.510524542664326342 0.0548742290022273538 0.45572087778107162)
(0.988277863424207204 0.0610296623530750676 0.479636639154931321)
(0.459245460552441698 0.0493090653556533531 0.421090059673135286)
(0.53615152281940659 0.107316432357349154 0.436078555715790628)
(0.374596545177563023 0.0471450444751190037 0.419363297531052892)
(0.748764961378442617 0.0580510477642764353 0.45710410518538741)
(0.34491830771514792 0.0346183874194820607 0.358181392477673888)
(0.412486064844411027 0.0811804197033163116 0.391112692813456897)
(0.287884667210638157 0.0336710003848651254 0.361691673396285385)
(0.553403929266074401 0.0467425233766655263 0.409725404021323847)
(0.278921699858917127 0.0227716626253978496 0.285601518326104864)
(0.325215900597555729 0.0570533729327502431 0.325621188704520947)
(0.24103215673376352 0.02234572173671193 0.293337420737257937)
(0.408747455691824579 0.0344163181189917275 0.341447461365352312)
(0.240537986050563229 0.0148975065454313611 0.216282973830818431)
(0.269295547244145561 0.0381451217678527368 0.253029720230325994)
(0.216848281090995576 0.0148012141841769689 0.226778286751952829)
(0.314997691564792626 0.0231860567160101887 0.264684708652850154)
(0.21364329150714606 0.0103831582456013968 0.159577613887276565)
(0.232229814694998149 0.0256616288514364237 0.187641603203453355)
(0.200090566722399693 0.010419795713722927 0.170600809206489762)
(0.260041175673042246 0.0147677155454888319 0.195029380911129008)
(0.190389444200585706 0.00789560860723085081 0.117981399580313728)
(0.204456119391942887 0.0185467929655731799 0.137393749973192286)
(0.183201086499734878 0.00801600650547185274 0.127753874522684802)
(0.223963899159161345 0.0100090596248145324 0.141593763764625541)
(0.169390735843319179 0.00629110986103310812 0.0888108402748578191)
(0.18102131506954583 0.0142417556516808517 0.102054197429727989)
(0.165983526396282638 0.00643874502241126821 0.0967746297516180742)
(0.195069615471155366 0.00753084659747208906 0.104259663236692668)
(0.151000767996860741 0.00513449675967552616 0.068084728484403001)
(0.160901760169801122 0.0113450678026882947 0.0774479322505572665)
(0.14984959484619173 0.00527367879938750624 0.0743864852073060356)
(0.170921521713198771 0.00598738752148113371 0.0786868900522379039)
(0.135055951095505361 0.00429316861334448283 0.0528593633356287396)
(0.143626094133865123 0.00933086208431219491 0.0597467267793819756)
(0.135290109392759234 0.00441572872839892435 0.0578309747819044442)
(0.150800860100936324 0.00489071833949384239 0.0605480891110936961)
(0.121078070632461079 0.00367607545610243404 0.0413924265095480942)
(0.128642949797688255 0.00789462898266892095 0.0465916943217144497)
(0.122213837288508417 0.00378449619128864425 0.045322233286366316)
(0.133837471972128919 0.00409606041495277906 0.0471337823945622361)
(0.108650971728637899 0.00321362402498734379 0.032626946392140907)
(0.115426425552431322 0.00683655505545760229 0.036613832401548925)
(0.110387104302831995 0.00330947798764718616 0.0357355037710326423)
(0.119232534825333497 0.00351589363135582002 0.0369816538494876987)
(0.0974628533070327069 0.0028604462958956244 0.0258575743541500855)
(0.103602596430971874 0.00603669476735499335 0.0289467357478378588)
(0.0995960546120260581 0.00294331316713258026 0.0283171483760241288)
(0.10641518320468274 0.00308434815475207421 0.0292025255484576404)
(0.0872682192421432856 0.00258589116035212426 0.0205881662502835489)
(0.0928864223294693786 0.00542019686311301287 0.0229999499631936555)
(0.0896705397282283323 0.00265679725905900192 0.0225372510647392048)
(0.0949738635493954514 0.00275599268868511769 0.0231830822064436962)
(0.0778775172060563181 0.00236868590311173832 0.016461718186087021)
(0.0830624350077555362 0.00493590255713300275 0.0183547484481590903)
(0.0804623123611442892 0.00242934283222341488 0.0180079791318288711)
(0.0846124430291845947 0.00250057518493234038 0.0184891193753167621)
(0.0691439397389006505 0.00219433905069137342 0.0132173949217685074)
(0.073964909710451332 0.00454910335631221203 0.0147081789480003437)
(0.0718512471240933953 0.00224621428645868865 0.0144441773280091224)
(0.0751122871424940025 0.00229816815430829071 0.0148088132274031368)
(0.0609513961401670634 0.0020530012212715376 0.0106613863936096849)
(0.0654641672815782227 0.00423646639715947754 0.0118369620069813299)
(0.0637398365721159876 0.0020972177094696026 0.0116333429374747555)
(0.0663077647699117784 0.00213560364973387415 0.0119137148512471515)
(0.0532059509375562706 0.0019378212153971276 0.00864764893386290104)
(0.0574564110284371127 0.00398194327447068917 0.00957386504815247764)
(0.056047537886176349 0.00197525316666422512 0.00941502250619813755)
(0.0580698627981767468 0.00200393942711817518 0.0096334303646864964)
(0.0458299144547785128 0.00184391672553733889 0.00706509993724848892)
(0.0498565985819890492 0.00377419890569127012 0.00779216947269305901)
(0.0487065306477771909 0.00187524816022504454 0.00766691210791178076)
(0.0502953418574644401 0.00189691995713537264 0.00783923113677118324)
(0.038757618535668982 0.00176774985346921315 0.00582884690542591951)
(0.042593539877834978 0.00360507921561045589 0.00639517667585658839)
(0.0416586255108591791 0.00179351382888518515 0.00629528413457023511)
(0.0428995184347976607 0.0018100787316787405 0.00643310171541259818)
(0.0319323786004285862 0.00170672444402161739 0.00487403140847397776)
(0.0356063788635964246 0.00346863143529219445 0.00530892476384377341)
(0.0348529541017792016 0.00172733081984356306 0.00522822824187829834)
(0.0358112819798691098 0.00174017278861614386 0.00534020822830358604)
(0.0253042296562798648 0.00165891077629809372 0.00415143577696662578)
(0.0288420195304145838 0.00336048908998137904 0.0044770291900680043)
(0.0282442295369588169 0.00167467375794960369 0.00441079850560384575)
(0.0289695554636535887 0.00168481818469210366 0.00450358976701741194)
(0.0188282723312249295 0.00162015780526960067 0.00362433833605688626)
(0.0222531014785995185 0.00327741882451985499 0.00385698076927746668)
(0.021791349097728497 0.00163401066344438274 0.00380150353742418753)
(0.0223206365613987379 0.00164223706297926281 0.00388035233952374126)
(0.0124700012632200999 0.00158624740573259948 0.00326616645419391862)
(0.0157982528507667683 0.00321373133209677331 0.00341750072062593649)
(0.0154584107416057513 0.00159882101302278733 0.0033697917487817571)
(0.0158183752438644486 0.00160565453124022844 0.00343895844225243497)
(0.00620304266720963886 0.00156390340789779362 0.00305601234745672473)
(0.00943246475603982427 0.00316502409574954307 0.00313651774541489877)
(0.00921819158199992106 0.00156736951626640668 0.003094041703692704)
(0.00942677014341828864 0.00157323388765075916 0.00315711212394676529)
(0.00312693746810981891 0.00313153881232481083 0.00299416203792882488)
(0.00305528492377270602 0.001554907621731704 0.00295480878560626815)
(0.00312355925923939745 0.00156030329254917182 0.00301482862443582618)
(0.145561377303466521 -0.115018914056349258 -0.13328831802924318)
(0.0923225383042919207 -0.0610701110937039229 -0.336688388686961937)
(-0.00741380258530828506 -0.0443439150276435864 -0.355157636973113866)
(0.339726714992578671 -0.0195541430944371451 -0.205077705482263034)
(0.275811172956643313 -0.156727190387218024 0.0850277654421267015)
(0.192421272456622938 -0.16827103107052177 -0.0225233714824868078)
(0.0799296693705400102 -0.111605736529172994 -0.0337133625671206805)
(0.475488905838303777 -0.0957005263413814311 -0.0292259541277160376)
(0.334356229291022711 -0.144519767178908631 0.224973981354409047)
(0.218594840181350308 -0.149089436479100113 0.163367191395767691)
(0.141389135113933528 -0.111075635565072467 0.165999403819554442)
(0.581079764251253073 -0.129691749990401561 0.134403843242323684)
(0.372649905108669965 -0.120586343182325376 0.282916572465531591)
(0.233059298466152642 -0.119225502448496126 0.241393745364602175)
(0.189505680197680548 -0.0847939116982858454 0.23826533042420428)
(0.649874434018939295 -0.127650624739358926 0.229179350112380775)
(0.420237159714500486 -0.0898067219337148337 0.303072593059753981)
(0.25485371802313006 -0.0937727440468163337 0.264195209830317412)
(0.242219324649236845 -0.0520668284136948656 0.260051285223977968)
(0.701031511773106075 -0.10729302825282433 0.26789746766493755)
(0.476974068850532895 -0.0612792850446503071 0.321338267210707129)
(0.290036284410917167 -0.0680570032219642851 0.279930227612552707)
(0.310339723350196994 -0.0231009828493174592 0.275641830472379445)
(0.751454460759787057 -0.0786624089244415126 0.297298511892854889)
(0.519071319538798703 -0.030662561320784619 0.340170900667839726)
(0.321288123376144596 -0.0425077751800432627 0.298678140347528431)
(0.364338870075124999 -8.60362960876181153e-05 0.295531292819603608)
(0.79191672242834743 -0.0533052847305342248 0.321773773614193848)
(0.563996822644350249 0.00590455708736232002 0.354510220769322482)
(0.341522420209982913 -0.0152459988901489218 0.312389488207635846)
(0.392476327960784077 0.024279925089419542 0.313657635905076615)
(0.815780729990853493 -0.0234183879537100889 0.339711027108513142)
(0.620742945054502115 0.0454215347805463701 0.3681468639520456)
(0.369197107283914527 0.0132005491561382315 0.325002054605934565)
(0.42433848213445291 0.0488911740810847664 0.325846966576234076)
(0.854023037597840484 0.0131372122037608716 0.356859539089037114)
(0.669815130984829477 0.0867451640702535803 0.385820252474498748)
(0.402653480572431333 0.0536210409961758588 0.34098205718107466)
(0.459258247820807153 0.0763359250238344333 0.340310276097945952)
(0.898053299583263853 0.0552198420515943311 0.377439455425541803)
(0.689032180087711166 0.126718278205018298 0.407151145053562868)
(0.440265513108996975 0.101291938025057857 0.361161165605438261)
(0.483519292289727121 0.104289104918270523 0.364001482307865887)
(0.919915408325511219 0.0970315043853856585 0.403150740395987306)
(0.661333638932496304 0.152375741748286053 0.424666559505755048)
(0.467142537091836008 0.149059386193488214 0.381951624136672219)
(0.484843446846205561 0.129691225343873923 0.391564242749871783)
(0.904077447258311739 0.134565166986298695 0.428317151701780752)
(0.589557525751632006 0.153420467231272589 0.427428631149011085)
(0.464811577559137934 0.175430331962764474 0.394872270308032791)
(0.450979783298801506 0.13671894305061319 0.409006834469481328)
(0.838168587807766041 0.153652664234326664 0.44120610550621181)
(0.492886491364448898 0.134298478484702555 0.406101188856111683)
(0.427781644702162345 0.172843527642906031 0.389059828293592036)
(0.392579619527354207 0.124283485899578092 0.399539752762704758)
(0.727280495644811897 0.151209537594406918 0.43392257267270079)
(0.397178041365027767 0.105227758917685779 0.358552489040304123)
(0.371618340377401324 0.149449135391261007 0.358785562845850059)
(0.331061472216560237 0.0994469586937402339 0.360363021084035673)
(0.591549248386264104 0.133258506079983935 0.401191542559844905)
(0.319947639582014498 0.0762344275382353387 0.293049390608742355)
(0.313972935445336443 0.117047502193913591 0.306473281373882633)
(0.279075298942704386 0.073396290160219535 0.300722422630486652)
(0.458757592570392281 0.107118930628902584 0.343479932293942081)
(0.26373634466478646 0.0524666282971122111 0.224388349602960002)
(0.266616900184537597 0.0847634488604993436 0.243387443539250153)
(0.239953183497099959 0.0517031637822277998 0.235246921674314852)
(0.352990405435985144 0.0776040644286356135 0.272272264923462071)
(0.22417423462992675 0.0359795573938640964 0.165457739289369077)
(0.230714847057124806 0.0584669841160378317 0.183425607806608687)
(0.210902048204106435 0.0362042556405142504 0.176717418623461076)
(0.280265492219765044 0.0516709348142134761 0.202766367355943194)
(0.195175499005367264 0.0258486781978786197 0.121466547822606866)
(0.203033024733404399 0.0407785881303626835 0.135638768458766434)
(0.188299813279268036 0.0263896633819392899 0.131355327352468576)
(0.232474133751111089 0.0342658194552096229 0.146820752856465481)
(0.172211771118032347 0.0196779606257079347 0.090691289405427325)
(0.180086426187092918 0.0299330787450875872 0.101214144745543466)
(0.169039472016871362 0.0202363471968989364 0.0987426969944464328)
(0.198919637381399977 0.0242961069310173722 0.10716223211916609)
(0.15310055145757917 0.0157062525049745418 0.069109930545536255)
(0.160449435033448079 0.0232479241384168332 0.0769464378459182446)
(0.152090923002330736 0.0161946601728640283 0.0754873295637036312)
(0.173315768626230188 0.0185292087736115413 0.0801823815779530019)
(0.136808702073384886 0.0130096024614934705 0.0534790577654676857)
(0.143497562520481264 0.0189007006802182596 0.0594233548080885798)
(0.137120489852916805 0.0134221565007200741 0.0585024905921978436)
(0.15269678447104082 0.0148759002191157022 0.0613507907052149234)
(0.122635510574030465 0.0110970951408885521 0.0418131002137152388)
(0.128710867260443923 0.0159090946625668923 0.0463877077132783047)
(0.123807821139185037 0.0114449204490094571 0.0457750093990361984)
(0.135496664306319403 0.0123867551642413837 0.0476311342123360501)
(0.110069064652455847 0.00968906385625123608 0.0329336217572458456)
(0.115615510730530738 0.0137528114697187207 0.0364886614161707562)
(0.111830674065754254 0.00998445961288528701 0.0360643258610668163)
(0.120734745676352964 0.0106123347359693507 0.0373306888632041478)
(0.0987579409806605552 0.00862126188005862305 0.0260891113568814566)
(0.103857456922037059 0.0121400968014742303 0.0288710701796249664)
(0.100920070211960977 0.0088732676064538097 0.0285658994297251743)
(0.107784051444887563 0.00930301815946176121 0.0294617828754422037)
(0.0884486665330936894 0.00779271587802629964 0.0207665321610691969)
(0.0931725577314727188 0.010900770315628798 0.0229545789191634327)
(0.0908831213894444323 0.0080077433143250585 0.0227289292992942336)
(0.0962214899097450227 0.00830946081914177292 0.023380912276591951)
(0.0789498447602019066 0.00713744035488029886 0.0166012092100723645)
(0.0833581083120887301 0.00992785387206866418 0.0183281141444444247)
(0.081568901117772083 0.00732119065364801591 0.0181577707907321813)
(0.0857469349725731855 0.00753743218475606304 0.0186428788867010267)
(0.0701137063078496187 0.0066114182700788629 0.0133277460332131784)
(0.0742562384676808823 0.0091508946994357937 0.0146932810588746837)
(0.0728564879954659989 0.00676844763915484572 0.0145625694193218976)
(0.0761399863521317888 0.00692593624256134573 0.0149299743232937394)
(0.0618234643567818418 0.00618489659793644043 0.0107494406615241019)
(0.065742285642447551 0.00852283556676970352 0.0118294069660360938)
(0.064647988140839649 0.00631868383460255489 0.0117277322709588312)
(0.0672341258512305084 0.00643491128319339818 0.0120101430203130854)
(0.053984619774510717 0.00583722561007526952 0.00871838558698263474)
(0.0577155729705910725 0.00801140307943939457 0.00957084722738649717)
(0.0568625286397921662 0.00595045749297471414 0.00949078046258614895)
(0.0588996796653873805 0.00603723961351660451 0.00971074349221344446)
(0.0465190006829543715 0.00555371634043123116 0.00712224621130116455)
(0.0500930309517916006 0.00759383450611416863 0.00779188386313475322)
(0.0494319352993389666 0.00564847707697230163 0.00772805120952579569)
(0.0510328376545885615 0.00571400275269706541 0.00790158203405338759)
(0.0393605549633314136 0.00532373405705953776 0.00587525453427442234)
(0.0428047823713127717 0.00725374819409919588 0.00639645777595457873)
(0.0422977033448263887 0.00540163797138695691 0.00634486788184976652)
(0.0435484543032740867 0.00545171042655039854 0.00648364254185988462)
(0.0324523323210436782 0.00513948814562793354 0.00491192254543779301)
(0.0357908868191857132 0.00697916889015889452 0.00531102158897175675)
(0.0354087192287581981 0.00520175853106268939 0.00526863519784658962)
(0.0363750677206093401 0.00524057564048354893 0.00538138221736279062)
(0.0257442339203021661 0.00499524824668751491 0.00418257418237886428)
(0.0289989289277425705 0.00676128944643660836 0.00447946236170105455)
(0.0287195307083754868 0.00504277410759119537 0.00444390706141750864)
(0.0294513549070811731 0.00507344000618581946 0.00453732092464208692)
(0.0191910626387037826 0.00488669214951574331 0.00365014315384652038)
(0.0223821450383775711 0.00659371633455786959 0.00385945168489927517)
(0.0221888844274111229 0.00492019591130893157 0.00382882598314592459)
(0.0227234026485998303 0.00494506725979531291 0.00390817890250621212)
(0.0127432078994509593 0.00480973630847666023 0.00328785201184691274)
(0.0158989177804229262 0.00647247207015056412 0.00341981664747710839)
(0.0157800309690959949 0.00483048804125790852 0.00339255176435211041)
(0.0161441427892090143 0.00485141661532841051 0.00346212318116060139)
(0.00635118682071887219 0.00475419140654459362 0.00307466743588699675)
(0.00950171572885751686 0.00639275820343096837 0.00313863194773585314)
(0.00943901124482953921 0.00476948074116201413 0.00311336396051265993)
(0.00965044251049452032 0.00478790116160905665 0.00317676695943554114)
(0.00315361391706822647 0.00633728639691962751 0.00299596467002092139)
(0.00313050338278251378 0.00472129904695722715 0.0029716959713583734)
(0.00319979312107067327 0.00473841057157580337 0.00303197219739955283)
(0.0777176548035205944 -0.125464414066377622 -0.225923442140208819)
(0.0621951083114299641 -0.0768202954779141772 -0.46119051692330576)
(-0.0117305770150420985 -0.0486659068512160231 -0.359219497990403813)
(0.194030100139138018 -0.0374762282075255249 -0.313029598695139688)
(0.122631160808045675 -0.163641785918309607 0.0558160544711537171)
(0.0327932313946004 -0.165768563418624754 -0.0309925875711871829)
(0.000947549082635579048 -0.119613483062237971 -0.0635521299808802786)
(0.35267142213981395 -0.161740236270244531 -0.0136502781526763144)
(0.119276949810128832 -0.132668262800959003 0.179786955405960375)
(0.0185308903478392517 -0.137974025941864364 0.138320834831969053)
(0.00449125293684148486 -0.0991536466660013355 0.108638088046695794)
(0.365210197925162738 -0.178929721450292067 0.12750298243623534)
(0.117845220754631205 -0.100280112312150449 0.222672382729387802)
(0.00971652008094137098 -0.0983184221448150097 0.195178494985993906)
(0.00805775034636103428 -0.06430418745678812 0.165661961017986692)
(0.340548163492184419 -0.15257114145936515 0.206031641357265705)
(0.125138244205678428 -0.0718907202458609201 0.241052844383116138)
(0.023682267956874184 -0.0675103201689382371 0.218067779022200481)
(0.0183956598853159785 -0.0403258655966491214 0.188283474784395138)
(0.325727238767692384 -0.12367956745087505 0.248097374512216917)
(0.135566385103493697 -0.0444281959560507769 0.257270100749373731)
(0.038675473132500901 -0.0395975301238521496 0.231938206819007342)
(0.0361399188031020294 -0.0164793970774275572 0.207514192000942566)
(0.322539958215603939 -0.0894993024674873155 0.274861066614674965)
(0.143308362948445844 -0.0170486088831680316 0.270896727887324662)
(0.0512134514139199748 -0.0126868050333186436 0.247833208028845176)
(0.0587072077592049948 0.0071989587633314138 0.225889446453252124)
(0.315910177348249888 -0.0596781079940248704 0.293271045628589855)
(0.147806584516116363 0.0117751117399267219 0.282881322044247874)
(0.0612071671618390073 0.0142443271891292463 0.259295089399354139)
(0.0777556983550590081 0.0317200951033048267 0.241550729888708793)
(0.308568916005096672 -0.0291784900030808043 0.305025941004135603)
(0.150435767140115945 0.0452259849330389971 0.297837247834963681)
(0.0664447975285805126 0.0423458565554244784 0.270882698708706404)
(0.0871936978758808268 0.0532060920832838416 0.25610358684474227)
(0.306752431521005953 0.00525959259254485043 0.317020317820991104)
(0.170066114098163856 0.0864304345899068738 0.316322970312014118)
(0.0750984500160693097 0.0742641296302028325 0.287349251501465175)
(0.0967618829895517396 0.0792198768811370885 0.2731193196489623)
(0.315120818186318929 0.0499979832414532005 0.334033782981818461)
(0.212948298670898983 0.130913304439011918 0.335961644688547556)
(0.103526075038731694 0.110126665998854553 0.306093325919295001)
(0.125584583560714336 0.109357960550497638 0.293748331999846291)
(0.345065822010924894 0.0995737799549117619 0.354298616036761216)
(0.265343856658089294 0.168541607608310107 0.352157334938950128)
(0.154176974090791424 0.150592682046796433 0.322298022422689623)
(0.170819436015916759 0.141088897976567207 0.316932043665845264)
(0.385442646972746272 0.147927212856007156 0.372393182671171497)
(0.30277323837381781 0.185045182707199912 0.356503467452613798)
(0.206945335254493545 0.180449056641567768 0.331603833922494429)
(0.21477865204847274 0.162623510208805833 0.333854613136110867)
(0.418380399533633152 0.18402671775695556 0.381320586905767256)
(0.31004631563801166 0.176955530392222393 0.341744202283330467)
(0.241195182724335683 0.18967330927839135 0.326150060923069585)
(0.238363443425624544 0.15998784106593894 0.3316929399066052)
(0.421733154437142266 0.195331983301194917 0.37262487800450117)
(0.292800236599062347 0.151822210009315756 0.306706355179428791)
(0.251901556411920691 0.176463193569623561 0.302821376025582012)
(0.240973312355379055 0.140946665354972245 0.306735878481218416)
(0.392139275641838259 0.186006938439173958 0.34351743273410279)
(0.265287426025265283 0.118576684220253817 0.256811334304390904)
(0.245199052622027569 0.147431378102451688 0.263419044325410578)
(0.230294581294060968 0.11312092987129474 0.263724438151483331)
(0.344220070826093683 0.158767694707589696 0.296979182764737448)
(0.237018370541969337 0.086220561304453866 0.202424701742897978)
(0.230304812211380883 0.112872140771877363 0.215094980506494698)
(0.214739637137531275 0.0846982717899019411 0.212590452226452481)
(0.295169793927681778 0.12130094164709479 0.240538892457113157)
(0.211178104186345972 0.060738244874896645 0.15360663697600585)
(0.212381633111239893 0.0815447023232294815 0.167392766483357935)
(0.198091678654516823 0.0611420623582316913 0.164074767441834662)
(0.253705800178764762 0.0848954324846318137 0.184390297433122324)
(0.188279832961636334 0.0436038560487400709 0.115386365381703354)
(0.193288290412174463 0.0585790575723638823 0.12735998595036771)
(0.181236687553900072 0.0445702295032891285 0.124645494793675662)
(0.220089881245514096 0.0578442753157189238 0.137348650276477691)
(0.168149643474423655 0.032884288346831804 0.0874692931860340528)
(0.174426391425028804 0.0436605257185087581 0.0969403982032358558)
(0.164775014790052132 0.033852562657267396 0.095106740601819173)
(0.1924308990011937 0.0409324595528990087 0.102431949351389037)
(0.150524391890278886 0.0261144860488515228 0.0672598621084705556)
(0.15691346248125157 0.0342011275420276359 0.0745729319224674725)
(0.149364239052124731 0.026950195150110684 0.0733826410461850542)
(0.169475508115289553 0.030911894380017093 0.0776642563380343792)
(0.135062530810008102 0.0216100453875995926 0.0523320047558993029)
(0.141152358871049821 0.027966642879007849 0.0579876228296630492)
(0.135286230980206729 0.0223107925473554243 0.0571963044817839147)
(0.150231491591576338 0.0247075232834034 0.0598667242646947623)
(0.121377419591523164 0.0184442776667781173 0.0410632689157338637)
(0.127061642444428108 0.0236353177271300813 0.0454640233367488503)
(0.122501141755186616 0.0190308647094417707 0.0449204679290698961)
(0.133808305818375967 0.0205708146247353327 0.0466881302484826038)
(0.109122845659144485 0.0161208456629664196 0.0324261098385498769)
(0.114402788820278059 0.0204899832198272153 0.0358701563539557677)
(0.110847940050991897 0.0166154618046857883 0.0354850059215963062)
(0.119517897267157142 0.017644729036153179 0.0367050282762104024)
(0.0980237198908839175 0.0143589989269010433 0.0257365377419068661)
(0.102934978245330183 0.0181245660355679808 0.0284449924437432944)
(0.100155559998090199 0.0147790240073456692 0.0281638347689471304)
(0.106870459187235242 0.0154865537910552284 0.0290338208781096251)
(0.0878642766654812862 0.0129897744225954768 0.0205161609025386812)
(0.0924524535907350759 0.0162988394082327938 0.0226540828876234529)
(0.0902734578938369503 0.0133478351856946668 0.0224439414707243642)
(0.0955132675951705784 0.013845831938639093 0.023080731208607666)
(0.0784748563680085359 0.0119048928998352552 0.0164201859932467421)
(0.0827841788714991922 0.0148604579142123678 0.0181120643382720152)
(0.0810727496949476545 0.0122109479332991426 0.0179521263915231981)
(0.0851835638697552022 0.0125683603731781592 0.0184279385413959294)
(0.0697210836054477784 0.011032636399140542 0.0131949419916975973)
(0.0737912236251658527 0.0137085420777305379 0.0145355194665668461)
(0.0724458692188848646 0.0112942649457049363 0.0144120065151440713)
(0.0756823757960837507 0.0115548224132550233 0.0147734966597798962)
(0.061494522849102437 0.010324494861658564 0.0106508135318984579)
(0.065360879545017958 0.0127754094287807606 0.0117127022500204958)
(0.064303541049776633 0.0105474533859026415 0.0116161480129332636)
(0.0668561911540857118 0.0107398988441030525 0.0118946638990299978)
(0.053706041022939903 0.00974671262187522085 0.00864434550353858182)
(0.0574000446721649876 0.0120143497346117834 0.00948351719778957152)
(0.0565704597818516355 0.00993545116354082464 0.00940719850040629135)
(0.0585833824331148389 0.0100792442507039136 0.0096245163825967768)
(0.0462810574235573563 0.00927521706240136239 0.0070660954277881674)
(0.0498306244433247073 0.011392219471679255 0.00772581696332707169)
(0.0491821528793122548 0.00943319068172078154 0.00766482213600636758)
(0.0507653184151852649 0.00954183785999732775 0.00783650669512395842)
(0.0391560175228220786 0.00889253064746395837 0.00583222483065188885)
(0.0425861533408473519 0.0108850465181210745 0.006345904124460869)
(0.0420826880454919644 0.00902241746170075014 0.00629655919868571043)
(0.0433203410561706775 0.00910549945205985783 0.00643401697939933667)
(0.032275769361098855 0.00858581698753414085 0.00487856140523502176)
(0.0356091074996991719 0.0104752331558432589 0.00527182902427934721)
(0.035222795532120571 0.00868964666245556835 0.00523132592153381301)