/*--------------------------------*- C++ -*----------------------------------*\
| =========                 |                                                 |
| \\      /  F ield         | OpenFOAM: The Open Source CFD Toolbox           |
|  \\    /   O peration     | Version:  2206                                  |
|   \\  /    A nd           | Website:  www.openfoam.com                      |
|    \\/     M anipulation  |                                                 |
\*---------------------------------------------------------------------------*/
FoamFile
{
    version     2.0;
    format      ascii;
    arch        "LSB;label=32;scalar=64";
    class       volScalarField;
    location    "0.510000000000000231";
    object      rAU;
}
// * * * * * * * * * * * * * * * * * * * * * * * * * * * * * * * * * * * * * //

dimensions      [-1 3 1 0 0 0 0];

internalField   nonuniform List<scalar> 
7340
(
0.0185060207951437579
0.0189604805822332807
0.0187024295095136357
0.0178964995879340623
0.0172408892376718775
0.0166272231860592097
0.016067038096417529
0.0157265990271652015
0.0156696414132006766
0.0156487436602469575
0.015840939999150188
0.0162618913622034414
0.0130525432503782301
0.00585322611636679684
0.000203682036625914709
1.42527724882284358e-05
0.0180144579329784005
0.0176013433611749461
0.0172507822302052846
0.0169163932118842446
0.0165539308417831481
0.0161352467445382702
0.0156833161071800661
0.0152526983999260457
0.0148879865480721837
0.01453146442822985
0.0142863594609933132
0.0151888940750857446
0.0134626660119150903
0.00571201678904717687
0.000238968077091938945
1.51392827936097644e-05
0.0173514423389425111
0.0171825514205375118
0.0170015009762214467
0.0167683616264924645
0.0164678030217248403
0.016086061441918393
0.0156029100498257592
0.0150051909261156649
0.0144516516352076064
0.0139097592579167078
0.0133132935009198337
0.0145968111195955361
0.0138895597636444715
0.00525440445800488213
0.000276514595370573645
1.61748549574652141e-05
0.017371499720199305
0.0172256262058551254
0.0170436983533916349
0.0168010920353368759
0.0164899272389814715
0.0160894082414660723
0.0155614407397977241
0.0149020922991225605
0.0143924606355334047
0.0138316580621263511
0.013126323948119684
0.0145098607301949664
0.0124162532005631324
0.00379332100919898196
0.000260055941844392763
1.84806268784302885e-05
0.0179879617028314044
0.017833561702674694
0.0176529012501626566
0.0174820421647302708
0.0172974242999059634
0.0170747127344185977
0.0168012635573830463
0.016466226496971454
0.0160448936865881936
0.015504333502138928
0.0148722258879878857
0.0144516423054782007
0.0140869903144517517
0.0134661053191123745
0.0149458410260108598
0.0106262789347287591
0.0025199690427143563
0.000239342562769551636
2.22085479397233776e-05
0.0180743822983552987
0.0179272853023206384
0.0177204679245627043
0.0175148763487534345
0.0172917921689822555
0.0170357370841958886
0.0167370812364584683
0.0163820102522114555
0.0159489149118458851
0.0154284498388535859
0.0148903151205272907
0.0144838279392548105
0.0142189052032597393
0.0135576468035012443
0.0149652875915183749
0.0108295165819097417
0.00241647899977861201
0.000270532801615901782
2.89666686653667866e-05
0.0178287891243462393
0.0180384018744297811
0.0181008926148653951
0.0179419035183848441
0.0177157474484337905
0.0174848459877686886
0.0172357533088375592
0.016957263262865313
0.0166391147641019622
0.016266324112364703
0.0158212206923797928
0.0153037507512017862
0.0147629152610967793
0.0142525040739760137
0.0137940051153666969
0.0131906769651063006
0.0145252722084312745
0.0119732331287182824
0.0028920966845199232
0.000358092954728002344
3.88316688686241444e-05
0.0175356916438196911
0.0169913308754681761
0.0165165495969428686
0.0160888599865724631
0.0157006704787748322
0.0153795412520358801
0.0152429175202669649
0.0147879214750339192
0.0129762285744150028
0.0125663973947001961
0.0136208591391720445
0.0129067604074875868
0.00665287576977933656
0.000204545047009680532
1.54789459759110074e-05
0.0167360525702221624
0.0165254908004106513
0.0163391464654430683
0.0161303195606711282
0.015896764146042585
0.0156140694601063466
0.0152429596666260776
0.0146597451829357985
0.013336367645195581
0.0110641135994192039
0.0104524152832535609
0.0118064647699873387
0.0139481905464932509
0.0077686353187510996
0.000229734726656102525
1.5967979024871638e-05
0.0166614643903836707
0.0165402019959346343
0.0164173083276217581
0.016251247377974766
0.0160312449907772138
0.0157182213705367516
0.0151957436807061835
0.0142672366641843663
0.0126585399954948965
0.0103521626745583413
0.00937670615362360717
0.0107447280491991259
0.0149603718616188076
0.0082635339157217623
0.000271553728986565401
1.68183766475218675e-05
0.0168957732618789207
0.0167528123882124055
0.0165938846649680387
0.0163939199175374348
0.0161346180543698765
0.0157635396091105051
0.0151547401980759461
0.0141347575604963954
0.0125144630192776229
0.0101092060573906919
0.00925307646835682451
0.0105558781813090245
0.0150665503355448035
0.00744142856154126481
0.000276008017375713611
1.79284753658772956e-05
0.0178069445008743367
0.0175000857171319427
0.0172621875154954883
0.0170675342701417133
0.0168813509957271846
0.0166763168231659278
0.0164355802325161018
0.0161385120476994319
0.0157334878040694334
0.0151155759249850617
0.0141612313385710668
0.0127025252540049587
0.0106032492688569284
0.00979038538539756149
0.0111763334398086531
0.0140995025876372252
0.00554128977676624206
0.000255887822918936226
1.97840773135988102e-05
0.0178723404990188441
0.0175853174432461512
0.017341369537131196
0.0171205047216145649
0.0168994788475402037
0.0166602878051716058
0.0163882169253912711
0.0160621607549769202
0.0156411837795141818
0.015066550347337582
0.0143288614675944632
0.0132414333327514622
0.0112996851612102243
0.0101489461166011253
0.0121785337225086884
0.0121130079956698784
0.00326529231502828464
0.000253747509977503825
2.22792824333563362e-05
0.0177257789065494824
0.0179306319548822382
0.0178745531451200562
0.0175971826962965719
0.0173446120767460528
0.0171033197855586724
0.016857397142486602
0.0165925783634016076
0.0162935553345068991
0.0159386186430300891
0.0154923243637981115
0.0149058743719965338
0.0141247650626959795
0.01277757445393592
0.010588332232524594
0.00958217780095677041
0.0122574502846387132
0.0122712501857412636
0.00320780224443675214
0.000300588831721392024
2.87296953672061841e-05
0.0162972775522794711
0.0160261969971242126
0.0157948508023652567
0.0156102239454764154
0.0154546273954193902
0.0153813824263557154
0.0152605698435878227
0.0129631528132483076
0.00896651539632101376
0.00601040981567982358
0.00613775638379794163
0.00864690004014397745
0.00386586047188120516
0.000184092393271823539
1.72057742602721262e-05
0.0163113228359288917
0.0161172496722004066
0.0159855047577558834
0.0158692840572702797
0.0157661852799916534
0.0156384967181896067
0.0153820003256446274
0.014496296512320048
0.010937710236224767
0.00677136531594272739
0.00424885787803566152
0.00504283648872971835
0.00916435587981560655
0.00510747523172363962
0.000217392745523625644
1.74246695168513979e-05
0.0165537116726074719
0.0163907145581658059
0.0162670740430665636
0.0161478921616069367
0.0160125618917177324
0.0158201006020977537
0.015327943190247266
0.0139604749198721338
0.0107674134746193507
0.00548853536472616518
0.00335143687061905098
0.00427008400127599184
0.00970566298449985522
0.00654687621184963167
0.000236576898585642099
1.83004726618032492e-05
0.0168111623494498555
0.016635423830755388
0.0164811044941862751
0.0163231488916542114
0.0161413608060458312
0.0158794030819070058
0.0152786234452615792
0.0138121017317399449
0.0107233270724089932
0.00541158334475681357
0.00333627466460602231
0.0044911577725112381
0.0104431911484614871
0.00817687462833717113
0.000266201703984617869
1.93023674401944132e-05
0.0177938485877118385
0.0174460476371672557
0.0171656593193370392
0.016938189794614901
0.0167409354393611431
0.0165548359844405087
0.0163624864083701041
0.0161484719552270339
0.0158592775456553245
0.015279284701292235
0.013926807242269558
0.0101999543984289398
0.0061608750858743325
0.00397711009741839525
0.00562089506812046662
0.0114084305720607519
0.00849451438077027284
0.000260565092745252812
2.04118154913348858e-05
0.0177693396799304751
0.0174561957237757553
0.0171863725727005139
0.0169513523320863647
0.0167355392285824661
0.0165247229994929384
0.0163061927266461466
0.0160690413495994944
0.0157757830469730798
0.0152643370697497695
0.0140930646717943708
0.0110041639457701835
0.00730946872348930184
0.00516591160502474604
0.00615175136188689676
0.0120743451024290602
0.0068067942381772736
0.000262348945934937831
2.20013513957797683e-05
0.017681677375029705
0.0178433894173358233
0.0177127107596830417
0.0174177876097580814
0.017150276822773914
0.0169057452987117739
0.0166731004863065781
0.0164407035248351381
0.0161966014020351913
0.0159300113107385746
0.015598092776617117
0.0150074627483719348
0.0136904572726188542
0.0104621185799183003
0.00666286374466487034
0.00426289272050824758
0.00589832489122384292
0.0124097473533658943
0.00530091925397662301
0.000266452293208442202
2.53084123963668579e-05
0.0163254684586585409
0.0160573227664348277
0.0159090936094525293
0.0158095605928492977
0.0157909710806778888
0.0158318145670353801
0.0159974382683017481
0.0156552644153522443
0.0124062555939875828
0.00588992996573592387
0.00232057414171707227
0.0017590463110059918
0.0023637055989985784
0.00264624235770830919
0.000183755593692158496
1.89846763049453245e-05
0.0165495316828646495
0.016332681494172184
0.0162188010739311404
0.0161517754907518282
0.0161354731934404243
0.0161615485297208275
0.0161692368590339551
0.0149096280843933129
0.0102892724973369081
0.00412252067809345656
0.00161616207414286435
0.00120553856127552381
0.00184129927606348763
0.00331473749597397055
0.000210635800380544941
1.99247621942489532e-05
0.0168626527882388445
0.0166709628005317217
0.0165507813629361643
0.0164708266683075734
0.0164267946869619749
0.0164224040048965951
0.0162086921814539736
0.0143390420888858255
0.00935589736047100738
0.00393762406374364039
0.00129040099906811852
0.000844074443799115834
0.00154766182532902158
0.00442322156509407025
0.000221338849250799581
1.97850131372611741e-05
0.0170425393069202
0.0168588964465337561
0.0167267002450952884
0.0166254390287500949
0.0165566084437279402
0.0165221249144213399
0.0162035953942102559
0.0141703796515347032
0.00914685302373005604
0.00404512419023078836
0.0013523974922910742
0.000827948080366665046
0.00163990150697435771
0.00568117854873993397
0.000244876533401343051
2.11682488146818991e-05
0.0179158513805571899
0.0175859163347653058
0.0172998230298802153
0.0170674139493393814
0.0168849463806612782
0.0167398958868164721
0.0166219679685702323
0.0165451873017880523
0.0165194494326216246
0.0162350635962902924
0.0143017469833392665
0.00930151600518561161
0.00376998674826741886
0.00166348444338265049
0.00133429446385897725
0.00258352962796557731
0.00710322118080001022
0.000235802072279200274
2.26913897915753226e-05
0.0177705026462809251
0.0174739607914775365
0.0172123123549003387
0.0169911723131268531
0.0168069928113800809
0.0166512649959188117
0.0165242400942860815
0.0164528426918617403
0.0164639108800057159
0.0162554288866266078
0.0143923935319447607
0.00934339148838685477
0.00450072977282258303
0.00196018848644116325
0.00195385676306734707
0.00304729585887411137
0.00769613511200587224
0.0002382871856186328
2.42685922997557933e-05
0.0176552138610163618
0.0177960669806492659
0.0176275462416461241
0.0173471541163738897
0.0170922636402868686
0.0168694245426912956
0.0166766027686860649
0.0165104457582672635
0.0163754298372300287
0.0163000902938908974
0.0162836370581233396
0.0158607927016792237
0.0135363225443175007
0.00850166761193286817
0.00376211666272108398
0.00152217731955547582
0.00141453514976054746
0.00315695986628408655
0.006479249221518317
0.000246520227210431748
2.64047498047211872e-05
0.016845697512614017
0.0165488927937269721
0.0163805230210030961
0.0163151303946034408
0.0163696089227985501
0.0165060700808874333
0.0167867524966584039
0.0166377076676762076
0.0123176896739194148
0.00507024483275823109
0.00174065994976119447
0.00059436438658942443
0.000402306930818101748
0.000467585252466087603
9.46666362120828175e-05
2.00634815213596346e-05
0.0172580322433343904
0.0170185018883515053
0.0168984400534969784
0.0168511319392139237
0.0168697755924792428
0.0169536063192077952
0.0171169261725675204
0.0165249155858072025
0.0111249336912880754
0.00419647880012506518
0.00142168712930864499
0.00046421015442158159
0.000312095403927622334
0.000499288306727299234
0.000129149127130862782
2.27865238595800047e-05
0.0175839080921925753
0.017395314837491016
0.0173003665621942679
0.0172563092836467841
0.0172610058440614278
0.017339069044454862
0.017538332805434622
0.0166716372371643537
0.0106294655700289644
0.00383378218817135002
0.00126721707959118559
0.000401605379939746522
0.000279081229109704333
0.000517817820288781296
0.000134204142321508004
2.38354400310115075e-05
0.0176629864846835315
0.0175224537887631732
0.0174470709632978047
0.0174098102978678879
0.0174109996964627624
0.0175136104035929253
0.0177135734582676563
0.0167677305544545914
0.010469173638914829
0.00375744734941826702
0.00135071775763973998
0.00043457401247991767
0.000314185335597187167
0.000519230582422174048
0.000134797811345786295
2.32298323370261155e-05
0.0181861215307961531
0.0179236838033945307
0.0176953600435206491
0.0175191498541978144
0.0174078180998471603
0.0173489567953101255
0.0173225374823210952
0.0173530225281295566
0.0175325592641462739
0.0177967440652512278
0.0168579204348560663
0.0103360957497595791
0.00366714838004859531
0.00132398115406846708
0.000524894041493214388
0.000463825857831130306
0.00056983707339095099
0.000145851385705523628
2.50995963189409746e-05
0.0178748799417055501
0.0176380783651762796
0.0174345050426965367
0.0172781002587481872
0.0171783628614517493
0.0171266017126512071
0.0171220455564752745
0.0172189398000613565
0.0175306523106439661
0.0179242441098444519
0.016805691667001587
0.00961511515719739619
0.00329202890743167647
0.00115843524296007001
0.000504606342664176764
0.000485892526846262122
0.000737465000770096634
0.000176489766684634857
2.73213443264266121e-05
0.0176071268080381996
0.0177580296208084548
0.0176001187134915971
0.0173709986776367994
0.0171708711161076763
0.017009515171422053
0.0169012449923696129
0.0168472435766403375
0.0168676871397235723
0.0170407905132900668
0.0174718695326155221
0.0176767390073867096
0.0155033589261223178
0.00780952862762571403
0.00265067207172955347
0.000925516371610737767
0.000389531964735960153
0.000398938169368056087
0.000842744549184896758
0.000197074436462491058
2.93487339480413003e-05
0.0162359034925072775
0.0157811935318852431
0.0153449063393970974
0.0149999321693096103
0.0147461048154492232
0.0145928588368642743
0.0145118211690197889
0.0143035076258398418
0.0140666437590141139
0.00798908422453282162
0.0021577744483329722
0.000603787878284786205
0.000225937549399466624
0.000112308721579873499
3.75251609771152749e-05
1.93982881680238428e-05
0.0178550951923680049
0.0175671755833375284
0.0172972980244944369
0.0170671490777722645
0.0168992509984305372
0.0168693756103297024
0.0170507856664232869
0.01678087834483033
0.0160952761250254435
0.00766631162926060834
0.00194610950458894887
0.000536365294454081362
0.000213922304270957784
0.000145274846147630402
5.49401773731508883e-05
2.07449427324703995e-05
0.0188432186475923219
0.0187565986857462438
0.0187841060688095779
0.0188546726214897514
0.018971094647454629
0.0191767211915518099
0.0195231191218423611
0.0196999582640950376
0.0183695487268370275
0.00750396038428073273
0.00175370056815883158
0.000479659469513111396
0.000202319975691251329
0.000158799032522433337
6.92401800740912121e-05
2.16145574721305579e-05
0.0187309013197468066
0.0187272232748081358
0.0188167680714561927
0.0189769465643147561
0.019160030278471421
0.0194253973219121918
0.0197966265791922544
0.0202878342057576551
0.0182319727004166647
0.00692713797825180843
0.0016318020294254366
0.00043571471435488576
0.000186858852310952425
0.00014264129342010537
5.29310842290787816e-05
2.42345101960937758e-05
0.0183178396410451257
0.0183974880098608656
0.0182961709497592266
0.0182476588568397657
0.0182856291412175388
0.018415470939995765
0.0185799719493604208
0.0187889895175752837
0.0191319321797801846
0.0197759279258139173
0.0202499046317696912
0.0172951696902951153
0.00606163844953552019
0.00139797294544183022
0.000387795951493173717
0.000175196850400966681
0.000125835620124651855
5.17022940801698303e-05
2.88550767981044434e-05
0.0179172761182737512
0.0178485964689794156
0.0177482905194472455
0.0177018137394245184
0.0177203447330277174
0.0178281538695866139
0.0180056793989034625
0.0182768392326576011
0.018800439731101154
0.0196350273965910579
0.0199661841035069336
0.0155956798166724114
0.00478114605214400874
0.00109679510237938775
0.000331327924805746869
0.000147149897008112032
0.00011535533034310489
8.01563122560077358e-05
3.34642847332008132e-05
0.0172180069740461017
0.0175161325744027235
0.0175560394798351879
0.0174066695843292478
0.0173036631687896389
0.017248950252808759
0.0172503466266034459
0.0173193958026855652
0.0174832959836757895
0.0178535792781515483
0.0186029243450419463
0.0192978894934877389
0.0189076444220999916
0.012168723332713403
0.00329386222485003946
0.000811324808868905652
0.000257358173423710191
0.00013336988477502865
0.000183978190891032208
0.000123172398866438012
3.63844378675851629e-05
0.00570884661142455688
0.00531700040258485055
0.00491497066339837644
0.00451836883493907625
0.00420492371848036652
0.00401565928096583522
0.00395380646034684986
0.00390482007362783412
0.00386973677750956577
0.00339828337438271124
0.00265118706454835467
0.00166796360608817418
0.000368669948023237241
0.000105386206793002275
3.09683814608765503e-05
2.10716514753218383e-05
0.00767258046524606566
0.00720236796402734438
0.00671897698494618514
0.00620595670692711786
0.0058050700356846981
0.00553000295913244188
0.0053658999647829839
0.00522402896441532399
0.00502316535218325436
0.00405622860575865097
0.00298022132060782406
0.00144479857864511659
0.000296935022670371076
0.000105168265509899934
3.95143960343664557e-05
2.19505363148829916e-05
0.00947883689726546942
0.00917602928122120826
0.0088331690915932539
0.00847009183189195367
0.00812419610139551718
0.00787560415938162728
0.0075816484990182207
0.00737513899327128537
0.00692394136246462805
0.0049857871407374332
0.00335509013649002699
0.00117122383738090473
0.000240876687551007206
9.89840877308367279e-05
4.5929252197694125e-05
2.27524146093456132e-05
0.0103991353204027394
0.0101591788226905785
0.00990964181172028502
0.00962942223434550514
0.00931312718296057294
0.00896141776588915348
0.00875722981185517689
0.00847240783897254372
0.00756554498968658052
0.00538323324007279266
0.00358221243031990946
0.000887640720497328661
0.000199177711268623325
8.65688966851317198e-05
3.76960816831530186e-05
2.61700597933996036e-05
0.0121870150959790726
0.0118991026516252606
0.0116340160984910266
0.0114028008403916931
0.0111850376673071714
0.0109639089581980535
0.0106993772189327291
0.0103879968093871095
0.00999242692105095122
0.00955097379358115471
0.00909709960779877917
0.00803907968378069805
0.00564467453937987813
0.00333690241130542645
0.000620731389614199536
0.000165853229492021997
7.71910529409613344e-05
3.92174673376165838e-05
3.18546427234745366e-05
0.0133566985255514498
0.013138277637678282
0.0129385219845112691
0.012764230681020854
0.0126004044736407698
0.0124117141788095253
0.0121851790620921864
0.0119038757976299338
0.011638437331645957
0.011211001417788094
0.0103802656262640593
0.00855486412931090456
0.00588469116859533046
0.00233697763616686968
0.000426723319586833994
0.000134205165340222613
6.36834565538225593e-05
4.5805770771826673e-05
3.77924748876782332e-05
0.014723466339600394
0.0146389156782053397
0.0145363768928061746
0.0144367982124468178
0.0143610450463002425
0.0143070757760810578
0.014271567291252665
0.0142261326259734509
0.0141515768938905214
0.0140255100054994877
0.0139045533698456923
0.0132166877375599449
0.0116231584152753017
0.00876653431432669085
0.0059372473803032226
0.00138002128711805345
0.000304421254606805343
0.00011018952564878547
6.147359956692497e-05
5.53610241172051277e-05
4.08366752976164506e-05
0.00190322517880033557
0.00181320736797664574
0.00167913366857017966
0.00153751187695039889
0.0014328969743532074
0.00141365051939928857
0.00142691043757541816
0.00141794175424974711
0.00134076105366044002
0.00122137182275462199
0.000981026569593667665
0.000623749199583705947
0.000418092553991786914
0.000146944767218277794
3.87133993415249701e-05
2.25240286331147254e-05
0.00251956280841769383
0.00238204340529165086
0.0022141443627235087
0.00203957008353673102
0.0018901495299177369
0.00182233031283725376
0.00175680361605982547
0.00167719347093708837
0.00164385370387679823
0.00141334579930648676
0.00103140028098680156
0.000724134472251684131
0.000503605007880181602
0.000131501044900905056
4.50353392799401528e-05
2.43501387390914932e-05
0.00327051521187522991
0.00311222493173707575
0.0029468308744141059
0.0027570330926235103
0.00257978029591181485
0.0023121650267878169
0.00212870631745400119
0.00204351933760907019
0.00198470146169703971
0.00154839630286310206
0.00120107429075128991
0.000849451746478656431
0.000440507419984876604
0.000112840272000557762
4.87873311888161303e-05
2.85958433296065635e-05
0.00396179273330152931
0.00377788310012165196
0.00359212723955091
0.00338457329725130656
0.00310401705277557356
0.00270714828855354731
0.00235555901992751636
0.00228473526925679739
0.00220600400558659728
0.00178632292178743167
0.00137955020543641094
0.00100694123611012138
0.000337439251403040508
0.000100180989579111722
4.63529514886792341e-05
3.90005280157280774e-05
0.0058965249743084076
0.00552600525919073795
0.00521766015227442207
0.00495702259503371431
0.00473023640811161272
0.00449384565716516669
0.00428670478286766361
0.00404874027262204766
0.00358814854370871367
0.00298491244947963249
0.00265842499273199811
0.00236479397080119639
0.00205444100200030027
0.00160394252587746106
0.000990865148522072524
0.000250885114571658754
8.49103112320138736e-05
4.15962144869455041e-05
6.08461749091783612e-05
0.00750440582300802329
0.00706753396945058142
0.0066967150774858205
0.00637866968863718287
0.00610992133194241012
0.00580358837383632663
0.00548597732938717244
0.0050500766128529417
0.00464509685884778156
0.00396998978895927133
0.00348837782586454903
0.00298604035592212177
0.00242163580697923615
0.0018591560182758067
0.000716055302553693092
0.000184235456858396858
6.75424339831947023e-05
3.79064113983158037e-05
6.58085420459273665e-05
0.0105682214939293358
0.0100494537177953248
0.00955036686335951693
0.00909753253927782744
0.00870698966749285617
0.00834911014885937608
0.0080501994286871232
0.00771234966867478423
0.00730792731107356586
0.00674065411475963539
0.00615189482539825732
0.00525105240997162
0.00449138853012746777
0.00361415312012799538
0.00286414557396332762
0.00176143696755742688
0.000449396919064345372
0.000133387287506856134
5.36012517527028966e-05
4.27204316259348745e-05
7.29967957747430069e-05
0.00137695557916408715
0.00208543404577035381
0.00305838407486514179
0.00434018187724167712
0.00622184146806766588
0.00935725098137359101
0.0146009377778968125
0.0211407008451950755
0.0253661280045091447
0.0261813053835417975
0.0231097113717060945
0.0124985738401489736
0.00362793163513090754
0.000215081503194691992
1.4758279237695651e-05
0.00130101158892585137
0.00205105152285468655
0.00312157739094966668
0.00461899630815924139
0.00702327472765138829
0.0114318461160153022
0.0185216607162299353
0.0251473695546063289
0.0275980623408118644
0.027632194210725592
0.0276876278589554686
0.0259688956035777421
0.0140753057529783149
0.00427971555458917397
0.000251473350496486756
1.55328580092727611e-05
0.00191250364425800423
0.00305795564743946511
0.00478659332782750083
0.00770980301740885159
0.013289111432969172
0.0219083664965266309
0.0266634056636185154
0.0267788490207699383
0.0268900146954393869
0.0266999622633461477
0.026745646263618552
0.0254776957662629193
0.014918677254757028
0.00510975259631533518
0.000251259286779816353
1.57257887111976192e-05
0.00289684490410279999
0.00482334747786372642
0.00828542050375274432
0.0149944105219023873
0.02342286613722247
0.026267986701079004
0.0264089922389247021
0.0261868873980838877
0.0258049267289361776
0.0255094261149157626
0.0250541019947512593
0.0242156383647924439
0.0160863752988850001
0.0059866654170565043
0.000228901825453122978
1.71574741843612087e-05
0.000807160394709023621
0.00147119826996268584
0.0026367814380448126
0.00468006516404337585
0.00855101820817067391
0.0160637055529461933
0.0242225262646511216
0.0258765392506707208
0.025826293365126634
0.0254796235600030507
0.0251020714107748517
0.0247485901574867363
0.024491323158282511
0.0236028046948458178
0.0228221509288231289
0.0175125464626966626
0.00654380393835916722
0.000247552762044850132
2.0018306576054806e-05
0.0012043675031572327
0.00225674257166638388
0.00430122407836971629
0.0083211403430100226
0.0161012918815395326
0.0244947256695861489
0.0256803440963420254
0.0253785999420609934
0.0249048866494903966
0.0245508679514324368
0.0242000296704143816
0.023873295341731042
0.0236423235935455042
0.0227877266671890587
0.0219231986099019636
0.0175080259339518499
0.00555596433680805978
0.000304793670608919233
2.43007227051075789e-05
0.000547431670375197652
0.000954803293876831235
0.00184398428541182602
0.00367238134279448351
0.00756209707023686086
0.0150452138274771129
0.0239550066733098012
0.025651457426233943
0.0250088635533394117
0.0245114123310185353
0.0241095674865472558
0.0237859754340524338
0.0234772218187303885
0.0231795066752158441
0.0229377734468719369
0.0223952620652193048
0.0208570408264609243
0.0182327459959777394
0.00575288936998568593
0.000441932682550650897
2.76884061887792092e-05
0.00293145458619049762
0.00447492245228750096
0.00639497627484938644
0.00876342736491221228
0.0116386616503478101
0.0150929191561863553
0.0185528221571520519
0.021148674933061367
0.0225523486987519312
0.0237893335666842891
0.0225335291510569309
0.01350711184141902
0.00395916162066189698
0.000226255045019956155
1.38460645839151685e-05
0.00325575946537836648
0.00519990518886428998
0.00758518064999661682
0.0105372326658925135
0.0143099123923348878
0.0184833621148928866
0.0219234637999718082
0.0238419905929889708
0.0249993969346214151
0.0255590672679186018
0.0259236286686501671
0.024569124437745362
0.0150983803650364175
0.00487512168335624014
0.000259551239398889393
1.4623160865683713e-05
0.00574454327851832685
0.00856594937302625724
0.0121396999982997852
0.016566681142870094
0.0211889663080080982
0.0241892416536963195
0.0252148961844924739
0.0255198011583977515
0.0255341235967008959
0.0251509084156256064
0.0254202956921243534
0.0251484887781972602
0.0165343866360213657
0.0058869360668872342
0.000282609524932498312
1.59842429434499081e-05
0.00923825773061927487
0.0131665854279535248
0.0180673198747790704
0.0223916301239583046
0.0241921170560316368
0.0248479124146857751
0.0248946336132232771
0.0245852273322651471
0.0241218983600006327
0.0237013188368484194
0.0234533509138413372
0.0227298135447209504
0.017818765623599183
0.00686220320945044038
0.000331111554642503564
1.95974258657325631e-05
0.00313274245714523789
0.00602043445195342072
0.00950993683302334483
0.0134593379081265774
0.0187071660819963688
0.0230286113213457981
0.0242849560224772595
0.0243755269228048133
0.0242499060960430918
0.0237488235132483037
0.0233428112282349845
0.0230417386620423333
0.0227729793669982535
0.0220763694844475881
0.0211706336848834845
0.0196265307202658015
0.00770388310094890713
0.000426628942769520026
2.56303560894958181e-05
0.00545790231984433476
0.00925174403678079987
0.0133071289917984885
0.0184404011813681414
0.0233621902642787774
0.024145984647119572
0.0242627336523393612
0.0236634629934754787
0.0232135821641358715
0.0228622090803862026
0.0225616901705484978
0.0223198173990891563
0.0220966148381934215
0.0212739097416669992
0.0201221272033365144
0.0203240288677668281
0.00831705611931099834
0.000660816469842060925
3.25510871961316701e-05
0.00194093648277591179
0.00472413895656730726
0.00933394909838986854
0.0131615754769495146
0.0178528503351775419
0.0231931285636525278
0.0242474148017036914
0.0237634508039086499
0.0232736843295101234
0.0228686465358823275
0.0225362282188991715
0.0222606087028872426
0.0220193746955737284
0.0218027169289197846
0.0215593687932664965
0.0209053909420543922
0.0192849017216524185
0.0205178792825793481
0.00907597496809161956
0.000746704425613622523
2.95452825272458332e-05
0.00459321567008052004
0.00776091377270591697
0.0108274034604333037
0.0132513655718664962
0.0153809563452404381
0.0172404840263128897
0.0188482135566268791
0.0202465097471980458
0.0213240426378608974
0.0223329794732655719
0.0227336398717052149
0.0219237456884415205
0.012521834332244559
0.00439082562398869156
0.000240315657760580844
1.31942849094290699e-05
0.00949303650612740718
0.0134140644179672336
0.0160066509647541662
0.0179991109586684385
0.0198690982600879737
0.0215567368519506558
0.022891551244006228
0.0238049513091755406
0.024148792872232705
0.0243735404794850098
0.0234331139085253437
0.0233154617513407561
0.0136452411806353893
0.00509983590613247335
0.000284453068512521552
1.40207876361496014e-05
0.0149752715489358673
0.0177505896418358976
0.0198381557472223947
0.0219766279713329536
0.0237474874483982294
0.0245423323708056154
0.0243614994634189473
0.0239666890531055332
0.0234502847688379673
0.0229685536275128811
0.0231949555477073792
0.0240876528838545739
0.0152038779357036042
0.00608286187819648532
0.000357142910388664374
1.55223637277744736e-05
0.0188959273606598595
0.0212922345760558455
0.0234209843132099221
0.0243443225391180365
0.0239663410093852378
0.0235083413081850177
0.0228841485426310304
0.0224614498697381058
0.0221886375780240286
0.0219461501777435605
0.0217517198254505821
0.0216250479970741642
0.0162335556915102763
0.00693883649732786149
0.000470060182905308367
1.9071551600694314e-05
0.00840428348286565569
0.0144892581099123029