/*--------------------------------*- C++ -*----------------------------------*\
| =========                 |                                                 |
| \\      /  F ield         | OpenFOAM: The Open Source CFD Toolbox           |
|  \\    /   O peration     | Version:  2206                                  |
|   \\  /    A nd           | Website:  www.openfoam.com                      |
|    \\/     M anipulation  |                                                 |
\*---------------------------------------------------------------------------*/
FoamFile
{
    version     2.0;
    format      ascii;
    arch        "LSB;label=32;scalar=64";
    class       volScalarField;
    location    "0.930000000000000604";
    object      p_rgh;
}
// * * * * * * * * * * * * * * * * * * * * * * * * * * * * * * * * * * * * * //

dimensions      [1 -1 -2 0 0 0 0];

internalField   nonuniform List<scalar> 
7236
(
171.791454553351315
294.263137591358429
395.839246687855336
427.648431681515319
406.21276368498684
359.07198590872747
310.004730377691772
282.678636517403845
273.858842016989627
272.406411708163205
274.815552898682483
284.257175083138577
296.524098467951717
312.541409831809347
337.085805933412587
366.385283327045443
394.842527123230866
413.818213890024197
412.024745732262204
400.477908858556304
380.228396223224365
359.514873482155508
345.592270098031975
338.569231700407386
332.748694944802082
323.935922214079028
307.467143530647263
301.898819582515841
308.466699790305768
312.657311043901586
311.996848698014617
322.648838129952992
359.569376604337663
446.397595765185429
686.249982507629625
1159.67983478569954
1673.01261994460651
1848.99845430246182
122.139021101118104
195.771634417208332
343.822712749818606
385.137082071143254
354.192335151004841
333.222231800627185
279.496827250449883
250.164155306664412
243.776554650978852
244.59553314966513
249.161246964227871
264.30250055486988
282.185009574283129
301.167634687763382
332.528280430369364
364.366622914879372
396.472583437283674
416.264331758692379
407.735275785648639
394.624026182689647
367.316792931829355
346.974905735049617
330.731967940427126
325.85256075029406
325.937115021994771
313.429596370463059
276.053816799122842
269.437715573454966
292.387069157088774
299.248320176135337
276.19159578258882
277.672446921091364
298.668231026540241
323.072362301952921
494.641471299169041
934.78088339180897
1584.97506652298239
1884.23280005502602
99.6277388600131673
118.74757747620842
184.936180454980331
261.635329058824084
207.053240172078887
122.576128005772063
77.6112289144294891
61.8312571436432776
58.1925809980521365
56.7002197437116067
58.4283998283577901
75.7685671354939103
87.784902721053939
101.928589550286162
181.35495461030709
238.716749637963062
304.149114551469211
344.66685800433919
278.869277844146382
279.801069226356503
215.775858830435368
159.039158145668409
144.708142121814802
149.131325849805705
132.114065180472636
137.654155230097189
88.4116779211222479
84.9378138130087592
94.0081009000253829
96.0675495634011867
101.03762998232402
111.411652319154356
125.657098880291699
144.241448020723794
202.290472282441073
479.6271425668196
1306.10896936778704
1859.67750860058118
76.0623917754512178
30.9289414340120068
67.7333661848679611
124.37232417640449
143.607513456584456
101.802181707595864
59.9713035204159937
53.850842004489067
54.8128272093768274
52.625065186442157
47.6510090299522275
45.6671366644338548
42.9394271698903225
48.3324305754425154
60.760192066645871
93.2753974078942036
113.648750092411646
120.972056534342883
120.493384112381236
113.941008649600434
102.584731434579339
92.2317999678776204
85.7526535310992273
80.2448205465480555
78.2616159300019802
77.6188992681226893
78.9924218603216559
79.6911682015034302
82.346931945728997
87.8854964031851864
96.0099436517355969
106.606417888289897
120.060710472854623
137.948432593727944
163.321420830891441
252.992968177480208
1011.0587123980298
1720.36607632423079
22.1503473988864563
18.3373343442883403
50.9621583867561014
114.743030718217824
101.153563588807998
67.6441849737649932
37.5745268118907987
26.6784957733330828
23.2987160846021588
26.6342603797141955
38.5495516564204124
42.7034095282927595
37.1776794405224962
45.1008819863290853
61.2913051266910713
104.337533228301098
125.055934927245772
120.27656637585531
117.050422946516775
104.551618483750133
90.0071306550077423
80.8981404053695741
76.8872474069308538
73.3169621831367522
73.0058014398551194
73.2029580061377061
75.3528696656893544
76.7742943406939702
80.3521431082833431
86.0088817834860464
93.5225168538279519
102.84268039551911
115.887877278496447
135.47685753624782
159.291838889190245
206.982220295404829
839.384710038414596
1549.97735321678852
15.9962715684760184
15.6497891540521969
40.6613023688953987
82.1642076523439755
73.5621675367537762
42.6422901595542783
26.9992480299171724
19.6851846509249242
19.9074311437355256
21.9585166016180366
24.1494984875607983
25.3116438422613896
27.1480446829206308
37.8082882607999409
67.4025990115446945
97.4029728154463186
122.861819568692582
103.094356660659784
93.8494237108589147
83.1536639597612748
67.5615135493078043
62.8949967406877306
63.4016068188946065
65.3791051855695713
67.6660184537212075
70.8185380066679784
73.4493153414185684
75.7103769741867723
79.7353872959896677
85.5735311561975607
91.7807395775106443
99.5500432198015517
111.499145038716932
132.378612229687462
157.660123351762962
195.689033041788065
457.490288346021941
1362.82403336953894
18.0799163090204509
11.8865898267656682
36.768902275303148
69.8513452705471423
47.8148053483292585
25.9828052350641165
17.577658017557809
16.3763985292834278
18.386012131144426
21.3615830960211426
23.9423369123970566
24.866208538941855
24.8725151984719517
26.8793615167834581
46.1067457052667535
83.1221238962209696
101.722912412703508
76.8564347192170203
66.0190571835602498
54.9942225170607415
50.4309270390377336
52.0244857844154893
57.4313811895778343
62.0092312216210217
65.5646036325963451
68.5984645849310084
72.4512531589193145
73.8932455384412918
80.9327454127738832
87.3916053639907204
94.6400931647745267
101.726930595978331
111.284047230289332
126.604816101065822
154.579131634663042
208.938201774261131
392.788806046136017
1302.05775399978347
17.6701810559329431
8.83704913751216736
50.506094808600885
63.6723535847591222
34.1207649801913746
17.5890460147386243
13.5639212673519136
14.143096002778158
17.1274269523914491
20.507200856667545
23.0661731080974057
24.58030736896416
25.1180459719349791
26.7005111298603346
44.0035157079808243
66.7613725065420027
57.1417481010944499
50.1730387841003207
42.2794462583252155
40.950040136517849
43.7648521209325168
49.1791436389286432
55.583432940665972
60.4995615075800259
63.9889104433912621
67.1461616553808796
73.3922963932035231
75.6252325499719831
77.12156764288072
82.7001530164647818
89.2881127135200643
95.2044468733911629
106.911988364468939
141.557226475874671
207.524733788277786
313.374483525064193
669.890120998178759
1313.32718802665295
17.8425566775514
9.0692790208763352
50.2125711076346306
64.7575804969307569
25.1622643906583434
12.3981032385588872
10.762231179178805
12.4971740379780769
15.6275636108413725
18.2557297110363166
21.3299524478483882
23.1927964114840179
24.5961869516521716
36.6955680807937128
43.1032107334502967
35.3852652790762079
29.7085105264090323
29.5437476337530924
32.1236242774961767
37.1552013207325018
42.2079758871503969
48.0033903990497421
54.4028662308653921
59.1753602617422274
61.4464426899740559
62.5234056364378858
62.7179362972829395
63.879772570276792
65.9814789048245984
63.992715806421991
70.3982237389371335
84.8094637875198316
99.1718070716356976
130.234646991023027
293.989220112541716
475.450658080554376
1085.17040383047765
1310.61956451734545
21.4036705183560017
11.5298827651136602
54.6404393446508507
67.6498813953061386
20.0991935461898379
8.95776527324297511
8.59517742785326178
10.1876925696663445
12.7306838654640657
16.4421877884005738
18.7930372703757023
20.9170647767215421
29.4580242243879091
32.5164435483890983
19.6434054814088057
17.4770795086356507
19.3484288208357071
24.2886508067203657
30.2829707255758009
36.3649343978618447
41.7653088128135224
47.4277157293580132
27.0758269124240876
22.4685516837466963
61.4276405605097295
20.3144305015436295
8.03451018881411194
6.7523621116869208
7.08903859751789511
8.34135722449285488
10.7466305322938958
13.662551281681834
15.6207003481215789
17.8916602154377138
23.8155167103873282
26.1157303661335405
14.7084578264157368
13.9176500965732615
17.1900476943534137
22.8049193046580818
29.3168904261671095
36.0127770415741892
42.0863923485478395
48.1773051664089991
32.2588834793030799
75.7162241545922683
72.9025081427436845
15.1308399945631908
6.10044855784726536
5.40831047574893109
5.92080485720018057
6.91764729382182431
8.59096461474638495
10.9249999642805857
12.717666831264566
14.7556556641507619
16.0840523013345127
19.8869901029178884
12.965688191174042
13.0198969489556404
16.3138575924539566
21.9938381172120572
29.2487497654837441
36.3711099619116922
41.8254758519735432
47.105687968524343
37.4855484123940599
91.6602037835189947
85.9190590221289057
10.3270992661172603
4.97458249288961696
4.66660536971298878
5.08894100018991047
5.85765646828721653
7.17580742352267542
8.91196789687855073
10.5513312983550591
12.6103163540480452
13.6812553425619168
16.9155632710737116
13.8162979233288983
13.5382083216534301
17.3522128015388368
23.8069868365930617
30.0632528094292084
34.2790869968891485
38.9209282771633056
44.4260649772690712
8.1066166318270465
9.25548935822216379
11.6460996180674474
13.3795383609839433
15.3556699841780713
15.4233861140536437
15.3797860361478964
19.4152356493505387
25.3614759019216649
29.142770518484518
11.528651184332519
19.6564968880044724
19.0360004078599907
16.4309888574728227
20.2223804125895192
23.7767428142730779
26.7919385970666042
27.1971338997412886
22.9058264808145715
19.2673497367932569
30.588321292147171
37.7648753796200864
116.964802942244432
177.610042793209772
281.398426136088574
366.891108288987027
388.125717546168403
334.330646990618106
275.294956005853578
244.923253821537969
234.494475130094031
234.053191937549457
237.045597217153187
248.800684806618307
264.245345295881123
285.91996925821536
311.708870081699217
340.915739889534677
368.329061634108541
392.570261819764426
403.937885941151421
400.57625904880814
382.785483038770508
361.655037718298388
349.332282960403063
341.086728446022846
329.458356555037483
313.79177827384774
304.508537453308747
306.932590191765598
308.04964820853246
303.62729946190899
308.485367702724034
329.633470345452395
374.951129914056764
490.675822475824475
790.704067654206824
1303.93878847315818
1762.53058694609695
1883.99696857198251
49.441164792564102
91.2913289967530517
152.207569089601463
295.562865444697707
350.261820958471901
279.611391804119137
211.23147120573708
179.029702361158655
170.567774540164663
173.442674707196005
175.926844465409715
202.801933648399142
227.182015876212233
266.348221059020091
299.07818025985398
333.412050523859591
363.546575488808401
392.668412673554087
403.652737742352542
392.431056133045161
370.414941524912138
342.667694325625689
333.290541003384874
332.096785899464692
317.300967693488587
282.416011766933082
269.144930738532537
287.17152326794178
292.368653947895325
266.69843280117459
264.921143491724706
282.001340236751162
290.035848605837373
341.369881042644352
583.381394071474347
1092.26789670588892
1699.2231626038772
1915.07188529405539
43.7110985095293998
32.1722463145549469
79.8069398296635342
144.420330728610452
157.498671169513102
114.690572533848709
70.118868147269211
53.4612414010929058
48.4796686555986014
47.3738118533612251
47.1722696947555278
51.6189899562199557
59.1452504839822808
72.4539736300787354
102.515590768693713
147.871143206268925
162.739434277550345
223.716473819510753
273.293067546222517
269.696095191766915
193.617192678969275
148.474754153862477
144.632159274805218
136.666884283096579
118.096651700989383
92.5833846947805625
88.7000658519024512
91.6497390321143826
92.4185670246799589
95.6442999137200047
102.966601510265036
114.813556784081442
129.848783000143897
162.819840271778389
263.144022125764423
658.576321483490915
1470.65515111227319
1920.57591163293114
35.4890652219333731
28.0207638616149488
62.0881063146039764
129.328448372632181
140.33114333563384
99.2268714971403369
52.8151637605356754
40.0273659731963747
45.8130364975099269
45.237773516147854
40.7987206158625852
46.9067599325298445
53.7556141389789701
63.6479068784027717
77.2765790567265185
102.115370843629279
133.595018996420492
142.154875573637611
138.595521530427931
126.008963155112511
111.004223685442611
97.808588916252134
91.2896685206184202
88.0119771415093908
85.5394920928328304
83.8613429164238227
82.0963460606525786
81.4041624633286176
82.5894829109605269
87.147462268407395
94.9113281671092182
106.457610003331666
123.519671066592693
150.781573636355319
193.883086721695378
364.44390979403488
1205.78023983888193
1824.41460679484749
24.8145666412472075
21.8078066973876048
46.5376965265763474
107.450481109683253
93.7982315051436331
63.4523110672055282
38.7502423321482183
27.8276033419312547
24.1329931379903613
24.9769556386755944
30.597789334664661
47.8730788641383427
53.0353409325349645
62.7363890461227456
77.2825797398667476
105.891629931367774
143.351444480129913
143.109622263279562
134.890074986868342
116.457312821511934
99.6903616476649006
86.7947132938978569
82.03720609188494
79.0575720424151172
75.0474081805077304
75.2269698779562646
73.8402024311969427
73.4111748326869957
75.3467046329638919
80.8809627535771938
89.5675298332924825
100.855820317522671
116.870531947951065
147.967842395494188
190.483744346412209
287.901759619252061
1038.58848524188102
1686.74626663375284
21.6958284211948218
16.3587340585131891
25.9381002504817317
70.3210448574434679
74.4184639072200156
40.4463692131068271
24.6378281621970885
20.0454091585218599
20.8390603097441627
23.405029722882265
25.546753508142487
27.423282704365775
32.1990070974768514
55.7000863660012868
77.8894020182206219
114.783089550125823
136.763673343819789
128.275021814771776
116.076895346207081
109.293604685693552
91.5531433193616095
72.3971292656698324
69.6192650628803875
69.6660995170574466
68.6890923826730528
68.5134720721296731
69.7944940008577106
70.5405345910539694
73.353758830734975
78.6485893859637599
88.0794581935966647
96.3392962782544799
110.985831677785342
142.554927483291891
194.172906030402885
279.385575154937328
672.764172272245446
1545.56176159720599
17.6180002972752092
11.0775452173664775
14.8776840040542613
47.1892559798139146
49.6586125518644153
26.5573541741952539
17.9814710934621615
16.7784607295235766
19.4037072470005754
23.178630740203392
25.3158713317859743
26.2010948755006545
27.3819239707905311
34.2184870943080242
69.544320363179466
102.795993464134426
122.234116099154889
113.337199211192171
107.241712871178862
93.2527329496742681
64.9993537970084247
58.9966620237047152
60.877449781179962
64.0868340315767711
65.5464359105002501
66.1712691404685671
67.0412876772440569
67.6271119125143798
69.9977767892570171
78.9166258283066924
88.916331822744894
94.4870122935006975
103.462919721783663
151.875653222593996
191.349836554289766
290.995826411480948
590.99997843911558
1477.18320367156412
16.8090489878085094
7.08823124890069067
16.8365342620798231
39.1152410512020481
25.4057954641805104
18.2308667065635142
13.9724043043434261
15.1617924373007131
17.6795747499033702
21.6886745349445391
25.2367633270721399
27.1998522577795505
30.6539192460989618
42.2743892478443399
62.7954188291015569
86.5578405641887372
97.8978736319318017
96.1966722806134982
85.390820994051154
57.0149937191833089
50.7919133896700501
53.7447155327906572
58.9692147939447509
63.0590482824597132
64.6074904247805364
64.850589285690873
66.0583485430980062
67.0597044854315243
68.8110944848805985
77.6750390484375259
85.0700735614484387
87.8091518104317146
95.9641748932600649
144.560463137081769
370.350467763262088
368.744418135533635
834.761286165365163
1447.90697691743526
18.8142833560438554
6.73912965402190078
47.2206183058152931
58.6498938268855383
25.4895043150506062
12.9790378247567446
11.0475730268745043
13.3415385527577897
15.8442242328047804
19.7964963262976035
23.5909088838454259
32.7257526276414907
41.8626796110031663
47.4277013949885529
57.2081078140254107
70.8555606753361502
77.7957433763257598
61.9383545547508447
44.3745932595498473
44.5875109696398084
46.8595410595237922
52.3057505479097173
58.3591103977218282
62.3241767917068756
63.9132546777887924
63.8129458897868673
64.1221800082715419
66.3214709224325958
66.3288199864401662
65.1991554541144609
70.8840619549378346
78.472694889198408
91.3038229163572765
176.396508695470629
530.564430157783477
577.96939466085496
1256.19672275927587
1405.40452147496239
21.719486265046946
10.0231609232907939
56.7851484401666653
69.6098858710527537
23.4020054809815221
9.43911994203391203
9.30238109497369514
11.1743208633496671
13.9338428609552949
17.1030613186848086
25.4099429965275831
28.0767077025267362
21.8890654476303865
20.3583397023160835
40.6179373938709531
35.09920262280896
36.4611087200773838
30.8196529317700687
35.8318911408789802
40.0969729616694934
45.8953476279969266
51.8388887344916753
57.7500277782100824
28.3380736325062266
17.3750375198943345
62.5163603228712432
19.3608275042510449
8.56969713431790936
7.16150551362527654
7.71917061370732149
9.48535568562441256
11.7711440407893502
15.7159410452025359
25.7957142229476055
19.8951059464690552
19.4005499482320403
17.3419521597073825
16.1185154853659895
15.3639034862719157
18.643190386917361
27.3233971135949503
32.7696624244996286
39.4714364016138717
45.5740340304424123
51.0766157072031035
34.5938131875026116
53.4717121249342995
74.1287803726189054
20.3085470952454052
6.41518572571796319
5.69147814757460058
6.47081681526538777
8.02522958347532089
10.2341882559478101
18.6791845864034336
16.1880515898861397
17.0777574638857601
17.4440857519653818
17.5270431749246391
14.9479911187246497
14.1892354100484166
18.1761081693061293
25.4227963288915504
32.3913740076762764
38.6489458385821223
44.1596914821748783
49.1226167736255377
40.3007024436492998
100.963817179730412
90.1215983172569679
14.7418715633027233
5.0724167835444689
4.84006922946323836
5.53981079941511645
6.96873452131104454
9.51495125715354106
19.6160563625688482
19.1154320080231805
15.1765570189876531
16.991156651097814
17.5222831776600287
15.3192115027965361
16.137291167490833
21.2890359314435891
26.5917697412179876
32.9784606141156118
37.4347129538053096
41.5668374574251303
46.8583101175604
17.101966636561361
19.9575145927546487
20.5483428145007601
17.3141580669592123
18.0560963989048879
24.6180463663535676
31.1082765162853185
25.6061329298158746
27.883717275314666
34.1622755757611785
25.1793829760919436
22.2689908056975234
28.3555280580879447
30.6215068070819108
36.329299117616273
44.5099335730249095
37.5178241392192575
36.291963695294271
33.5476243588594372
36.7215302246122022
42.4609456438691097
48.0400698268722124
122.882164810424229
139.144257440133345
188.009170454750944
301.121131365125393
350.101238754483006
298.08922870955945
240.084373362193929
211.755259367980074
199.826180266194172
196.931238819145875
200.20189542188217
208.80580974861914
225.241572890001379
249.587193521260161
281.696527179528005
315.574197648155462
344.645985203530131
365.927680761643103
374.333492678821131
374.056950834406848
370.293045259921769
364.105547790112894
357.343369913159279
341.858173216778027
327.061961718295208
319.626675759720229
319.150592989629217
318.522066530237225
310.968992090779523
308.231138480808227
319.758400333823602
350.134150691696959
419.02732370474132
588.886398236775904
955.262292988130184
1486.49642448571399
1848.24859886461832
1917.53711058066938
65.9739470850227576
60.1068075082120359
90.6208102907897342
221.939583196152483
268.673384800714189
218.673789322801099
158.154100563871424
131.626124787217293
117.5650195862289
112.582580107565448
116.990521025955289
124.009302647534099
150.50951302047315
192.493183500853036
246.16868493678453
299.003048010729572
337.293675705396424
360.227685922775606
363.946211212764865
358.858174603918599
350.163284298926555
344.911843192281253
343.439613059797352
318.878896460524174
289.559107074775113
282.8396258788203
293.982828436364116
300.491896140113795
273.909675597541195
257.524975665078841
264.41947023302663
278.912391970089061
309.489567563020785
411.971003314327504
744.864194184688699
1314.83907202285513
1812.76792644623288
1950.62409668831356
64.4087285534589
57.4033167172217489
82.462643631445161
126.88439675143637
154.22631750326002
110.229980669582133
70.6723519769368238
50.248229584345701
43.5565797009305129
42.2087388474611203
46.0050557823861297
50.1983374649753031
55.4124347502809442
65.8149634539643671
83.1957793458158505
104.248863154596933
130.836350592443949
161.161946253270287
162.554238588429712
153.954238061956232
159.729593562291626
154.366442578168318
149.60287170011685
109.343715864504674
108.240322037027568
106.644224131845817
106.434018585616684
106.060301266989953
103.174866804300834
103.611474640925223
107.830303842825586
117.400803674203104
136.474617779331766
195.532817418970154
366.559911592641129
949.09168939335575
1663.90565756187902
1991.03225157489351
62.288319844372964
64.3677862899125302
83.4109486213955336
126.150325371196899
131.103334730427832
89.3768803764079536
56.589150821787328
43.2719118436336103
35.0502287705436117
34.260453806721415
38.3623386214795588
49.5281658789479877
55.5248171928189578
66.3318420618840321
79.8106351396847771
101.467311501092723
130.385548878336323
144.550493956292541
133.771760685368122
121.07962536263318
108.694097867060336
100.305471929735162
99.5643627933108064
102.146606371929977
99.7369599777100433
96.7406071823335338
93.6278579392503758
90.7286450299910285
90.2100874218224504
92.5832124070338125
99.3458829215324499
111.428433888423072
134.397181032921452
175.54274504102176
260.760330733820922
680.692110647759591
1467.12447054527115
1949.03522407174341
62.1542064447372837
53.6536162396115586
62.0470539765008198
95.7286929043174837
111.406931945817504
75.3359964960670254
40.9760315651179141
30.9158776360500767
26.6104612667072296
26.8000064363608637
29.34856688219174
37.0087284423657294
47.3529589647247136
57.6534684685575414
80.1784381036650586
102.873269741087952
130.285318378283904
137.472391931209017
125.01332441815893
113.861743447039714
105.237773092704131
96.8416319432035095
96.104645530072645
94.8709123543943491
87.4338989197745065
82.926452206451529
80.2586327160383632
76.8902016803473032
76.1924022622298907
78.9704098376243024
87.6411046664881894
101.275537962783957
127.22866059520527
175.135272845630254
254.444771448091814
447.100412937499755
1323.57411250193331
1844.90478576885721
34.9713926284089567
30.0871400160672167
21.6741668544171802
61.5318755998818148
70.1854179071222006
47.55178581101476
24.8925346239030887
20.2508455805918679
21.9537166398046182
24.813696564610396
27.5945627718327344
30.1412837315648474
36.1616744842960927
48.2199711313010582
69.2582636174382031
98.7071318184468538
125.348424316736427
126.170603081769542
118.560012481941698
115.580267270540219
110.61630399923709
86.8304150522471048
86.2329324645578339
83.1683865579933155
76.8837604059703779
72.6815059340462142
70.3985591971091651
68.4906003796805152
69.15161551438716
72.4645075508081078
79.4349073659101066
91.2496775137073683
116.380263358982532
166.896755790809351
264.138901692255388
447.219923861252994
1043.04119436445512
1738.78262408695196
27.5394787185452792
21.797585094488209
14.7495841084657364
23.8205002021883701
35.6225481491943015
26.4462296977116402
18.1220829803908181
17.1394557005832944
21.243732816352253
24.4728817050516696
27.6155360471582831
28.8470941971346591
32.6842307310235256
54.1859846041475208
80.2850897970643018
107.237646740251193
125.233442697933185
127.770076213572395
122.107025745985013
118.301192044919418
122.322209893485478
77.0449021250316548
71.9893228487206045
70.0204505668672113
67.7876508277803111
66.3243348211739487
65.1459616150867475
64.0194473726083686
64.818770211081457
67.9895671491470637
75.4317101847369429
81.0636389920282596
99.2967059470886397
168.726104050187473
279.474653108974621
471.938367920966925
860.923348656394182
1658.93618786271441
22.1617035434427692
14.5757943935857615
11.8264507451666727
17.6144860118282303
22.1343469792183143
18.4690420785304923
14.1251030288308872
15.3309712376178968
18.8764926774184971
24.0114667944355382
27.3309029804302881
30.1309786311049947
38.455074194879785
60.865976087454257
75.7044223573196149
94.5417949954703545
107.530947017335563
113.436089825155165
117.384580138290602
122.002466310918805
108.996685185937679
63.9193977932652544
64.1500626726536325
65.3411582432005247
65.4163667899654087
65.1299375360799786
64.0770048243269059
62.8134930456421117
63.3081993065543784
67.5818788128568713
74.6879299471855376
76.2015562190534013
86.4596873683897371
129.56351624628752
586.870035008144896
765.163792520882339
1107.8567311728832
1540.15412683727777
22.9318350229374737
12.7696886858506318
22.9190586608985996
52.1541419193673548
19.9999333620351507
13.3121316274843018
11.2267968206521882
13.4437997062542713
16.1829895973121474
20.8673264391591466
24.4800466500880383
33.2626141817435794
46.8267990226918656
56.000829028046347
66.5240083050708222
80.9622880981286954
95.062537762699165
107.49606912037838
116.798512296956915
118.487083167199415
63.969283625743131
58.3666355568973572
61.8721792770444026
64.3487038974111272
65.414968296837344
65.0149875576628915
63.6666097382990586
62.3408626282121148
62.6103907273705858
67.7273488401582142
68.5811941160464471
68.6251411958338338
75.9480594151507091
113.906808057532658
553.744913939607727
724.845541386963305
1469.06817828171734
1614.04169624016731
26.3488973491996568
14.9109349857759952
67.8923253908173194
67.656574765214728
21.0271206598643658
9.80831737109753554
9.15408240882643476
11.3588115044737954
15.1576411935696385
20.7570907830596738
32.1902262027240411
36.746787427739342
22.997620410774104
36.361017816889138
61.557221679931736
75.0970068385850169
88.3726945600100322
101.842816820268808
113.552625781635896
75.5756261725360616
55.4316095161448033
55.9114117213548383
61.3589801849980176
32.0173154190108349
21.986190923186971
72.7556063058927123
35.7055463944384286
8.78822214142852154
7.44607490735636013
7.89054395245263063
9.58435317169745993
16.3519635333440583
24.9988458202918125
29.3467716780301835
28.6755297008415972
19.3421936423678886
16.7642554504008707
21.0412931928065419
66.1297452179576482
81.6855724185761858
96.4369120199290677
117.248324096854432
61.847307611151507
54.168395890641186
55.0389782445244933
38.7237722776395188
38.8675721275409529
80.6180405158713
23.279602345116519
6.73461534716165655
5.912019897632522
6.88751635355174763
8.37060805414997766
19.0980124297949487
21.7859579747346039
24.4042362898565877
23.8354261368450366
18.1554695905632855
16.2843195493477957
14.2434855374430889
17.5675359294895124
53.6679204593026711
88.2896097655734451
114.94518479021761
88.8821893336359636
55.3422569218482252
54.3948431240057246
43.4580241619240226
109.075568391724289
96.8118732975151488
18.8025364668199515
5.15754141726044946
4.96067941357491815
6.05481037238140907
7.64509262942495482
17.989525099377488
19.5710114736014198
21.2477141230136439
17.1382741787564576
17.8786051310721064
17.7496117941418028
15.8361155890216132
14.3854250291050914
14.2421852284210537
55.383702069401636
104.536964620621021
131.502095695620881
104.905551111849519
52.6223831402503563
17.8852234748148398
18.845092641238459
14.313235472598496
16.5426741255613585
16.9143457924301899
16.6284970714349711
16.8250836485046378
17.1349611277427094
31.9755184282235838
95.8499968547909162
11.804731396833585
14.6953652986192846
20.2619622839241664
26.6218838885089362
24.2146454255183983
15.184287417504942
16.556202683718336
46.1319695806302903
30.2260237605627715
31.8470577455189883
15.0008079019689173
13.4057173547837145
146.600370344090095
124.684588542058634
157.588038607673127
237.665680582874586
303.262152929967783
265.362267470897734
213.802454394210855
186.016764401391328
177.309533045095122
176.093339769142489
178.184698576343209
183.490436979840155
190.527571493460471
207.498890214566615
234.9142637555166
271.252260217183164
309.596424331573644
336.954406574389679
351.885490620133851
361.513193170545151
372.00661814401434
377.417189642076323
374.550579826134197
362.37774055938371
352.334316234687435
347.615032781307889
343.435837961753464
332.36359478537895
328.251102782470582
337.434534849570241
359.44971493346776
410.109999704212271
524.096044693546787
769.950004038633324
1181.49981894843995
1655.12810693064966
1904.96900623507872
1956.29858514136617
106.944259424427216
86.8783574606980267
94.4145669058347607
150.572343216749715
226.5284629999407
187.34932627405999
135.232487776636589
104.703619429764984
92.6644837708476388
91.940299742705534
87.2023699176942131
91.5188611512058117
92.2916071695837132
114.662650838041102
152.668168683065119
213.601851854725084
279.88392801378626
315.679001334217503
329.908140675614391
336.990451020331989
349.329272960873936
354.4029411324168
347.954920224396972
322.856126479983402
313.093469807027645
314.253639640067433
311.482720105098963
277.565732503875097
264.411717652960874
274.440763712378782
280.619422212822144
305.193559036532577
376.093040277016314
598.82205253733332
986.194790843804526
1546.03231832583947
1889.69933069934837
1991.67868690255523
114.957632237308133
100.706286538788774
98.0653703744769274
130.646011385420991
171.714875643149526
133.501432213090794
87.6115235895225055
59.1884823136133491
52.2740414563414362
41.858346071937568
47.1828483598682453
53.1860614585671243
58.7772171148606901
62.1187592686609662
76.9648987860891083
92.9333716629088684
108.573063598006982
121.424396160131906
129.63170138183807
133.601316400925555
148.011590871871306
153.685239125996901
150.544661555511084
145.11524841451876
134.948301966192815
132.010797577011004
128.889632778738957
122.205990183727408
114.532945267593504