/*--------------------------------*- C++ -*----------------------------------*\
| =========                 |                                                 |
| \\      /  F ield         | OpenFOAM: The Open Source CFD Toolbox           |
|  \\    /   O peration     | Version:  2206                                  |
|   \\  /    A nd           | Website:  www.openfoam.com                      |
|    \\/     M anipulation  |                                                 |
\*---------------------------------------------------------------------------*/
FoamFile
{
    version     2.0;
    format      ascii;
    arch        "LSB;label=32;scalar=64";
    class       volScalarField;
    location    "0.930000000000000604";
    object      rAU;
}
// * * * * * * * * * * * * * * * * * * * * * * * * * * * * * * * * * * * * * //

dimensions      [-1 3 1 0 0 0 0];

internalField   nonuniform List<scalar> 
7236
(
1.66928389093654016e-05
1.13992616821099449e-05
1.02716940813176385e-05
9.77935822180942964e-06
9.45584372860042393e-06
9.15393754967537355e-06
8.93111289577761754e-06
8.75812446287026374e-06
8.61113916368343647e-06
8.48471721202069515e-06
8.37652778560616946e-06
8.28441008106833298e-06
8.20637827425252728e-06
8.14987529407382321e-06
8.09755378509479119e-06
8.04674037468672486e-06
7.99295870581891736e-06
7.93910651129809074e-06
7.90432607772169612e-06
7.8722518704115209e-06
7.84545518423419588e-06
7.82519342029259685e-06
7.81134991218499186e-06
7.79266779299902369e-06
7.77077444327413621e-06
7.75052615227733442e-06
7.74933352510425115e-06
7.75218754412824566e-06
7.74337618188443215e-06
7.73408306155464952e-06
7.7434793613362463e-06
7.77177135919284213e-06
7.83815010899199887e-06
7.97541999810797704e-06
8.35650296934165627e-06
9.59226874124648452e-06
1.37396751005942087e-05
2.44613647619137398e-05
2.63984062579817541e-05
1.40147288040182101e-05
1.00216214390636446e-05
9.86324384608766694e-06
1.06925611247271701e-05
1.03628593496144091e-05
1.07330765202389846e-05
1.10282701914535191e-05
1.0940409445550373e-05
1.06113283996321074e-05
9.9693167775680497e-06
9.32981434861380579e-06
8.83886493229444267e-06
8.43332398442118711e-06
8.17469722451524246e-06
8.04983804840524549e-06
7.93333755441338637e-06
7.84958044426308588e-06
7.85364917816193995e-06
7.91090538956393834e-06
7.99775926061015502e-06
8.06021262791680865e-06
8.15067425984740952e-06
8.1139010272736492e-06
8.24336452984651298e-06
8.65966598571374218e-06
8.94895860948509014e-06
8.83403143635637698e-06
8.86740038755104558e-06
9.250894564275057e-06
9.74047540721185777e-06
9.8112613022283694e-06
9.87615070244808942e-06
9.74709543340576952e-06
8.25094294165606247e-06
7.40440597925650485e-06
8.16203649366780256e-06
1.38151919529382778e-05
3.53195339035994302e-05
2.33241674091363131e-05
1.92190060524267823e-05
2.24738400086602793e-05
4.37287155374885798e-05
6.99223526765173429e-05
8.31555056476914552e-05
9.7263199552293452e-05
0.000113729853183463543
0.000125837677333299862
0.000127854891722591898
8.72944032836622645e-05
5.23608690244170907e-05
3.46264722931329306e-05
2.07704623041775441e-05
1.59255567805161835e-05
1.34964021654214084e-05
1.3630498243850044e-05
1.59294786749275452e-05
1.89796145304336329e-05
2.51675595144574077e-05
3.07169877604809339e-05
3.23422035302477868e-05
3.18123288267809285e-05
3.97374412794372219e-05
5.60063723080693148e-05
8.37923613874113157e-05
8.7142837722510027e-05
7.26337948116579979e-05
9.81475652617706259e-05
0.000133347149123192794
0.00015327101943672796
0.000168950994865750586
0.000140432037263907197
5.24204021521836611e-05
1.41811631028580919e-05
7.74040288646119094e-06
1.02506458577850373e-05
6.13125703458877177e-05
5.57372263352042053e-05
7.3960966547475916e-05
0.000145999579549777752
0.000113627407682597359
0.000120458045809730512
0.000138420825920930354
0.000127623226880326288
0.000124606129172009575
0.000134132867523899772
0.000158496636888883505
0.000167723983595830021
0.000152467891870550329
0.000130610904202008241
0.000124702279551098361
0.000126892023320818723
0.000121694752752110919
0.000132528951766799761
0.000174641196778923922
0.000211771423134999236
0.000243546828210195143
0.000254216233914844071
0.00024280791734344713
0.000229640294737563298
0.000224530348212923062
0.000220676882229511423
0.000220515587323833948
0.00022248973929994085
0.000227031824884520541
0.000226189723753022451
0.000224555546560195547
0.000224277357710076126
0.00020580046757348884
0.000162463986729500821
9.76903086598431084e-05
3.96998976985600056e-05
8.94887666197069121e-06
8.8479027335485598e-06
0.000196186278551212771
0.000165360566720932283
0.00021522385587307438
0.000148021920113393569
0.000117630964661506515
0.0001584364681235698
0.000254743627596091887
0.000349100621571881179
0.000420677838029046057
0.000375253530344544573
0.000267094253525217477
0.000250472457336085082
0.000261447132390366782
0.000220731621084164077
0.000188344292090631912
0.000157829453671307968
0.000150980124140185322
0.000179823874906000718
0.000286660568690696581
0.000296573973245543301
0.000272819799203242476
0.00030694915404772292
0.000299898638528455256
0.000304411217672225388
0.000304866504119515166
0.000306877769036483742
0.00030672528997349117
0.000312136253389774408
0.000309657503166416918
0.000311053477468582838
0.000312862180366039013
0.000291704583073587782
0.000240049627881851104
0.000167028370966967594
0.000101911091755909356
4.83319546274016187e-05
1.15172590416027518e-05
8.2452204745019837e-06
0.000567009397382763677
0.000330112411158975762
0.000343920287439012208
0.000129134504260513785
0.000135879224141797968
0.000211890703713646416
0.00040373744624862311
0.000753360701889135799
0.00112696423155800611
0.00132373459499365896
0.00123422469703128785
0.000873848346960856516
0.000449202739841859217
0.000272041307800812121
0.000207988055737233203
0.000198237027531977193
0.000212357268486355096
0.000282388100042103895
0.000256339003670567553
0.000254338756870272297
0.000275860820780397754
0.000303737430139688837
0.000341197810709071116
0.000418800559454246101
0.000499700122892193332
0.000486012655780785762
0.000472149962222964063
0.00046938242788416507
0.000460053988670632811
0.000469340097353894209
0.000494110734422153162
0.00048604514906111832
0.000401285619532679475
0.000210482901187484427
0.000111075436751225913
5.08080998641947728e-05
1.82382483808314195e-05
8.12275296159322833e-06
0.000592786737838545672
0.000516291237959295274
0.000343705448947508648
0.000108197196997663253
0.000165084656913860596
0.000333732707071212828
0.000783110466684724883
0.00165475029089813932
0.00241443392648769441
0.00220618174763586965
0.00183364933980461968
0.00150058874220696361
0.00105996415276449988
0.000709193114190591225
0.00043249964425646619
0.00023467624307326143
0.000202535339839451473
0.000252173528022364344
0.000296489830742518328
0.000325825696041695382
0.000379055351487930228
0.000465226907758544285
0.000599439645575268487
0.00078908254646250489
0.000928640967541117753
0.000830215978490614305
0.000666488500536616731
0.000602822005048863057
0.000511846898159952057
0.000471136824655167649
0.000481590909930513643
0.00052468660908155777
0.000630168841252055282
0.000314941510640072929
0.00010297555386107412
4.78915025727099289e-05
1.70753020116165091e-05
7.9460056124036606e-06
0.000506688637230820558
0.000631690305488880684
0.000213449797780626332
0.000100122963463165438
0.000234449767496016926
0.000597221965983546401
0.00150482800724534163
0.00321113623513805601
0.00354898199419481771
0.00247598342196608335
0.00183921875037980267
0.0015396412136901036
0.00101353135847392158
0.000619084620109855714
0.00033948837765867976
0.00020528866855787012
0.000233646112802898674
0.000304364982451700127
0.000437239385104426991
0.000547201242939251596
0.00071043113158199972
0.000918950621485385916
0.00121516313159719148
0.00143252689618104663
0.0011308476269245504
0.000779390119487449046
0.000577772571415836899
0.000581829155242159042
0.00054547013272555065
0.000473109598105195186
0.000458326342886522943
0.000496813975807068207
0.00057359918809228019
0.000260803143233534289
6.72911965683207331e-05
3.26533736363104362e-05
1.23924035248972474e-05
7.86521201288777571e-06
0.000436001859338271266
0.000939105702144729161
0.00014269078897754194
0.00010265328065615349
0.000328023470578937186
0.000983047936829147158
0.00267828406380482336
0.0037895082153249918
0.00316098251542936337
0.00249522707730320207
0.00185987725892168879
0.00142344961558129365
0.000834998315343895951
0.000460040821891775009
0.000312411298381429551
0.000270429398158510104
0.000333764365825433326
0.000525994841314481086
0.000765746331482158437
0.00105015524776171337
0.00131393338272062492
0.00129943679685842967
0.00116742320442021178
0.00124645853009096828
0.00128523136913556799
0.00133050888474177311
0.00123325931021653888
0.00122565400109046654
0.00110431162226700373
0.00110283919380410925
0.000780667236579273179
0.000588882911357676815
0.000520847263256358833
0.000214073889528686449
4.81546746009433509e-05
2.71804989460698449e-05
1.14847565082899469e-05
7.94500265700575216e-06
0.000400347599901079666
0.000636879018023902275
0.000121681203791889074
0.000112650628457879772
0.000522036334504255919
0.00173937201504506338
0.00513285488813554694
0.00418656034647646447
0.00304970463670952091
0.0021175954220752722
0.00161208299310929763
0.001278421262717431
0.000748736152184767997
0.000512496040243467393
0.000436981728384072806
0.00045782492291691066
0.000652213181517133475
0.00109493716659240766
0.00130718011977562585
0.00117210705885322885
0.001093563633024535
0.00104976041053992503
0.000412289346060577962
0.000318660417541795371
0.000113785044669304492
0.000164714896226986608
0.0010660342988395037
0.0031328800997374273
0.00861106897551323393
0.0046653152313374897
0.00284170800544828036
0.00193079632756310124
0.00151216440698681218
0.00119508819385653084
0.000822199130569978244
0.000642007074246419771
0.000589568377721980271
0.000823907016705277919
0.0012039799806066241
0.00122184508247568822
0.001127820876047049
0.00110124202519272974
0.00112412138268937721
0.00117975621637715395
0.000448370121507806222
0.000161881040605593653
0.000112197073041716701
0.000321800146723866796
0.00187195505780221594
0.00541756234934904785
0.00991631748295789331
0.00481709343988870765
0.0027441093032891232
0.00180745594124551438
0.00147661528055609173
0.00117520768170674178
0.000899079398878399605
0.00077669059120137867
0.000754965055021793782
0.00106115000776985081
0.0012152254768583318
0.00114688632310608286
0.00110288458479603077
0.00107180313091402362
0.00107834092718829978
0.00114350453201128382
0.000494618075518430214
0.000136488818785991168
0.000127237217213341404
0.000601259029634465926
0.00303042021968915904
0.00852466423286199308
0.0102083734456238223
0.00456524602861419632
0.00260631665271607478
0.00173699966050589751
0.00147237249456957215
0.00116464286406961601
0.000900489308641056266
0.000869712747969694235
0.000891405382755404907
0.00101123130043740718
0.001062123916864554
0.000938413737798509382
0.000834608606813486966
0.000754497491112057837
0.000745243671302622574
0.000805701608358746764
0.00170125077126326231
0.00144631302747263968
0.00111776646166151334
0.00082763978549609549
0.00086016670217503588
0.000854065317185080273
0.000804848017249606409
0.000704428745475018845
0.000640722011392336004
0.000581561988743097458
0.00103690752884587367
0.000720391702062642744
0.000768323775667989375
0.000776077248149876641
0.000643286611496357097
0.000500665687573650649
0.000494083202893983386
0.000475142781481181591
0.000704604530902504418
0.000692569777975903401
0.000492120023907646124
0.000388678443736741627
3.27394495453219673e-05
1.66887464416850398e-05
1.14244110226102879e-05
1.02964604405814408e-05
9.69629296007925571e-06
9.32631518890182031e-06
9.08191379444098069e-06
8.88725627739347827e-06
8.71672972542167932e-06
8.5457308778159378e-06
8.40142401254217224e-06
8.27358513031682921e-06
8.17178372677589223e-06
8.09202822111047975e-06
8.03226897668625451e-06
7.97978099613869774e-06
7.9291715825063731e-06
7.86618883463336561e-06
7.80263199855744496e-06
7.74971820947283241e-06
7.72333158416828049e-06
7.71439314524884664e-06
7.70421484455709857e-06
7.68601635089254233e-06
7.67402281865740271e-06
7.67447851048194834e-06
7.67990591755021494e-06
7.67224148021782438e-06
7.66049098852233525e-06
7.66025350216861911e-06
7.66877176086736958e-06
7.7045281732785757e-06
7.82065900457961647e-06
7.96447036084043603e-06
8.49012412098716996e-06
1.00898613329347564e-05
1.51655713925098635e-05
2.65725432336612597e-05
0.000240927887136567243
3.91799704297431066e-05
2.25428431700107557e-05
1.43538275268303835e-05
1.35533744778203728e-05
1.49391283178865766e-05
1.57570762770590252e-05
1.61390966109631726e-05
1.60635574864232581e-05
1.52183598968757872e-05
1.42580201466757787e-05
1.23542755201426647e-05
1.07531692240332748e-05
9.4893913817380572e-06
8.82106125744044409e-06
8.44979294616271885e-06
8.15715172274490577e-06
7.94829310174289793e-06
7.85124647638555916e-06
7.88492380032404477e-06
8.01978543647906062e-06
8.15424602034616825e-06
8.16842476581962164e-06
8.25517207519795392e-06
8.62715073785179548e-06
8.97726919451258989e-06
8.89319714428021761e-06
8.83380317926485176e-06
9.21529585940224155e-06
9.72061978576458766e-06
9.82632519793098754e-06
9.92779390375664062e-06
1.02361093294058359e-05
9.66581592693076917e-06
8.07085616606117411e-06
7.41089138581440613e-06
8.63140323270651689e-06
1.51990517306683038e-05
0.000266032267214172424
0.00011519251619012022
7.17993894247444264e-05
8.44796351089273655e-05
0.000102878437498917004
0.000116753578023543646
0.000135213533840498196
0.000139238324403032131
0.000145602288159509783
0.000156509067777667121
0.000170691417913548815
0.000177595832783180018
0.000182256541916662096
0.000157083232660218945
9.67472644934494409e-05
5.65438637424415811e-05
3.88526988489694435e-05
2.31201479218698779e-05
1.92911126687791412e-05
2.31358169066234465e-05
3.14181034255075345e-05
3.93469318828110353e-05
4.38638246310314183e-05
5.21032854112174455e-05
7.81724509288849942e-05
9.7504722449703624e-05
9.57072522013609341e-05
7.99961204484400922e-05
0.00010042586686093182
0.000123776179310778765
0.000136789942918249917
0.000149697716940078255
0.00015737784784052204
0.000109039140515855066
3.65357483190325349e-05
1.14503506250617119e-05
7.66724641338352949e-06
1.09232061112499447e-05
0.000255943672704207238
0.00017279387827753769
0.000154287129642968448
0.000135312843902571096
9.51374047653322208e-05
0.000117191653506885024
0.000171790478705856483
0.00015962077177283346
0.00015749714461612806
0.000190729022999307397
0.000214770449477812099
0.000198105087942349273
0.000191682484028462939
0.000192779388873629118
0.000186845839807631196
0.000186929845856897774
0.000172086228732146402
0.000164665885116838557
0.000216658008378466186
0.000245269489334979274
0.000239646708723494431
0.000221897001194909955
0.00020601458730763503
0.000199062171166891925
0.000195993926430119487
0.000192648384282438406
0.000188026791156351415
0.000185444523620857118
0.000182688932092244855
0.000178885257946700504
0.000174085617242685496
0.000162159976740422094
0.000138173316362125089
0.000107324620109482146
6.81309148681313523e-05
2.91142652594025638e-05
8.47812542024976341e-06
9.26062379321312294e-06
0.000314973573527869424
0.000283196289318590505
0.000209541547849619692
0.000109364376262527773
0.000108763411940035714
0.000161498856999308613
0.000264088889171551272
0.000354370401006728105
0.000459020819600995016
0.000426574546895148077
0.000293880844983323436
0.000225722861232255574
0.000222472206218206743
0.000227790574155308678
0.00024038240269064792
0.000254941070242915716
0.000207491911060638196
0.000258195997541119766
0.000262661894999457221
0.000207288680929667711
0.000198268394871151815
0.000221926827168920845
0.000233160207230627918
0.000253984039089963593
0.000281044670458006538
0.000288255378513006593
0.000291925595206675187
0.000289502199960809704
0.000272352222896167083
0.000258332957219456049
0.000239405067392704009
0.000204719338460875581
0.000161249587759753493
0.000108548522252489754
6.93031542843195429e-05
3.40140433132439927e-05
1.04362387713421736e-05
8.50254204026717065e-06
0.000308402124750883824
0.000419489709979336709
0.000279617728680796708
9.81745133486467255e-05
0.000125947747895570594
0.000219333638036687363
0.000446227593107248748
0.000771844873087835256
0.00112255141323275363
0.00125986486907934828
0.0010710204049840643
0.000721296153278369232
0.0003770465506953459
0.000248085758557851238
0.000243511695362299039
0.000303496963489134283
0.00025228848750305673
0.000212441340897755182
0.000169977723083580969
0.000146474183501961165
0.000157925740092712107
0.00019781562110518191
0.000245702907113705101
0.000328661724092559732
0.000428355846238474315
0.000453499037467834177
0.000456118087227149426
0.000457642753456327027
0.00043081106349820102
0.000422793702949639011
0.000395531129824438056
0.000353699628056742426
0.000234608294844700928
0.000128564297844093259
7.07113055608264051e-05
3.48726674443811232e-05
1.5369073713842496e-05
8.25907030268274275e-06
0.000310885248945693923
0.000447367443051033362
0.000406536216615286511
9.20620000904270695e-05
0.000156607551326480414
0.000322353948562339727
0.000770163257282831899
0.00168056047232171906
0.00215046607864920322
0.00170052180510707408
0.00140493342160475125
0.00125837716326918547
0.00103420439651347217
0.000621444878214493066
0.000283329083976919627
0.000209750278968006982
0.000198187281531483542
0.000171388807411204864
0.000144971883699015878
0.000140213876550872367
0.000180740721145721813
0.000250829537676262285
0.000381828115259685819
0.000597864176344928494
0.000956028944736045838
0.00110739973661896939
0.000993595909258524054
0.000921009312610083955
0.000684579848817178159
0.000543247226765115432
0.000478365602341586404
0.000489472387438773466
0.00035753022684314106
0.000139030797624152411
5.99826136860254073e-05
3.03414084236314896e-05
1.43953708472718926e-05
8.13210840225252447e-06
0.000312703895938282335
0.000534283477893060391
0.000425638306079742382
8.9840061051481003e-05
0.000240085578155841903
0.000546122781449116476
0.00150052320618809234
0.00360769155774116846
0.00259620462835089168
0.00166048218221091326
0.00124778372453225226
0.000899353958434918866
0.000536707439007524868
0.000339507263716185405
0.000226453449880506459
0.000198090805867917911
0.000190837788394784206
0.000153575249926465976
0.000145521446772572732
0.000183973285345422294
0.000276346056047549644
0.000450418374074107908
0.00082711155694617977
0.00155578384986884114
0.00232399172250948504
0.00236205447659913314
0.00165041671449512564
0.00127799828029300454
0.000888480257242788029
0.000605223005724884544
0.000516373019365726237
0.000513627892758457771
0.000410950201659488032
0.000128862393246836313
3.10732756718230211e-05
2.19356597553786073e-05
1.05128594856522375e-05
8.04267428468854163e-06
0.000312320438005024006
0.00068833815596586038
0.000182499298212764597
8.94609489039561165e-05
0.000308174558294670457
0.000858641190389183959
0.00308479304231255034
0.00450812394523713873
0.00262665315586210583
0.00153213709059837671
0.00109227730834084743
0.000831129749196912954
0.000535228000017855948
0.000381015611336204163
0.000290045929441503964
0.000220740147101899784
0.000167130473181984786
0.000167150015812349447
0.000206392098460384687
0.000328019386736703728
0.00054290215630211215
0.000936605190665808197
0.00149274330721539347
0.00178526697644304944
0.00218155278820140065
0.00238647050325838193
0.00209925874378954309
0.0015055870608186759
0.00139599049750470838
0.00125077186687448856
0.000844959938281104558
0.00063288329795800906
0.000417629097065195544
0.000138685410147587433
2.61513947279730529e-05
1.76620972248244112e-05
8.84265269246202765e-06
8.21903029418230223e-06
0.000310826468469903923
0.000875630621295465559
0.000134131499296979962
9.58656683668545283e-05
0.000425763081042797266
0.00150010855429075045
0.00703740473710932988
0.00425574471124212303
0.00241853425144555791
0.00135715904092804864
0.000966963462719844583
0.000925521055707368518
0.000816137461220057029
0.00073641834767705183
0.000478017768036941135
0.000297144271068681552
0.000227806042125128141
0.000260431973932893142
0.000406544610827584045
0.000678734927634461931
0.00104641494678065546
0.00145050095395602222
0.00163220005594704137
0.000322759417318212963
0.00052076788563209435
0.00011871670662415137
0.000140669506520071198
0.000800639569734064305
0.00273600908429616225
0.00801896167017429953
0.00358730325906705082
0.00219789068287058482
0.00121286744276135911
0.00100142583917465513
0.000983926558699738584
0.000833459934111442646
0.000824906499624492744
0.000659539000331565831
0.000498605739509225938
0.000389359338860230766
0.000510325628709390922
0.000933625591819435682
0.00120050970412899859
0.00144896607872674072
0.00161264778653264634
0.000347477836411934674
0.000225962765036676386
0.000110291583935150225
0.000252418578622615717
0.00136049367321641984
0.00533168465682659545
0.00698647761079991114
0.00316108769259786137
0.00203535700175972497
0.00110286885786970985
0.00112768843583151168
0.000978089189043036345
0.000905087469172424276
0.000972024959325212845
0.000737091069941417615
0.00060331659489649774
0.000535625863638137536
0.000809857796241313967
0.00107476076033626304
0.00111544039814658502
0.00111711159277807603
0.00117835657228914465
0.000410599634114118084
0.000142894998533829153
0.000115339973862112617
0.000433544917361878635
0.00244055936653902105
0.00957926001708249257
0.0058706014973307491
0.00300248075370530224
0.00189154090451591522
0.0011938825125338841
0.00108155317391035364
0.000907551976290569369
0.000846917022599918989
0.000959002069772898645
0.000722815539023527118
0.0005462669429747855
0.000538743478924828671
0.00071917093772428406
0.000802691179311802077
0.000803820475597238687
0.000775212619226526667
0.000819314181703632957
0.00149763313357720871
0.00111119900659731145
0.00080256865801631291
0.000766682709329378955
0.000866452836477960226
0.000627581141904348726
0.000433359415222177411
0.000439203700743662413
0.000463156780991125065
0.00052558620446633772
0.000929556359319747569
0.00067871346382993524
0.000644325834953186623
0.00050860285491272951
0.000420931445611685557
0.000375544096042158338
0.000355817678708039177
0.000370868692893437993
0.000587328808106794831
0.000479220303929080832
0.000414665721847750832
0.000359693091521595925
5.62581930710068774e-05
2.39277878528193572e-05
1.47023984017287512e-05
1.14593576352003865e-05
1.04710804120510245e-05
9.91548362785706032e-06
9.5581262941172445e-06
9.31375366166721211e-06
9.11380502311937235e-06
8.89202525368893824e-06
8.66838470101978602e-06
8.44994166853372069e-06
8.25838515304919168e-06
8.12595212561086457e-06
8.02085557133500537e-06
7.93650613115866331e-06
7.87006536766625545e-06
7.80402300268381685e-06
7.74461290207314292e-06
7.69872367994991241e-06
7.66663971541138841e-06
7.64867883953271102e-06
7.63328571115460276e-06
7.6283736397368351e-06
7.62837880939977773e-06
7.62637387774244169e-06
7.61425174649324864e-06
7.58925304027211889e-06
7.5739349425796538e-06
7.58182107638309838e-06
7.60684598018790165e-06
7.70156496650563574e-06
7.78577238525422947e-06
8.0361239578269697e-06
8.80267788128537062e-06
1.10582209927985083e-05
1.75247062124632476e-05
2.79405135680643301e-05
0.000216015977479927984
0.000138232334568708987
7.03452735161388064e-05
2.72290564145412138e-05
2.52900813003576578e-05
2.48164845266427806e-05
2.5086018810626271e-05
2.516393473715453e-05
2.60305706134765673e-05
2.56884579629605078e-05
2.38556309384670685e-05
2.08270337507055205e-05
1.70129199380166216e-05
1.33826574440992697e-05
1.08916206038526754e-05
9.44025049131392072e-06
8.77444345776008734e-06
8.45016169767503049e-06
8.24805605991706713e-06
8.14425421599371506e-06
8.09287542325124728e-06
8.15294028798885467e-06
8.44252689319522002e-06
8.92415849835290362e-06
9.19600891076305392e-06
9.0732742386571747e-06
8.96343622734161838e-06
9.25290246338157744e-06
9.69972254282766246e-06
1.00531610944915284e-05
9.83284648684843688e-06
1.0122367692398158e-05
9.92944686771158056e-06
9.21820192059166212e-06
7.79031250305056015e-06
7.50045128986530115e-06
9.46042717758183698e-06
1.78642451352926193e-05
0.000237399110235610145
0.000165142542393673959
0.000114493328645661307
0.000116739725504526201
0.000109845575807337713
0.000129413782910485834
0.000145609098424998587
0.000153667273000649286
0.000169656642540596321
0.000181161734737535159
0.000180566850895630843
0.000181238448574374221
0.00018315242644980449
0.000188481812141016926
0.00020210332710052478
0.000187173613324239356
0.000123072192937913344
7.56115624082026149e-05
5.97075664504290797e-05
4.38618054855358544e-05
3.65997399579838834e-05
4.28595070481046047e-05
6.282156452498851e-05
0.000107947541090985021
0.000104987574210877119
0.000101359209670395957
8.77848349821717006e-05
0.000105230374602860769
0.000116444855145502124
0.000119320800103554539
0.000123075789380424602
0.000125809123457818649
0.000117199336128364224
6.494894786830376e-05
2.34864534984947232e-05
9.6518871560456723e-06
8.06995432135608548e-06
1.23718747489446581e-05
0.000235178489650824204
0.000214544682285028006
0.000149536033109480706
0.000100555910804748722
0.000101319424411983554
0.000147572729978679557
0.000181359206790352551
0.000205873890412382741
0.000252686799397060767
0.000268129495039122956
0.000233117770874170376
0.000200435118268729094
0.000199436175107100714
0.000210362191964330028
0.000229081429564032414
0.00023833651344132406
0.000213508814489510724
0.000172994836885134181
0.000188815598962582414
0.000238831818996407887
0.000228555828924184741
0.000194614385191969565
0.00017434829971458001
0.000162937833067957027
0.000151546927716269679
0.000148260842267763368
0.00014596306183281175
0.000144112776520882377
0.000138870712143163291
0.000132195086371670304
0.000124561666236671899
0.000110833694611317765
9.15150724364498442e-05
6.89707987109787696e-05
4.3952514391736673e-05
1.60975290730201309e-05
8.25243934585377519e-06
1.01709078215716589e-05
0.000238694371942694839
0.000239952790725222911
0.000185516959226370037
9.41063191708358348e-05
9.24036661810185282e-05
0.000142381699164153105
0.000218396833547789725
0.000306895960054213166
0.00045613733734637665
0.000539528675954869825
0.000375576632848486692
0.000265851021260612302
0.000245267081182476887
0.000247617476302951884
0.000263177058654550744
0.000325291265566985191
0.000290336305677324903
0.000245986340648341416
0.000284283254166113261
0.000219870044382347238
0.000194626051594576474
0.0001779660735210799
0.000173849402354474806
0.000190782259105302661
0.000225819675572847922
0.000241759246338935308
0.00023941522824937262
0.000235297405954106004
0.000213243435349811517
0.000194032616095516199
0.000172151299878689804
0.000140954375979466439
0.000104716446539691621
6.91771576225865513e-05
4.5025443316340238e-05
2.38325012262734935e-05
9.45652107942725605e-06
9.14282148941377758e-06
0.000274091091219017598
0.000304832981503307013
0.000288352000854679574
8.96164279658442448e-05
0.000100168983970786476
0.00018768360058527445
0.000376693025507860357
0.000666239879632335615
0.000952613030540922271
0.00101216675025776965
0.000950913064181253148
0.000750969987902451452
0.000500057144909330127
0.000442261450459351785
0.000628790163384709464
0.000443282230904362608
0.000240673922709804211
0.000184271357796500447
0.000140031649640159336
0.000118461309967439983
0.000122490336033862467
0.000157115476236843597
0.000181592793861614418
0.000236885004353869851
0.000316023010595839818
0.000332460525826548399
0.000354556552857334252
0.000367292295444886837
0.000342791571317169522
0.000322361741580269698
0.000299250394932061971
0.000225346774765095199
0.000136803621559023202
8.24672132551003954e-05
4.42785787516418244e-05
2.45314308418039679e-05
1.25039190244520041e-05
8.75238230880520565e-06
0.000264111034545625129
0.000333162219478376194
0.000318504195697978925
8.9349856984666839e-05
0.000125791379062983655
0.000299887621273794221
0.000683093396021072123
0.00134497976055771322
0.00147154843858311496
0.00119632575628262315
0.00122965466295361166
0.00111937017703674091
0.000662999215037168898
0.000425096809998530567
0.000269321359645464172
0.000183708777036573848
0.000142737730228966608
0.000118036291403350756
0.000100840603470924087
9.07702956676795757e-05
9.40312040133205955e-05
0.000138941442791814726
0.000207532732192319841
0.000326680221058750552
0.000548331177070693603
0.000738326787809184945
0.00079118183983539845
0.000814418642758869046
0.000679199152151467654
0.000566481525221379707
0.000515312113053449498
0.00040714683400745825
0.000212422906340294489
9.06795148057963711e-05
3.70762557528900053e-05
2.24911380378624095e-05
1.22888420847414873e-05
8.50617831715228465e-06
0.000261629227823386606
0.000405470984706856534
0.000492520865593005347
8.99265545411497138e-05
0.000171075854507531192
0.000460995852184955916
0.00123085353834730365
0.00247650260841339063
0.00162770161013447122
0.00105788457194285574
0.000827433878378326161
0.000592963456031645776
0.000427176473896015993
0.000291998931139539244
0.000197820318870309362
0.000139825055683320419
0.000112002259834634985
9.59922625878840524e-05
8.64680565115779958e-05
8.36957621627857008e-05
9.1928820634673176e-05
0.000171874470916893914
0.000327382085109355087
0.000658732665733158685
0.00144790846733039024
0.00220977198831919311
0.00210974114540381317
0.00189537682458083096
0.00126378777314188097
0.000932202588457713035
0.000696254579895850623
0.000630762861844460479
0.000361676952608467217
0.000119014919090972568
2.05123720277464043e-05
1.50678961182802949e-05
9.03518035661095196e-06
8.25897387568422075e-06
0.000259852746144404649
0.00047272476967701423
0.000372178800499061812
8.23545912589383934e-05
0.000269660937854754486
0.000757206651640306345
0.00229630574085151491
0.00322036668021118957
0.00157929010011276542
0.000909064295500741615
0.00072522799686875123
0.000616427524281371909
0.000490010796213901051
0.000289542780276550132
0.000182120745814621458