/*--------------------------------*- C++ -*----------------------------------*\
| =========                 |                                                 |
| \\      /  F ield         | OpenFOAM: The Open Source CFD Toolbox           |
|  \\    /   O peration     | Version:  2206                                  |
|   \\  /    A nd           | Website:  www.openfoam.com                      |
|    \\/     M anipulation  |                                                 |
\*---------------------------------------------------------------------------*/
FoamFile
{
    version     2.0;
    format      ascii;
    arch        "LSB;label=32;scalar=64";
    class       volVectorField;
    location    "0.239999999999999991";
    object      faceTraction;
}
// * * * * * * * * * * * * * * * * * * * * * * * * * * * * * * * * * * * * * //

dimensions      [1 -1 -2 0 0 0 0];

internalField   uniform (0 0 0);

boundaryField
{
    inlet
    {
        type            calculated;
        value           uniform (0 0 0);
    }
    outlet
    {
        type            calculated;
        value           nonuniform List<vector> 0();
    }
    top
    {
        type            calculated;
        value           uniform (0 0 0);
    }
    bottom
    {
        type            calculated;
        value           uniform (0 0 0);
    }
    left
    {
        type            calculated;
        value           uniform (0 0 0);
    }
    symmetry
    {
        type            symmetryPlane;
    }
    interface
    {
        type            calculated;
        value           nonuniform List<vector> 
181
(
(2722.38743883419875 -0.0384523011240622825 -0.0683673396943329376)
(2640.01885579483496 0.00441799792967000754 -0.0735005032051867652)
(2542.02371565513522 0.0136669790473654476 -0.0733802997637560822)
(2439.71551700911277 0.0181496139347366997 -0.0720205589001009783)
(2331.83905453950501 0.0232302568169410403 -0.0703825408596092245)
(2208.53849303781362 0.0292987982713535378 -0.068672383549932936)
(2067.5715805043078 0.0365436805351945573 -0.0669822839536909492)
(1899.89182933500024 0.0447998305265580876 -0.06633461212510397)
(1694.45594840930198 0.062728179245844215 -0.0740739724052646986)
(1456.70472452102058 0.07356977834375239 -0.0723883677489953886)
(1197.61963482368628 0.0691790726951864582 -0.0581969507828544799)
(947.249761834061928 0.0707982147437457854 -0.0519201909027261904)
(724.311773497272497 0.0876973013141300883 -0.0568983807635483063)
(524.895224608373837 0.0896473543026626851 -0.052036153100427307)
(354.410165254259255 0.0980409630887944389 -0.0512276455743915851)
(217.961442267590741 0.0913031597771419567 -0.0441747075165095718)
(3252.77984062689484 -0.0140151201796775045 -0.0410909834892934783)
(3157.17746565145717 0.00803376884293414105 -0.049444258899077817)
(3045.02381522915675 0.0150674321373183654 -0.0487712019753663226)
(2924.37541112523968 0.0211329822613073558 -0.047719813823197281)
(2795.16296113551016 0.0275554492402890309 -0.0466760192485372039)
(2646.743951433642 0.0341391901488565727 -0.0452593207926162977)
(2478.68119732182959 0.0425130716045546489 -0.0443441581379785191)
(2283.31290283494536 0.0509156179122747937 -0.0441528326788409725)
(2048.95616914179345 0.0671707218110913912 -0.0478594772357840079)
(1778.58794288631429 0.083208392943164261 -0.0498070463339768121)
(1475.64284907482443 0.0872693574786297666 -0.0449393725896081037)
(1178.23880340765436 0.0747323329150846594 -0.0336309808305921901)
(925.199039500323693 0.0715684244209010972 -0.0287515277870874462)
(693.898365421734638 0.0980060048655511523 -0.0362977562416588184)
(473.625313730696803 0.113273700249773013 -0.0388628598782128631)
(289.008611121688716 0.109725187643474248 -0.0356196995299621483)
(3522.22082115405647 -0.0151330958038070947 -0.0322954321265217711)
(3427.55174578470496 0.00851171987669240709 -0.036308402247357846)
(3316.95189375390601 0.0169313294673827421 -0.0369650216335607046)
(3192.27567504519175 0.0242620329336973375 -0.0370019640548032783)
(3055.08712794181565 0.0317310499385694209 -0.0367047878183982199)
(2902.25008935093456 0.0395857561480128448 -0.036645241764823526)
(2740.75946150863638 0.0527443579654523417 -0.0388333005005674151)
(2540.26291188110008 0.0678785988968135245 -0.0430930780560332752)
(2292.8367038693541 0.077567987391556889 -0.0415248766103041914)
(2010.31386778527894 0.0915261418452150283 -0.0421181527441677819)
(1692.68738539059382 0.0967905374978683952 -0.0386589365095817844)
(1369.51240693157274 0.0957640215503044318 -0.0338156140822958029)
(1077.6647141758508 0.0796666950945536384 -0.0251629536112578066)
(823.298633257554457 0.08523727620611668 -0.0248157681719067477)
(574.120343714894148 0.120486458962370674 -0.0330472058880024872)
(349.985633232510793 0.12374148063294016 -0.0326146866105728531)
(3644.7455346475117 -0.0123990726580147509 -0.018643199813781746)
(3549.48494188968607 0.00911860289152220845 -0.0243262631957068612)
(3437.834465853447 0.0177411167587788188 -0.0248735359486029449)
(3310.93501371897082 0.0257540084205205265 -0.024782196366106693)
(3172.02116525276051 0.0337287249275000089 -0.0246136614163715087)
(3026.40260505844617 0.0455198252784727239 -0.0259361989448371709)
(2865.02660428389436 0.0626152839771648984 -0.0290078930680210539)
(2656.07532088816652 0.0683521884795998819 -0.0272249196482924755)
(2405.14821817041411 0.0719382848709756717 -0.0246837360630522001)
(2119.94789738564987 0.0961979273972868448 -0.0286291779516093629)
(1799.47310248582835 0.102274047204693852 -0.0268610088126396244)
(1462.39076786670239 0.105152925371445105 -0.0246475997657679725)
(1148.55071404199134 0.0850099904722527305 -0.0179759393655705597)
(876.348133485849417 0.0851999318061908983 -0.016654792861560852)
(626.031017842225765 0.10615137423693026 -0.0195835572799046703)
(403.454196236800385 0.140256137409682957 -0.0250716056958970278)
(3718.71383057097864 -0.0110901814661163375 -0.0151902048611600241)
(3623.07204902355033 0.00930423465367692139 -0.0170896110442022957)
(3511.86637376835961 0.0180709086857985951 -0.0174020316630193322)
(3385.76420380667196 0.0263028464892400386 -0.0175740851943049364)
(3249.76594447859952 0.034809098565268197 -0.0176083517809955716)
(3107.85106921365059 0.0474810795548898379 -0.0187291656212838532)
(2948.03133645610205 0.0657394766713748219 -0.021275555666500922)
(2740.51368179683595 0.0713308556538375521 -0.0200924320595591635)
(2492.36181595671178 0.0730515721046898769 -0.0180317576625116244)
(2210.12581560782337 0.0952107565085391211 -0.0205068650962262171)
(1895.81546447384198 0.106936721112567801 -0.0202516494183206525)
(1549.94800676680234 0.111093326396739134 -0.0189981291707755975)
(1217.91086753651894 0.0905911841786876809 -0.0139230480558704146)
(936.074092780953038 0.0883505013563927882 -0.0124802943407308128)
(679.484517090313489 0.108756927779133816 -0.0143774178108152777)
(443.408732452963307 0.145514829385865518 -0.0185645879090101003)
(3758.68748884039587 -0.00911270579141498435 -0.00819013809419329164)
(3664.45013033547184 0.00933082295251020689 -0.0110593572755017574)
(3554.4617038653314 0.0181196602327094516 -0.0115515311850851628)
(3428.31089079764797 0.0265296181155311797 -0.0117149648153133841)
(3291.33585871911873 0.0354181136941595295 -0.011706910463915577)
(3148.10157074173867 0.0460323198428250341 -0.0116669947148142859)
(2985.71373790570715 0.0604434616438653191 -0.0124223442559728732)
(2792.66709344920446 0.0728116531306400583 -0.0125081436637252668)
(2557.89948814145555 0.0796040976408327466 -0.0119870723833218392)
(2269.19108218300107 0.0996902322300760174 -0.013291683583063086)
(1944.35097720854674 0.107715711932018315 -0.0129287314002608199)
(1591.09936774691755 0.127852066015717941 -0.0140036514264221586)
(1245.34625267654769 0.12307613647581904 -0.012190859542466936)
(955.397894545303984 0.0900791321440130438 -0.00812201959591702001)
(700.800033496504057 0.102702037412233479 -0.00857972708629600213)
(459.703643648524462 0.14717725006357027 -0.0118496226445913653)
(3781.9378535525957 -0.00875093553844576849 -0.00462107283359383409)
(3687.14068139531719 0.00945455998244000041 -0.00628447025776716385)
(3578.43900254154551 0.017958956137068393 -0.00652258860134264686)
(3453.61235002743524 0.0262675697642407203 -0.00670504377414471008)
(3317.0837330065965 0.0358343432535250944 -0.00677432745943121195)
(3169.4596263705721 0.049637257992674183 -0.00701270138055499169)
(3000.22617663164237 0.0655529019641973854 -0.00695974791101989544)
(2802.28811859853386 0.0707944556925243357 -0.00581322964276923503)
(2575.31070842122244 0.082098108966826247 -0.00542753400151665434)
(2311.2774947866792 0.0980166267085401388 -0.0057995592286099653)
(2000.32949868402989 0.106086748078868406 -0.00610255969147740617)
(1636.35657654486909 0.13074682422070133 -0.0074400030296436848)
(1267.01749673739937 0.134293063044987421 -0.0074544658402271877)
(963.0599937740933 0.0916688177615385125 -0.00477644063125290484)
(704.038847975407407 0.10235718887556941 -0.00494262733538669129)
(462.800208933335057 0.143734787091890359 -0.00663992521862354686)
(3791.44265529860286 -0.00822804024864076319 -0.00148778586113452126)
(3696.48829001785225 0.00950336390459968934 -0.00198661578683687664)
(3588.523868384862 0.017737566861044933 -0.0020664574264261746)
(3469.18113576915721 0.0261662592861711917 -0.00215224668481675757)
(3336.5570312150162 0.042487724014067571 -0.0025684350761298754)
(3184.07417477223726 0.0566785867090017215 -0.00248493464985792252)
(3004.97639198322486 0.0663757790633766193 -0.0019766664914469931)
(2799.76070574464757 0.0724461321980867518 -0.00147544156392648306)
(2566.21220344056246 0.0808435846291983007 -0.00113828088584309937)
(2300.13532554576295 0.0951226723223312226 -0.00105638016973717179)
(1994.94086616231425 0.104336380785588573 -0.00122498332925928435)
(1647.47727123853656 0.124961212376680814 -0.00169813117054693646)
(1292.57079002145042 0.113869573458260667 -0.00175559244906463145)
(975.175704114857012 0.0942296070219034582 -0.00147574166939339795)
(696.941553660416162 0.108520819944869396 -0.0015766127370511248)
(451.778507922934409 0.132939525336443959 -0.00183756575846069159)
(0.140042021239864978 0.0536102540260687613 -624.925002780069576)
(0.149231907375709461 0.00417872509725933199 -690.740398660363553)
(0.134012340839394617 0.000484288859714377957 -651.317975244645254)
(0.138224352522121535 0.00271548647707227624 -590.046160658272811)
(0.133682099522703768 0.00570520825560052059 -529.493929274693414)
(0.117761208085051167 0.00811639557171439131 -447.684279098055413)
(0.108729288927975357 0.0107154029601526785 -323.755714328761826)
(0.0559318992794148873 0.0102113963732457045 -191.71028606393125)
(0.0626930190343915478 0.0206370469247952673 -182.742201534443808)
(0.0400108752096449694 0.0188511232015188025 -17.7254845435969202)
(0.0432477998408866415 0.0325852638234432057 -7.64922612928359769)
(0.0273759174107488616 0.0292937301629243169 -4.69695081827993732)
(0.00941492690968070804 0.0139793691907080381 -7.06461515970875098)
(0.0078347196518582414 0.0131523459192614545 -11.1274737310236453)
(0.00558802491785403976 0.0119204858891565468 -5.74869676553956666)
(0.120937295829017438 0.0472652763179428614 -257.450322540409729)
(0.110237997270391477 -0.00707855834587432266 -278.161423593247321)
(0.0862880844540461073 -0.0202375888533592833 -227.98607548166197)
(0.0492785833395560924 -0.0116974913139258532 -168.525221662635289)
(0.0353704966710302326 -0.00474059295264272866 -126.28638443357957)
(0.025126696375146463 -0.00191603864612297165 -92.6684582653431903)
(0.00629896520525835297 -0.00282534869474099226 -62.2013068800655091)
(-0.000224450858292223569 -6.72673722501233634e-05 -34.0772543649567012)
(4.05779889594431342e-05 2.31555564707944937e-05 -7.39248428613398634)
(-0.000204013851462905811 -8.46118198683041135e-05 -5.45937259813637965)
(-0.000158816947393462582 -6.2269657174122083e-05 -4.80126253698861127)
(-0.000233744033443940031 -9.11565408847224336e-05 -4.45238835894640594)
(-0.000201782533220837751 -7.10415245371002915e-05 -4.43845085439144249)
(-0.000173105050680607176 -8.33573113903574774e-05 -4.49485275826070918)
(0.102192525735811196 0.0231052338663945596 212.964247099387933)
(0.0756365841863463478 -0.0159902206960594907 100.860744947148447)
(0.00789200635883663404 -0.00798676711299457776 22.8027808782352004)
(-0.000417457642419075115 -0.000542149511989732744 4.30731838159399416)
(-3.48453937365305512e-05 -7.17560977457824446e-06 -1.29817096047563285)
(-3.23888879154207496e-05 -3.20209333356209326e-07 -1.58086242686674883)
(-4.7025381897722516e-05 -1.92276829202938057e-05 -4.12857319658545041)
(-0.000176250017507594497 -1.53780171144665796e-05 -6.73231337994391854)
(-0.000233468613789492371 -4.22977309439577165e-06 -6.24534096541319972)
(-8.99835969440517208e-05 2.01401105083524327e-06 -6.30681366318129388)
(-9.20073580550765432e-05 -3.07055541351547323e-05 -5.00521689240005418)
(-0.000176816832390714701 -8.09225980061544105e-05 -4.42566068803623125)
(0.0877224553733169793 0.0113227117239742946 164.723364362577968)
(0.0430578532261655447 -0.0184098688457190289 48.7419396400328964)
(0.000795237156000641837 -0.000429740154966713739 -0.0861092207952892652)
(-3.22143994980990037e-05 -6.76418434605875882e-06 -1.91447234956930146)
(-6.16055112134693603e-05 3.94047038376996137e-05 -2.09548654925505451)
(-9.20180327916955866e-05 4.12992000701520201e-05 -2.41542453560186932)
(-0.000167766753753705928 5.77170446317101487e-05 -2.95456998470799093)
(-0.000200703820690999879 4.38289696753629691e-05 -3.6164938497632404)
(-0.000110425515642858233 1.75940808264117744e-05 -4.14249559118104926)
(-3.28930054431065622e-05 1.11786505692505354e-05 -4.36447823869920271)
(-6.91293419894410877e-05 3.59778237628652468e-07 -4.04804040255459263)
(-0.000132257908039628099 -1.06871488815429747e-05 -3.95623353196860883)
)
;
    }
    procBoundary0to1
    {
        type            processor;
        value           uniform (0 0 0);
    }
    procBoundary0to3
    {
        type            processor;
        value           uniform (0 0 0);
    }
}


// ************************************************************************* //
