/*--------------------------------*- C++ -*----------------------------------*\
| =========                 |                                                 |
| \\      /  F ield         | OpenFOAM: The Open Source CFD Toolbox           |
|  \\    /   O peration     | Version:  2206                                  |
|   \\  /    A nd           | Website:  www.openfoam.com                      |
|    \\/     M anipulation  |                                                 |
\*---------------------------------------------------------------------------*/
FoamFile
{
    version     2.0;
    format      ascii;
    arch        "LSB;label=32;scalar=64";
    class       surfaceScalarField;
    location    "0.239999999999999991";
    object      phi;
}
// * * * * * * * * * * * * * * * * * * * * * * * * * * * * * * * * * * * * * //

dimensions      [0 3 -1 0 0 0 0];

oriented        oriented;

internalField   nonuniform List<scalar> 
20789
(
1.71507645927140933e-05
-1.72597589784504059e-05
-6.39482723402760953e-06
6.5038216206996784e-06
3.88860250151660725e-05
-2.18573988318791379e-05
-7.04976953973701054e-06
7.17181291092701416e-06
6.06025023666311572e-05
-2.18493565646854724e-05
-7.93194970470990606e-06
8.06476394051767299e-06
8.22490767100561722e-05
-2.17994315425831478e-05
-9.42211884861202677e-06
9.57494074422401989e-06
0.000103666743886160305
-2.16014467544176283e-05
-1.16123266373571952e-05
1.17960852592584497e-05
0.000125528460243119462
-2.2101416630048719e-05
-1.47289456031304152e-05
1.49686270167798801e-05
0.000148185980513971778
-2.29565323928704933e-05
-1.90369865452629544e-05
1.93359993662739597e-05
0.000171585560557175633
-2.38966473368908032e-05
-2.50585860086590613e-05
2.55556832635535088e-05
0.00019529007256436498
-2.42057370822045803e-05
-3.30343218133815215e-05
3.35355657738566551e-05
0.000218459865092509973
-2.45043637685805499e-05
-4.46343780295207725e-05
4.59689344488046144e-05
0.000240466157625725756
-2.2956902174784045e-05
-5.9547390179527113e-05
6.04979924175759747e-05
0.000256982496940224322
-2.08771638274116588e-05
-8.24292381028154518e-05
8.67900613778870808e-05
0.000269458574823426957
-1.58683019038708549e-05
-0.000110999332379686544
0.000114391524464854964
0.000261864532815907116
-1.54845780670379285e-05
-0.00015938869233963232
0.000182467297091102492
0.000230666580410722715
-5.2444859545591578e-06
-0.000211307664388191857
0.000247750114275033532
3.05092452715293461e-05
-0.000369361415496755508
0.000569518742255234684
1.78322631798458512e-05
-3.5204046714546555e-05
-6.37524806823253834e-06
6.48706216316900867e-06
3.87428854773279316e-05
-4.28895385700524422e-05
-6.93133662021118764e-06
7.05264535636319823e-06
5.89944778360542782e-05
-4.22316014676860909e-05
-7.7969889128476162e-06
7.9275156981350576e-06
7.91242676002419296e-05
-4.20765392315365131e-05
-9.248049368612978e-06
9.39529047093002949e-06
9.99578720172157251e-05
-4.26114450471341916e-05
-1.14097953380143812e-05
1.15861378853799045e-05
0.000121533207982017693
-4.39019368675596514e-05
-1.44731220838000787e-05
1.46983098778027531e-05
0.000143850001294123364
-4.55780515143403361e-05
-1.87186320432508116e-05
1.9023429134967857e-05
0.000166905567796681514
-4.73770739539381582e-05
-2.45522152421229208e-05
2.49771301775188786e-05
0.000190334960225296151
-4.8278976044286783e-05
-3.25447901188431066e-05
3.31886136845596731e-05
0.000213467244450440583
-4.86135039475400535e-05
-4.36078141926300283e-05
4.45846350673599249e-05
0.000235721508120330224
-4.68959343405344438e-05
-5.88654528815651417e-05
6.05501903940134769e-05
0.000254071666422461134
-4.23797821613944924e-05
-8.05786387086303914e-05
8.37310142953694825e-05
0.000267525190108306007
-3.51263836320548229e-05
-0.000110896178879982987
0.000116700686107258048
0.000265331086112776846
-3.16338094331846295e-05
-0.000156336268455620827
0.000174679631443559047
0.000238949352358367573
-2.23313849932552494e-05
-0.000212603101378155393
0.000256071751043994596
8.08691731912006669e-05
-0.000394500602333898735
0.000583090090971873239
1.84546100702322706e-05
-5.37747399632044972e-05
-6.31106919860372685e-06
6.42699215423986593e-06
3.86099735268354019e-05
-6.31689328499227714e-05
-6.8818404383841619e-06
7.00570703927740024e-06
5.87151329449035696e-05
-6.24674917365968728e-05
-7.73246237575444258e-06
7.86309430526518837e-06
7.89138691656380165e-05
-6.24183418278125132e-05
-9.15476422186308816e-06
9.29776692349003707e-06
9.97386305052057163e-05
-6.36044821983296422e-05
-1.1282417582785226e-05
1.145064953130861e-05
0.0001213427486077962
-6.57212947810318358e-05
-1.42982974616858654e-05
1.45135428038579304e-05
0.000143750398950516663
-6.82775679733793714e-05
-1.84732477764015564e-05
1.87651723422081831e-05
0.000166946467147820708
-7.0988823737969239e-05
-2.42043117253104009e-05
2.46200308017674762e-05
0.000190599915335970196
-7.25484870758449999e-05
-3.20461581537350468e-05
3.26622046908581895e-05
0.000214217062761460605
-7.32035617153732002e-05
-4.28948107269630814e-05
4.38677026663023733e-05
0.00023680879113714237
-7.1084372052767188e-05
-5.78442805416374981e-05
5.94409549621750517e-05
0.000255561701970989164
-6.41764461938906631e-05
-7.92634030083032461e-05
8.23070864982085218e-05
0.000269283064275803474
-5.44982911629927154e-05
-0.000108982103726253601
0.000114632631746283104
0.000265809865154291729
-4.58016864985379385e-05
-0.000154144286415327212
0.000171785371675520855
0.000231484985220167068
-3.10310287505041965e-05
-0.000211335154833109707
0.000254359692725990186
0.000124048973988055575
-0.000392246617031231243
0.000580551870149554629
1.87937913502584659e-05
-7.26930220661342694e-05
-6.2338717402825483e-06
6.35821807487297977e-06
3.84179770311524429e-05
-8.29218018204351765e-05
-6.79921298284977387e-06
6.92774624562251809e-06
5.82992973527701587e-05
-8.24791131291184262e-05
-7.62478115178260694e-06
7.75499183314461372e-06
7.84448376246944145e-05
-8.26982953779120981e-05
-9.0091537195432196e-06
9.14350726010139775e-06
9.92148212375539967e-05
-8.45275472568249249e-05
-1.10889894991071524e-05
1.12420305777218478e-05
0.000120797391334430846
-8.75004503694946402e-05
-1.40384572467855058e-05
1.42350509235879241e-05
0.000143259334168869434
-9.10111669633151894e-05
-1.81165544132220107e-05
1.83882637723684636e-05
0.00016660215554900704
-9.47252829404503645e-05
-2.37018212613944842e-05
2.4095488670435367e-05
0.000190548660720481439
-9.70842577911222376e-05
-3.13357273269873108e-05
3.1924979680318648e-05
0.0002147647125189416
-9.83656561819181661e-05
-4.18741859946281388e-05
4.28202114211779144e-05
0.000237912734344405497
-9.57526452393897239e-05
-5.64127882362908692e-05
5.79329981930538625e-05
0.000257434366796083051
-8.66257222913529944e-05
-7.73553839787334601e-05
8.0282979482837504e-05
0.000271539353925120931
-7.41277508528645745e-05
-0.000106326901050249331
0.0001118513796890677
0.000267840117404209927
-5.92167699334877778e-05
-0.000150484021626034152
0.000167598335200797
0.000228650299170508328
-3.4154238801116209e-05
-0.000207782021333534925
0.000250095069407852929
0.000168457607794721755
-0.000386753802852849728
0.000570995509340873979
1.89052577447818564e-05
-9.1738783648168324e-05
-6.14500106053462058e-06
6.28536843061972237e-06
3.81772962593952142e-05
-0.000102330467628587347
-6.68971800801537003e-06
6.82620360108033409e-06
5.78227440091858062e-05
-0.000102253837845558664
-7.47938347057620293e-06
7.60857512599729973e-06
7.78654609736507313e-05
-0.000102860736982284703
-8.81678520791144412e-06
8.93645259952858203e-06
9.85536576338492628e-05
-0.000105344342493097617
-1.0836397210439278e-05
1.09649587514383311e-05
0.000120091260561248317
-0.000109205225304266816
-1.37019721545505315e-05
1.38691553907430625e-05
0.000142596920315433089
-0.0001137575166426684
-1.76577396264012191e-05
1.78984792084457627e-05
0.000166122544615421221
-0.000118609663495151401
-2.30587515958212332e-05
2.34175323353730171e-05
0.000190472218568440109
-0.000121993638416637002
-3.04216826956731651e-05
3.0981377591889444e-05
0.000215425865078418125
-0.000124224442960416375
-4.05583093090386957e-05
4.14634273246378189e-05
0.000239388233971729841
-0.000121161169927244341
-5.4571198750289721e-05
5.60173101328923989e-05
0.00026017100051441166
-0.000110199504626093441
-7.48562091928019321e-05
7.76472050325732055e-05
0.000275273719877964888
-9.46448565172282742e-05
-0.000102745125551170243
0.000108159534684331348
0.000271865927661049905
-7.20890174976452399e-05
-0.000145773520529915586
0.000162053549487594804
0.000228363414850230268
-3.24459154459646982e-05
-0.000202278223185446568
0.000244072432262328786
0.000219347356464737365
-0.000379909126643088971
0.000557382780390255385
1.88756320235398319e-05
-0.000110782601244177178
-6.0465746581902504e-06
6.21462995585124789e-06
3.78666667832933468e-05
-0.000121469162871588556
-6.55829904121550612e-06
6.7058248202042358e-06
5.72715981117132478e-05
-0.000121785628134060445
-7.29841078909195849e-06
7.42518850389712137e-06
7.71647353288539407e-05
-0.000122850469488363474
-8.57896110050148614e-06
8.6755014188284762e-06
9.77317788775325554e-05
-0.000126002483844644449
-1.05278338321776374e-05
1.06188984106024167e-05
0.000119190705639810109
-0.000130786593418868736
-1.32952432163576684e-05
1.34176990238909328e-05
0.000141718617390937406
-0.000136478299352691524
-1.71079938963796641e-05
1.73009114921754523e-05
0.000165443129204254102
-0.000142643381373194604
-2.22918596388597811e-05
2.2601086728596631e-05
0.000190281612239601779
-0.000147362173147346913
-2.93221754158190314e-05
2.98522155719340267e-05
0.000216125637788919993
-0.000150930272211537755
-3.89660311528018476e-05
3.98278053106144005e-05
0.000241248156019609157
-0.000147670151818510834
-5.23266849324475645e-05
5.37131076403487477e-05
0.000263870008286290958
-0.000135474598729688696
-7.17300600868463255e-05
7.43833098901171437e-05
0.000280693746747061042
-0.000116677627626542353
-9.83066427331558319e-05
0.000103515702389222564
0.000278166528454602065
-8.4509461084723313e-05
-0.000140019748850833166
0.000154967409700188945
0.000230421047263151368
-2.55359172895477915e-05
-0.000196164053599177316
0.000236999543405595964
0.000279827099053359118
-0.000372243962310526099
0.000542185219556078546
1.87432235329069468e-05
-0.000129737144909764169
-5.94165028045301806e-06
6.15284601913413608e-06
3.74747494888913807e-05
-0.000140360426364083109
-6.4121976390582223e-06
6.5718070452493584e-06
5.66384216909573829e-05
-0.000141072209876777043
-7.0836101173381707e-06
7.20644173394684797e-06
7.63413710576564498e-05
-0.000142615360361092491
-8.29738985310272212e-06
8.35927832800162281e-06
9.67397091745168098e-05
-0.00014643423570798262
-1.01689205133082594e-05
1.02023050071269141e-05
0.000118074914017249103
-0.000152174944937705323
-1.28289346331763978e-05
1.28820988047371509e-05
0.000140586813551606262
-0.000159110232861929188
-1.64863223302093962e-05
1.66064000439102396e-05
0.000164505129474583952
-0.000166809033081909928
-2.14266448716820663e-05
2.16739994130076714e-05
0.000189920696547141822
-0.000173291077438137261
-2.80598232606635253e-05
2.85731490692716893e-05
0.000216814277788908427
-0.000178658322771840149
-3.71094864710575694e-05
3.79439208173186206e-05
0.000243487962367327398
-0.000175706134059331427
-4.96691878025885591e-05
5.10314538805400382e-05
0.000268694634931095045
-0.000163204026055349492
-6.7944477252476632e-05
7.04672587900176286e-05
0.000288350638573943603
-0.000141087539526968864
-9.29630033894110095e-05
9.77169358627161911e-05
0.000285771407604030537
-9.5393793388479412e-05
-0.000133070737242037111
0.000146534325119977195
0.000233111062016089975
-1.19123059978513358e-05
-0.000190220098787747627
0.000229256803781801075
0.000352168916246665812
-0.000365402675098235475
0.000526171851980121517
1.85190064330687723e-05
-0.000148530151977673057
-5.83097615436903389e-06
6.10485839369443481e-06
3.69899646935357149e-05
-0.0001590010843847171
-6.25958670261497345e-06
6.42916471674179727e-06
5.59132797310129756e-05
-0.00016011515203873854
-6.83362500795969666e-06
6.95317673495437264e-06
7.53921628282763198e-05
-0.000162103228725089002
-7.974198366120925e-06
7.98313191766866254e-06
9.55683659542543441e-05
-0.000166551418655189236
-9.768757309099642e-06
9.70971154338070025e-06
0.000116719839640588155
-0.000173271867514130778
-1.23192311691930952e-05
1.22646998897627527e-05
0.000139152367429067259
-0.000181559455568180809
-1.58201665601509332e-05
1.58369020076385461e-05
0.000163252380817210436
-0.000191094928264885718
-2.04909364378967645e-05
2.06768359621605379e-05
0.000189315978957545927
-0.000199886816585857828
-2.66444250523370378e-05
2.71765568054311168e-05
0.0002173779874781797
-0.000207569099324395501
-3.49731104409466563e-05
3.58218430542687241e-05
0.000246100868037230384
-0.00020582098318492012
-4.65645119586194969e-05
4.79564598659063069e-05
0.000275115594684410749
-0.000194544411598205225
-6.34565200061654438e-05
6.57822091464135139e-05
0.000298910366343072952
-0.000168934930959384132
-8.64860897730554293e-05
9.05387325236503863e-05
0.000296467779749634997
-0.000104727690114525952
-0.000124796188573782473
0.00013657273157515967
0.000237559431440300024
9.87025876538374446e-06
-0.000182426664292341964
0.000219552397275970043
0.000441162956936173465
-0.00035911203338260053
0.00050767736847222647
1.81909454461650017e-05
-0.000167075396437775167
-5.71727839445232794e-06
6.07146533930569077e-06
3.63936965745102059e-05
-0.000177382976241204294
-6.1005297155471983e-06
6.27955507992965273e-06
5.50921418511796066e-05
-0.000178933149262476988
-6.54168054283599306e-06
6.66115891874707809e-06
7.43222689380087826e-05
-0.000181253222088641701
-7.6142255274243896e-06
7.53404073742933904e-06
9.42152960175744037e-05
-0.000186234432426898671
-9.341037398312204e-06
9.1310016007988302e-06
0.000115101493275398617
-0.000193944881248399651
-1.17869953440685377e-05
1.15738328854630354e-05
0.000137370959242392977
-0.000203715485465394674
-1.5140593657957595e-05
1.5027194468693292e-05
0.000161634309285803746
-0.000215510063201575567
-1.94960991422148042e-05
1.96479028340256425e-05
0.000188369608353354886
-0.000227241188570133021
-2.50479319574267811e-05
2.5667002130460874e-05
0.000217716807356370222
-0.000237848215250674358
-3.25076170221950551e-05
3.34395035150044672e-05
0.00024919795248421042
-0.000238760794682317073
-4.29863406176369788e-05
4.4444993231404278e-05
0.00028356323631189862
-0.000230876505733189813
-5.82118527348494908e-05
6.01786816581756031e-05
0.000312482970594673637
-0.000200793829519260085
-7.89306031860320109e-05
8.18697897986963446e-05
0.000310450633033288858
-0.000112510613584123565
-0.0001161104312857506
0.0001259257731144401
0.000243580606416280061
4.14016239144729886e-05
-0.000173721167829644956
0.000209059836580013914
0.000545619114417196863
-0.000353001203490663153
0.000492125717416751164
1.77405273723130045e-05
-0.000185256296730884103
-5.60244778747599583e-06
6.04271549100106149e-06
3.56733396393516455e-05
-0.000195505021920557633
-5.92491352654117354e-06
6.11403822494045813e-06
5.41891385615571721e-05
-0.000197563621203226221
-6.19930761795571244e-06
6.31390850690004785e-06
7.31517697350999912e-05
-0.000199975356475548538
-7.22818051313686573e-06
6.98763288998321806e-06
9.26860857555234234e-05
-0.000205322791214140508
-8.90278564489695509e-06
8.45680842582638867e-06
0.000113200985017995677
-0.000214034803834879103
-1.12546712088989804e-05
1.08297155479024488e-05
0.000135210621328556559
-0.00022547228272436318
-1.4468361066892474e-05
1.42155551054349785e-05
0.000159598895255746623
-0.000240086557309851999
-1.8411891310511075e-05
1.86001345983234721e-05
0.000186953135809758578
-0.000255407849429539107
-2.31995207968250169e-05
2.40119501149833399e-05
0.000217706410715618978
-0.000269697458989329999
-2.96764902552966778e-05
3.07724368403560936e-05
0.000252767866427706424
-0.00027532230177572777
-3.89760634775871537e-05
4.04761011639740654e-05
0.000293761022134649875
-0.000273143721650328034
-5.23168523074574854e-05
5.35909112035761346e-05
0.000327945410341011934
-0.000236311512997762577
-7.11999751325742368e-05
7.25332847050654634e-05
0.000325992834166308882
-0.000118636070080583312
-0.000107991411155757922
0.000116069495555055951
0.000248580352888124086
8.50065170001487388e-05
-0.000167037367020258078
0.000200844927989360123
0.00065990703941044772
-0.000347423194728576441
0.000481715553678573928
1.71698718571255383e-05
-0.000202948422626742273
-5.476027870463794e-06
5.99818426428192486e-06
3.48445789340140304e-05
-0.00021337142534697963
-5.7127646204081595e-06
5.90435944717609955e-06
5.32464385402882761e-05
-0.000216037232406156635
-5.80735861647351121e-06
5.87903956123097212e-06
7.19180797836805013e-05
-0.000218129434322831455
-6.83215984041393442e-06
6.31454582867611194e-06
9.09938219244014248e-05
-0.00022361805323323672
-8.47064752048284886e-06
7.69014941249948046e-06
0.000111007448700323238
-0.00023337432591857924
-1.07395125041577598e-05
1.00654274672520296e-05
0.000132646971277283038
-0.000246743254555956235
-1.37949399179535157e-05
1.34264188440424584e-05
0.000157052682727899903
-0.000264847782923072965
-1.71588093512293745e-05
1.75143545807287062e-05
0.000184859138208986681
-0.000284355184982135808
-2.10323584044358881e-05
2.2173262772602891e-05
0.000217101816404789455
-0.000303255491837253863
-2.65343495695097257e-05
2.78496897357539924e-05
0.000256430128482724659
-0.000316033326762419167
-3.46907684597280155e-05
3.60734624337929642e-05
0.000304813212805090034
-0.000321605112298946815
-4.61997246110548365e-05
4.62780123948526272e-05
0.000343935102853666142
-0.000274713752405015351
-6.39035033843723271e-05
6.31838599906546793e-05
0.000341283069055140951
-0.000121852743025186475
-0.000100699852825189394
0.000106568593194478591
0.000252042700507816911
0.00014050992844124132
-0.000161462323865840904
0.000195199335644983879
0.000780635611273444957
-0.000342619104836017316
0.000473933272428733005
1.65232497434963954e-05
-0.000220052352451938931
-5.32609038368445945e-06
5.90668120901683356e-06
3.39653803726410155e-05
-0.000231006239983833279
-5.42919390703182267e-06
5.62178427412687413e-06
5.23306123315107549e-05
-0.000234331652640947961
-5.38694649562473152e-06
5.31606605290971498e-06
7.06723647627941241e-05
-0.000235525431809417479
-6.44290958986026246e-06
5.49710471774023344e-06
8.91563204985869508e-05
-0.00024089879469984377
-8.05950105071312877e-06
6.85627045497018611e-06
0.000108516837068401142
-0.000251810174270834081
-1.02451532998233676e-05
9.32050221346015005e-06
0.000129640287373783338
-0.000267456620545347429
-1.3071885713105627e-05
1.26618285020406642e-05
0.00015381543959333766
-0.000289747182816043963
-1.56406290302247715e-05
1.63649184647793744e-05
0.000181763888115892583
-0.000313897395394578508
-1.85631737447574101e-05
2.01569748737932549e-05
0.00021544071991159034
-0.000338439485823134438
-2.32682723444735466e-05
2.47754239418432996e-05
0.000259242724969938271
-0.000360749995655047556
-3.04204037388821263e-05
3.13350408978733217e-05
0.000315067043110599113
-0.000375747317564942935
-4.03161765101216958e-05
3.86340362021011954e-05
0.000357463134422585668
-0.000314113137241229807
-5.69263975584664093e-05
5.39297037995218269e-05
0.000352383550190061537
-0.000119835050243290316
-9.39963560925398129e-05
9.70582892679411888e-05
0.000253536732880046153
0.000206160140714697589
-0.000157329487636715103
0.000190526132769841723
0.000906265760901156709
-0.000338827381256840484
0.000466733956962052886
1.58893628308928192e-05
-0.000236534173125960774
-5.14122468976713158e-06
5.73360238565718842e-06
3.31277142608070108e-05
-0.000248452846799059176
-5.03217110424104278e-06
5.24034138439964944e-06
5.15120718715408071e-05
-0.000252341846012112798
-4.96266787350127385e-06
4.5884376827397309e-06
6.9462165398250929e-05
-0.000251946919088615181
-6.07894247965078132e-06
4.55028797718802626e-06
8.71849970655291773e-05
-0.000256941519603107833
-7.68674618383606467e-06
6.00662466476164262e-06
0.000105721260757284729
-0.000269226909652845955
-9.75429282762206636e-06
8.63477830131627602e-06
0.000126106052377355913
-0.00028753211872144794
-1.22208952321996828e-05
1.19116274626783915e-05
0.000149630769521579557
-0.000314627816516966827
-1.38020909887359034e-05
1.5158060665728188e-05
0.000177303736191984835
-0.000343658758039739102
-1.59380330578278261e-05
1.80264785829993885e-05
0.000212054767302326724
-0.000374728665334538827
-2.01512190474712566e-05
2.16893547519827015e-05
0.000259737871123481032
-0.000408348670834343967
-2.64937306584087444e-05
2.64092675456325812e-05
0.000322068529475958527
-0.000434201152278274407
-3.48440969261441065e-05
3.09672433233332129e-05
0.000365806587030258592
-0.000352009214425095976
-5.00292221264940696e-05
4.41872414067320633e-05
0.000355066225765816922
-0.000108289058071090708
-8.72239665370500093e-05
8.64183358215082003e-05
0.000246643088310974205
0.00028117838755382994
-0.000152941704216678892
0.000186346552076896129
0.00102410006199485002
-0.000335454195870737331
0.000464262937692655952
1.53988495879069981e-05
-0.000252440101743754794
-4.90104218590291107e-06
5.40805065372616598e-06
3.24260255301128859e-05
-0.000265711507256949462
-4.47760056647480417e-06
4.70900905076223451e-06
5.0829854146706459e-05
-0.000269827785839046712
-4.59838826604816599e-06
3.6804374895955551e-06
6.82770442756744188e-05
-0.000267175429649852997
-5.76510943195308156e-06
3.54638477486266418e-06
8.50508048702696833e-05
-0.000271574412488727432
-7.3696046673611899e-06
5.2287239299988131e-06
0.000102576834093778057
-0.000285570974011483899
-9.22811082092731523e-06
8.04615600879715945e-06
0.000121881326906489625
-0.00030683751160719559
-1.11609195182162687e-05
1.1161844969210361e-05
0.000144236907544687275
-0.000339255884046680699
-1.16685827958655465e-05
1.39411322027296333e-05
0.000171199643513640594
-0.000373079903357639354
-1.34023620065539107e-05
1.58608234109300234e-05
0.000206181539181583926
-0.000410963502754494207
-1.7434673522709958e-05
1.86875951533734485e-05
0.000256317700922947984
-0.000456799363945244684
-2.30897204250971166e-05
2.14042145247009246e-05
0.000322764104362376287
-0.000494428111317795141
-2.9589089357785366e-05
2.33696250969374921e-05
0.000365499807187862264
-0.000384415903956950022
-4.31488264342540397e-05
3.28198281368981531e-05
0.000337183683094108852
-7.26792204459607207e-05
-8.11858281344045058e-05
7.38921397475912015e-05
0.000229382674987360419
0.000364540498043073962
-0.000148185369919779357
0.000172624371821466756
0.00113172218099635391
-0.00033092702374578069
0.0004526875710765855
1.51810509066334542e-05
-0.000267882582378993223
-4.49875668510216861e-06
4.76012560931845856e-06
3.19050376092184877e-05
-0.000282697348504730005
-3.75931310676419869e-06
4.02110122976209718e-06
5.02264884298903066e-05
-0.000286396939795617914
-4.38145567744153577e-06
2.62910243151911725e-06
6.69601768301056891e-05
-0.000281019860990793446
-5.52233365729918989e-06
2.63303657210658229e-06
8.26240217729279163e-05
-0.000284775102109710468
-7.10762128474351372e-06
4.64445485754981438e-06
9.89302760551944268e-05
-0.000300821849506437578
-8.61903570967494446e-06
7.56366322081906571e-06
0.000116683823062676737
-0.000325115783717435573
-9.85248134088924883e-06
1.03772323759231615e-05
0.000137378218659567569
-0.000363367043792123051
-9.37611125316560167e-06
1.2792942664359007e-05
0.000163176714744563676
-0.000401364629793102301
-1.12261212011996593e-05
1.37123970324156251e-05
0.000196977151680295746
-0.000445311597790063428
-1.52242104588185992e-05
1.57718406943669134e-05
0.000247763622699241203
-0.00050390266806435251
-2.00220973435112584e-05
1.63389011353270893e-05
0.000314617955730995321
-0.000553271343986301827
-2.40375722538897591e-05
1.60264553000161087e-05
0.000349337092450238294
-0.000403995579438860808
-3.6240352591224994e-05
2.11009186198849171e-05
0.000301740602401221673
-1.26102441902308914e-05
-7.82303114909794144e-05
6.57578216798130987e-05
0.000208299644550449749
0.000440914720024814986
-0.000140331540684555852
0.000157398269660879184
0.00122784672425322195
-0.000324708609139674189
0.000436883695137384393
1.52164003679475807e-05
-3.89411867300259615e-06
3.76570218710219346e-06
-0.000282970617377591713
3.14403832891500904e-05
-2.99644805273712115e-06
3.21057693641768931e-06
-0.000299135513294163482
4.93772471657007601e-05
-4.27656113467640292e-06
1.5771586946116967e-06
-0.000301634447375384248
6.51019693888995682e-05
-5.31705917462717349e-06
1.97729930484133424e-06
-0.000293404854024320648
7.95327452112956092e-05
-6.87902736378530538e-06
4.29238594876389331e-06
-0.000296619244338189086
9.43495127223192734e-05
-7.85078581250548053e-06
7.09360048339361314e-06
-0.000314881429409016303
0.000110093428198600754
-8.35146939646437898e-06
9.49791475782912858e-06
-0.000342006117942179248
0.00012874778537731187
-7.2412850308875183e-06
1.11709954067821044e-05
-0.000385951046009990677
0.000152773561630348032
-9.56673812810349605e-06
1.16306476059146904e-05
-0.000427454289239827799
0.000183476323085116511
-1.33133950188521022e-05
1.2880450021295255e-05
-0.000475581444802478472
0.000232560156610324978
-1.66515643104068582e-05
1.14393282172149965e-05
-0.000547774271922714818
0.000291610432492936248
-1.76998327294957963e-05
9.82489058271715027e-06
-0.000604446702035654239
0.00030327287928462259
-3.01373120346780233e-05
1.0960632878926603e-05
-0.000396481309821442441
0.000255698397797045199
-8.2547447917451645e-05
6.41020943309353601e-05
5.34096773625930207e-05
0.000180219455492271088
-0.000143400564836238101
0.000152496159668403809
-0.000318233863866608253
0.000420630333889578816
1.68277395881176434e-05
-1.7190067523323077e-05
-6.03261881675708495e-06
3.81761425059038619e-05
-2.17388503038173243e-05
-6.65946812614156561e-06
5.94081840086477602e-05
-2.16722940242221093e-05
-7.49178460685215523e-06
8.04384372433414053e-05
-2.15590470160005676e-05
-8.89337460189231441e-06
0.000101086212278199061
-2.13108010178424631e-05
-1.09493385160412665e-05
0.000121945791188982696
-2.17256356781309522e-05
-1.38629043035562541e-05
0.000143243773783671832
-2.24452445812281302e-05
-1.78896939571727769e-05
0.000164776622589208428
-2.31615809529994326e-05
-2.34298162060468098e-05
0.000185795356162391076
-2.31943781233453198e-05
-3.08586891635362646e-05
0.00020525477807406748
-2.29129260803373277e-05
-4.11809040889258573e-05
0.000221491422833575754
-2.09451613646811219e-05
-5.48388883652391109e-05
0.000230603885697650056
-1.76681231209214214e-05
-7.3873618820036665e-05
0.00023089192203974815
-1.2551878802860815e-05
-9.87355299838158624e-05
0.000215573549235403703
-9.21452185475476428e-06
-0.000134855791770856394
0.000177476905646814466
1.34414514663185508e-06
-0.00017455516995780877
4.5358768858393986e-05
-0.000237243240960742155
1.75043410067450995e-05
-3.50586075739747015e-05
-6.01123655145796389e-06
3.80259767767184104e-05
-4.264489842162098e-05
-6.5470900655062532e-06
5.7817542071037863e-05
-4.18951512672645135e-05
-7.36579851442899187e-06
7.73838985233023528e-05
-4.16419528360273541e-05
-8.73157763309709035e-06
9.74908610080044261e-05
-4.20675156027259763e-05
-1.07601101943984418e-05
0.000118112049596684896
-4.31949535318442292e-05
-1.36250065510481705e-05
0.000139144009705408116
-4.46180817399788657e-05
-1.75777113051763278e-05
0.000160445316496377744
-4.60380711517802433e-05
-2.29770174811332745e-05
0.000181389694474282369
-4.63706737472955149e-05
-3.03129171473496065e-05
0.000201073027886838418
-4.58762730896571628e-05
-4.03278354901253686e-05
0.000218252716944922995
-4.31202380775996884e-05
-5.38701045195957753e-05
0.000229237787419214983
-3.6806050623915934e-05
-7.24258569236224052e-05
0.000231744976684842197
-2.84898574944736455e-05
-9.74654214282237417e-05
0.000218855627501398368
-2.19531075570637411e-05
-0.000130708348079807459
0.000184934306601809115
-3.42147738469717407e-06
-0.000173916206810584154
0.000102165295892815494
-0.000266372801377672301
1.81240917290527267e-05
-5.35479537463631232e-05
-5.94596872727378399e-06
3.79042225793005326e-05
-6.28092396312431402e-05
-6.49776753778251121e-06
5.75565069321070052e-05
-6.19742914289936081e-05
-7.30569120668073652e-06
7.7195611699629665e-05
-6.17898266406594754e-05
-8.64606265236257811e-06
9.73038253276889496e-05
-6.28158629986771326e-05
-1.0642341454231957e-05
0.000117968245043427301
-6.46966362460848484e-05
-1.34610418473076748e-05
0.000139113702692698443
-6.68923667502284083e-05
-1.73443805763365264e-05
0.000160585392389671572
-6.90695487298612174e-05
-2.26445135535953762e-05
0.000181806389728479022
-6.97912022709580088e-05
-2.98466607573033664e-05
0.000202011755614497337
-6.93048915759544892e-05
-3.96715861042296706e-05
0.000219570115308962641
-6.55443360668313268e-05
-5.29785877482839412e-05
0.000231043376204009842
-5.6227266379572577e-05
-7.13155051382888001e-05
0.000233900121216301042
-4.4513070659621504e-05
-9.58156442365936138e-05
0.000219567315428119381
-3.22791511076655924e-05
-0.000129485453995178837
0.000179887700265996551
-3.57108833125442807e-06
-0.000171505957613895019
0.000154598868878499029
-0.000264792465476042769
1.84671011034820262e-05
-7.23860623866250623e-05
-5.86300512681255085e-06
3.77307176628163739e-05
-8.24580148606498088e-05
-6.41418062703766635e-06
5.71676938823064407e-05
-8.18306679925127792e-05
-7.2054596584820929e-06
7.67618469563612922e-05
-8.18802565044464219e-05
-8.51294198619809718e-06
9.68303488061746239e-05
-8.3509428651262993e-05
-1.04639792604282106e-05
0.000117496098742928887
-8.61831957754970895e-05
-1.32176502616441241e-05
0.000138731613990669217
-8.92416738093479932e-05
-1.70027240138678213e-05
0.000160402161763103346
-9.22807737136366476e-05
-2.21611351646104951e-05
0.000181991366527948074
-9.35466081159492136e-05
-2.91695545614136071e-05
0.000202875006062138569
-9.33433244869621791e-05
-3.87194258239104816e-05
0.000221089534092403981
-8.84784337406400187e-05
-5.16932731692268776e-05
0.000233434590418640249
-7.62910344855333307e-05
-6.96367089390419338e-05
0.000236982935566536028
-6.08842522193547514e-05
-9.35040596494130584e-05
0.000222117148583397025
-4.13365797427871752e-05
-0.000126560821269931762
0.000179054130015310011
2.54777761255125675e-07