/*--------------------------------*- C++ -*----------------------------------*\
| =========                 |                                                 |
| \\      /  F ield         | OpenFOAM: The Open Source CFD Toolbox           |
|  \\    /   O peration     | Version:  2206                                  |
|   \\  /    A nd           | Website:  www.openfoam.com                      |
|    \\/     M anipulation  |                                                 |
\*---------------------------------------------------------------------------*/
FoamFile
{
    version     2.0;
    format      ascii;
    arch        "LSB;label=32;scalar=64";
    class       surfaceScalarField;
    location    "0.450000000000000178";
    object      alphaPhi0.water;
}
// * * * * * * * * * * * * * * * * * * * * * * * * * * * * * * * * * * * * * //

dimensions      [0 3 -1 0 0 0 0];

oriented        oriented;

internalField   nonuniform List<scalar> 
20536
(
9.34398975464566022e-05
-1.65155387749962733e-05
-0.000115049472965874286
5.9657927858243778e-05
0.000117309208748777661
-0.000487978134753666039
0.00055517756428739894
0.000190110891537585491
1.17124177529775937e-05
-2.38230509224538236e-05
-3.3064829044414624e-06
2.24542424760432254e-06
-4.56923308516218922e-05
-0.000311837669886479651
0.000316329779049607878
0.00019024476571340157
4.96855702525066254e-09
-9.35586718424584617e-08
-3.67797809826750417e-08
-5.3374121248615222e-08
-1.41746290039766421e-07
-2.42532020973983238e-08
-8.44144327358174089e-07
1.36379610558920896e-06
-4.86768490686705944e-06
2.49052323952300498e-06
-1.84045914697281017e-06
1.96339223268835689e-06
-8.51133869687031102e-06
-6.64033929094469012e-07
-8.50532072793050722e-06
8.42625532827435043e-06
-6.22143165271969609e-05
-6.73647057537798266e-05
6.12158418061540697e-05
0.000121843311389251656
3.58182813754428247e-08
-3.92260740672602927e-08
4.52137446911040763e-08
-1.02945065279035176e-07
2.3616860162290395e-08
-2.02618873330389554e-08
-4.42972208508588232e-08
8.1834867946978744e-08
1.10770545910536222e-06
-8.59972691800926467e-08
1.08434622706896173e-07
5.60309768020867634e-07
6.22716984797235323e-07
-1.93699890275520864e-08
-2.16752979276409627e-08
5.80573996231142884e-08
-6.17664312532242216e-07
-3.57759347171898358e-07
8.80000051747556251e-07
-6.14832393901881136e-05
2.61458788752395899e-08
-7.07710514975431648e-09
2.99026068440427819e-08
-5.81535768039600344e-08
3.677614534559307e-08
-9.39892364656011314e-09
2.59685362726839834e-08
-6.21341950133052051e-08
2.99046658715487322e-08
-1.38097969584000885e-08
2.01460313981072534e-09
-3.07019540899260646e-08
2.01901775037586188e-08
-5.70404747956906445e-09
-6.71073771820650876e-09
5.74730603840815917e-10
-2.63788484710384866e-09
-1.38510674651340784e-06
2.57461997915004981e-07
5.42220390437569206e-07
5.83073095583522288e-09
-1.6807900443840189e-09
3.71022698974334359e-09
-1.47476322917570254e-08
1.10896932265939661e-08
-2.16075943681610022e-09
3.66080391811084449e-09
-1.71281857116386439e-08
6.42422156461648868e-09
-1.67318318080440286e-09
1.09272148746501128e-09
-7.92660858977598782e-09
4.7060857239415063e-09
-1.18575062807966989e-09
-5.74522058052087546e-10
4.69176578679228404e-10
-1.43103836714921759e-09
-4.88463246373463497e-09
3.14645273393342413e-09
8.27940915917154184e-09
1.52796472752745121e-09
-9.51845664930582072e-11
6.8457788924624525e-10
-3.55014535836315784e-09
1.88269866827405063e-09
-1.19235618413098868e-10
3.65584492356434376e-10
-2.65646997199792873e-09
1.30298922492031958e-09
-1.06187282057978671e-10
2.57476968731864054e-10
-9.38268772058312818e-10
2.33729976556029148e-09
-7.10090036957977483e-10
1.90869812872754391e-10
-4.32242301710207195e-10
-1.53296863205775387e-09
-4.02261615177740276e-11
-1.04097899783507555e-09
5.03830235736534913e-09
3.27960206260467569e-11
-1.23296423809158816e-11
1.60165293555885371e-11
-1.06435271536191036e-10
6.23406981216184691e-11
-1.89923114678486499e-11
1.78003778057993351e-11
-7.44362506384288119e-11
1.5899566418094157e-10
-3.25827461682760218e-11
3.51663394739174668e-11
-7.09790566093015441e-11
1.85791232429894682e-09
-9.08049116835409006e-10
3.37351731814287117e-10
-2.43384851944965735e-10
-2.3396298783507706e-09
2.78077432860872663e-10
-2.41341463258356308e-10
5.41574746514288699e-09
5.01808892790877523e-12
-2.03200131919944865e-12
1.92832009258149496e-12
-4.10458190654160253e-13
2.56577918570880963e-11
-6.5869817003645387e-12
4.25127843693456787e-12
-2.41450226338484693e-12
1.70931731423680458e-10
-7.73436469059352113e-11
1.14725612616555601e-11
-5.07326756439917807e-11
2.44588363375171207e-09
-3.90225254868824316e-10
2.19864675649593202e-10
-2.53255838952872517e-10
-5.89329647431183848e-10
2.32639638262345341e-10
-1.8844387970788966e-10
4.08084529781423952e-09
1.81871591512452757e-12
-4.8129502364271691e-13
4.01045190703338753e-13
-1.70184826261937328e-13
2.22717697412399408e-11
-3.61500898982481634e-12
1.55900520463306173e-12
-3.88654322059165842e-12
1.49583338972504165e-10
-2.62830685477786398e-11
1.60852851847900792e-11
-2.49628196873787969e-11
2.7022029116533357e-10
-3.47233689113272436e-11
2.57897251950512388e-11
-5.77956098273726883e-11
-2.53285883166168429e-10
3.87400670941172499e-11
-1.9918196815146202e-10
5.42766747675186116e-10
3.51123211880054646e-13
-1.2947356804268605e-13
3.16251394908025897e-14
-1.50470164389893137e-13
2.50964034342784687e-12
-6.28062427208332359e-13
4.40269445210072769e-13
-6.81413667091560345e-13
7.81072104535886514e-12
-5.16196977930818982e-13
1.1482639278693874e-12
-1.41933299682012717e-12
2.30253992810530634e-11
-8.25811590540069333e-12
3.45114584817461425e-12
-1.3961619831094951e-11
-9.60202642425982419e-10
3.57834268053260016e-11
-3.10915951503472779e-11
5.95883166204619352e-10
5.01398226728758747e-14
-5.04632363132371852e-15
1.41552009769194689e-14
-9.04364635162569245e-15
1.15437576328770031e-13
-2.25500316618339902e-15
3.34400337392524668e-14
-2.78026940330490656e-15
3.22016330299638015e-13
-2.3059967643690447e-13
5.7609061876949259e-14
-1.61427074380425442e-13
4.48803714947752516e-11
-8.24176915463701845e-12
1.79310034844659369e-12
-2.72609105022124814e-12
-2.77032176093934733e-12
1.98270930532394546e-10
-7.98360827513292675e-11
5.6003053146434808e-10
-2.93294658578107337e-21
3.10626287853725996e-22
-7.79586097500042119e-21
2.19132019453717821e-16
-1.9092674444273759e-19
-2.4774748070054188e-17
9.06413491080121006e-16
-4.66116758323302177e-17
3.69675793049664811e-16
-2.20635027118119861e-16
8.85800615209412007e-16
-4.79318822326920349e-16
7.79499235458867308e-17
-1.2573870749593311e-15
2.36967962791958591e-13
-3.03382114398581779e-15
3.69074617253325483e-14
-1.08267015807568303e-14
1.76173740518832503e-12
-7.3959339015196048e-16
9.02403576039943256e-13
-2.89148985145853222e-13
-3.46290306901933298e-17
1.24660388167784405e-13
-1.40394270618065751e-12
2.70787354158575188e-13
-5.29146774392302664e-23
6.05559595821734107e-23
1.87261493833760012e-23
2.2504253581117703e-20
3.0437778880594774e-24
-1.2243534737960872e-22
8.58542418231744753e-18
1.25250739604618751e-25
1.8345658362646779e-18
-1.64872253487867231e-18
8.81209260595994433e-17
3.70719856400539045e-27
2.44524195665547893e-17
-1.19406512754937098e-17
3.95048508585979353e-16
-4.61515354185742614e-20
1.68457991212098879e-16
-3.69406274827267505e-17
5.71271584335426642e-17
2.58037024739820326e-22
2.51459958282863238e-17
-4.26818293869261779e-16
1.91704607902242187e-18
3.94275650588526903e-18
-5.79316305248446924e-17
7.45699550091811256e-17
-6.00360352673397082e-24
1.99531582051725218e-23
4.53460065754670645e-25
-3.40898044418519271e-25
3.74047241498813055e-25
1.85828650268995624e-26
-1.56630164007414135e-26
5.47147189684274435e-27
-6.42806315653490249e-27
7.10022145823397422e-28
-5.13843481247898914e-28
7.93492000510261594e-29
-2.16087438401514712e-28
-1.18941042421777816e-27
1.97138515866583558e-21
1.23223656873828223e-30
8.53754618626203737e-22
-1.73310270310668335e-23
-4.47432563549618032e-23
5.28044992667858815e-26
-1.99723885841762078e-23
2.48110611882667685e-22
9.13512340308393615e-23
-1.75612972997993421e-19
6.01186389792228807e-19
-3.86756182991398959e-19
-6.48703410093732688e-25
1.06058733210142718e-31
-1.3716767314531874e-26
2.22368482688092112e-30
-2.23980242693777398e-28
-9.21238764913851485e-29
1.75017527947327855e-31
-3.60781493531455393e-30
-1.52712105457763585e-30
2.22568833791887983e-30
-6.24857260296318935e-32
-2.73706091471573942e-32
9.43745607605727385e-32
-3.03113603961445527e-27
-1.38099543057424658e-27
2.27389844416858196e-26
-2.90115971426356047e-24
5.78028774021904118e-23
-6.15008934376973907e-24
0.000132616075474387352
-1.91775069553476957e-05
-0.000134416628155298713
0.000167994499052892467
-0.000405455099630384712
0.000212915000401620432
1.12272869257415189e-05
-2.55514316390098332e-05
-3.17241248528411791e-06
-1.46854679970129563e-05
-0.000274989491536123984
0.000183691474069872483
9.55942586275382408e-07
-4.43609890740386163e-07
-8.9638478230125589e-08
2.08576820493607715e-06
-4.67617887988172842e-07
-2.8973897154378316e-07
-5.55251890352754763e-06
3.70977792261479874e-06
-1.1478897237417846e-06
-1.22083714684665459e-05
-1.14293318258302631e-06
-1.26774232691335868e-05
-3.29206098591369955e-06
-8.02611889110315486e-05
0.00013424111753086612
-6.69986893298350268e-09
-2.1969467397582591e-08
-1.71888080852331611e-08
-4.27149337247081192e-07
-2.47763613923950328e-08
-2.52836239710599738e-08
1.85962955116290698e-06
1.18162677709355157e-07
-2.03654097312635136e-08
5.47235055815192056e-07
-3.16305324015721166e-08
-3.65702124841341853e-08
-1.58716781460656892e-06
-2.2057525262552831e-06
6.90154748097908579e-07
5.84385864887751891e-09
-2.09262877739223617e-09
7.74737697636441503e-09
5.01643682837506639e-09
-3.14342034555912413e-09
3.37105785005115438e-09
1.01591277215637805e-07
-2.18844144029337754e-09
-7.42953444816756691e-10
7.02426803916681602e-08
-2.34984356017113453e-09
-1.74613429627316006e-09
-4.36214835182484125e-09
-5.09646241515020686e-06
2.21217214123574475e-06
1.14447708724567429e-09
-4.31269706632565926e-10
8.49496408808850246e-10
1.43687748480020504e-09
-6.03089196610637352e-10
6.69526109813866478e-10
1.34854549061585833e-09
-3.1317175572390714e-10
1.55738372638978864e-10
2.37332497560909585e-09
-1.05453256595967864e-09
-7.12780466394792385e-11
-9.77415300080167525e-10
-2.02006697344117944e-08
1.30380119749621043e-08
2.26721243688098665e-10
-2.1978818112642416e-11
8.5427734003693665e-11
4.13227187365626383e-10
-4.58730262073417848e-11
6.58475957582442578e-11
6.07324542848028434e-10
-4.69308861653045562e-11
4.93415533706741397e-11
3.74686899057653181e-09
-1.22504600848966357e-09
1.24289833640540172e-10
-2.61842801945179628e-09
-6.75785283728167879e-12
6.12568080711902296e-09
1.21400378228752166e-11
-9.85796295706116007e-12
4.45274034715892789e-12
4.75167036659373177e-11
-1.48560283518462129e-11
9.06919373988249765e-12
1.78882234284238973e-10
-8.15349522507656358e-11
1.56199949390963948e-11
3.26523033249450203e-09
-1.30684521149227751e-09
4.02761896941439765e-10
-1.20343758358050867e-09
1.23007085100257871e-10
3.6483426414292796e-09
7.26861307303139357e-12
-2.15509668354269372e-12
1.60413292190363075e-12
2.47982739565952675e-11
-4.3054269416223382e-12
3.53313471018316788e-12
2.29690976319152497e-10
-8.84846815780604195e-11
1.76497424974067194e-11
8.44444330569146053e-10
-2.68348416421184108e-10
1.14398685653186089e-10
-2.81978028272148746e-10
5.81960886498540922e-11
1.49900994576111746e-09
1.97285006134901741e-12
-4.57713287881501267e-13
3.38770713204578286e-13
1.29498809338389898e-11
-3.05108636063917683e-12
8.83890996631082848e-13
9.78256409612837829e-11
-1.79803114495993693e-11
1.43317175416325609e-11
1.18451531598277249e-10
-6.26065418641573737e-11
1.48204340740205208e-11
-2.37110374701356611e-10
2.24850846564244945e-11
4.23127552320944836e-10
2.77215303157835969e-13
-1.89283786290116979e-13
2.84042510314205277e-14
2.38335138896124195e-12
-4.09155084083384286e-13
3.62111665277520338e-13
6.79101074429110495e-12
-4.78401784947604653e-13
6.83482672766729841e-13
7.15227961950968554e-11
-5.08182387213258211e-11
5.69242246412885585e-12
-1.03235321681746843e-09
4.81138161996550997e-11
1.04138627697522801e-09
6.96754246059610839e-14
-9.59550725518339448e-15
1.50747172455411281e-14
2.37171472682494966e-13
-1.4675151093986298e-14
1.6638553469770551e-14
1.14583605882397164e-12
-8.1111997680895935e-13
5.50225767250324074e-14
5.36102663821989519e-11
-1.11633318932921801e-11
8.65443530173053145e-12
-2.06402381517950024e-12
1.57555406396614797e-10
6.17255372958121171e-10
2.00907147955281906e-15
-4.88928132888990263e-17
6.29717801647922253e-16
2.34766707039180019e-14
-4.81035718598207882e-16
1.04898606225619271e-15
5.22445915864591698e-13
-2.1669793171692771e-16
9.52531040513787956e-14
2.1114726554806972e-12
-3.68796831586364276e-17
6.00634611892047163e-13
-1.86009899551073697e-18
8.06326584113691838e-14
2.20317805265942403e-13
7.32680273606059514e-18
5.79411245501722346e-26
1.22326142620574854e-18
6.97093643498782746e-17
2.00762925958635014e-27
1.9795165367617133e-17
1.58333931949273321e-17
-8.03886632278964018e-22
5.63762433359849757e-18
2.99080691341254584e-18
4.49216448308930162e-23
1.10885402951985786e-18
2.14093059689445051e-19
2.10307296282647144e-19
4.64906406778835758e-18
-7.5744316488247619e-27
2.46788914864898502e-28
-2.60478744637783128e-27
-2.92088925564862366e-28
4.33816902097646392e-30
-1.02062261369719696e-28
3.67453113837408648e-23
8.00167551887435609e-32
1.31146192451212759e-23
-8.35868044661327579e-24
1.77002079602249433e-27
-3.04721291149229666e-24
3.12643974989769417e-24
-1.74886364238406006e-20
-4.74058902753522553e-20
-1.05916978357484892e-29
-3.62763130700515845e-30
-2.07961567817786171e-31
-7.26049067837510308e-32
-4.31501036133502701e-33
-1.54299728112659493e-33
-1.09767435831345054e-28
-4.040173247370881e-29
-8.81744362562386066e-26
-2.32859029425807087e-25
0.000142489115868153136
-1.28925771776844421e-05
-0.000141630691689113332
0.000208506298414375796
-0.000323765232234656582
0.000225626782275181059
1.30291778009890656e-05
-2.44843254017635838e-05
-1.0105344405211602e-06
2.08971516878256235e-05
-0.000216534793287241829
0.000168173129154683344
1.08899191309290158e-06
-3.78092201237690901e-07
1.4019512852834549e-07
1.29859289904587162e-06
-8.51102786979720115e-08
4.43522370115423391e-07
-6.0100608509323041e-06
-4.55382052823636902e-09
2.47400064427347915e-06
-6.62364264119133583e-06
-1.87498534424316752e-06
-2.38321738872605153e-06
-2.02276949354429257e-05
-6.37207404506788457e-05
0.000167579994197943863
-3.35375921513244374e-09
-8.82913773206775259e-09
-4.41371281978869684e-08
-1.77640245884267484e-09
-6.24443305376810243e-09
-1.60298058762882834e-08
5.06285553093431474e-09
-4.6379156338991398e-09
-9.62340027027804246e-08
2.21871458272352124e-07
-3.04042897057578572e-09
-1.68760303775171257e-06
-1.11890347659269714e-05
-1.22546318273189493e-05
1.10783837999146396e-05
1.37052556471922079e-09
-7.05928601202860021e-10
-3.02736287669572218e-10
2.49625163335060339e-09
-6.66386466948792216e-10
-5.22719993947421965e-09
7.71231977279255483e-09
-3.86656055786404166e-10
-9.85848144545087235e-09
8.80880167534450805e-09
-2.87857536561045901e-10
-4.54832110611141837e-08
-1.73714636189136264e-08
-1.35656283575434687e-05
-2.47230814634189864e-06
2.16265930106492818e-10
-1.16335188922172467e-10
5.51258964893800099e-11
3.14784183097186447e-10
-1.3234216730067653e-10
9.05537138790218225e-11
5.86504047169809227e-10
-1.31190907904691237e-10
8.48151660187087176e-12
1.44186386281646298e-09
-4.10348457205866919e-10
-1.92522432029431118e-10
-2.73078962153531608e-09
-9.50575325894914424e-11
1.20869988044531413e-07
4.64951662582234297e-11
-3.30389164111561634e-11
1.14428340909667733e-11
1.25668447290965672e-10
-1.55783290958352242e-11
1.15763883939714168e-11
5.52982814095688223e-10
-1.02394060906749286e-10
1.78563311709234467e-11
4.0222287490142411e-09
-1.39336169676264892e-09
1.40597223779684125e-10
-2.68724682768607054e-09
-9.44060506169168739e-10
7.51700431519656529e-09
2.62177685589306495e-11
-7.72867659306777471e-12
5.08577227564829407e-12
3.69740245686345643e-11
-6.09174087942087501e-12
2.41722068577674051e-12
5.92081346016801512e-10
-1.52298268264787586e-10
3.13004090455509895e-11
2.97513968104171854e-09
-5.88280516294123529e-10
2.5778782247348898e-10
-6.99993649326501692e-10
-6.05846603696382123e-13
2.41457820250535926e-09
7.49660005949096717e-12
-2.58939935317645502e-12
1.17898707324355077e-12
1.72890084318144508e-11
-6.95993574100172199e-12
1.12589507332810992e-12
2.54690970240752991e-10
-5.84262614905342774e-11
2.75194658592726584e-11
4.49677787547694262e-10
-1.46990390466189849e-10
1.29751092656412072e-10
-3.03443874731969528e-10
2.73684293002216419e-11
6.8225539674571561e-10
1.70395707551783654e-12
-4.69847501767443674e-13
3.64469619521275182e-13
1.07438309563491569e-11
-4.21799015402168183e-12
1.43987929626853486e-12
3.69768575592346716e-11
-7.99381678842780233e-12
5.44456723508547889e-12
9.41263358911118508e-11
-5.79509647736575339e-11
1.0689232847924459e-11
-1.87009491221662619e-10
3.55587700538526426e-11
5.51276494844443704e-10
2.84350632912729215e-13
-1.11148080841632396e-13
2.08990138210603131e-14
2.53596516712014641e-12
-2.98441847052950707e-13
4.16902642491305134e-13
5.75669260158573923e-12
-2.4521062645842213e-12
6.62483916880652454e-13
1.00289471553674075e-10
-4.06316475454615773e-12
6.86851111890148616e-12
-8.59321990013662604e-10
4.1124848444582311e-11
9.58080759691666709e-10
3.94828065412885338e-14
-1.45774927286669462e-14
8.4037986168469104e-15
7.17407103981818623e-14
-3.48785792247629329e-14
1.39940580614691576e-14
3.01222967114923938e-12
-1.04395886335781646e-12
2.32524986245606707e-13
1.85200088323983992e-11
-5.95514465301440515e-12
6.63098450475934184e-13
-1.71698399607308394e-12
1.17531804351387346e-10
5.51430744172236057e-10
3.63936264353106877e-15
-1.04478901543485663e-17
6.75315587617325214e-16
3.93097460619919907e-14
-7.24952555205574105e-16
1.63110034091785264e-15
6.34812685339363582e-13
-1.06593604462273644e-16
7.04374323771376332e-14
1.87698925690069613e-12
-8.325216539433625e-18
7.33233315369485496e-13
-5.25484253015529434e-19
5.8485664517236415e-14
1.82152613274422812e-13
4.24925585543080732e-19
7.2473596868152046e-22
9.29972055769224641e-20
1.11459827268072944e-16
3.6382986508760734e-23
3.13352581984381661e-17
8.14102359035602807e-18
-7.15255946281811552e-24
2.36284732007457729e-18
7.09458084740228794e-19
1.42267006523428686e-24
2.15201573031972867e-19
1.51463452279940773e-20
5.22843796251014594e-20
1.58455983257998721e-19
-9.81897190638911303e-23
1.44545910229756222e-26
-2.75430420160666545e-23
-5.51513317677839417e-24
2.5129996999671461e-28
-1.56160003361399324e-24
3.47093991950273471e-25
4.56590101339621439e-30
9.98280476734723659e-26
-2.81987881702334152e-25
3.851391733949002e-29
-8.26360549781133055e-26
7.72738289532814927e-26
-1.08068820455418705e-21
-3.63790238795696796e-21
-6.4444899373849527e-28
-1.79257771271016595e-28
-1.25878191772967636e-29
-3.54019977696559203e-30
-2.59864681606541283e-31
-7.43331635428909994e-32
-2.56187460524070114e-30
-7.51735053918663272e-31
-1.92454673445727493e-27
-6.3202111224341165e-27
0.000171184494057322973
-1.02842079923254367e-05
-0.000113473284055538615
0.000234232948682671499
-0.000244716219919558929
0.000246218629836398293
8.59050411985127528e-06
-1.97014083083823846e-05
4.48287718860113477e-06
4.98471154872754288e-05
-0.000158187296135198728
0.000188708052448957473
3.54397625216248475e-06
-3.0306766749253164e-07
-1.47258370193279895e-07
6.85254008131192587e-06
-3.08438358623516557e-08
2.67683471941113866e-07
7.29012163496108446e-06
1.97603523052494937e-07
8.50594374942528163e-07
-2.41816001558067596e-05
4.44319949696228104e-06
4.53735956704585872e-06
-3.81120289337033238e-05
-8.36491347559219006e-05
0.000170573140567748069
3.69793992430643905e-08
-5.59948513555090023e-09
-1.01287873709246686e-08
3.30116696278203657e-08
-5.63496818055164033e-10
-1.62152054558903532e-08
2.68803657048884497e-07
1.36159363736321573e-09
-1.08071536376014629e-07
1.3315735518405925e-06
1.60315798289346613e-07
-7.07701810022872396e-08
-2.90289244130910852e-05
-1.04576857746078106e-05
4.08593447224677778e-05
6.43858203658496426e-10
-1.27105621334282413e-10
-1.80742878773695872e-10
1.2930951125576505e-08
-2.23581841974511265e-10
-8.53623822804369351e-09
5.37226036976961416e-08
-1.24801007461829972e-10
-2.25914361481948598e-08
1.78087308192448457e-07
9.08534132898182432e-10
-1.2563260807522068e-08
-1.13007794092054326e-09
5.39625239294084311e-06
-4.77492533926119532e-05
6.81292381155845072e-11
-8.79713909318569155e-11
-1.40441200341822058e-11
6.67852672819712378e-11
-5.96706725999479067e-11
-8.70292131035232953e-12
1.15721895272250734e-10
-3.78146154352062787e-11
-1.60512718238628904e-11
2.19259883424216063e-09
-1.64072339644018832e-10
-9.80219708983037171e-10
-6.72058219526583054e-09
-8.22659702170099277e-10
8.13044329314117689e-09
3.0860948612119497e-11
-5.56223866811674584e-11
3.35964456738535113e-12
6.51229250287078256e-11
-1.80049044549856323e-11
5.23814890733631294e-12
1.55609425805080121e-10
-2.62827196197976066e-11
7.29005455970915585e-12
1.71130520970690543e-09
-1.3898899023291971e-09
1.57787589393807477e-11
-1.91328627963924388e-09
-4.48852810976735655e-10
2.9663267205426025e-08
1.94171165783163993e-11
-6.43191680321116329e-12
4.33475848011118205e-12
3.4473726438113152e-11
-5.46440541798665135e-12
1.89942981326562756e-12
1.20770860208627894e-10
-2.92050210181498904e-11
3.53471115251843806e-12
2.72070044701944291e-09
-1.76883839589754458e-09
1.08489897317445091e-10
-1.29688184943386864e-09
-1.01411307090599619e-10
2.3542415741374595e-09
1.50353313316235085e-12
-1.39119664012685486e-12
2.27120214507045479e-13
1.06763598666740348e-11
-7.81128871415540045e-12
4.17759435946880055e-13
1.24661219207489596e-10
-8.26336110725386089e-11
2.48092911036753757e-12
1.99612873951709525e-09
-9.81230857694238346e-11
2.04998265797385299e-10
-1.04615126336302725e-10
2.71503455594356642e-11
1.68083352666727989e-09
1.86242631632384843e-12
-6.11586742508390855e-13
1.22605465272639918e-13
6.14922741477312116e-12
-5.37629435197937696e-12
1.14618140125583089e-12
7.38915484255529969e-11
-2.94294466191464354e-12
1.83317598171694722e-11
3.28441330382450521e-11
-1.96363568803251795e-11
4.57695840663500694e-12
-2.96825461935942644e-10
1.30785240841075932e-11
3.74137174873086083e-10
5.53174605096312245e-13
-1.80041872159081437e-13
5.42879427908576001e-14
2.3276717449177887e-12
-1.30270746344173615e-13
4.78157905211651907e-13
2.62941450917497545e-12
-5.58037729409506291e-13
3.43073645422166312e-13
3.09896045689785805e-11
-3.44543106138046702e-11
1.61386294961397872e-12
-1.11525057149193057e-09
3.44746148963644086e-11
8.89174998716613545e-10
5.36904873748234823e-14
-1.0199005142106725e-14
1.00768088984802152e-14
2.64062010400902272e-14
-3.0298026941618496e-14
3.95674685325182667e-15
1.10550675667675103e-12
-9.43258463167095196e-13
2.31810614504520758e-14
2.33196074975979156e-11
-1.38031015302661239e-11
3.6155202918704133e-12
-6.79847602444189548e-12
1.15469555548484993e-10
6.95655408028826408e-10
2.30775533018165209e-15
-4.05174285137722643e-16
2.41787894953707635e-16
4.21756580180202548e-14
-2.09318717639005113e-15
8.62482336496828896e-16
7.57488994947603502e-13
-3.52974809696269734e-16
6.67602715467668703e-14
2.92053603183361543e-12
-2.52858703799613181e-17
1.00051423454755447e-12
-7.39726263255541977e-19
1.86234065039358276e-13
7.45648402594877137e-13
8.37225098633127884e-17
6.73193608291369858e-23
1.65027918429549259e-17
3.82423517998984517e-16
4.09470107520684097e-24
1.05004377655444456e-16
2.786358628487228e-17
1.46067513450287013e-25
3.94796941445929032e-18
2.26573209574633105e-18
3.79038687922336886e-26
5.27185344329351847e-19
7.82517314395284564e-22
5.07502291049630772e-20
1.52675747035315097e-18
-9.39536606139786132e-24
6.12307527910883378e-28
-2.06428745500877581e-24
-6.42744340143931055e-25
1.30206287074355265e-29
-1.41858614519695429e-25
-2.6126195595490097e-26
2.86568931583350841e-31
-5.82726391842778486e-27
-7.95691699965264146e-27
6.157357602211564e-31
-1.80811824901591823e-27
1.49740277678502981e-27
-4.6517705414006425e-23
-2.02143534446827926e-22
-2.81589132407023412e-29
-6.12205919176743487e-30
-6.76664228782005416e-31
-1.47796542891144202e-31
-1.71089696787882859e-32
-3.77073133823735772e-33
-4.37626583840354444e-32
-9.85736524846928589e-33
-3.16345786154916246e-29
-1.34368039060383161e-28
0.000186714111879653994
-2.81881173867758065e-06
-9.74842965322449161e-05
0.000257574727256121262
-0.000179107210553938994
0.000265170218577309366
3.4899680525205354e-06
-3.18325393654481441e-06
2.85848476844648678e-06
6.70260461573811992e-05
-0.000114268939437102692
0.000198466917130037042
1.12066854726995497e-06
-1.20940600368070507e-08
-2.63971187473866671e-07
2.04704840464384317e-06
-1.64187972233833912e-08
1.41920710158301724e-08
2.13730432433184366e-06
1.27330319901813038e-07
4.90744828185791492e-07
9.75217815794286652e-07
6.68918274886367009e-07
2.14622790190433746e-06
-2.9898189097092264e-05
-7.30859081878514294e-05
0.000175413785924779408
2.79354240413005551e-09
-2.02024326386092335e-10
-7.59664806808903009e-09
6.65197851226913861e-09
-6.37429378023699573e-09
-4.89109752399160048e-09
1.67876132852434598e-07
3.39633616135811862e-09
-3.68703131546051676e-08
7.111933108252832e-07
1.48921703567305157e-07
9.04440163361396427e-08
-1.43553319859034003e-05
-2.04759576868407704e-07
5.66155062562188573e-05
5.84009359126658651e-10
-1.24074288779539104e-10
-4.45393324349866825e-10
2.56468790047947151e-08
-1.01895075296772191e-09
-1.61246559410108426e-09
8.62549888826425266e-08
-1.07313422028257811e-09
-7.4644072859679751e-09
1.83186368887528529e-07
1.27196888560315198e-09
6.52627101321267375e-09
-6.32550996962447539e-09
1.24221884683857298e-05
-2.09201651283802515e-05
1.82461773240256591e-10
-5.12408171383256548e-11
-4.99938419637320121e-12
2.46667610533772867e-10
-2.77657823741794678e-10
-7.57642715849343758e-10
4.78822399788693039e-10
-9.4774130978517615e-11
-1.56121444067510693e-09
3.44418818013085959e-09
-1.96260691684297952e-10
-1.65118181292576582e-09
-3.89486716081341217e-09
-1.60489766510132854e-09
9.55966681231027946e-09
1.04288927729798491e-10
-2.23874516809141342e-11
-1.78961476972509429e-13
2.50942726930745588e-10
-2.6744347226977822e-11
1.70607523538582467e-13
2.55199010409951893e-10
-3.68095657071011046e-11
7.7149374092384672e-12
1.88636204517504341e-09
-1.46801845733938e-09
-3.92164799683526434e-10
-1.91569014839958923e-09
-2.08396169996219162e-10
2.36095409485101743e-08
1.6708393619126128e-11
-1.45272276504508073e-12
6.09301757047898341e-13
2.36511059044797927e-11
-3.25607188170003871e-12
4.70998245437238735e-13
3.00532597211070864e-10
-2.21088964149029259e-10
3.71123956147802522e-12
3.78336299681388865e-09
-1.76651919378534798e-09
6.02526171943860776e-11
-1.4997864545109314e-09
-1.56553078669263482e-10
4.30311752427426436e-09
5.99643833401295681e-13
-3.44713985911372302e-13
6.04854376002105097e-14
7.77797338113810359e-12
-1.11886099376630756e-11
2.64510754473803394e-13
8.5599890236578391e-10
-8.54759329689432678e-11
1.11577550058597295e-11
2.71083612610614409e-09
-3.43456947396198366e-10
8.18556976206695117e-11
-1.68873095064320134e-10
1.56721877014374028e-11
2.20220108770568739e-09
8.90997896765431726e-13
-8.02487207684755627e-13
2.91898424460203432e-14
2.67364110222220251e-11
-6.72229295729995949e-12
1.41915880580422043e-12
7.71174298111729713e-11
-7.27392781482885738e-12
1.59892405846111502e-11
1.1499552932835825e-10
-8.45002973317973294e-12
6.18734540050741882e-12
-2.96671240537406694e-10
1.93245255818946055e-11
4.94939660805189276e-10
9.76768513415122106e-13
-2.18421879048221124e-13
9.30628622874246e-14
2.16919530351031925e-12
-1.61916679612450204e-13
5.29204844378739636e-13
1.93649060686598269e-12
-1.04909097311523917e-12
2.29693682768550789e-13
9.8893030572006743e-12
-5.80916672255205763e-12
5.56379240672042933e-13
-1.02351880543011629e-09
2.56120739411073393e-11
7.37426925609047148e-10
5.77659379320492654e-14
-6.99728918844014185e-15
7.28548388234508497e-15
1.95723200973039267e-14
-3.05829351210627179e-14
3.59708805963204352e-15
1.60251175177895208e-12
-6.26694985485496614e-13
6.37103298259332765e-14
1.91234960709039119e-11
-1.3896602028599629e-11
2.93919151375660921e-13
-4.97243301587720574e-12
8.72691544531666616e-11
5.97301616096833172e-10
1.19409299378870003e-15
-9.1402281264891179e-16
1.19012294310154959e-16
4.18152338398231233e-14
-5.3719883275502716e-15
7.56686955807952159e-16
1.50267378713907325e-12
-5.53108148786247234e-14
3.26787316529918202e-14
5.05982918934294245e-12
-8.57330830496722123e-15
1.24398604527755154e-12
-4.19454044581963085e-14
5.80090749947056133e-14
5.10333640878025874e-13
2.22308510257132939e-16
4.37532901231232776e-23
2.59550068240575441e-17
1.49251076321537627e-15
4.41841645700854019e-24
2.05622359352770339e-16
9.50311140740903887e-15
2.98243296326963397e-25
1.73453825946975698e-15
7.97735546993103753e-16
2.04490337115766686e-26
1.32390909518709529e-16
2.8144036892513037e-23
8.21112040240973609e-16
9.50120871751984247e-15
-6.25458901388465691e-24
3.43981551269597963e-23
-1.01108860520393485e-24
-7.14112805460845072e-25
1.37097719371311286e-24
-1.1527053112714756e-25
-5.54433416036363798e-26
4.14431767313741446e-26
-8.97972031494200083e-27
-4.53370183881754573e-27
1.2489998379940349e-27
-7.38066809838082554e-28
6.60181508125689806e-29
-1.2744718359614036e-24
-7.81866277891209242e-24
-1.62086976475094731e-24
-2.58990098173567715e-25
-7.34407443577540863e-26
-1.170634634604421e-26
-2.5791144213353252e-27
-4.1116322354478207e-28
-9.43602696223511198e-29
-1.51535084618030007e-29
-1.07104203058432239e-30
-6.48288514119739854e-30
0.000198465031542158742
-2.08269308523224097e-06
-6.66278938739654715e-05
0.00026766450283241365
-0.000115722708162088311
0.000273172358708158086
2.43359073288238146e-06
-1.31691430928638964e-06
1.40322838723516062e-06
6.8857840799150025e-05
-7.41509551684063644e-05