/*--------------------------------*- C++ -*----------------------------------*\
| =========                 |                                                 |
| \\      /  F ield         | OpenFOAM: The Open Source CFD Toolbox           |
|  \\    /   O peration     | Version:  2206                                  |
|   \\  /    A nd           | Website:  www.openfoam.com                      |
|    \\/     M anipulation  |                                                 |
\*---------------------------------------------------------------------------*/
FoamFile
{
    version     2.0;
    format      ascii;
    arch        "LSB;label=32;scalar=64";
    class       volScalarField;
    location    "0.450000000000000178";
    object      p;
}
// * * * * * * * * * * * * * * * * * * * * * * * * * * * * * * * * * * * * * //

dimensions      [1 -1 -2 0 0 0 0];

internalField   nonuniform List<scalar> 
7248
(
4.0872284828399188
13.5839621886309487
-5.31101562846879105
-10.398491148481753
-3.58888421577235128
-3.3670562594433644
-2.41522623182207141
-4.5823095959658513
-9.02758070365928234
-3.85575217616186583
-4.07505340068593469
-4.14508612717555636
-4.98611556679482781
-6.14710870512652718
-4.10483505023928341
-4.23677415535049295
-4.32963385787358046
-4.46457504966104501
-4.41629141247304435
-4.3023217072586748
-4.42366721001765306
-4.53473062481001854
-4.61313753755021683
-4.57147941911221256
-4.61607719770706382
-4.72969067619751371
-4.83988230073176151
-4.9326890677312738
-5.00803208071729866
-4.98611044447186558
-5.07178070070692044
-5.16203520613717259
-5.24603871828071711
-5.32334538099284416
-5.36008538339655871
-5.42608800308879236
-5.49836577419092176
-5.57171921183890539
-5.65211038049687708
-5.72414671422589016
-5.77722075578363992
-5.83634895229969253
-5.89908546974656645
-5.97207201877950489
-6.08038797046896295
-6.12428299432262957
-6.17309804677512908
-6.22592207385468477
-6.28574824230100138
-6.42985088930759296
-6.46637412740053463
-6.50694250958488052
-6.55097041726726292
-6.59810731982101828
-6.72373160050618424
-6.74689961739445909
-6.77346672933370364
-6.8035961208946949
-6.83730220236528741
-6.87441699682804597
-6.91430511103516832
-7.07221724202373903
-7.09054104733092849
-7.11159250463782655
-7.13564538348614352
-7.16292450228798039
-7.19362264710626764
-7.22771405936450062
-7.41690471727227063
-7.4302557342913822
-7.44576851428482378
-7.46373690118855748
-7.48449190630428429
-7.50842347128560395
-7.53599995025561586
-7.75996407982032643
-7.76839332606787902
-7.77847294606188733
-7.79046198892306396
-7.80472923145114272
-7.82178536990594875
-7.84239228832465507
18.7695269750014404
29.5478036678414355
-7.32070161153807497
-17.6650179394748648
-3.76248353420351922
-3.51602752077594394
-2.27009875081595958
-1.1027359131586536
34.1250584453080137
-3.86795430287951847
-4.13208479053197308
-4.41422552273805113
-4.97433379785362639
-6.05502344999747688
-4.06706154337440928
-4.14701874664008052
-4.26495901596906712
-4.41139337770165607
-4.8175027907173309
-4.26870603908863888
-4.35444012645008627
-4.45358039489801083
-4.53106242459115993
-4.53464093424007331
-4.61552431206830693
-4.70710360136916073
-4.80112837737528775
-4.89247112105622595
-4.98238968331281917
-4.98816943750224429
-5.06337103062258187
-5.14290070470462268
-5.22186448959051219
-5.30253262283068327
-5.35938304098668095
-5.42069372068228539
-5.48755908643505119
-5.55741385229298501
-5.63584675632216658
-5.72265196788786845
-5.77361685563533289
-5.83021549936382488
-5.8908337086484952
-5.96079308017569343
-6.0790578374352009
-6.12196549457316852
-6.16981163957086487
-6.22209107809757089
-6.28165581401860162
-6.42909873424632661
-6.46509450758186155
-6.5051731921442304
-6.5490082974541286
-6.5969833446107895
-6.77347683748686347
-6.80339460976557486
-6.83687250906501198
-6.87373324593911228
-6.91350621653945652
-7.11250412407255261
-7.13667981303623034
-7.16418107164939322
-7.19519300069875012
-7.22955131545976393
-7.44754145845947058
-7.46593584791997511
-7.4873264588377646
-7.51219519690265791
-7.54109710354338425
-7.78104075196328449
-7.79367832805438177
-7.80884096921174731
-7.82716786771422512
-7.84964794270337407
37.8803578059059873
41.771411907145648
-5.72020694736796109
-9.71804417779185314
-3.20622715045667928
-2.6968005923249958
-3.03147345547386271
0.574170013608579666
40.7432508158626661
-3.85590132670340902
-4.16557492016191944
-4.39840730300373384
-5.06548171097080591
-6.01387460737843327
-3.99481372337151353
-4.09271637181401537
-4.21317530869040802
-4.2897240405021968
-4.8168942056123063
-4.23965259989794863
-4.32782185071359748
-4.43168698529967386
-4.48951422896838093
-4.47728325129323856
-4.61597058655136916
-4.6979674193407357
-4.7856500851470205
-4.86719162944422834
-4.95123200640175654
-4.98933015829169868
-5.05915995421159437
-5.1327500207049459
-5.20843021423308805
-5.28951750504795992
-5.35909550748726993
-5.41769010795865125
-5.48118118108174279
-5.54901273981653453
-5.62612620282138209
-5.72202865458554299
-5.77163615378073747
-5.82649694646498695
-5.88591283782573882
-5.95391359172056767
-6.07847280450971805
-6.12071131544380798
-6.16792574363155133
-6.21992652010822145
-6.27880697860018966
-6.42883142050917389
-6.4644832280125053
-6.50429329945097656
-6.54807473170594712
-6.59651008540685702
-6.77373042351438226
-6.80352744901127249
-6.8369050646893843
-6.87367217764403993
-6.91352055909849472
-7.11344333371900905
-7.13778376521992719
-7.16554322366073215
-7.19690746283112404
-7.23164715052758922
-7.44921710142665816
-7.46802977062523166
-7.49003645799415896
-7.5158137879802478
-7.54603805865927857
-7.78341666581528191
-7.79663208612958414
-7.8126136547969578
-7.83213712330758938
-7.85645601077659173
57.8417527615227982
51.8894406152357988
-0.87896873213925808
1.27866798120112435
-3.83065458691439265
-3.88901281534902932
-2.71211378197444386
-0.929075191030349856
26.5267939645773367
-3.86252337231284626
-4.29259755767851026
-4.42366288971326682
-4.66819004651176783
-7.02978579283007576
-3.90948493716669576
-4.00441142496833624
-4.20460426752317229
-4.20380038132720291
-4.26023314443820222
-4.23032740235872939
-4.31051310753588446
-4.40459782069712613
-4.44321001214247069
-4.53264755770167405
-4.61926403921332529
-4.69610861607207397
-4.77887579139467444
-4.86834652562711501
-4.97374460013480313
-4.99167776269210428
-5.05832622116290587
-5.12862352720015924
-5.20271345370478322
-5.28040016682350632
-5.35976220082162591
-5.41679088890006089
-5.47827588432248369
-5.54547019503989702
-5.62137779083528333
-5.7221752143558211
-5.77102044850101148
-5.82492500808314162
-5.88430055209767566
-5.95178952143465434
-6.07844318591419519
-6.12031402536861346
-6.16727158369344064
-6.21948879872428684
-6.27870747160287745
-6.42889931198854825
-6.46435150940647052
-6.50409202092009142
-6.54802841362955323
-6.59701812914969832
-6.77413247821525299
-6.80387637386264821
-6.83723838620910129
-6.873975800150955
-6.91370703365521244
-7.1143524965792686
-7.13887506432995878
-7.16690749352537004
-7.19861630777095218
-7.23371565610238587
-7.45074207283795076
-7.46994135018792171
-7.49252897926249162
-7.5191809786540702
-7.55070084601546831
-7.78551990800370675
-7.79924132384934943
-7.81595988371090034
-7.83660111267258763
-7.86271723619551288
86.182005544241747
61.5605348473695813
-0.569521846935844955
2.148861722234642
-3.64185490981582705
-4.10054073536407238
-3.56113527431908938
-2.21819022506829677
4.86195321610989595
-3.71102399502017377
-4.15883327857898699
-4.25383970332961336
-4.32488926479253344
-5.93096219230498534
-3.90620659392555547
-4.05091238804066833
-4.20778032879252883
-4.20607906029485257
-3.9642190490132414
-4.24142462622384819
-4.33168571995001184
-4.41973632825622964
-4.4634742789991364
-4.68717827760748129
-4.62114473700377282
-4.70012822854129642
-4.7885490062562166
-4.88917828240643804
-4.97710756987249869
-4.9946572178573998
-5.06041751515392235
-5.1306055629549725
-5.20570356241577326
-5.27931371014270745
-5.36167963502545231
-5.41782270466118998
-5.47860587704793112
-5.54593797756760676
-5.62001075456956123
-5.72305336535685605
-5.77143040011404374
-5.82492887596958742
-5.88486675686250216
-5.95269824132104297
-6.0788673328496925
-6.12050742611265619
-6.16744419608355354
-6.22023073614544497
-6.28084427606222029
-6.4291941704149842
-6.46453951757163114
-6.50433000030104935
-6.54853759746105446
-6.59823051572138297
-6.77458690631649674
-6.80431785239067377
-6.83771329982602705
-6.87443730297608013
-6.91383926557404216
-7.11518844857810073
-7.13988309363931428
-7.16818093629173436
-7.20021622276747486
-7.2356166221590259
-7.45206657728177291
-7.47160071645459833
-7.4947102679430504
-7.52217791087780174
-7.5549731920019001
-7.78728401598190967
-7.80143058150136337
-7.81878260512284751
-7.84041929030781404
-7.86821420349349587
94.6719514874173456
69.0310279767741122
-2.02766942731857336
-0.265244210522723733
-3.1965328727397555
-3.67149267606184715
-3.58410575305650214
-2.67501239636444677
-0.601166714209966813
-3.60328599887604017
-3.90566333042973879
-3.99815724647641124
-4.19495493602400238
-5.78587343054504899
-3.89558834100145601
-4.03127178851318746
-4.21099842579225836
-4.37700467306191676
-4.68667508365571095
-4.24827657757936272
-4.34426361626024971
-4.45334856963652292
-4.52985134281645507
-4.8326819085437247
-4.62581860869889727
-4.70852492690124436
-4.8048158127232492
-4.90984197868698402
-4.96994716972847428
-4.99753650732933341
-5.06422710470763349
-5.13752713059959643
-5.21779883241483766
-5.28627863174161128
-5.3634914370407909
-5.41940574038676814
-5.48083498425210447
-5.54855620062672816
-5.61951862769481103
-5.72412028046500687
-5.7722480460936092
-5.82586657669196395
-5.88631775834486959
-5.95544424538046346
-6.07947632034307883
-6.12098406545401019
-6.16812364569482341
-6.22147856550702549
-6.28455342648821969
-6.42958300188717136
-6.46485997477022245
-6.50478734703177786
-6.54945902921622647
-6.60033400438452134
-6.77501467854124861
-6.80473417720621132
-6.83817037161263297
-6.87495966839618244
-6.91464241897475596
-7.11588760479770066
-7.14071633649025816
-7.16922991417335886
-7.20153135547923995
-7.2372898153630727
-7.45312820330224302
-7.47292843690048514
-7.49646611974553867
-7.52460276843146136
-7.55844932761665511
-7.78865388617933885
-7.80313127219672786
-7.82098492249714106
-7.84341499378981766
-7.87258712852818743
105.084642804382383
75.8743229748652084
-2.80099854956183503
-1.31595994994358989
-3.07337430235801357
-3.53631885284980108
-3.51083588473780406
-3.13198514970824782
-2.33254774486067618
-3.49150608576280641
-3.70898324783137312
-3.87128612140364847
-4.40178632658959756
-5.0519545899477265
-3.87010718971846535
-3.98142847511603026
-4.21967799372841768
-4.66946578926219402
-5.33614720366567497
-4.24638505619459128
-4.34642243374130466
-4.49756855288584934
-4.63200132246888607
-4.93158815109462445
-4.62770414418590637
-4.71255868176554937
-4.81711216043861956
-4.94891561998532747
-5.02568335080386319
-4.99980598255056297
-5.06691515816464033
-5.14256241142223658
-5.22835920312084035
-5.29641489394911691
-5.36494830685651358
-5.4207492701875184
-5.48247400862575773
-5.55027747493045798
-5.61699653699751789
-5.7249529347383703
-5.7728794022670975
-5.82668635732888074
-5.88720191027309525
-5.95603353859739482
-6.07996907198487513
-6.12135124881602
-6.16873266701657741
-6.22216588729009956
-6.28793203217731023
-6.42990657752313055
-6.46511433124313317
-6.50511808895435184
-6.5499579145800686
-6.60321440386496938
-6.77534425642820537
-6.80504407372645925
-6.83844297645077326
-6.87517536573914967
-6.91476131196865129
-7.11639385334348873
-7.14131467352766514
-7.16996843209297197
-7.20239416040640634
-7.23782148872521702
-7.453869851505317
-7.47385578049991306
-7.49769166231669448
-7.52628508317160438
-7.56079733368663209
-7.78958967036418315
-7.80429183182021635
-7.82248450058726963
-7.84545349579268336
-7.87553317408209264
108.044906311226669
71.8862333320403195
-3.36819538001721375
-2.68968701122071252
-3.03571892650562303
-3.76645672994491676
-3.88500302570897871
-3.74402694356315946
-3.18566283853442656
-3.48048123952525934
-3.61840004045727781
-3.64745819659694881
-4.21695641912934427
-1.7777496589914108
-3.84849327949157249
-3.90490663404059246
-4.1495225928478483
-4.70344519374495551
-6.07223664190482815
-4.24406156776461341
-4.34607346209226009
-4.53316001760626452
-4.69246484436991818
-4.99149843667143323
-4.62781804702888611
-4.71234587297010865
-4.8241287702952329
-4.99146030440303079
-5.05640125624436276
-5.00044953233840772
-5.06788709348646105
-5.14575205294912408
-5.23807955267896119
-5.30916007548548663
-5.36560112470862105
-5.42127554230949649
-5.48298084887647175
-5.55138257021929249
-5.61252126899164416
-5.72536534011499842
-5.7731279355020737
-5.82701852209407445
-5.88690080225983348
-5.95366921986468967
-6.08022694886583359
-6.12154550320390367
-6.16899687216381309
-6.22230611470482309
-6.28854824435164694
-6.43009132789190652
-6.4652887106551411
-6.50535681520242015
-6.55053462020677557
-6.60547012982119686
-6.77553091159897747
-6.80523216216021698
-6.83870627883878246
-6.87582690851582345
-6.91651208636492854
-7.11665821968373713
-7.14162526391227459
-7.17036671649316126
-7.20295045767571196
-7.23871363404120327
-7.45425037710764826
-7.47432767880029481
-7.49830054674526991
-7.52708096401695048
-7.5619017428020916
-7.79006556581891374
-7.80488067343200775
-7.82323817305748914
-7.84645503102954667
-7.87688018730902328
3.5203178488162763
9.88559074256443182
-1.07974010284262167
0.629969855996677097
-3.28276550907317555
-3.22997506776689791
-2.76557505198568698
-1.98215073363976835
-1.14811500446409109
-3.64165319828748313
-3.65140017932810945
-3.50800876580533538
-3.14854619964168592
-2.75981991329438969
-4.00373288698100538
-4.05509915312529223
-4.07241022784508289
-3.97721340404757129
-3.86118821577930049
-4.36076322439710218
-4.45038592427803525
-4.48325280888616629
-4.48330529666720423
-4.55111287076734161
-4.70790948528390274
-4.79136236445958374
-4.82272860665105885
-4.85281675222956643
-4.95019927043526664
-5.05252732009085825
-5.12300960171853426
-5.17086763240361424
-5.21483798975918855
-5.33281558797357214
-5.40438647372883807
-5.46476226095909734
-5.51041616048846716
-5.5725538542318267
-5.69214021442507612
-5.75475298936988366
-5.80626391416819754
-5.85394888700169957
-5.9111779738991439
-6.00884646417193657
-6.1009523210904284
-6.14659564798048486
-6.19436907173746132
-6.24789895267467177
-6.31851868677873885
-6.44215044104780521
-6.48069768703691462
-6.52294853612681536
-6.57018606301896213
-6.62554157845034108
-6.72536545973125222
-6.74998172398052887
-6.77773236569822579
-6.80865837571618382
-6.84283081849470687
-6.88086838801256118
-6.92380656468329647
-7.06931700172822364
-7.08769238680915237
-7.10829845639801849
-7.1311481764300364
-7.15618570105745277
-7.18344561592783926
-7.2127873374828777
-7.40986532767753037
-7.4219482941967847
-7.43543700091768223
-7.45023793917040678
-7.46618614386994572
-7.48282139343293462
-7.49943684151075551
-7.74862404803747218
-7.75447473846094226
-7.76091188746314664
-7.76776497364876661
-7.77471379641275373
-7.78121217756052186
-7.78638561038796162
-1.07719004042927047
-0.00812312662589143031
-1.88650003518596243
-1.51802304680978128
-3.35266151553523661
-3.29574190053425742
-2.81225715999844805
-2.30649064653656266
-2.25004288066867097
-3.65606991559505623
-3.68083108444565799
-3.40122996614039064
-3.01185660336896177
-3.06943056304662143
-4.01931750665682852
-4.08192827566297733
-4.13179591945927882
-4.15958218251109102
-4.30687956750913159
-4.44186181013996251
-4.5770431671171572
-4.65957997319297235
-4.71635161847879658
-5.00287292226233049
-4.7400992804630846
-4.84202938241928926
-4.91790497083182299
-5.02693347201812646
-5.29963046402955928
-5.06778146535730833
-5.14814919595093023
-5.22030476701132873
-5.32444915008470332
-5.56293140209949399
-5.40921942091946306
-5.47576554916054459
-5.54308216112080743
-5.6453277644197204
-5.8442266618169576
-5.75618536768804745
-5.81222108991943642
-5.87249261434392977
-5.95321184994273622
-6.0946003534052533
-6.10130925029567717
-6.14897709768674883
-6.20229912131938921
-6.26643055193322507
-6.35618547565468539
-6.44214521871615631
-6.48169338638438752
-6.52599541194797972
-6.57760788120919226
-6.64177429672142505
-6.72527099773903903
-6.74993308041931428
-6.77782102404226627
-6.80912826384043068
-6.84416373982993775
-6.88378564715132768
-6.92974687891108054
-7.06942826047346351
-7.08784660052740811
-7.10858155144477699
-7.13168066162507763
-7.15718238656756078
-7.18516331634305594
-7.21573961235734007
-7.41020825647058246
-7.42237078526172223
-7.43599045942056591
-7.45100585377748459
-7.46727844434441668
-7.48446475523422983
-7.50197803329145341
-7.74937381835036732
-7.75536938256321928
-7.76200572240476205
-7.7691422357381823
-7.77650296300585797
-7.78362112977585952
-7.78972506368713535
-1.68272243409146882
-0.524289496036205449
-2.29179298948991583
-1.98682695178833413
-3.18916706020672258
-3.2381822052849234
-2.94397808906602876
-2.6819630657379232
-3.01672091607618764
-3.59288192994343536
-3.6498900497645046
-3.48336347490681231
-3.22989696547192651
-3.40316660782954195
-3.95142244064313797
-4.07044113269421537
-4.10772310301240218
-4.06791053512674772
-4.18895219688066334
-4.47389707854127927
-4.62366892437781907
-4.71190323461541016
-4.79556034484672011
-4.93735243957589987
-4.77750621335521952
-4.89633371497038627
-5.03326304908353084
-5.15327280616145167
-5.31599226958960713
-5.07572193756017498
-5.16678460159337494
-5.26972971360032894
-5.39696779997018616
-5.57504773044046154
-5.40775838880342885
-5.48346812203199896
-5.57077020292713865
-5.68334638898307354
-5.83690536234197488
-5.75533818020329146
-5.81586649922821675
-5.88571734930080925
-5.97426900001132388
-6.09473646173295869
-6.10036324661652518
-6.14982447307909919
-6.20706223267279089
-6.27597783497494799
-6.36434836236466772
-6.44148378289230639
-6.48171574400691508
-6.52774472775329162
-6.58168714950062395
-6.64722448715671455
-6.72499655640476313
-6.74961375387495632
-6.77759637210616717
-6.80924617163554569
-6.84505015753617307
-6.88601933982300185
-6.93301396607867382
-7.06955199630479303
-7.08799217249953895
-7.10884551452956703
-7.13222227713583479
-7.15824795982239337
-7.18711695420682872
-7.21902611555286455
-7.4107030723297207
-7.4229811200205349
-7.43680103499644041
-7.45214624706121853
-7.46894014858906896
-7.48698291486502931
-7.50587796805065466
-7.75028664641576359
-7.75651195412256023
-7.76348023816982735
-7.77110208022980231
-7.77917910279245373
-7.78733705816348465
-7.794996713945892
-2.00842503354950397
-0.843267328234583502
-2.811999379212474
-2.39192212379027325
-2.9192579432165191
-3.02397787158408526
-3.00497731410570079
-2.98218912267617142
-3.83968481770524317
-3.43285755915326751
-3.53843664801061131
-3.63851210119574819
-3.77703798704789628
-4.04609680370743074
-3.87221356383544091
-4.02830640646436855
-4.2183284002468362
-4.26220001276917859
-4.31376127583486202
-4.42958303743602677
-4.57716059032354217
-4.68483143750403652
-4.76466402901491382
-4.8729637651649842
-4.78058636902836565
-4.93322591594510573
-5.07055871164786609
-5.16943119728057443
-5.27363659142621977
-5.07194943209636229
-5.18478549493793306
-5.30377876256739444
-5.41459022408093738
-5.53665681556577738
-5.39875657917748608
-5.48343624127076801
-5.57928531388034887
-5.68193617608236856
-5.79605833312375029
-5.75110634563709677
-5.81453441544595329
-5.8868147309028469
-5.96897593237993007
-6.06437092584228488
-6.09779856666239795
-6.14800430731097869
-6.20576985973170192
-6.27213788494594926
-6.34896854822635692
-6.44003972867021002
-6.48042564639896401
-6.5265979746044982
-6.57963281796791932
-6.64128075620760328
-6.72460968191338981
-6.7490986963812718
-6.77705220230044691
-6.80880099990820931
-6.84478170937355213
-6.88566003939199156
-6.93241843226316945
-7.06974698362312814
-7.088189928552314
-7.10913540060581983
-7.13273379366198146
-7.15915031869034912
-7.18859592685687954
-7.22141040649849941
-7.41139846752557574
-7.42382262353917444
-7.4378893818786036
-7.45363923386941796
-7.47105709895250225
-7.49005779440488073
-7.51046338105794309
-7.75147953527104505
-7.75801004355629686
-7.76542007731160577
-7.77368422472813414
-7.78269762394964815
-7.7922398432238964
-7.80189773868600245
-1.77150403200873319
-0.779954261441865526
-2.77373999966584739
-2.15824296302002683
-2.65481986311197016
-2.84263376399259382
-2.94845584419029461
-3.02992037796258007
-4.25632395927719287
-3.31958005170526915
-3.48115973103853449
-3.83443319337713717
-4.22297068997559499
-4.41057163174377465
-3.85877870604641116
-4.03694804581097966
-4.33093969162223047
-4.47734460553952207
-4.45675436914940626
-4.35301393011189663
-4.50452589887777055
-4.66509665100034887
-4.82936894503009828
-4.88926806319365603
-4.75592658379479793
-4.93091405610286238
-5.06587845183477192
-5.15560778717669876
-5.23342166969702038
-5.06053042135044873
-5.19446088453047494
-5.31270978483904166
-5.40658322899834154
-5.4991386873347734
-5.38954460780669287
-5.47944880092419595
-5.57542547855144655
-5.66684013456017599
-5.76228714390691543
-5.74516166279810214
-5.8092828256360054
-5.88062418684705612
-5.95614907955897532
-6.03876512442518809
-6.09400488051069722
-6.14380313464200523
-6.20023216233254715
-6.26239377617804838
-6.33014587579168619
-6.43790030844666994
-6.47786248947630128
-6.52314509432777179
-6.57391921624645015
-6.63033759054908423
-6.72416695341513115
-6.74844032064895583
-6.77621688585634629
-6.80779876881204338
-6.8434868251687071
-6.88364111497390674
-6.92882897496433969
-7.07000223410608086
-7.08842689383027746
-7.10942001563106007
-7.13315910537043152
-7.15981415329333259
-7.18957767310849416
-7.22276978124963609
-7.41225279797367875
-7.42484155650901023
-7.43918480233323631
-7.45537380913420566
-7.47345931943602082
-7.49345243663488692
-7.51532236459393399
-7.7529177647023273
-7.75980732648160032
-7.76773233179454703
-7.77673208996761556
-7.78680602825498358
-7.79789418782023169
-7.80983185932050805
-1.00866811663341238
0.597417151599756835
-2.03167011712966161
-1.46278497274387576
-2.54266798833982399
-2.70985240315121967
-2.83164247609805031
-3.22507966226928922
-5.93600414186918357
-3.32808802073722365
-3.59104757925839735
-4.14876934098867967
-4.63834279225386936
-4.61150057461035523
-3.92803997107136205
-4.18823091740032094
-4.44626138523598424
-4.58085391236973116
-4.43805433007266803
-4.29993478328034495
-4.48098193330193784
-4.67996992406462997
-4.83367222142716813
-4.86024105720808208
-4.6999400316020381
-4.90071708904201486
-5.04302364037960338
-5.12023804982627162
-5.1765633788103127
-5.03467382815690545
-5.17100628636601289
-5.28547258080062043
-5.37543500932538798
-5.45765960956330964
-5.37956933491258926
-5.46781619838238342
-5.55892650520394405
-5.6439051462202281
-5.73188861988449005
-5.73845607734345453
-5.80102888594104549
-5.86998064065919767
-5.94108992122042778
-6.01750625849172494
-6.08978810448159891
-6.13835878291823978
-6.19269838454513177
-6.25107466569581938
-6.31330085409408426
-6.43544792938415799
-6.4746013570397194
-6.5185233311993418
-6.56677149634258406
-6.61831333691328982
-6.72376876128715484
-6.74776358269350585
-6.77525707171388092
-6.8064930868469169
-6.84164319915442043
-6.880839125147868
-6.92423961908439356
-7.0703495147955886
-7.08873561681604158
-7.1097452124362821
-7.13356717960617459
-7.16036939973393594
-7.190333306684904
-7.22373490393579587
-7.41325239021700089
-7.42601841882738789
-7.4406530458424669
-7.45729126468009262
-7.47605215290047109
-7.49704615247773365
-7.52037506071893347
-7.75454813809192167
-7.76182847790844921
-7.77030326390889847
-7.78007613846302881
-7.7912503085787348
-7.80392824861001344
-7.81820510011029501
0.0354192897663985207
3.2987520351719013
-2.28927313334650062
1.75677729013682438
-2.61521464310217011
-2.66115823040565669
-2.79265598441416785
-3.23701704482265029
-15.2157342006351204
-3.43147580949609088
-3.74870342058420825
-4.38918526731508951
-5.00113153451340064
-4.99125250754480554
-4.0414733517805006
-4.32352432809808906
-4.50334615242152303
-4.62448961890658783
-4.34160612047917471
-4.31222512788360923
-4.49436739919657846
-4.67787171644103683
-4.78505062333035625
-4.77555195369952834
-4.64756360727364459
-4.82396746685388234
-4.97372556662008947
-5.05526560105941147
-5.10983048031806319
-5.00180653291795529
-5.12177348567302815
-5.23424215443745489
-5.32692139847381529
-5.41072797063427036
-5.36995312895103982
-5.45011628631286893
-5.53480861239466204
-5.61674187114064782
-5.70364465221956962
-5.73199073892818856
-5.79132250543677873
-5.85695346385257309
-5.92497909193661343
-6.00016446956757932
-6.0858175311316991
-6.13272546929004658
-6.18486071017254346
-6.240465011105778
-6.29991430781638506
-6.43309733525794059
-6.47128900823952069
-6.5138193303634857
-6.55993052651479314
-6.6079454825216466
-6.72352952922339142
-6.74722025008616821
-6.77438671380917601
-6.80521681006341517
-6.83979287147149684
-6.87807099648708231
-6.91993224722185118
-7.07083003708426627
-7.08917304625734612
-7.11019055600354477
-7.13407730274431096
-7.16101142451432615
-7.19118007701632411
-7.22483421240250223
-7.41438091525729792
-7.42733454839674767
-7.44226419854631693
-7.45935163939545731
-7.47878758686043987
-7.5007853341267543
-7.52557962285408788
-7.75630857268158902
-7.76398939524219323
-7.77301823218042642
-7.78356293055375392
-7.79582270639817132
-7.81005169896440776
-7.82658653773263691
-1.73124173892529853
0.783115534614125863
-4.0854583086716767
-3.95923213876949376
-3.04636998240309076
-2.92142026540419941
-2.81023266087954582
-4.40561468928712685
-21.6328124217721438
-3.64988646120906424
-3.8998481887824914
-4.34246966186797412
-5.08064605455649865
-4.87303519121430018
-4.10452207292782933
-4.29711495815926359
-4.42878013896151046
-4.53174649664298279
-4.24323255061749016
-4.3138058558682193
-4.48350030439613878
-4.62361188482857877
-4.7063490462558244
-4.65412438469053136
-4.62071385891478137
-4.76566195597760434
-4.89995341661948558
-4.98816019171133895
-5.04183379848345137
-4.98569633436361936
-5.08706958479571814
-5.19082746227406577
-5.28105168219315235
-5.36108518873805817
-5.36300928141162814
-5.43514879248282945
-5.51377960056272798
-5.5919354737325726
-5.67584861498187809
-5.72697030005411012
-5.78290770578069147
-5.84515207909422241
-5.91060975664337818
-5.98561571068752585
-6.08258011862020975
-6.12784333293675409
-6.17809349243137174
-6.23199818099955483
-6.29131616345140632
-6.43117419157009174
-6.46844523266802973
-6.50982625060060283
-6.55457523494902095
-6.60142982990078764
-6.72352358458424604
-6.74692734005154815
-6.77376723417398985
-6.80420987598932392
-6.83828948003715187
-6.87585119347562124
-6.91646303681886554
-7.07146434394445844
-7.08978093285801414
-7.11080665299037129
-7.13476751130991005
-7.16185973916120844
-7.19227027140725816
-7.22614428386241414
-7.41561341827274756
-7.42876136557449307
-7.44398431698379515
-7.46151939001171005
-7.48162336350538304
-7.50460181563438233
-7.53082293848704687
-7.75813404693770803
-7.76620358630612273
-7.77577235629916252
-7.78706147146432315
-7.80035769338335516
-7.81605154838036409
-7.83469610738892186
145.773204885626939
190.117640173852237
144.328051500438789
185.530320426661888
90.3512466445777562
138.908184927882928
177.130033426232785
49.7399473748802166
80.8388138343974987
128.661088028514655
163.60715325558678
145.538309133979226
191.018764448768138
138.765208727212269
181.497240905386377
75.9973321567790379
126.553019833888413
165.463498978958228
25.8197422031562667
60.1358380705490276
108.717583139664896
142.326928610078596
151.301326325273067
179.808883968129805
133.042623277974542
149.95520282667519
70.7318125665292996
110.199389910365539
113.973171161223263
14.6314112883010807
47.8242846935547732
82.3472607731172275
84.0225568713390203
148.146705175310899
121.427164468927003
108.968356416694064
74.4234199154315093
62.2914069583358696
73.8936570193163789
39.4647725330368075
11.8615763871122795
36.7112364950118035
46.8220694049387021
19.0765680686682799
102.878068889102224
35.8647893783039535
55.9009495104853613
13.8554997383243403
49.8864991252171421
27.4914058653574784
5.09290393043184508
10.4991853261075221
28.2980999640737991
14.1655690625066768
2.35317460011749446
15.3325156751392342
0.718224051156248322
5.00352339343533004
1.12699859460483998
21.2801339810930585
5.72853263138634361
1.11626557019436223
19.8935653550609004
14.0870315041686354
3.82383762513902781
0.895803887192331949
1.46364743779036344
0.9758720465046129
1.71005905684492232
0.942371457910549104
5.22742325632040661
1.76126249834841886
0.86225024327155908
6.66586386945868981
4.13124487551825581
1.61558312406554005
0.776389522803865084
0.380740121569373757
0.609522237594627425
0.184454484942612851
0.5540967381544466
-1.40427686513510697
-0.427318224980722139
0.427220189695167063
-26.9671578321823517
-5.22072149004064823
-1.04374179668472022
0.344282940529685888
21.2566070577084361
52.4703538084629599
98.723056220454481
128.771566707564716
9.84327752468334438
36.5812506426964319
74.3211898809719855
92.7685357098304166
1.69281447099558591
14.1818792258393955
50.1669533819664366
71.7264336735657366
-3.24402092568197986
-2.14002839984090087
19.3288376243439757
49.4860804670722132
-4.13542831420337631
-4.85762603225061707
-0.438669055897577209
20.7154884788219533
-4.80113512633907558
-5.08740758885027677
-4.26353228930486239
4.24733813560354179
-5.15820358847203764
-5.27516951756642261
-5.01382965812011605
-0.986536981272678304
-5.51064556381326121
-5.54428514668133676
-5.24180896930541707
-2.93553508885621284
-5.84311261604849896
-5.85536946700969452
-5.59425590600456957
-4.18926193010926085
-6.14207496442905132
-6.22600960094117362
-6.12396373303341335
-5.36320528421611442
-6.40928893168938885
-6.51970418540727259
-6.59049848978772523
-6.40794772503393073
-6.69045378092765919
-6.7687615829358041
-6.87521820945270878
-6.98281429261810782
-6.97140409293989372
-7.02463889488358539
-7.09216304938150266
-7.17698598661334142