/*--------------------------------*- C++ -*----------------------------------*\
| =========                 |                                                 |
| \\      /  F ield         | OpenFOAM: The Open Source CFD Toolbox           |
|  \\    /   O peration     | Version:  2206                                  |
|   \\  /    A nd           | Website:  www.openfoam.com                      |
|    \\/     M anipulation  |                                                 |
\*---------------------------------------------------------------------------*/
FoamFile
{
    version     2.0;
    format      ascii;
    arch        "LSB;label=32;scalar=64";
    class       volScalarField;
    location    "0.450000000000000178";
    object      p_rgh;
}
// * * * * * * * * * * * * * * * * * * * * * * * * * * * * * * * * * * * * * //

dimensions      [1 -1 -2 0 0 0 0];

internalField   nonuniform List<scalar> 
7248
(
404.229068521524255
2018.51374355027247
3.75469719089801712
1916.89905663837885
1.01060183463883546
1.24944061935190209
4.55004262997929132
9.05909508579570577
541.736213516476255
1.31709493233364716
-0.349166526917731757
5.64235541737112456
-1.26285729979945738
-1.63018217750582828
-0.0811480112160038736
-0.177336343915790368
-0.658853348660218052
-0.821402919008196286
-0.776813626706675531
-0.30676614883265213
-0.424974657538718381
-0.541680733292891792
-0.618275893667017629
-0.56651571268198897
-0.262503967442637653
-0.375974409713746682
-0.486111717440218916
-0.573721647352782305
-0.638714796808434238
-0.264993347312131478
-0.350542501616571911
-0.44049830021160763
-0.518107684283698244
-0.586601187928267653
-0.271119062656427601
-0.337023260001102942
-0.409230413881713773
-0.471916476162743459
-0.54559198904234274
-0.267328736560639157
-0.320371797206283004
-0.378462922785812506
-0.440211534542011174
-0.513482877298251261
-0.255695425110369745
-0.299558328090186732
-0.348353592126227296
-0.40114532702865402
-0.459077163304561664
-0.237287125004587957
-0.27380708925050623
-0.314377566760762506
-0.358390050298558915
-0.390954960590584821
-0.163294100506470835
-0.18646210787309539
-0.213029179511400546
-0.243158615851545218
-0.276861829370664503
-0.313910925043402456
-0.35386761076998785
-0.143904742023746257
-0.162228547329485745
-0.183280004165827459
-0.207332878820791655
-0.234611981334938158
-0.265310147106268379
-0.299401559364498526
-0.120717217272272581
-0.134068234291383204
-0.149581014284823954
-0.167549401188557046
-0.188304406304285216
-0.212235971285609087
-0.239812450293156287
-0.095901579820327057
-0.104330826067876067
-0.11441044606188365
-0.126399488923060882
-0.140666731451143667
-0.157722869905948693
-0.178329788324655042
713.484910828665306
2081.32015371456828
5.50904462438275999
1923.86751327375623
1.00393082544994594
2.24241614981138815
3.54583298574373273
109.52725406865072
809.658918153203558
0.438845845805249879
0.683182061689845188
4.42686228633171286
-0.509599337835978217
-0.825740728554611336
-0.422331051357215714
-0.513258783323946144
-0.524878173990103725
-0.791088655476560043
-1.17863566378416063
-0.281012364707996509
-0.366207583973612361
-0.465011996859725107
-0.540669069545580472
-0.526363670146726803
-0.262172463206553741
-0.353497694231994897
-0.447338874588439628
-0.531314058864666872
-0.606218465995585043
-0.267018144897654131
-0.342091350974041197
-0.421499917319010542
-0.481252037749359152
-0.565363433814167204
-0.270378211399799007
-0.331624059202473842
-0.397761401125459269
-0.459465458276856586
-0.543340532678434851
-0.265836394955554889
-0.316768525746495888
-0.372329469849944139
-0.433471827014915101
-0.502785242259892406
-0.254366202936277208
-0.297247407374647221
-0.345083246870169613
-0.396913773221337474
-0.45600689583439219
-0.236534755453904288
-0.27252974047792633
-0.312608282180201202
-0.355651756948231756
-0.389520944825705429
-0.21303923675340608
-0.242956972837450907
-0.276421693142816949
-0.313225333754261648
-0.3530687165081276
-0.184191623653903402
-0.208367308387763711
-0.235868571649391595
-0.266880500698750689
-0.301238815459763054
-0.151353958459471583
-0.169748347919971621
-0.191138958837762329
-0.216007696902658641
-0.244909603547511873
-0.116978251963280919
-0.129615828054380378
-0.144778469211747113
-0.163105367714225929
-0.185585442703375042
885.554182288556149
2106.23030255008734
6.73483853360735196
1806.18802758411471
0.832484421395653484
1.1573616439166623
-0.131278632101923393
228.947918239625636
1235.02088816226205
-0.100156178119521086
-0.691882791313255585
-1.1301792377898352
-1.80194804650584994
-0.747225050629121146
-0.374698508860471236
-0.470989087009489826
-0.593637917254928316
-0.667533408248459192
-1.19297840332072602
-0.253494354968820335
-0.341861392127988273
-0.445416994842181724
-0.501467149373039156
-0.467558756167720579
-0.262440362617407497
-0.34446751455848118
-0.431934917967159993
-0.508049080356469118
-0.542808384408296374
-0.268191931476417178
-0.338003443326673036
-0.410525120480185746
-0.463702943082845653
-0.553111965002181849
-0.270134763802479083
-0.328688442944651327
-0.390410262957984977
-0.456757412451254841
-0.53469057218394378
-0.265213690759532106
-0.314718619278984368
-0.369360308380717095
-0.428798440601893538
-0.495178525409723347
-0.253782139465039747
-0.295981402618435918
-0.343191022431854231
-0.394897869513006539
-0.453657749290128864
-0.236267366567684434
-0.27191975591288492
-0.31171597872359702
-0.355490787511303363
-0.391251555311967092
-0.213292761700422828
-0.243089549725534287
-0.276454112506861915
-0.313146623036652472
-0.353083059089719487
-0.185130833718030408
-0.209471258042766395
-0.237230723660732556
-0.268594962831124551
-0.303334650518393256
-0.153029601426675876
-0.171842270625232441
-0.193848957994158688
-0.219626287980249441
-0.249850558659565403
-0.119354165815280161
-0.132569586129584194
-0.148551154796955881
-0.16807462330759132
-0.192393510776593057
950.863589832991352
2115.71027154610874
7.56731078906437382
1746.63285104161946
1.77682846513687598
-0.788365813376724622
0.598481325489355953
57.5613566804617776
1422.41827765009293
-0.148585892613693898
-0.972896250466793733
-1.13455256897792767
4.31007500619574557
4.10552398267682861
-0.274179976486371824
-0.318324420596074298
-0.590791413821825762
-0.591285257132399988
-0.844002539940126417
-0.244251391497153608
-0.324711585673834069
-0.418714290170225045
-0.45695436506834114
-0.536082586200119837
-0.265571446166169678
-0.342743112303853903
-0.42529977326313928
-0.514142846042006663
-0.53931758187897505
-0.269815508814022664
-0.337204250305907227
-0.407344088568957652
-0.457940466297683257
-0.543793596251180733
-0.270815758422201125
-0.32780645802927233
-0.389273368521460439
-0.434867408882101625
-0.529019552044345254
-0.265359128522237031
-0.314050634447767707
-0.366718453044323933
-0.427354440884554432
-0.494608982374316553
-0.253750662179271891
-0.29557426266673742
-0.342534811803783756
-0.394753154127884698
-0.453868642343462525
-0.236334662657215339
-0.271788796496767182
-0.311528910876045839
-0.354891040860116413
-0.388583763851364339
-0.213694878844882863
-0.243438781133360399
-0.276786286658884495
-0.313437751501867035
-0.353269532922006579
-0.186039992304411289
-0.210562537960100521
-0.238594993525369503
-0.270303807770951254
-0.305403156102385998
-0.154554572837953125
-0.173753850187922526
-0.196341479262491708
-0.22299347865406996
-0.254513346015483366
-0.121457408003707662
-0.135178823849348984
-0.151897383710898698
-0.172538612672587188
-0.198654736195512743
1157.61622178478615
2118.68690795220255
6.83680581942959442
1841.44092510988639
0.517732230657001025
-0.983632924756177029
0.143558789666957731
2.98095002707723511
1396.31822822570143
-0.40903008580610245
-0.78268978517612986
-0.82899280682556431
0.08740707561598339
7.85132753789019944
-0.287173340017428003
-0.341173276102700485
-0.496564789100693016
-0.555586457052291594
-0.313635150237414007
-0.254646539310208253
-0.345203781194515447
-0.428233830779974678
-0.474195962866442722
-0.685418989628448494
-0.267532714842370289
-0.344751594757513324
-0.433795234985962452
-0.53290291219205721
-0.601226280287964987
-0.2734187976620297
-0.339300214928130173
-0.409417280028444575
-0.460383646953071379
-0.542506680904688787
-0.272737652379657025
-0.32886642856032855
-0.388568852095062256
-0.430959415606851748
-0.521516227901420382
-0.266237773822558088
-0.314389458035869873
-0.367147945957587318
-0.427990757106058883
-0.495056769385245454
-0.254165047257073617
-0.295755736236826272
-0.342747582092305991
-0.395514081789449579
-0.454975435649587867
-0.236629604255318621
-0.271976769323919065
-0.311764075463637269
-0.355967049698047988
-0.390628163160437913
-0.21414935650497402
-0.243880205378298021
-0.2772662669870401
-0.313750156712694517
-0.353401644545285887
-0.186875937637254019
-0.211570522615176504
-0.239867957194457221
-0.271903722765870659
-0.307304122159022586
-0.155879077281775719
-0.175413216454597842
-0.198522767943048795
-0.225990410877799308
-0.258785692001900602
-0.123221515981910862
-0.137368081501361705
-0.154720105122845925
-0.176356790307815314
-0.204151703493496095
1254.43400455511733
2119.604826206702
3.91764246195004828
1883.34962580739852
1.33808192150423255
-0.654396528173247338
0.152353130660797087
1.95317648778985409
1391.78659739594286
-0.326733174901959411
-0.642277842107286889
0.0160569231202071262
2.83734193028626169
12.61680726449082
-0.273726685553139504
-0.40561198409351179
-0.511298626097136388
-0.707368952196029355
-1.01761999357436705
-0.26280568578972574
-0.291704708260422219
-0.199650072437617038
-0.467163858238760665
-0.819370198321016652
-0.269999696169982206
-0.355036239770775253
-0.432366141799415793
-0.534807709433724465
-0.583860205451279368
-0.276175470209293061
-0.343104173451296013
-0.416336791788811833
-0.483806813243537803
-0.555436390452848316
-0.274551597975331241
-0.330463757741574604
-0.390333611017921633
-0.456106338281490886
-0.524716864580407671
-0.26730677366297928
-0.315430471931061718
-0.365584605949696828
-0.426933237887773376
-0.48991557692069182
-0.254762843451287746
-0.296120500406872711
-0.34343315586913914
-0.396772172081443997
-0.442467546819625412
-0.237019000706109206
-0.272297381968901686
-0.312224527787161477
-0.356645026723118153
-0.407431949665264193
-0.214577130535038602
-0.244296603294290288
-0.277725694082697594
-0.314264430195243527
-0.353894738875110304
-0.187575086614040709
-0.212403641203338545
-0.2409165527744421
-0.273218855479239631
-0.30897731536308487
-0.156940703302243412
-0.176740936900484952
-0.200278619745538261
-0.228415268431461593
-0.262261827616917798
-0.124591386179339167
-0.139068772196726198
-0.156922422497141806
-0.179352493789819628
-0.208524628528521799
1381.35117270916362
2122.64312652876788
2.90098086802324584
1864.68536581912576
0.832907002983796607
-0.442626645114979955
0.602996524324600047
1.55707819572735762
1433.27988712841375
-0.237116196766572002
-0.430832911965834953
1.11501828693442673
9.25639797331828085
112.857379104548713
-0.249294559383140324
-0.346892841709770861
0.346989468219140951
-1.01625184941966729
-1.38711613935456901
-0.259488141586299514
-0.179224167557838931
-0.396854058529976905
-0.607166663390209305
-0.857453153793566125
-0.271635119997702124
-0.358272638906917795
-0.447781884675053921
-0.590469344253526929
-0.552633891507634756
-0.278734013414183579
-0.345832164766087524
-0.42144576675884321
-0.504521628801768984
-0.569956994945589601
-0.276007344788004816
-0.331800919955052953
-0.393046217421007038
-0.455487520739716933
-0.519161770842348824
-0.268137935142489847
-0.316049177596728958
-0.366150305997579306
-0.430047536791688556
-0.481304091201843975
-0.255255280119320416
-0.296477532275118472
-0.344030534589565007
-0.397442580023912972
-0.448187449513584579
-0.237341296784919442
-0.272550190221985733
-0.312551930541347278
-0.357157278838685255
-0.409739425402549373
-0.214906717477294645
-0.24460652715645903
-0.277985187534724509
-0.314525618299073217
-0.354136930473686218
-0.188081342672667212
-0.213002018501149276
-0.241654714523734326
-0.27408166040643811
-0.309439416353543273
-0.157682351505316676
-0.177668280499912429
-0.201504162316694435
-0.230097583171601894
-0.264609833686725193
-0.125527170364181789
-0.140229331820216629
-0.158422000587269324
-0.18139099579268339
-0.211470674082207211
1443.7133006041322
2124.56135443327321
3.28790969024811508
1770.06050087714743
0.141203086212383117
-0.0443178260481398301
0.804007539676926175
2.34017695146403737
1390.84054789698712
-0.214880187617291524
-0.190417842966214446
1.0036155531417561
3.26326311354240151
319.570465333333459
-0.227811189192282632
-0.270312968435792667
1.33795557662487496
3.77491688379889023
-2.3388005998243262
-0.256675492380918246
-0.342665744076878054
-0.461852980155253556
-0.699591070004777604
-0.985992340161464753
-0.273750422024937767
-0.349420175189276927
-0.465279137164115786
-0.633575503656458205
-0.694861905253166268
-0.279351152050677121
-0.346791959943100359
-0.424561190924489962
-0.511774029121330409
-0.581865216865017354
-0.276658600451363201
-0.332316793026515012
-0.393560816831096782
-0.459796613554729006
-0.516214384711857655
-0.268549768630048535
-0.316310026579655124
-0.36804169233723838
-0.429663062072192736
-0.479451142262893149
-0.255527754961328846
-0.296706342586324778
-0.344291933133227257
-0.397572561527686441
-0.449018656564863561
-0.237525855688468929
-0.272725420088655579
-0.312773630904036148
-0.356947447054994316
-0.412872351404692195
-0.215093201805600986
-0.24479411361158479
-0.27826232789645694
-0.315333745587139724
-0.35607418189550466
-0.188345711804902227
-0.213312697366236315
-0.242053593763169039
-0.274637957675709421
-0.310401066490784305
-0.158062877107647631
-0.178140178800294702
-0.202113046745270503
-0.230893464016950822
-0.265714242802095824
-0.126003065818911297
-0.140818173432006172
-0.15917567305748917
-0.182392531029546501
-0.212817687309030085
90.0216555322722058
184.482815660328157
5.01655680666005299
96.1393884974529698
2.58083883803597258
1.25147287764934179
2.22978501427137488
3.83900832492158628
6.21112711379339544
0.260077523053259485
0.737502744738027904
2.50516694316961752
5.00986771751799331
8.70875979859176574
0.178942672569012945
0.609485669902981919
0.703421899376957427
4.5020741276091556
11.1224047298719579
0.216188563772410525
1.34901442484919531
1.06188654540329996
1.94850423105288972
2.83563431171757152
-0.312221054901433148
-0.429388277871663948
0.21933718058606147
0.573937481910118175
1.57797825099540767
-0.331239132323763397
-0.398973267243967367
-0.444815244206891891
0.0353319332069674322
0.997370707885813057
-0.315347416018196547
-0.367983680266720403
-0.39947027588026135
-0.222619540294208412
0.132718295780505369
-0.297828708497455963
-0.348868790590947553
-0.393638189010625306
-0.428352743431781091
-0.366226484915856743
-0.276264804457310109
-0.321908115275751749
-0.369500484164130782
-0.421926328276256535
-0.491128877866045144
-0.24958792819722686
-0.288135182690785752
-0.330385575617954563
-0.377596602125671754
-0.432976339757927431
-0.164927959852054135
-0.189544225594666271
-0.217294894646773817
-0.248220877354659197
-0.282393304296064351
-0.320430615984515998
-0.363367234242570336
-0.141004501728491882
-0.159379886817188121
-0.179985956607870562
-0.202835677631140326
-0.227873201084567961
-0.255133114168952124
-0.284474828398398327
-0.113677827677529666
-0.125760794196790676
-0.139249500917865504
-0.154050439175158038
-0.16999864387000177
-0.186633893432916531
-0.203249341510750359
-0.0845615480374719286
-0.0904122384609431784
-0.0968493874631450452
-0.103702473648766891
-0.110651296412756284
-0.117149677560522164
-0.122323110387959594
4.27400684468344316
11.1965021902785917
2.38089912364385281
4.73224513675049785
2.90733644128670887
0.880788708178406266
1.65211477798308159
2.74657261859719215
5.05532779032975199
7.0051671907884856
6.98040602193788562
2.82061564854954394
7.86100828798659279
12.8425490263589115
-0.0114389419806208842
2.37651110400478238
12.4060280168301915
18.0947242046627039
19.161796460661332
-0.370906079245692577
0.00405317107797423682
0.345724212975963674
3.55244356086259572
1.11222980980896491
-0.374152688989496773
-0.336111884106384484
0.321329450284528528
0.0121710759834944404
-0.23864507323889772
-0.345392524459236183
-0.426275873942063732
-0.436221568674628635
0.043138550790730687
0.791369076185408193
-0.319817776810832399
-0.386340102273767416
-0.406207052674969538
-0.255639788475166885
-0.0909281487152506507
-0.299350805415309507
-0.354935582599679444
-0.414602333495818154
-0.494518063410988473
-0.553044352904966785
-0.276621620453999684
-0.324288935660676847
-0.377517657813500052
-0.441701236546890919
-0.53115377372869621
-0.249582717957403916
-0.289130878502641353
-0.333431565948516084
-0.385042427468091419
-0.449208244765948783
-0.164833497760400682
-0.189495580749593606
-0.217383524755479784
-0.248690763663821174
-0.283726222836541864
-0.323348085602199464
-0.369307634930121198
-0.141115760473550039
-0.159534100529700573
-0.180269051476085185
-0.203368161652832224
-0.228869886537253431
-0.256850814874112987
-0.287427103638802028
-0.114020756470582338
-0.126183285261723011
-0.139802959420582074
-0.154818353777547824
-0.171090944344412937
-0.188277255234229224
-0.205790533291452166
-0.0853113183503675654
-0.0913068825632188524
-0.0979432224047600691
-0.10507973573817922
-0.112440463005859234
-0.119558629775860736
-0.125662563687135881
1.88636717295178635
12.4816317406812622
1.44403727472056076
2.22412161882383153
1.96999606145989414
0.807489675149980934
1.17797169853414752
1.72503304549052294
2.04060732474923778
6.77375543192509699
1.59443846307275794
1.43327063130367338
1.97289444082234144
2.09181168621956814
1.43897774804034895
8.76115186758434206
12.4996794186361608
11.9022667961641773
8.42456578200707362
-0.460595136488844592
0.265241555383360694
6.94500261924695383
5.63796077446268562
2.71094055892934538
-0.411974906963483489
-0.343300047726202151
-0.26789421897739174
-0.583120538948521672
-0.666900665605038245
-0.333201743233270453
-0.397762176366238618
-0.534413268318471468
-0.540858750807206246
-0.77241915887004009
-0.318819346377641366
-0.394516794673632876
-0.466669451151726589
-0.478836559192987898
-0.637028720350361843
-0.298525425606809724
-0.359027844339961322
-0.428407174899238463
-0.50547795242749749
-0.608919837119971774
-0.275675366039869696
-0.325130604183343275
-0.382337813484320999
-0.450786182878708752
-0.534377476442977728
-0.248921282928714072
-0.289153232388542625
-0.335181492235652967
-0.389114803477521365
-0.454466780335312792
-0.164559056407758836
-0.189176253913363013
-0.217158872175006956
-0.248808671633687389
-0.284612647324455903
-0.325581729081933502
-0.372576239163268152
-0.141239496304797624
-0.15967967249960352
-0.180533014530518565
-0.203909777136509179
-0.229935459815131499
-0.258804453778394561
-0.290713614823317035
-0.114515572329720663
-0.126793620020535625
-0.140613534996439693
-0.15595874706121321
-0.172752648589065166
-0.190795414865018553
-0.209690468050659051
-0.0862241464157633836
-0.0924494541225583666
-0.0994177381698255203
-0.10703958022980406
-0.115116602792452116
-0.12327455816348537
-0.130934213945892164
1.92660146207139871
12.0521125929558792
1.14445533098119046
2.27234427012569729
0.954495845183025771
0.924753214631805154
1.03450453087608985
1.45968890272087637
1.04899783064652574
1.24424531883104139
0.799111460423469921
0.820175969181751396
0.965171404193988836
1.21536335539778673
2.49834379249158278
8.78808085382361703
5.54505660370373477
2.64596684779152902
2.12645403074293027
0.443353386781042191
5.86534406887340509
7.10552446562306184
6.68545427141124815
6.27910634168379467
-0.396213840262662986
0.711102308220599721
1.17436012241907184
0.784547080472620673
-0.459834297184127272
-0.292115117533681634
-0.406383834033266667
-0.580856531128894793
-0.680250636167914924
-0.788249797686920162
-0.309818530993597074
-0.394496874636818706
-0.490333036066023853
-0.590994848318222354
-0.696682326581799627
-0.294293211675118294
-0.357716098808696148
-0.429953084954798503
-0.511883535781639143
-0.604786783880392642
-0.273109732313446874
-0.32329842372930756
-0.380965859361874437
-0.447167261152268902
-0.521891478992120406
-0.247477117847469869
-0.287862849500321927
-0.33403077676526044
-0.387010648016278713
-0.448179032900731744
-0.164172181913381426
-0.188661196308993778
-0.216614700972950158
-0.248363495942444362
-0.284344184758820395
-0.325222242969152808
-0.371980931737476372
-0.141434483623125162
-0.159877428552256784
-0.180822900603879205
-0.204421293634314133
-0.230837818544379264
-0.260283425460853868
-0.293097906498000493
-0.115210967525576691
-0.127635123539175666
-0.141701881878605107
-0.157451733869424126
-0.174869598952492794
-0.193870294404432097
-0.214275881057943041
-0.087417035271043303
-0.093947543556298127
-0.101357577311606634
-0.109621724728145381
-0.118635123949646523
-0.128177343223894263
-0.137835238686002864
3.81226147669309201
28.4837902725295571
1.78364910653724928
4.00957918114303347
0.853061113492279532
0.976807694849796682
1.3827934992733375
1.89649390744100255
1.0128256758107308
0.380848991878748044
0.47491279469447012
1.25087545463949401
0.969853126241088881
0.847661160534913138
2.14019644714881041
1.91397337010933022
1.49172970642920677
1.873273934576412
0.69266447260377495
1.42676956304827418
6.88054639552797287
6.78502164942580777
6.55570334937564514
3.37191995750121132
0.234329769745951016
2.5996308548776339
2.01661146844334249
0.55569960849297606
-0.00362878740707545328
-0.209705107803736857
-0.435345982033988665
-0.591359028229511696
-0.682390242641592981
-0.765091343471456242
-0.30060700396789275
-0.390510674060594365
-0.486482450058749627
-0.577589918993191564
-0.668277095647696107
-0.288347324338942945
-0.352458661162572184
-0.42362074947682965
-0.497738390838042888
-0.551153194191350337
-0.269313211750889958
-0.319082744175051836
-0.375320987325511335
-0.436699217355480562
-0.504631494755149901
-0.245337491452605666
-0.285297710938225979
-0.330582557998063742
-0.381329874561763926
-0.437756965898129013
-0.163729453411557924
-0.188002820554632133
-0.215779381633972173
-0.247361268781999655
-0.283049317976171499
-0.323202416946097637
-0.368372963049362401
-0.141689734106076548
-0.160114393830152524
-0.181107515619987836
-0.204846605335237297
-0.231501653106151811
-0.261265168363237543
-0.294457281249599467
-0.116065297973679343
-0.12865405650901135
-0.142997302333236154
-0.159186309134206422
-0.177271819436007644
-0.197264936634191312
-0.219134864593934497
-0.0888552647023255759
-0.0957448264815987382
-0.103669831794547321
-0.112669589967614669
-0.122743528254983858
-0.133831687820232609
-0.14576935932050647
7.24186928215813985
826.371879760594084
4.23755744006819057
109.00619881467405
0.862951317113942906
3.11671866033630529
10.3881811346296402
14.6954401438826938
4.08469250071555479
0.305573418800949792
3.64269063215045197
6.82398659476665959
0.261547373458167531
0.0849078245062900999
-0.0767609199885815469
-0.0253562569484111176
0.292069616162360934
0.773664983781727877
0.228370633224420305
1.17033842164840807
5.16363278274053972
5.81311445257526405
3.26837468867733172
-0.0723352845805278616
0.721852627683245429
1.76297155527055582
0.321960611693764887
-0.259120661709715538
-0.241701223147540639
-0.226767034191704714
-0.436689793306169249
-0.563992189145289036
-0.652938304065487696
-0.730094015576576272
-0.290631643849439791
-0.378877101611198197
-0.469933162533903326
-0.554503585483639982
-0.625633649638392408
-0.281635577829639772
-0.344160779459769472
-0.412864541277378205
-0.483818057929456258
-0.515530455192701798
-0.26509226568203359
-0.313641909145974285
-0.36795622088097929
-0.422626561102069032
-0.483321244771827696
-0.242884952375981067
-0.282038328744352917
-0.325924803526716989
-0.37420893880509859
-0.425748253086953632
-0.163331261222886992
-0.187326081436981096
-0.214819565265764734
-0.246055562665158323
-0.281205699142725252
-0.320401621883090626
-0.36380210759471665
-0.142037014795540428
-0.160423116814021549
-0.181432712393383933
-0.20525467936453895
-0.23205689973393212
-0.262020802342166514
-0.295422401367103293
-0.117064890217001935
-0.129830918827387759
-0.144465545842467485
-0.161103764680092271
-0.179864652900466881
-0.200858652477091643
-0.224187560718934503
-0.0904856380919219633
-0.0977659779084473907
-0.106240763908896529
-0.11601363846302723
-0.127187808578736489
-0.139865748610015661
-0.154142600110294986
14.3191899405916736
1653.4436469336606
7.38247836798568802
1309.63403386909476
1.0798144606771336
5.84781407590511737
20.2414752353925174
65.7722607562638046
15.2794922458506388
1.50102568627210742
8.56473588730180957
6.46437888239998149
-0.280054427932847461
-0.323764603298006104
0.00194822087258586063
1.01552407723475646
-0.0591949370430246424
-0.733522401354476217
0.0748922824406810933
0.225315936419503676
0.261913429587761537
0.132634373819749352
-0.493987782016975074
-0.398423697885480266
0.214601615297216664
-0.206773481142490695
-0.595362628133925043
-0.669424886063083369
-0.457444048635332834
-0.268048316583724522
-0.397482997303958807
-0.512358749496110932
-0.597188335064233966
-0.680223861333665636
-0.281015421000971544
-0.361113443338804574
-0.444975594031095878
-0.524912220397370177
-0.600790838975862718
-0.275165551127500629
-0.334246945991965971
-0.399178997904440114
-0.464497955826209841
-0.50035889190244387
-0.26111819059792607
-0.307996050119733522
-0.360149476386048273
-0.41184280845838489
-0.467454824844817929
-0.240534406425872538
-0.278726458796800525
-0.321236047942743408
-0.367366723786713867
-0.415382580873319307
-0.16309202918699256
-0.186782746395568217
-0.213949188719928685
-0.244779267820914442
-0.279355024121133999
-0.317633327658799591
-0.359494726690466171
-0.142517537084263762
-0.160860546254910003
-0.181878055846314585
-0.205764801716229045
-0.232698923991778717
-0.262867574418875261
-0.296521703251572954
-0.118193415257298193
-0.131147048396748345
-0.146076698546314721
-0.163164139395455293
-0.182600086860426475
-0.204597834126659606
-0.229392122854201491
-0.0922460726815891169
-0.0999268952421945161
-0.108955732180427117
-0.119500430553751397
-0.131760206398171459
-0.145989198964405986
-0.162524037732908327
40.8630558733188707
1918.16737205414779
7.83664766834372362
1780.07745222780022
1.26037255391900582
2.49640632355390046
7.13429535331485631
24.1682325828030855
239.935792783156103
0.872944136446570207
4.36740640395568658
7.09299591538345009
-1.58784236240429633
-1.32971376829671661
0.0663219412995236096
1.00498637280562497
-0.626164989832552532
-0.841646126314808174
-0.47146832862749144
-0.294533518993176369
-0.435815409347346472
-0.614210317287108398
-0.700901760198130219
-0.624757714213627247
-0.266920785721180442
-0.410985915827743908
-0.545724418531486011
-0.629651233595522219
-0.564449733713512924
-0.264719888846582818
-0.366022757296178669
-0.469078590031355713
-0.556552402498487697
-0.632296272578190766
-0.274065199455868436
-0.346185771353788474
-0.423881231848353135
-0.497644756196453375
-0.580316174277018537
-0.270148227540653874
-0.32583819649803214
-0.38715651293079123
-0.449736869894844571
-0.51134710769705749
-0.257879218242800523
-0.303110049349792632
-0.353286301971833805
-0.405975033608611646
-0.464581607952206543
-0.238610913875572733
-0.275882618210084196
-0.317252092516604745
-0.361926009795571546
-0.408526695590640254
-0.163086084583872526
-0.186489835967696915
-0.213329702741433203
-0.243772241406541329
-0.27785125525526605
-0.315388529644348159
-0.35600777588505661
-0.143151843944464091
-0.161468432858011907
-0.182494152682512983
-0.206455009522701072
-0.233547235290628125
-0.263957740779532102
-0.297831781181511768
-0.119425918272745457
-0.132573865574492966
-0.147796816983795126
-0.165331890011709948
-0.185435863505380716
-0.208414315634441821
-0.2346354386036823
-0.0940715469377053637
-0.102141086306122328
-0.111709856299160942
-0.122998971464321233
-0.136295193383355995
-0.151989048380362174
-0.170633607388954361
217.686230429053779
291.356949590960255
221.590126391209964
280.88637259896052
146.709787924889639
216.891983069633568
301.542695745310596
121.987314972003887
162.874666655607257
249.348108113948854
307.36311481916772
242.57519854005065
320.141619113697004
250.383754867954906
402.295998588900147
192.24543613736796
381.306744473250092
583.627413008195845
195.191317921451883
258.922612619370625
418.809837047007591
578.198297251109238
352.151678831173172
541.348104975420824
534.601318573927983
894.755223318355434
375.326798465345064
807.009436313710921
755.199132658667963
175.979917289394052
439.301125276922733
693.115126733059583
663.284121093300996
974.908291772007487
1251.48395952121177
1026.92044745636031
965.683066461850558
815.218000135027637
887.355395932393208
531.556565687055695
404.169125439619222
851.435690148313597
791.839204118085263
368.050128669637331
1376.77441458596104
660.522861336330493
1128.70561874671148
384.225352560257136
1115.66313107956375
564.880838456747369
176.082003960591493
1027.66902234163717
995.675941124739779
379.246774668040132
16.0616524856833216
601.792916685704995
44.6857774965921521
212.013877012032111
3.25926076900819517
911.6337599527169
207.932560617505942
3.86106278500194078
1272.76772822276143
620.499922382180785
44.6853376132375999
3.95785888633947858
3.23636505276532604
2.52832416877649058
3.90588808713593627
2.64608362566697242
153.375671298018062
4.69504658060960267
2.76369876715997354
1231.88972434886955
64.9895970112196437
5.81597337231481593
2.97157634292021466
2.07577158661520844
2.15969247520139707
2.21164705221835867
2.26214806038739891
4.67078219734801259
2.29613644723512333
2.33254476086329632
529.603692506972038
6.4515844431388869
2.86994496404662369
2.38470903727833328
234.333268189102256
229.004706059543622
259.920898574155331
320.516286205262531
316.680941172962434
392.975262819662362
422.661382099299715
459.161996822767094
185.49851868214472
409.308447129375622
547.639790083629919
513.91778573463489
26.8147585559681296