/*--------------------------------*- C++ -*----------------------------------*\
| =========                 |                                                 |
| \\      /  F ield         | OpenFOAM: The Open Source CFD Toolbox           |
|  \\    /   O peration     | Version:  2206                                  |
|   \\  /    A nd           | Website:  www.openfoam.com                      |
|    \\/     M anipulation  |                                                 |
\*---------------------------------------------------------------------------*/
FoamFile
{
    version     2.0;
    format      ascii;
    arch        "LSB;label=32;scalar=64";
    class       surfaceVectorField;
    location    "0.450000000000000178";
    object      Uf;
}
// * * * * * * * * * * * * * * * * * * * * * * * * * * * * * * * * * * * * * //

dimensions      [0 1 -1 0 0 0 0];

internalField   nonuniform List<vector> 
20536
(
(0.236525703367059054 0.20519693163953831 -0.514120185197331714)
(0.0444767152829769266 -0.302582439555338145 -0.295702781184811581)
(0.240954234364810477 0.0687957521332453747 -0.450828125767962273)
(0.193685075433436826 -0.0455906077846626109 -0.440327201931715539)
(0.293027592295601214 0.209605333892776857 -0.503044204296138497)
(0.257353901230808924 0.451785770892091543 -0.530293753455659878)
(0.287013235149199186 0.347815333188124853 -0.643455682557703912)
(0.290181731069857785 0.421002552719508649 -0.532303694930169158)
(0.114115000208285217 -0.164013630210950001 -0.284626800283618031)
(-0.15767889467453805 -0.183370806290242716 -0.225597381801711655)
(-0.174282989636625391 -0.659888808623971257 -0.179412506920096637)
(-0.0949569312107112068 -0.240267902562135816 -0.108386224697353081)
(0.251428222614460406 -0.130904693029587266 -0.398158942146354999)
(0.326820266616979715 0.15500067468251516 -0.399066237815210112)
(0.337921223052387198 0.0781774878283519881 -0.448757278258432368)
(0.313595902750657407 0.229346250442011262 -0.463281058272494162)
(0.121589249873930105 -0.305079140583976394 -0.379369281466900077)
(-0.245682863005427965 -0.211833429389048006 0.10705237917379945)
(0.0266310221242022638 -0.515066943056255555 -0.102886954752083745)
(-0.4795857761336349 0.0675906520916918913 0.00471473394835337373)
(0.115159157833287409 -0.262166254398978227 -0.448504732574770526)
(0.331527748616200657 -0.178345136135993787 -0.383643315516956851)
(0.779182023350142861 -0.672119703048060568 -0.535987033918764233)
(0.354994975089086173 -0.295922042506250094 -0.579279915876188989)
(-0.121460633202649035 -0.107436161545875541 -0.22671871508723318)
(-0.147445135636303626 0.233974772435244116 -0.0823155850893562691)
(-0.20910354054605651 -0.223513058550731919 -0.213840367341635529)
(-0.265910310510810766 0.0105485967277438777 -0.177734119480679242)
(0.00713839926589170982 -0.202041894833884961 -0.339129523664447763)
(-0.13570801902447921 -0.306772035833041357 -0.177714906369081105)
(-0.218464368935208597 -0.151470096394769743 -0.303374449055135054)
(-0.16984559847199257 -0.151648724573525462 -0.271335060296043984)
(0.161051753555709387 -0.491478718182461971 -0.358277890407550703)
(0.218840986160371731 -0.146988852779264462 -0.406258980599908226)
(0.161281915848667828 -0.355413251305307265 -0.389356697085149639)
(0.296582831661603097 -0.0801189938515267236 -0.425803259970962356)
(-0.1057937964141374 -0.0413980630383451592 0.102778345123744216)
(0.0452431196184080384 -0.110137962252563781 0.302319921656067692)
(-0.133679919855032164 -0.458014148188533532 0.135515573259797212)
(-0.176853914250174271 0.0282500829157531497 0.227486349478429106)
(-0.0925155517933398952 0.152880201968204288 -0.0174541680315427675)
(0.102112556740654836 -0.181730571883101572 0.127417288439034077)
(-0.128336012921002718 -0.265685947872180805 -0.0526488490662851277)
(-0.12704250051428792 0.0186330668846264522 -0.0431008968210681645)
(-0.0752040636644614041 -0.12317342826000105 -0.0333117763712038467)
(0.120041533857679669 -0.21214931333034337 0.0543632894757228868)
(-0.0963699220049302197 0.194032188042243703 0.0917532764960984348)
(-0.34851808381727517 0.10307138385107506 -0.190283257732550337)
(0.158631709101576035 -0.556566639126610641 -0.196863273112183268)
(0.224789655081048562 -0.824822829096017229 -0.0603576053731769285)
(0.199071695245868568 -0.627000016206751387 -0.0453088397947503108)
(0.0877626409587786982 -0.750387134181468074 -0.182810409425634091)
(0.254533016838140502 -0.488956276031036585 -0.277279070156382368)
(0.0503955194139374049 -1.08146559998406255 -0.339113311427729436)
(0.10705545686029605 -0.555784830069999902 -0.358542861049645833)
(0.134887414893557073 -0.343852030134293052 -0.371352922907860539)
(0.208728646014211039 -0.192592558222895061 0.326958864971357399)
(0.217138327115905083 -0.185092350993046967 0.396175742017855603)
(0.202747903953395536 -0.196335594612698228 0.384706184767529658)
(0.208994406019807122 0.0201175904167090469 0.357749763498962703)
(0.256555202121476311 -0.389835230610341588 0.199234745946299113)
(0.293743088890686621 -0.282012756667791409 0.298318378518949434)
(0.215635882839428 -0.221086477661611325 0.309106634778445688)
(0.251386333796277506 -0.195195274061950974 0.28476229585160473)
(0.461498833336513925 -0.698607243385599874 0.0273174604737490834)
(0.369430251318621838 -0.39408686657433506 0.138363773135034868)
(0.316455385048917126 -0.365351980190780801 0.101890702220472279)
(0.322365965262491616 -0.580483855471647159 0.16278716051798775)
(0.39685824597768149 -0.63765900647934215 -0.140773402417375515)
(0.493135299317504605 -0.588890738338870179 -0.050340919242037041)
(0.619992921612496306 -0.713802017003817957 -0.103231318545012385)
(0.432525790989277792 -0.889636744571825844 -0.00341311208780542205)
(0.384568327958386802 -0.333444183158123408 -0.218576580636576534)
(0.451874412815163717 -0.279901325680288471 -0.197059275934688277)
(0.2220821563416569 -0.467369521733160709 -0.217719800047869977)
(0.256987707542757293 -0.762433536766320641 -0.272408711132003101)
(0.293300028355443276 -0.212725046582255384 0.367535255565447361)
(0.226335064265320074 -0.210599421314150853 0.371337483151364778)
(0.217173185827002707 -0.282593713029237414 0.362139688448060382)
(0.216121960901314664 -0.0328833768201650667 0.448272687952759874)
(0.398172734824866648 -0.274467947233790144 0.237447405707684522)
(0.349567516155467217 -0.246414757681583219 0.298443154544318745)
(0.329071881665220167 -0.304753505474839759 0.257768721324233285)
(0.324625598125288684 -0.149192392418877218 0.374721066028690875)
(0.440721960345777264 -0.355683651395142131 0.0607053934192486183)
(0.425928780916591476 -0.307122582502150854 0.175553405443666183)
(0.366335709270443899 -0.344900776550885857 0.117800429959362823)
(0.389834974020343394 -0.285925467212936546 0.213602197831386786)
(0.323762804342483668 -0.39526403649472136 -0.128144097461237338)
(0.476089915923497475 -0.330847763034041453 0.047289636778393096)
(0.445219524267655764 -0.434581804821308204 -0.0631789710433180995)
(0.388881422507074248 -0.391910070341156713 0.00487514785307509649)
(0.494630543926855237 -0.300314045286311504 -0.0811859691117846338)
(0.278876667660000077 -0.417191223072106154 -0.21128349784841774)
(0.412468224988580379 -0.426193000445750259 -0.170674038973870512)
(0.34460797800276971 -0.31578750298615732 -0.278022711711117809)
(0.287685232379272238 -0.259815040228133065 0.302245382130235996)
(0.223218456883198552 -0.254007891207666259 0.256551533494490724)
(0.21864428303476699 -0.284355720889332975 0.279016726437107121)
(0.195978457806647355 -0.148536118314426618 0.35987345402726334)
(0.39257920087816317 -0.298365721183760813 0.236549154280300239)
(0.328744339583922296 -0.286225147106970945 0.229680856616685136)
(0.333377446868969307 -0.301133046133524651 0.237731465326313562)
(0.333411437225360097 -0.187538878433202744 0.304434999984961985)
(0.470700056424526447 -0.337210112947724294 0.162137648802810813)
(0.408440455909977684 -0.347779084173719721 0.175345056933339377)
(0.42263443000744283 -0.341224944915090866 0.16575688606047545)
(0.42720156024437772 -0.280221867714597672 0.208090338301301803)
(0.542433150144772891 -0.329356626977896749 0.0942477651278465778)
(0.481870278116762307 -0.388779203634614212 0.126737519329332776)
(0.503275626626684569 -0.344200702538369596 0.110032161071264428)
(0.497640021049957582 -0.33308416985961431 0.135168754658849477)
(0.55644679591932944 -0.410543366288724898 0.0612910675915898859)
(0.59994138222150506 -0.283982174037465729 0.0411783262107584952)
(0.543802290803997668 -0.360783035551801412 0.0713484541835010672)
(0.659036326610509038 -0.32016204263945941 0.0208560614254951621)
(0.273160004464877149 -0.296023352935883388 0.183987007980939976)
(0.217462102879175251 -0.295459597403941843 0.151303290183998601)
(0.225761423988394438 -0.294581197012803553 0.16126390922699646)
(0.222763919404659672 -0.24893828171064572 0.208276907557402746)
(0.351324717074152193 -0.341463884789230898 0.16847675926972458)
(0.288199901488442156 -0.32885479242334309 0.150849737669839168)
(0.305579057063231463 -0.327082959625660252 0.156686567102096219)
(0.316892791796187345 -0.291551668804880426 0.197750121687705893)
(0.417869702235207308 -0.392409280738745703 0.13994492745986159)
(0.352745247135770268 -0.384051721175587168 0.13685805857162131)
(0.376895117094720622 -0.374436542308365872 0.13432360372309296)
(0.392943627607492851 -0.357962198161866196 0.169293472966726366)
(0.485601733476197006 -0.434624465046256514 0.0937808217930763133)
(0.41237517055517231 -0.439955694993893698 0.116720640071395848)
(0.441803066988107174 -0.422148509554904239 0.10820167818110335)
(0.456744890597417741 -0.408865030589039669 0.13430014117552655)
(0.479263412098942798 -0.488298064863312564 0.0735424501874048231)
(0.525654343101564003 -0.461199049416468054 0.0578262415204736716)
(0.531003004833825121 -0.461956935863907736 0.074649873988059709)
(0.562853680646923205 -0.492655207075334334 0.0301228469627065586)
(0.237327401337301958 -0.335438182391666728 0.118166019872897723)
(0.191670416315577241 -0.33865809155156279 0.0995661556624596045)
(0.21099569893889944 -0.331338033045414537 0.104124605784324878)
(0.203917890558430293 -0.300369126290080002 0.125098160612052589)
(0.29332841116614633 -0.376728878136632528 0.11923103697173594)
(0.240175336172573861 -0.369107064299405041 0.106360875114535264)
(0.265202230963996088 -0.361760274799430681 0.108498146293081923)
(0.264013657643454525 -0.335367056308486844 0.131446606216534312)
(0.345641685921604824 -0.435543122310201924 0.11363377118315568)
(0.287019096167750454 -0.417788351192174667 0.10746935858143887)
(0.320329622528302549 -0.409289990405125592 0.105299915618923601)
(0.320380217991718175 -0.392377267975708932 0.129310722581285509)
(0.402626875565856357 -0.498705926096284835 0.0964822684657245244)
(0.331547267566260351 -0.482983258422421791 0.103538193468764528)
(0.369430207516575848 -0.472459877382592486 0.0982470389031776664)
(0.372830132962183647 -0.461377288565367361 0.120208344681063589)
(0.365845486864298852 -0.548670373169789727 0.0817496281559484533)
(0.427231542685337806 -0.528071201360272857 0.0711779110826652878)
(0.430230318823021707 -0.528223835388674234 0.0913159257760272625)
(0.470567614138493573 -0.566082012674711144 0.0495154112356518197)
(0.19630612060568664 -0.371979528350315114 0.0877610109040972697)
(0.160739477338329412 -0.370833710700570862 0.0735706036440909872)
(0.181246797302473256 -0.363851676304115967 0.0769261730845575004)
(0.171874500977789085 -0.346848706848176702 0.0895810316946650531)
(0.234659288087290446 -0.410549109729155204 0.0945991967242381382)
(0.194288583197009312 -0.399097586166538898 0.0815032351963327073)
(0.218866262682354012 -0.393781720218043585 0.0843715088495961274)
(0.21296795754127712 -0.378368166782398763 0.0984705494460951652)
(0.269926037502807248 -0.465053817221695365 0.0973737808670477462)
(0.224767458011267685 -0.441004052789687795 0.0876797408216512669)
(0.255001649158772714 -0.438565758125572192 0.0888772556539606379)
(0.250649913718381745 -0.426140989213255661 0.104751356765096962)
(0.299713004235711733 -0.532142617558527098 0.0888055531589885261)
(0.25282110899734006 -0.497211819430844748 0.0901248815449560009)
(0.290512139981563444 -0.499719461834200407 0.0885336847866291937)
(0.287842382151560661 -0.489524418426817765 0.105523160192988047)
(0.255519250785818386 -0.566671359551914722 0.0803763466496559553)
(0.302676256900942353 -0.566251464540796001 0.0694841268644010301)
(0.29955661471943773 -0.565911859283966812 0.0873707138291879987)
(0.333330170914561408 -0.604859474685955689 0.051400076474855845)
(0.158980755554363917 -0.397481528977103149 0.067312827936326397)
(0.130781264743443926 -0.395445296235978461 0.0562882931737310604)
(0.148649013245161027 -0.389325711941395147 0.0595835617663602879)
(0.141817561097869499 -0.377936774665290742 0.0670864839932584223)
(0.184463059539286295 -0.429444934995577066 0.0745837792937458638)
(0.153584283689254031 -0.419578134301864636 0.0631812417493128053)
(0.175342438962715591 -0.415743621781702655 0.0662791615272734641)
(0.169163227386895654 -0.40429410142490213 0.0752807032983938279)
(0.205072632823650347 -0.472463874849707366 0.0804308414995594939)
(0.173530215350740813 -0.452326093763443404 0.069908018541290709)
(0.198723130786132102 -0.452929600717920156 0.072611027477689577)
(0.193187028614458883 -0.441857788150408548 0.0833824537135304938)
(0.216138388074523041 -0.528544236483332153 0.0816956750356234995)
(0.188127486746537842 -0.493957766051773883 0.0752633051420370791)
(0.218134267769016815 -0.501164734451647886 0.0768927652744141737)
(0.212033440696671793 -0.490745235134953439 0.088899114412021682)
(0.183345007952787631 -0.548157522659887375 0.0758432448137455889)
(0.213855916166470511 -0.562522885930908378 0.0749384609189183148)
(0.207311826658677506 -0.555240662636962035 0.0857390746761517025)
(0.214408730897781369 -0.595762383015669195 0.0611357186346896675)
(0.125315371974631273 -0.416349295335133318 0.0521567069867173438)
(0.102366184446207431 -0.413111504844127397 0.0430638842795748461)
(0.118549537927823287 -0.409233481220647566 0.0462868357385984031)
(0.113070698797133509 -0.400488391328078785 0.0511662766787203821)
(0.142793767418050888 -0.441391973176805674 0.0585054809968576436)
(0.118282629373960807 -0.433872233108038019 0.0489034066169745582)
(0.137013369256759637 -0.431671641794137584 0.0520871679211304325)
(0.131531400929815578 -0.422253300251967556 0.0580959861962203408)
(0.156024811608865277 -0.472761799231676771 0.0647404821837683636)
(0.132734011381406863 -0.459030327902889668 0.05483479696723257)
(0.153201447810771052 -0.459827334277698729 0.0579626279236977113)
(0.147961159817952714 -0.450086905797928816 0.0652510749736424506)
(0.161284333702304356 -0.511399131426994003 0.0694108749201592379)
(0.14287091584039216 -0.488608106603056536 0.0604698144033383525)
(0.163586863687188472 -0.494741926689031719 0.0637586584344369822)
(0.158165043787809018 -0.484573571912874534 0.0719976337673287475)
(0.143238225505057964 -0.522740639552155995 0.0635153279652435065)
(0.160438560634089872 -0.537863743097488856 0.0675544969830927516)
(0.155917752459296705 -0.526128892574006746 0.0754120972476273188)
(0.151059788348790025 -0.560794497867068364 0.0599816814339627219)
(0.0690195507908200612 -0.396676030892633702 0.0297723543311906626)
(0.0539666757405131911 -0.39588458981040664 0.023483634908220908)
(0.0610114639726555483 -0.386970887237091776 0.0283833630872497786)
(0.0818377605870154734 -0.41154466276353785 0.0346048012980919237)
(0.0643704544972724391 -0.409502136136826123 0.0274017153356320847)
(0.0731564487845196565 -0.399806785582816349 0.0332261353823157801)
(0.0952431893504262772 -0.429629069715409484 0.0398105839098320813)
(0.0755465449130960365 -0.425895366566899469 0.0317885990238980093)
(0.0907348102785748983 -0.423285973531109139 0.0352166439927286343)
(0.0861768210474399832 -0.41582940907931526 0.0386116613366991115)
(0.108455244975318138 -0.45079196151875095 0.0452327225873496094)
(0.0871710425917568005 -0.445106822108656042 0.0366438373532517736)
(0.104163998465453975 -0.443198841113464415 0.0401783810380763606)
(0.0994407368419678861 -0.435193068700156172 0.0444322614805075164)
(0.120089929224464209 -0.474661866153613998 0.0505641291868025797)
(0.0986985732563893658 -0.466754581054195317 0.0418997779276957735)
(0.116794776003862746 -0.465913485711656139 0.0452827036786782669)
(0.112092716563260919 -0.457623508222251341 0.0504753177546615264)
(0.128241475852271331 -0.500515404304276212 0.0545742674484226767)
(0.109368550326181174 -0.490274308435767747 0.0473580312756507679)
(0.126645350811946389 -0.491023918172842189 0.0502208910815447607)
(0.122814598359909335 -0.48268368267770384 0.0563607410738119485)
(0.11816490539483436 -0.514321534739002328 0.0522492319127604576)
(0.129995698262846099 -0.518025267532756017 0.0536767097091720921)
(0.129431202443168164 -0.509026482403063918 0.059821675526662281)
(0.128830422010820816 -0.525341165653592124 0.0532958301518169641)
(0.0488686125541212962 -0.406859605408373182 0.0211129959126623717)
(0.0357542649514238503 -0.404678607495902121 0.0154605435951035812)
(0.0434560098694824551 -0.397155156070294613 0.0200203360249045711)
(0.0577321172378967226 -0.422002142270367697 0.0245855130614382189)
(0.0424246813567128525 -0.418762231803480545 0.0180458987819510502)
(0.0516749781945559164 -0.410601228694633669 0.0234186217747698773)
(0.0672747566290253785 -0.43969819743396199 0.0286218524673177155)
(0.049728075113071625 -0.435317509153119508 0.0210846887770682473)
(0.0641095663645748354 -0.433435307335947984 0.0251984884425807548)
(0.0605944345261030387 -0.426537900597548647 0.0273998280899074333)
(0.0774415047274432389 -0.459857899367366763 0.0333108926935979308)
(0.0577393472761073903 -0.454456787014130503 0.0247165026801845836)
(0.0742279307293804147 -0.452788116186115974 0.0292750115732398238)
(0.0701119974288940268 -0.445107005746041784 0.0320792459650911382)
(0.0883891449668904872 -0.481944507559038948 0.0386936800165439826)
(0.0665402461449408622 -0.476072211517427901 0.0290689301453353373)
(0.0849514802494397148 -0.474343060269248384 0.0339746841166480434)
(0.0801673152405370099 -0.466112540166012168 0.0374968546504723804)
(0.100354227230182697 -0.505273044219985312 0.045032995739988535)
(0.0766388157873931219 -0.499715938257322356 0.0343297412076079139)
(0.0964399091210792064 -0.497212120011553405 0.0393956624597351646)
(0.0909958137544681217 -0.488911964052701764 0.0437427085085183021)
(0.0894144781734645816 -0.524696567990469376 0.0409971359540874242)
(0.109116362452023261 -0.520625787905097281 0.0459707891426214335)
(0.103542797335146999 -0.513107984180252497 0.051391126918398311)
(0.114225757754456758 -0.529463290125637975 0.0519333888639289046)
(0.0289550112812648024 -0.413377463659446276 0.0123934464643923013)
(0.0177893293742877358 -0.409666575962491508 0.00758518995501418145)
(0.0258550594106499651 -0.403595986188467204 0.0117674109044676109)
(0.0340805671103303134 -0.428923125745436618 0.0145450744975811185)
(0.0210261733864375681 -0.424100874651313797 0.00888148674562035459)
(0.0305259622738127435 -0.417434038021129716 0.0138191183138413765)
(0.0398598841275385266 -0.447074717832087909 0.0171793389899351223)
(0.0246436744337472161 -0.441081444032353664 0.0104605075174251175)
(0.0380568096729224162 -0.440602454486465456 0.0150312835376876109)
(0.0357293258693841334 -0.433712313257254178 0.0163257588806312651)
(0.0465157295774854054 -0.467999505193828713 0.0204745401319220005)
(0.0287690275343761848 -0.460835914287841431 0.0124193283662787785)
(0.0445019382705584415 -0.460608842080950542 0.0177663801743732225)
(0.0416010438677075073 -0.452602929648504737 0.0194288330704431821)
(0.0546000693726363048 -0.491795824031686979 0.0247049913363993137)
(0.0335970988795206635 -0.483641831695312163 0.0149083200455691744)
(0.0520991138783080815 -0.483523868977200511 0.02121137041535575)
(0.0483771536795484236 -0.474257749060155831 0.0233532421736015773)
(0.065148267103022961 -0.518359460401275229 0.030293881421706817)
(0.0397042168539307877 -0.509853625749088102 0.0181756155922426117)
(0.0617433211128153095 -0.509371665117861361 0.0257758327332178426)
(0.0567308873676061892 -0.498759542923528698 0.028399537778671699)
(0.0482916088884366157 -0.540057076596540897 0.0226422660193680257)
(0.0755326648142160828 -0.537808563964102926 0.0319426380815338307)
(0.0682690439757900613 -0.525967743504844654 0.0351112468567480948)
(0.0802228522702336244 -0.548048793976418258 0.0382095871075384258)
(0.00965561262353606745 -0.418823839310044632 0.00407323023624223211)
(0.00862103503678029841 -0.408948315409191132 0.00386574988732157421)
(0.0113551115601544551 -0.43468127895878822 0.00479691976546433446)
(0.0101674632844758472 -0.423047853408023145 0.004553890860744177)
(0.0132702633223517087 -0.453269649735216884 0.0057004968937688083)
(0.0126962560055947846 -0.44657864588479329 0.00497274331829382094)
(0.0118869394215217073 -0.439625743333597607 0.00541129076055808528)
(0.0155042080299101249 -0.474919546576900387 0.00685310827992602345)
(0.0148684701760133809 -0.467213419400547336 0.00591458520496980413)
(0.0138454310284146769 -0.458930165637173204 0.00648766711910649715)
(0.0182757128076954725 -0.500146799617549709 0.0083789443014124533)
(0.0174940666263556782 -0.491261147222150751 0.0071298211092513282)
(0.0161434560191039064 -0.48131831853991025 0.0078831053372290863)
(0.021965578947562809 -0.529887239490438255 0.0105240001899038291)
(0.0209420119297662917 -0.519440412198119317 0.00879959063119887044)
(0.0190647886244246778 -0.507355938708198506 0.00973252321541672252)
(0.0259160674942129528 -0.553087072118106149 0.0112451165555283727)
(0.0231264618235918033 -0.53812759179561398 0.0123803426629410969)
(0.0274516275585275603 -0.565837570608037188 0.0137106090832917037)
(0.25590187689220556 0.315384591385797663 -0.442237041030686895)
(0.0221945294452076565 -0.45683146522415996 -0.345182161908252294)
(0.25916312636586647 0.179047803286038087 -0.386350617643159089)
(0.291146575552187481 0.298117243207729143 -0.428090212371593115)
(0.247029411194280762 0.524558636288112501 -0.430119011138729967)
(0.310589555014551932 0.496379479717080629 -0.418754608896613145)
(0.0931871787907730537 -0.340874503730508205 -0.33103533324915857)
(-0.235068463897296381 -0.437815405621989173 -0.256298691187022976)
(-0.0829800057309814376 -0.92892428773286162 -0.187302066886444851)
(0.294233030162890929 -0.0378002307723281361 -0.365336410529645217)
(0.326154242744447043 0.224137327342440573 -0.365210273272661368)
(0.307037486272031479 0.287255948012875739 -0.409207793694719546)
(0.589306798459540482 -0.88210750552033923 -0.293730350842756338)
(0.13863396527459812 -0.922390734182406025 -0.0535561207948028334)
(0.861249942381458578 -1.02206495185697621 -0.122848907985200276)
(0.32049176657019679 -0.633466507199816675 -0.326482471884946723)
(0.319318261812939042 -0.668486247368220265 -0.235472584921536165)
(0.724606024831709439 -0.959578181896799665 -0.223285380344257517)
(-0.11235641523882399 -0.267546993399626121 -0.243285466553648383)
(-0.158028326914683326 0.0332100462678831809 -0.0642374729800328226)
(-0.295281483072939444 -0.39190167186747138 -0.0835233195280471741)
(-0.139558555923276678 -0.0964170543401496188 -0.290599768467509345)
(0.116315345335138098 -0.566320372329877419 -0.126648051737512646)
(-0.194970475667400944 -0.175139357916790001 -0.193519972685723685)
(0.108184752018599672 -0.948403527481045838 -0.330040410689573571)
(0.282140609205009441 0.025584161831679348 -0.259270933959521277)
(0.378033389273528031 0.0842119344105835416 -0.372385416024451577)
(-0.233524225522441786 -0.682302033022369026 0.00470164512641572073)
(0.023824864479955174 -0.493607415742300715 0.22913211416635465)
(-0.0667357346804410279 -1.12560385943432362 -0.03741495036073747)
(-0.225283556392326695 -0.22453396179814053 0.0267724139833780232)
(-0.0148126868222293318 -0.4566379614001147 0.126209673074340056)
(-0.0789752695021409545 -0.857932583599093634 -0.201211232802413736)
(0.197143456592284883 -0.309794399904505247 0.0523999418361040803)
(0.100043929186307223 -0.190036818155539577 0.0897456544595788414)
(0.0788265613296292578 0.0671586997246645528 -0.134912697549619265)
(0.360512565912980865 -1.1518989770642003 -0.16608869395957529)
(0.594274961777316979 -0.56744041011091384 -0.0958407283578368713)
(0.63778147621732062 -0.873303130726890475 -0.189775059281897834)
(0.247736915390959489 -0.673163662970155952 -0.280260157632493734)
(-0.0402422377457146083 -1.3466586451264233 -0.278925385009563598)
(0.0863659421852202153 -0.787209909623085569 -0.34103541595930742)
(0.18929853731195237 -0.224829514051414769 0.350640142114278519)
(0.202782762664493105 -0.360965366111237806 0.352152820437259595)
(0.20186558006974023 -0.36645573972299067 0.30246017736260572)
(0.24018900863640244 -0.196603227242050232 0.189182913550541898)
(0.250964675613961408 -0.305660834781197932 0.269100473708237364)
(0.235856062197367961 -0.277045788314865205 0.163220956761644193)
(0.508109924228112186 -0.380546753808998384 -0.0584950157343616522)
(0.313360843000739742 -0.26696991629038247 0.0836986807965548751)
(0.422423814933020558 -0.278790222093185824 -0.0849645505643515514)
(0.609703267054396592 -0.356044336204763667 -0.210012192030754635)
(0.572077146562647521 -0.475120655536059644 -0.117920889910451132)
(0.725642225342400859 -0.520622551240159326 -0.255080741364976493)
(0.346182752516775605 -0.373393034256246148 -0.249577253561645396)
(0.42653116355951709 -0.153582315068048925 -0.209902102547944086)
(0.399313208513084494 -0.369268331266728145 -0.288411970747757818)
(0.248149183125104145 -0.3746221719218219 0.27061315203121844)
(0.209482404596449651 -0.329596592264350619 0.275940063555528359)
(0.187742047783834826 -0.41742990755491044 0.262382769890015022)
(0.321543970711902494 -0.375186334791935472 0.163616240954251008)
(0.312881812378722313 -0.327037042553905755 0.209860737177162165)
(0.299883224704127205 -0.405643632678238886 0.206776526226086221)
(0.377642471775705757 -0.42379892997705193 0.0242728066204658255)
(0.363041358361295141 -0.330487463599879405 0.122597994845760477)
(0.335188312354281259 -0.397189182364513282 0.110277215999347339)
(0.240373898108686979 -0.456508991398693109 -0.157485951441342614)
(0.472405234970842969 -0.340531880712857948 0.0145574923680779067)
(0.451682326289289726 -0.404654638748770945 -0.030895124182038422)
(0.38418750595465001 -0.240380438548911085 -0.120319788507875752)
(0.292951033429329821 -0.403066520692965058 -0.230630507083543879)
(0.162390163453222602 -0.458184710565109676 -0.254711702318790978)
(0.270579155547114369 -0.325673726794724672 0.215187648701472334)
(0.221187250139962904 -0.305625246129485273 0.183579937820172318)
(0.217103535603337144 -0.327006743096643071 0.171708439005078456)
(0.36656981579316289 -0.343992269864854761 0.168842491068671607)
(0.310212164348278308 -0.33235287120516871 0.165314343349949766)
(0.305584736944455537 -0.346092578904182657 0.155948173693534337)
(0.455248131946266177 -0.348215534505736113 0.112882680593372448)
(0.391089091192185712 -0.368394800345364481 0.126456140596693661)
(0.390331991682969281 -0.355921254254711883 0.112211571834301194)
(0.549376052664618419 -0.298826249597938687 0.0517236553015439429)
(0.463208415498029769 -0.401477086868290645 0.089212895760339625)
(0.482335147808448106 -0.342307457301048002 0.0669928390951190084)
(0.56914892940373929 -0.388504924496102411 0.0324755773593795941)
(0.567206780579314618 -0.257331842956986412 -0.00860291686095078154)
(0.71646341429169691 -0.294957319648640803 -0.0136883657568605249)
(0.262803508527704011 -0.325640803702580417 0.133706632468650027)
(0.219295020048118627 -0.323796814464802518 0.113161626505344892)
(0.229803340085607988 -0.318720155569258534 0.1021564438130564)
(0.335235917616883095 -0.360055617144795281 0.122927992877972042)
(0.282581386538785395 -0.355136166077464344 0.114066026260563988)
(0.29774186606546621 -0.347858999800260638 0.107491180987051363)
(0.399878560037317976 -0.404175771124524297 0.102786355763660936)
(0.344479492487252903 -0.397151765698176173 0.103564191017828183)
(0.365590140832866062 -0.382614690895858589 0.0960338281391433513)
(0.469490615686560198 -0.448723093925115502 0.0699648178181754704)
(0.398858103949510767 -0.450680970819124838 0.0893966970221491131)
(0.425020606458091088 -0.429538397336186484 0.0791279811182017262)
(0.4736224736879589 -0.493728084200421913 0.0536029707314751719)
(0.519416518974948116 -0.466031321807265919 0.0397343273879398814)
(0.568769306360930593 -0.498288799319383691 0.0213069113973257604)
(0.241339570329552416 -0.35766012545317849 0.0935210202972589638)
(0.200572079925795316 -0.357264671536631828 0.0804005297239272498)
(0.219022717552090102 -0.348598060410241661 0.0785504337640867412)
(0.292669626434599039 -0.39432138706792369 0.0947022244004200597)
(0.243893157473776184 -0.386862200641719167 0.0863406998305687873)
(0.266818376146000291 -0.377974959959232193 0.0840241571193924563)
(0.342458950637055171 -0.446206745477515987 0.0901745322763163326)
(0.288312175519324809 -0.429789560547337579 0.08708598237945539)
(0.319070057755971304 -0.418408672275667859 0.0828010495776408395)
(0.395792912549293663 -0.501825152646580452 0.0730348499354490366)
(0.328395079931878775 -0.490337276171147307 0.0835575397481141402)
(0.363215153068292163 -0.476253796644000971 0.0772816605570178783)
(0.364062312721981696 -0.546836141499212558 0.0608005679084179587)
(0.419087870990061784 -0.526165488390851643 0.0514894910961824839)
(0.457766914613024711 -0.560471840466794768 0.0289260371015145415)
(0.204269644958250896 -0.385653868171844438 0.0732202092572371011)
(0.169156333209304954 -0.383068782686153297 0.0625908973290450754)
(0.188952561648977141 -0.376179584039851245 0.0635236586551770205)
(0.238960691835899741 -0.421798368614460351 0.0787244578096041731)
(0.199920118448060152 -0.410673871863996454 0.0691281406223144268)