/*--------------------------------*- C++ -*----------------------------------*\
| =========                 |                                                 |
| \\      /  F ield         | OpenFOAM: The Open Source CFD Toolbox           |
|  \\    /   O peration     | Version:  2206                                  |
|   \\  /    A nd           | Website:  www.openfoam.com                      |
|    \\/     M anipulation  |                                                 |
\*---------------------------------------------------------------------------*/
FoamFile
{
    version     2.0;
    format      ascii;
    arch        "LSB;label=32;scalar=64";
    class       surfaceScalarField;
    location    "0.149999999999999994";
    object      alphaPhi0.water;
}
// * * * * * * * * * * * * * * * * * * * * * * * * * * * * * * * * * * * * * //

dimensions      [0 3 -1 0 0 0 0];

oriented        oriented;

internalField   nonuniform List<scalar> 
20536
(
3.54492029809213901e-05
4.83459241181759257e-06
-1.49400345350340047e-05
1.16072851451996063e-05
7.43150933862114657e-05
-0.000103300665590687604
0.000109247488291031909
6.14560955234109881e-05
1.009613472521319e-05
6.11007766213734324e-07
-3.88752988840959681e-06
4.28464010385501276e-06
3.77337703513828487e-05
-4.03593363054921396e-05
4.1285718220317992e-05
2.79288858926288309e-05
1.62258605798415681e-05
-5.17661383192686623e-05
6.02526526234365156e-06
-4.55958581939715665e-06
4.88728935581224215e-06
-1.10892436513159591e-05
8.51280323773362247e-07
-8.02234960854703887e-07
2.3877237649140369e-06
-1.96582767394985576e-06
-5.73928425122325225e-07
8.80347715939923068e-07
3.85694119468607171e-06
-1.85130284523748015e-07
-1.27368263598944183e-06
1.21671079842396871e-06
2.49231729061822699e-05
-2.25573870282071455e-05
1.88511235866908007e-05
2.03576456749556488e-05
1.11729191755000849e-05
-3.67961883825948032e-06
2.29511075548801168e-06
-2.39083393679019483e-06
2.39396441813505153e-06
-4.98063781050996841e-07
3.12130998573159399e-07
-2.08430170111168524e-07
9.99771075228397293e-07
-1.71329238261935279e-07
-2.11559870003025021e-07
2.27368256079003375e-07
1.09874234213514138e-06
-3.00161951231864383e-08
-3.29781465944356238e-07
2.75487716868682011e-07
1.13304543489423345e-05
-9.90877296158135044e-06
8.70381525230049368e-06
1.56475420055487269e-05
5.46402278051161505e-07
-6.2500758309807681e-08
2.63402969853667822e-07
-1.89239256539345867e-07
2.34784595383525462e-08
-1.25854885126766439e-07
-5.04214172335475167e-09
2.40220441659615037e-08
2.55330703453431116e-08
-1.50534278083388427e-07
-6.38880428391517585e-08
5.7380559547372137e-08
2.46375914581726308e-07
1.96364403103913739e-09
-2.2445288097771996e-07
1.62818801596936798e-07
3.11503632783194262e-06
-4.82155154365546269e-06
3.3282556174218582e-06
8.54957574442493478e-06
-3.79813671528620994e-08
-3.17181570699418136e-08
6.7587256124837601e-10
1.76391295247113557e-09
-9.26220034555265284e-08
-7.53888035354932377e-08
-1.59022028547183392e-08
1.62732342635148166e-08
-1.09275833002729122e-07
-1.26274116692774358e-07
-7.80732662673341587e-08
5.81922907728693454e-08
3.74218419845786122e-08
-1.05150617541588684e-07
-3.45071234957649768e-07
2.69326299380216108e-07
4.54843164111391984e-07
-1.81263612650099562e-06
1.22391312650326591e-06
2.87052122142363557e-06
-2.66481012691481606e-08
-1.1865116087038455e-08
-2.41590867292832882e-09
1.33051012297521843e-09
-7.40230690863014202e-08
-3.35243811135734485e-08
2.17044787322888371e-09
-1.71740816740666582e-09
-1.31899273317342819e-07
-7.70106009461020452e-08
-9.81970655586030284e-09
1.93590833979709408e-09
-5.51523594027232657e-08
-1.28596799371102534e-07
-1.51769657282004229e-07
7.19754834862851481e-08
-1.08751096239647706e-07
-9.73262406385934959e-07
5.12703588138923221e-07
-5.49542103221316965e-08
-9.48481065491569144e-09
-4.0425007426570696e-09
1.54324100171263537e-10
-5.28665889887267161e-10
-3.25198492817073666e-08
-1.26205463643204315e-08
3.74125180743110383e-09
-3.77552911802523398e-09
-8.32369395560207855e-08
-3.43923248543989362e-08
1.06721986634388668e-08
-1.10292683212378409e-08
-1.53025349336228144e-07
-7.81368363095424541e-08
4.35974627795579304e-09
-1.31489308442743512e-08
-1.42328687413560111e-07
-1.10447766959250409e-07
5.71582745504263044e-08
-1.65672070711331644e-07
-4.14533406163322313e-09
-1.13750953422525047e-09
-2.70488550962401583e-11
-4.15090088653477437e-11
-1.46490367235398408e-08
-4.17647045525552334e-09
1.29624895183857085e-09
-9.81330503482092388e-10
-4.34204410132405206e-08
-1.29060685341137873e-08
5.49387584281923308e-09
-4.0482052264976425e-09
-1.0901865984373149e-07
-3.51723856360029925e-08
1.39422896304649558e-08
-1.26198030954110716e-08
-6.80997273336924644e-08
-4.69916137224969328e-09
-1.37463963211526528e-08
-2.06429105019999572e-07
-1.39473674129119878e-09
-2.77209804996206216e-10
4.47939013769116681e-12
-9.94446741176379639e-12
-5.32967943179211687e-09
-1.12686855471370155e-09
1.77164065782959278e-10
-1.04510132750755891e-10
-1.81483966639855095e-08
-3.91640869689861091e-09
9.66393796385062712e-10
-4.94854981698865876e-10
-5.48518145599240035e-08
-1.16636187339562492e-08
2.92998750917581751e-09
-1.74875564724244053e-09
-2.55963043107215602e-08
-3.38020600637920925e-09
-1.12016687693310176e-09
-1.17123732023192825e-07
-3.33193815345566127e-10
-4.2435232162580312e-11
-4.10446975312443085e-12
-8.10962733017417308e-14
-1.41474891774150932e-09
-1.91596427493615534e-10
-1.01574175241681955e-11
-1.75439858505610808e-12
-5.18746780719963591e-09
-7.23508036744312516e-10
-1.01704182298329156e-10
1.6508756634777199e-11
-1.63747072424120666e-08
-2.26503764795320976e-09
-9.50987657089189226e-10
2.54159679774713328e-10
-5.39140697799177369e-09
-5.74599705368290804e-09
1.63381410272219932e-09
-3.86558546488424961e-08
-4.81094808327992364e-11
-2.94640261478879213e-12
-2.03609292107272067e-12
4.60939025741076074e-13
-2.21755808736273905e-10
-1.54982242859078351e-11
-1.1483171193893519e-11
2.82175699573071989e-12
-8.62135974254065731e-10
-6.72099355634803715e-11
-6.85042642951730187e-11
1.72075491214955371e-11
-2.78835834700810506e-09
-2.35308757497213626e-10
-3.84921044742447445e-10
9.48967988415751996e-11
-5.92216703645049363e-10
-1.60681251476788163e-09
3.81574910395859494e-10
-7.0224217207911131e-09
-5.77622768168831554e-14
-5.20732085456180514e-16
5.09950178057315637e-16
-4.71949880164791296e-13
-6.41412647563460133e-15
4.38677316294378545e-15
-3.06941309363315055e-12
-5.92106093564802273e-14
-1.86073437844297041e-13
3.90157059722665132e-14
-1.66183284503810001e-11
-4.24889915296825757e-13
-1.32317287550447592e-12
2.90365837037134209e-13
-7.34862990608180658e-11
-2.46708249083409792e-12
-8.64056223775816332e-12
1.94317377538408872e-12
-2.59475118309155243e-10
-1.13656577005161633e-11
-4.85993651197031231e-11
1.07590721510031029e-11
-3.53088261497365055e-11
-1.87637235685614413e-10
4.28390818879736024e-11
-6.87165933780809192e-10
-4.71295882810713021e-16
-5.20735838049302956e-19
3.32699538184387896e-18
-5.65751207386466934e-15
-9.29811310918575531e-18
4.86013557285032774e-17
-5.66799177984245566e-14
-1.70832671470462015e-16
-4.03347821464892194e-15
6.30269843897877018e-16
-4.20941740287982886e-13
-2.24068953060991867e-15
-3.9332850280416297e-14
6.75879297664367194e-15
-2.46169740858373078e-12
-2.2189871417738559e-14
-3.3118880456715218e-13
5.94945288995436686e-14
-1.12361903667584637e-11
-1.75174484843346556e-13
-2.30819558482573243e-12
4.22840657943514998e-13
-9.54421746520982637e-13
-1.07316732634334611e-11
2.20177985475470469e-12
-3.59647191226739105e-11
-3.85618662849696263e-19
-2.52820054691104901e-24
2.61567285407007047e-21
-8.12022060673533117e-18
-1.45692179563298664e-22
5.12485950481213663e-20
-1.54363601219283088e-16
-7.11643174068473616e-21
-1.08123748426242303e-17
1.06708289409693293e-18
-2.0521707551384891e-15
-2.64383444183863231e-19
-1.82924617042292134e-16
2.06305655204039329e-17
-2.04382601724973018e-14
-7.93209397699254756e-18
-2.51618331552058113e-15
3.16854306508146177e-16
-1.59756826901883465e-13
-2.02100477665135589e-16
-2.83898271847521286e-14
3.81340741292991721e-15
-4.12872062761117343e-15
-2.24315956702643425e-13
3.524711493524977e-14
-8.69125603044369418e-13
-2.18401727033094918e-24
4.6467857073605167e-27
-1.30422749865047221e-22
2.83188940383625146e-25
-6.33592759859055922e-21
-2.52691604418765391e-22
1.66870769560615991e-23
-2.3743507725389517e-19
-1.21735566108476719e-20
8.69440239468102728e-22
-7.12598925205023554e-18
-4.83599910722703021e-19
3.77722747992730246e-20
-1.81258481570239084e-16
-1.63587085904839747e-17
1.36339189020745515e-18
-4.27881842530990427e-16
4.16971152978175607e-17
-3.64622273349788401e-15
2.77867040310947154e-05
1.16091811098989372e-05
-1.46586078286115304e-05
7.2548901869447623e-05
-7.1219339377786206e-05
5.38637052436517896e-05
1.65216583342018229e-05
2.39886099177653659e-06
-4.08737289024811771e-06
5.44357880155871125e-05
-3.95380217472805713e-05
2.84214910304694566e-05
1.53559614403892412e-05
-5.88978397552343189e-05
5.00639054948825135e-06
4.49761443903543256e-06
-1.03901818321040345e-05
7.7393014446741458e-07
2.77735175889103207e-06
-1.52436947328482656e-06
-4.99152929204784036e-07
5.37795234404834095e-06
-3.24019995844488997e-08
-9.47139568413423617e-07
3.46872857893768254e-05
-2.01001321832275499e-05
2.20108798176332456e-05
1.09751601799359155e-05
-1.69559794071654843e-06
3.08882516514764895e-06
2.03053524741722465e-06
-1.41757698250140086e-07
4.32110923511866545e-07
1.09335208125622928e-06
-2.14889084667746671e-07
-3.45278834492598665e-07
1.23384385043676934e-06
1.16294159384220296e-08
-4.42446538622705519e-07
1.75154875411493902e-05
-9.23426723797764913e-06
1.78157350211656884e-05
7.4054269177057579e-08
-5.35953135002180681e-08
1.15349120870819308e-07
6.60815895390856791e-09
-1.20017026968255853e-07
-2.89937965018935846e-09
3.90835102704793092e-08
-1.3218271369730569e-07
-8.84677478703029844e-08
3.8391639460635299e-07
4.99040229735150321e-08
-3.78892675461580906e-07
6.02938571049929572e-06
-5.57592407531816382e-06
1.07145402264568859e-05
-2.54264503932226844e-08
-3.21104030500845358e-08
2.54742495989189581e-09
-6.60310444448734481e-08
-9.09848680618911107e-08
-9.07901278052312312e-09
-6.90099778767521866e-08
-1.37684422285474825e-07
-7.70922174910547708e-08
-3.36240660859885465e-09
-2.99361347929245261e-10
-3.76576573169820852e-07
1.43732458159921303e-06
-2.8352487797503742e-06
4.58978826734477585e-06
-2.58879676241784094e-08
-1.44052045978881728e-08
-1.6856859700070929e-09
-6.53985160253193038e-08
-5.10838787399135643e-08
-2.73559351613967446e-10
-1.00957133462104702e-07
-1.04348371305285959e-07
-2.0517010842395853e-08
5.77382020611860359e-09
-1.17285347836902641e-07
-1.9962343047293244e-07
2.73520549591295922e-07
-1.82233238767043904e-06
8.04366534306053779e-07
-1.17920727388771205e-08
-6.01192339888798626e-09
1.18567621899033373e-10
-4.38800004186251097e-08
-2.16757921303810964e-08
4.46525352081063207e-09
-1.00533232789793636e-07
-5.6540243317812926e-08
1.00922120784901228e-08
-1.6643533338586505e-07
-9.96446653016270088e-08
-1.11072049061087112e-08
-6.58633051566892436e-08
-4.7184390094202852e-07
-1.58335290990765797e-07
-5.66380435056037182e-09
-2.12609507336090523e-09
4.62830391474073564e-11
-2.1309757301400788e-08
-7.94831052616769405e-09
1.87475124802272437e-09
-6.26253201523319564e-08
-2.42472120409241521e-08
8.26176172781196942e-09
-1.39100785026143232e-07
-5.98398727083516945e-08
1.89644828044691033e-08
-9.17386286317242385e-08
-3.06960446150576882e-08
-1.05146084486595276e-07
-2.23749563118985418e-09
-6.21554973447499474e-10
-3.08889839548961533e-12
-9.15182094185900404e-09
-2.57303412511935826e-09
3.03926429234676546e-10
-3.20386739444629698e-08
-9.06774000632920922e-09
1.93825791644591151e-09
-9.19729922453216889e-08
-2.67259998602571137e-08
5.51372013817890818e-09
-4.54625067306184955e-08
-8.81777954030648876e-09
-2.07105515908034926e-07
-7.22038209300544148e-10
-1.17531620666967837e-10
-1.51283862288519137e-11
-3.22948246581590451e-09
-5.419819459835892e-10
-4.65814323506363639e-11
-1.21960256939670198e-08
-2.07885073829616272e-09
-2.90348312712505713e-10
-3.86684354459876842e-08
-6.7154216898851061e-09
-2.33630319675188143e-09
-1.14361967176701516e-08
-1.23769627523843873e-08
-1.00901196698819116e-07
-1.3196784088790087e-10
-1.04239689822418781e-11
-5.93122856160568401e-12
-6.3247189393187848e-10
-5.53811643308913802e-11
-3.44674237741212837e-11
-2.51632723151880783e-09
-2.38468148988954905e-10
-2.10454499303468139e-10
-8.32481193646941187e-09
-8.3958583173148199e-10
-1.26735685515689859e-09
-1.4080482191483109e-09
-4.27664494682949215e-09
-1.95542740402557493e-08
-1.12378901301606821e-11
-2.9121153656918362e-13
-6.34623689980623764e-13
-6.11628861009012721e-11
-2.04921435238624885e-12
-4.55109438672836434e-12
-2.67636206578564358e-10
-1.1419549203424094e-11
-3.00069327372316627e-11
-9.4679940235507367e-10
-5.05573754051499826e-11
-1.79869822015447452e-10
-9.87042507244058416e-11
-5.57047692914584436e-10
-2.45183822870628193e-09
-2.95229929416397668e-13
-1.33471595471038339e-15
-1.74172594890668243e-14
-2.11291817830289301e-12
-1.58056424200685328e-14
-1.64993296774015501e-13
-1.18838572762037997e-11
-1.46273222649160712e-13
-1.36317360549863081e-12
-5.2428033834023337e-11
-1.09384130282816934e-12
-9.70196771029792808e-12
-3.70319814124946507e-12
-3.36148918827608103e-11
-1.55162928542492259e-10
-1.24926409484775237e-15
-8.9253823979847184e-20
-7.02822900520520126e-17
-1.50426163863922351e-14
-3.06394568900998788e-18
-1.09298745583310111e-15
-1.39719173916095032e-13
-8.55095035171666425e-17
-1.43003512803628692e-14
-1.03892432562613943e-12
-2.07999481999239856e-15
-1.60142366044799022e-13
-2.81679047267801963e-14
-9.07476351204185443e-13
-5.39786773362578268e-12
-8.0219009951143674e-20
-3.1263895100898678e-21
-2.76729906601073655e-18
-1.41295417483737899e-19
-7.70982105618609041e-17
-5.38454651346472451e-18
-1.8548310335359365e-15
-1.80971661907249577e-16
-3.68216678323093231e-15
-2.65963415574059452e-14
2.89994960072417944e-05
1.58607172233624716e-05
-1.18734022579787573e-05
8.57686695401328861e-05
-5.84008109808641316e-05
5.99740763270798074e-05
1.92198641171227018e-05
2.67149496733374858e-06
-2.46930076846170966e-06
6.0929553119820764e-05
-3.19475167636820278e-05
3.06285583425089448e-05
1.89305658362711384e-05
-5.78612589584510034e-05
8.30547911567296056e-07
6.09171447637757007e-06
-1.05014671674996192e-05
2.32794019627246191e-07
3.04457346433143205e-06
-1.8993572772177096e-06
-3.12198281083896351e-07
5.92480458783395754e-06
1.04600123141081523e-07
-8.65756438668395592e-07
3.88061162545975767e-05
-1.58618878782365051e-05
2.2909988761182939e-05
1.08248519099568375e-05
-3.77985465422487375e-06
1.99358302949828663e-06
2.45903843624346243e-06
-5.60815968814120847e-07
2.43125026322353148e-07
1.14152286188324172e-06
-2.19853131947725023e-07
-4.91012152997608061e-07
1.84160138398518329e-06
1.51892812483734589e-07
-1.13936489267940022e-06
2.14485959690499233e-05
-8.95728972281470125e-06
1.89131635286592215e-05
5.21730026180694245e-07
-5.58810433446140507e-08
3.0276318170163735e-07
6.2367413118912131e-08
-1.25293839456718612e-07
2.0907200850017237e-09
1.04397691316115049e-07
-9.99172251030913108e-08
-1.90268000976490995e-07
7.21817347160202887e-07
1.69121534628472481e-07
-8.14195319612184207e-07
8.91459731059956458e-06
-6.87024958116447014e-06
1.23216623918642215e-05
-2.06982418327918139e-08
-3.37706931480099382e-08
1.46537395797350401e-09
-4.72919398015658346e-08
-1.00301451905824367e-07
-4.82823451956369062e-09
-2.17869749266546268e-08
-1.06488259635293656e-07
-8.16294797058969292e-08
2.38730727513352521e-08
1.30218408721682612e-07
-5.50571981552422579e-07
2.8587840029989439e-06
-4.42380988999430453e-06
5.86278722879664619e-06
-1.9861944270835878e-08
-1.61612339347194521e-08
-2.12709724748699736e-09
-4.72976794959294837e-08
-6.40980383961702149e-08
-1.04109337226763985e-09
-3.26204030161134549e-08
-1.07586971445831619e-07
-1.95491852224121788e-08
1.25883995794815483e-07
-2.19508883609117489e-09
-2.68402221408282008e-07
1.03092649033916968e-06
-2.46515295342696605e-06
2.34652545245471344e-06
-1.07265067677450108e-08
-8.13451038417158216e-09
-4.43110787548556304e-10
-4.28869257432794892e-08
-3.07287445513680249e-08
2.70220143525151576e-09
-8.63438912916558343e-08
-7.5587999561209724e-08
1.4475202510870886e-08
-4.41428626553881986e-08
-9.76442341586508716e-08
-6.62325818857473362e-09
1.81766523294917952e-07
-1.03241196802898765e-06
-5.72918622128083824e-08
-6.68746988493158148e-09
-3.46334442874441618e-09
1.97085887777958324e-10
-2.55483929190366182e-08
-1.32176531682583816e-08
2.57043047596059361e-09
-7.06332070433595151e-08
-4.01673959271477935e-08
1.18458494570164948e-08
-1.39546104777059401e-07
-7.94179842112541315e-08
3.41300626647177098e-08
-8.34754460439831466e-09
-8.79999457069157839e-08
-1.60602039442754002e-07
-3.33886281234521306e-09
-1.18874520594941174e-09
-1.99444911479272476e-11
-1.39529887962987711e-08
-5.01003983205594549e-09
5.22894845563904341e-10
-4.90944048013046287e-08
-1.76636849313034913e-08
3.68041218115760194e-09
-1.22819412898412479e-07
-4.64056768434816505e-08
1.29843101164425542e-08
-5.48764820433645492e-08
1.14055710426789117e-08
-1.63229976069071228e-07
-1.35371126061147228e-09
-2.71584123003707413e-10
-3.29777595754343364e-11
-6.22067279669820834e-09
-1.26911122715336532e-09
-9.42250293183310369e-11
-2.41338290822646683e-08
-4.9100833053117741e-09
-3.78193290040914461e-10
-7.17328351510872999e-08
-1.49280135561325383e-08
-2.39225327000475399e-09
-2.08246616249445057e-08
-1.54046651841694543e-08
-2.05637855079621502e-07
-3.06721387191763376e-10
-3.0010853680533474e-11
-1.24892737203805229e-11
-1.50738628435311436e-09
-1.59496908682403317e-10
-7.30534407764146297e-11
-6.12894913999678755e-09
-6.79790325263210822e-10
-4.46103785509538808e-10
-1.96126956719834942e-08
-2.28563726571592037e-09
-2.57610989363160313e-09
-3.26646793085093421e-09
-8.89937212066779282e-09
-7.31607122844059796e-08
-3.29808549442511299e-11
-1.10654463480753912e-12
-1.55264750037509392e-12
-1.80227938244050637e-10
-7.60774847840395818e-12
-1.11123309857392616e-11
-7.91039006124121602e-10
-4.08621686781735566e-11
-7.45207664012455996e-11
-2.74923255581148066e-09
-1.68096634175368341e-10
-4.58689406485992987e-10
-2.66966707172079626e-10
-1.47230480707214614e-09
-1.09281068245823764e-08
-1.15764147895360682e-12
-7.45361617579973349e-15
-5.07490973099674089e-14
-8.13013700557447538e-12
-8.4332011302587962e-14
-4.74129943552704588e-13
-4.44541342606290699e-11
-7.45725806202426509e-13
-3.88514978032709215e-12
-1.86434394242472215e-10
-5.08788535310136768e-12
-2.79877444792754537e-11
-1.35702895461361865e-11
-9.79771221028825403e-11
-7.28983442915551945e-10
-7.2464142196529353e-15
-9.72900271902997588e-19
-2.70025356435264693e-16
-8.33830719742018214e-14
-3.24768574651688313e-17
-4.02765500170307316e-15
-7.46528460902613032e-13
-8.82773797194769059e-16
-5.13592480497830219e-14
-5.15947339578797892e-12
-2.03881458603638019e-14
-5.6021665311016204e-13
-2.22954785465149109e-13
-2.98028721140573135e-12
-2.0711085485480423e-11
-8.96435253063330852e-19
-1.8851071307646769e-20
-3.0188745359697124e-17
-8.21407180616798768e-19
-8.26288093227476197e-16
-3.04698542309633792e-17
-1.91710084640834724e-14
-9.87221416639107454e-16
-1.79267890780912687e-14
-2.26422913583129044e-13
3.3714992013458103e-05
2.69220674884240636e-05
-1.3485192222382936e-05
8.15618664617500733e-05
-4.26107910773277764e-05
6.78635841611304488e-05
2.41849839100911077e-05
1.0732575999553394e-05
-5.42714806609120826e-06
5.91720190360516947e-05
-2.68870040166992371e-05
3.38824712542517659e-05
1.56607347163889812e-05
-5.32304407092392272e-05
-5.06567154251480921e-07
9.93763599855524987e-07
-7.80948195379064725e-06
5.52221658924879176e-07
1.91103265478323323e-06
6.00758554631080981e-07
-6.88439558906056718e-07
9.91287285530598715e-06
3.57710919741252392e-06
-2.88397023432793438e-06
4.32383256907100733e-05
-1.63289355142882795e-05
2.218080731798872e-05
7.37278623163661014e-06
-2.8856643389690711e-06
2.97369178215292296e-06
4.26849232976926198e-07
-2.01770271108934515e-07
4.49605378984847884e-07
7.18126235883602152e-07
1.13018946089694096e-07
-3.13099069274932788e-07
3.51300881882654966e-06
1.05672734724137789e-06
-1.77599120473342495e-06
2.66302925746414218e-05
-1.12506721288940494e-05
2.11295023709424129e-05
9.87411627514520183e-08
-4.46475974414204516e-08
2.60295299876133944e-07
1.85841493276081381e-08
-1.01901981540312039e-07
2.93113436983748157e-09
3.21554402050241598e-07
-1.90254683214015335e-08
-1.92054295951234244e-07
1.18224181012732719e-06
3.40628396006720841e-07
-8.95851201461064895e-07
1.21601321679151185e-05
-8.37280470226703902e-06
1.44264913936447491e-05
-1.75087799878682755e-08
-2.50604411376458275e-08
2.04184225790785611e-09
-3.48733250058992454e-08
-7.42886389060726208e-08
-2.50369163416271415e-09
1.74803659665161185e-08
-8.72988495609870105e-08
-2.27363128971794373e-07
5.57297650773689601e-08
2.21433807190695873e-07
-5.1664782769306482e-07
3.83603946064978585e-06
-5.6717706035126157e-06
7.44243784492107945e-06
-1.31307887865754881e-08
-1.21175329592116791e-08
-1.54287975232850502e-09
-1.59918730468993617e-08
-5.35646473431811956e-08
1.65165871712042071e-10
1.52036162335183793e-08
-9.88744023284675631e-08
-1.2006259743348334e-08
5.25891818863450401e-08
8.19815430809820233e-08
-2.80489001326772945e-07
1.35821459290521603e-06
-2.71257801624415975e-06
3.22913062755095592e-06
-4.87008350148007021e-09
-7.88213581378389882e-09
-4.71044196519637938e-10
-2.0888793409809647e-08
-3.1202668533827141e-08
2.07565914087692575e-09
-3.21876685669576223e-08
-7.6226811349030078e-08
1.77242183389950929e-08
8.08896806259716241e-08
-5.99744333433180978e-08
2.37299716653304739e-09
5.65778830645743739e-07
-1.13871736325196921e-06
2.47108848423904306e-07
-5.32398504841589909e-09
-4.30690384186026905e-09
4.76379336104491153e-10
-1.96626863262124004e-08
-1.7001536546437349e-08
2.97914158265848623e-09
-4.94266792021630642e-08
-5.17067116053683047e-08
1.34252110116477971e-08
-1.07921474852185253e-07
-9.04547983630203417e-08
4.5797468137700439e-08
6.42605314716993488e-08
-1.0710440564573581e-07
-2.02941336704156374e-07
-3.8086971132226498e-09
-1.74293244856802696e-09
1.89652119533245266e-11
-1.63677830979598451e-08
-7.51076980473891405e-09
7.8109869637004684e-10
-5.75121730788801265e-08
-2.63407568093126005e-08
5.55640523416809517e-09
-1.02679710141579728e-07
-6.04699337129388503e-08
2.70976438846834733e-08
-2.14902615499361109e-08
6.7832811379009629e-08
-1.70463831035530762e-07
-1.93646631609417327e-09
-4.76711425789871086e-10
-5.03547666837281954e-11
-9.09823062720509075e-09
-2.2612254488938716e-09
-1.37028854968173407e-10
-3.56205627015535938e-08
-8.71955792298911875e-09
-1.30814558977807869e-10
-9.11905488183829452e-08
-2.37833637674363763e-08
3.91520846358366894e-10
-2.18282982595542093e-08
-2.26551547564137688e-09
-1.86684885810837761e-07
-5.48572532503695698e-10
-6.41869848558010657e-11
-1.94608572725813639e-11
-2.74667918555057996e-09
-3.39978098489936258e-10
-1.12618362556750758e-10
-1.13521914157124987e-08
-1.43269433043149959e-09
-6.65823253086022045e-10
-3.45477374265192169e-08
-4.458577921347849e-09
-3.40976034523715041e-09
-4.67942707416780434e-09
-1.15240917037858028e-08
-1.12251260980878096e-07
-7.15817283987567629e-11
-3.03932149474842747e-12
-2.73050168480867326e-12
-3.93714948546726696e-10
-2.03823473160656048e-11
-1.93786822385720302e-11
-1.73295095444215675e-09
-1.05248359290188906e-10
-1.29613903640941095e-10
-5.79953271724043143e-09
-3.92978181968477097e-10
-7.9015370410973732e-10
-4.34254805008805313e-10
-2.61701195176198822e-09
-2.31441883456151933e-08
-3.26224400372737593e-12
-2.77339441065209755e-14
-1.03122385526157526e-13
-2.24083326374300717e-11
-3.03152519230392275e-13
-9.47941057596220798e-13
-1.19146661762982222e-10
-2.55251601131991117e-12
-7.69829053485405502e-12
-4.68996914663900018e-10
-1.55072898911122087e-11
-5.5574101919987218e-11
-2.81728788433054794e-11
-2.10079924716872971e-10
-1.7920284771645046e-09
-2.76888705272248186e-14
-5.85861352183248295e-18
-6.67599107736946802e-16
-3.083948096251707e-13
-1.90458999970192324e-16
-9.70799489643576088e-15
-2.64905424908496975e-12
-5.00341022638084396e-15
-1.21235787931377909e-13
-1.66167614494505223e-11
-1.06219417518952385e-13
-1.29173024461875263e-12
-8.43486732695927165e-13
-6.84087704648843548e-12
-5.17644656080855129e-11
-5.48848024669344688e-18
-6.23333820694434975e-20
-1.80284867118836269e-16
-2.63684877291441768e-18
-4.78037071526023721e-15
-9.50230435948016828e-17
-1.03251510895834831e-13
-2.95921571040252493e-15
-4.97802101628981396e-14
-9.07619583740583253e-13
3.51502888643478407e-05
3.5982536630645013e-05
-1.25576533684841195e-05
9.29427019402173285e-05
-2.94439240762175764e-05
7.28037621211788562e-05
2.87943024175299516e-05
1.64970904542310819e-05
-7.36814495275244756e-06
7.04709800069268274e-05
-2.07849501088992601e-05
3.72407618301904604e-05
9.96620726630637972e-06
-3.76737727772589692e-05
2.56270526226162039e-06
7.21964572188839381e-07
-4.36920398956347807e-06
1.13220548593240691e-06
1.82648485992276958e-06
7.66814293185114475e-07
-1.57363369237968177e-06
1.22694681525123843e-05
5.9009222335523148e-06
-4.03432742448462484e-06
5.48577627754785426e-05
-1.48829226933100787e-05
2.12378201656185564e-05
3.9624256289558578e-06
-2.59960573228895862e-06
3.39128054306898943e-06
1.78590911354972909e-07
-1.51226137145384471e-07
5.82022797334932393e-07
5.50084436492945763e-07
3.24731026837740929e-07
-8.72820993173780329e-08
4.44364850821070484e-06
1.53281060343027536e-06
-1.42315084207203885e-06
3.45543418810310618e-05
-1.11389276590264933e-05
2.33352280764798141e-05
2.38677401979001977e-08
-4.82140889947257138e-08
4.15395657578960621e-07
5.62532983867508513e-09
-1.00989307964276105e-07
1.38766626255692288e-08
5.10622415722553966e-07
6.57561884805043842e-10
-5.17920638632138822e-09
1.45979551192499651e-06
3.80891599853661187e-07
-4.37392478443095816e-07
1.59251292433286053e-05
-7.5443637501666183e-06
1.69594167812271399e-05
-2.20936182722676764e-08
-2.37877891906985724e-08
5.28630651608379024e-09
-7.76783333477632527e-08
-5.96530563099080368e-08
3.90530590589462467e-09
8.18993815926906353e-08
-1.12779080898477552e-07
-7.46519310647583557e-08
3.38092324263468478e-07
1.50046008540497039e-07
-2.43516540919212114e-07
5.01039511586009556e-06
-5.40238180062124719e-06
9.16406266808355446e-06
-1.30167969877620761e-08
-1.17591128479466366e-08
7.91299367641380854e-10
-1.18971653036510085e-08
-4.47008133689453381e-08
2.17087535905372923e-09
1.17601879839882693e-08
-9.34431287082217564e-08
-8.9612136365765356e-09
1.31997869231145951e-08
3.66960290581985676e-08
-2.20438715961826616e-07
1.01856124785272311e-06
-2.6451631385479723e-06
4.12664210408271093e-06
-3.37141863579642536e-09
-7.96443731045631384e-09
1.18938384798864672e-10
-1.05971867246797877e-08
-2.88139688298927447e-08
2.00216143355147515e-09
-8.90083337612463394e-10
-6.97810292181357933e-08
9.16946706621130409e-09
4.92557800431857007e-08
-6.45342000046932623e-08
-1.06794886162618938e-08
3.70176742127454831e-07
-7.1429028362292994e-07
6.94254492661465977e-07
-3.6767205860578082e-09
-4.61958749247258715e-09
1.81685782844263239e-10
-1.27440076038713812e-08
-1.75914218914402182e-08
2.09663001177812882e-09
-2.19889074590541837e-08
-5.2152448289318946e-08
1.04137053278356072e-08
-3.31128931992051778e-08
-9.23745463475759986e-08
3.21449480315477265e-08
1.08220181906951708e-07
-8.22565189291932822e-08
-1.75999843178284289e-07
-3.6079816130093626e-09
-2.17963840204454856e-09
-1.11039472784549731e-10
-1.41621882579556223e-08
-9.15173271831348824e-09
4.52863602669750486e-10
-4.7648471348822169e-08
-3.18893814388192166e-08
5.62680720647799659e-09
-9.4894927350989334e-08
-7.22779656815929461e-08
3.30366580099697334e-08
-2.41736330015804302e-09
9.97917751148557905e-08
-1.46807428893812105e-07
-2.24984844800224629e-09
-6.78292221846531211e-10
-7.11707238909309914e-11
-1.06427606578336274e-08
-3.19929773825406592e-09
-2.05836257031942446e-10
-4.21284878628039842e-08
-1.22121175490265348e-08
1.10291371421826089e-10
-1.11772471000227684e-07
-3.21832329755732068e-08
4.38530482365985908e-09
-1.83060967958314958e-08
2.45370049344829626e-08
-2.14957726049559392e-07
-7.87158564631875176e-10
-1.06571249390590165e-10
-2.58119233357706255e-11
-3.97348516052460626e-09
-5.6231327159060864e-10
-1.41098653179435767e-10
-1.65381945744143687e-08
-2.33898192964701953e-09
-7.38515552983479043e-10
-5.07527686165785989e-08
-6.93573337266149076e-09
-3.32282299368809373e-09
-4.35439833719619131e-09
-1.07058954072359111e-08
-1.44104920922525189e-07
-1.20163371751001869e-10
-6.20462789528044951e-12
-3.63397370187055771e-12
-6.63050147815144632e-10
-4.05935485218183835e-11
-2.53287123833295427e-11
-2.92917895809709823e-09
-2.02393478173769802e-10
-1.65640403714163019e-10
-9.76746403044531192e-09
-7.01038644279648991e-10
-9.90132222506708329e-10
-3.74699041375732232e-10
-3.28529475727494906e-09
-3.61700582256693344e-08
-6.77734787614496295e-12
-7.22396768734737204e-14
-1.49484440168467412e-13
-4.56594074486311382e-11
-7.67167926998162272e-13
-1.35172706779288383e-12
-2.37143620857316008e-10
-6.15984919635547271e-12
-1.08968546504046458e-11
-8.93671771292245026e-10
-3.37642163804195614e-11
-7.90125617658510304e-11
-2.98346974310627963e-11
-3.38616939881186033e-10
-3.33422207834050555e-09
-7.35091819762039314e-14
-2.09549235686884388e-17
-1.10646951890471722e-15
-7.98053148142886647e-13
-6.66555756112152969e-16
-1.5818457474317528e-14
-6.57716926797876971e-12
-1.69419248966061962e-14
-1.94190114396485324e-13
-3.79292441498229414e-11
-3.32605309875764411e-13
-2.05030687234730628e-12
-1.63625230915538843e-12
-1.25923464908627765e-11
-8.84062294758587786e-11
-1.98680977805750521e-17
-1.24313728149646338e-19
-6.38801229679892297e-16
-5.14445430191591786e-18
-1.6413197012349032e-14
-1.81424103009286504e-16
-3.29510133219203465e-13
-5.52675271040831483e-15
-9.3051070854483292e-14