/*--------------------------------*- C++ -*----------------------------------*\
| =========                 |                                                 |
| \\      /  F ield         | OpenFOAM: The Open Source CFD Toolbox           |
|  \\    /   O peration     | Version:  2206                                  |
|   \\  /    A nd           | Website:  www.openfoam.com                      |
|    \\/     M anipulation  |                                                 |
\*---------------------------------------------------------------------------*/
FoamFile
{
    version     2.0;
    format      ascii;
    arch        "LSB;label=32;scalar=64";
    class       volScalarField;
    location    "0.149999999999999994";
    object      p;
}
// * * * * * * * * * * * * * * * * * * * * * * * * * * * * * * * * * * * * * //

dimensions      [1 -1 -2 0 0 0 0];

internalField   nonuniform List<scalar> 
7248
(
26.8448711033380754
16.2189928363321201
4.88320754149377834
2.71991772734179449
-2.45677593760905211
-1.98494242387784325
-1.47177206312641573
-2.05990374758432182
-2.50213408775798563
-3.10581401750621922
-4.91610075162983762
-4.76795213981675303
-4.872193591037556
-4.16769468881815275
-5.3785320570246542
-5.48576209229019796
-5.73422920279431736
-5.83260605821746925
-5.25835067807904366
-5.55796052968796772
-5.73917302660059114
-5.86153248688647999
-5.90480226880731962
-5.75823701590321768
-5.58406557706939211
-5.7356437531785609
-5.84230580374294917
-5.88816320948890048
-5.95202688766726951
-5.70434553603234118
-5.8416487800449719
-5.96298100710498957
-6.06421584725319729
-6.18898183872354757
-5.89556976252470122
-5.97692442315863559
-6.06675932610018442
-6.17128081233883563
-6.28400758281636751
-6.09015241918044481
-6.13261885789476402
-6.17400693369176512
-6.21081099761336652
-6.23664058182408265
-6.30101512348201975
-6.30918135653261114
-6.30793560345621351
-6.28696425515760282
-6.23233873505597025
-6.53635568018308888
-6.52112505263862197
-6.49264490614498602
-6.44301135288982074
-6.36209604772622406
-6.82909134382277294
-6.81720457390925461
-6.79957556983783284
-6.77363736522283943
-6.73611014460571678
-6.6830669339503519
-6.6112057694632238
-7.12538187968064651
-7.10946967150114961
-7.08853447685955196
-7.06122303517528405
-7.02612430343434724
-6.98215824368382432
-6.92969282974608536
-7.43381828120406407
-7.41770000617949421
-7.39821899429477803
-7.37501455641116355
-7.34794507809034325
-7.31737209235332653
-7.28468113945771911
-7.7531001081855786
-7.73917769116185283
-7.72383191126264812
-7.7074202406513157
-7.69056274133962425
-7.67416545259171556
-7.65942231461274403
33.9229125487010634
18.6347376460237228
7.62055597732801537
5.57007044818620045
-2.33182556793695994
-1.20490857108660165
-0.735812870012733988
-1.09011151594979516
-1.47552048903440003
-1.01374042200760073
-4.59311424371649402
-4.58622333646504554
-4.65189998454850251
-3.99663975109491965
-5.35672115808826632
-5.48398447035296677
-5.75082492307836368
-5.9077301309657706
-5.29752702431131439
-5.52439889758650793
-5.75137674739305549
-5.90676400020030723
-5.97111160197725788
-5.68863788856600028
-5.62262834699969005
-5.79766147091829076
-5.89961044255833755
-5.90940369943473343
-5.96258876005544991
-5.76371180123638638
-5.91384437737262214
-6.03811638979852816
-6.13235056132232081
-6.28970901089450773
-5.95468365075339179
-6.05167464607168881
-6.16182733004496441
-6.29637663112232726
-6.46192118736953436
-6.14115262360160497
-6.19585721751980145
-6.25984343474572835
-6.33781822085331292
-6.41647324580179745
-6.33744887872382101
-6.35292216189174219
-6.36263373596358406
-6.35691714427537047
-6.31526265119400332
-6.5582074783845119
-6.54423169057824339
-6.51632296467937078
-6.46426962992405585
-6.37295540650292214
-6.81073674785357319
-6.78299605171750741
-6.74159077357061332
-6.6809247557553606
-6.59489464983150153
-7.09301355970558944
-7.063189048551199
-7.02384748123490343
-6.97311624843235034
-6.91063773674718274
-7.39907883618109175
-7.3738745430850825
-7.34381007866503221
-7.30903127324932012
-7.27096901630567771
-7.72301493235150804
-7.70572395137713873
-7.68773392167710057
-7.67001710919870305
-7.65393329400561573
41.711363352419184
25.385465647708088
10.299661306453423
8.53862440979975901
0.128507606757068515
-0.654143320947543572
-0.431695570943920082
-0.316723453959496304
-0.367496609080294689
-2.69076887585679003
-4.46590839121254213
-4.34438572627761843
-4.53408218091143311
-4.05436604202737172
-5.34109037762674355
-5.46662053149591998
-5.68077728841215812
-5.90809015392012338
-5.36431054756984693
-5.56716599140334534
-5.77981900200826715
-5.92774246814322847
-6.05349779940948984
-5.76921167259730439
-5.65876899014278578
-5.84504207185995028
-5.97422867605219121
-6.05108103545188847
-6.18367666948548589
-5.81571997754627379
-5.99193253641997448
-6.12984222936159728
-6.279381611220618
-6.56108885242607087
-6.01301359460583384
-6.13154335174046317
-6.27093447047583386
-6.46380523053025335
-6.72278126679453258
-6.19079627030330482
-6.26060957024503217
-6.35301550529374559
-6.48370835377751487
-6.62803393933009577
-6.37350941437122209
-6.39740887998184071
-6.42287795482270063
-6.44333371034748481
-6.42353375943248217
-6.57968599023298761
-6.56765575638880961
-6.54207313094449106
-6.49083964415890868
-6.39093115407316148
-6.82139830560955929
-6.7919456569937493
-6.74684729293598373
-6.67828886271979538
-6.57636750737440856
-7.09704121786403608
-7.06457175654426184
-7.0207194750629176
-6.96255643967280768
-6.88849860240707823
-7.39961688912784687
-7.37227849693686998
-7.33897467917333479
-7.29954592977455885
-7.25541455747048669
-7.72205316976077949
-7.70383123774783396
-7.6846359249914693
-7.66551137313212827
-7.64799593241984521
46.5862134869633877
30.6158008982115462
10.5487103671082103
10.3557566720339551
0.238773728466128432
-0.220168514595908249
-0.552290874670283927
-0.201284185321494391
0.655346569319330996
-2.12152209919626955
-4.01454280985547207
-3.97348512870203141
-4.24863469081352196
-4.00919401085642058
-5.28843686292233706
-5.32677314517449485
-5.43256479441263807
-5.61275617076122302
-5.03662723565850357
-5.56020104722732444
-5.74348191500782601
-5.87846732388223536
-6.05204910210128855
-5.79507394139700516
-5.69164285470809794
-5.87154419029082675
-6.04800243026869211
-6.25557238873356525
-6.52432161108225639
-5.87111190675022776
-6.05968398243520046
-6.24544808264786422
-6.49587112214770368
-6.95452173302496668
-6.06791918106690709
-6.214484920525436
-6.39218073784943108
-6.65920513163957217
-7.06244947153078417
-6.23650633691164646
-6.32574349718429652
-6.45015858566360123
-6.64052328540897996
-6.87417731008056521
-6.40730765951744807
-6.44126470113096428
-6.4846794205307825
-6.5369181805789669
-6.54898699968880482
-6.59944844824933785
-6.58987597005275205
-6.56807655378319843
-6.52149093015217662
-6.41406803329610842
-6.83097271291481434
-6.80001089451786811
-6.75170709559574522
-6.67581665515819633
-6.55680695128720981
-7.10042425676525468
-7.06532313231519105
-7.01692133850694244
-6.95100851163241096
-6.86433760613319865
-7.39982540670249733
-7.37033417720315409
-7.33368604557972237
-7.28936501324289221
-7.23873995298216499
-7.72099817324522419
-7.70185448960405949
-7.68143545989881993
-7.66086363739944254
-7.64189779236978239
52.1784137700404145
34.7121197179489798
11.2759105245906923
11.2044839936002489
0.349797227647655973
-0.244276217634070036
-0.609972655445186973
0.0229334140392580821
1.85801059589189776
-3.23307384029441636
-3.97587394330665012
-3.92230876133861628
-3.99405248354075049
-3.41699537726265135
-5.19152572480190067
-5.21700853366123596
-5.19933455092996777
-5.25621173183444146
-4.59151306154950056
-5.56346586337893267
-5.7301646491910514
-5.78554785892804535
-5.91151517957463124
-5.50445423779034115
-5.71833601529556379
-5.89994441516537194
-6.0996597313544747
-6.38832778920551725
-6.66123675227963119
-5.91561963148902059
-6.11074260437216488
-6.35048809427703631
-6.68404984766772703
-7.27860649289997408
-6.11502104597863649
-6.28422950837552641
-6.50799831438581489
-6.84797578514183858
-7.38207469712090436
-6.276303849302864
-6.3837428333286228
-6.5381694365298495
-6.7909532021526795
-7.11430957471805581
-6.43520163619920726
-6.47802882972053773
-6.53691349402128452
-6.62330127893060983
-6.67330528968131809
-6.61597172702992076
-6.60843486175285655
-6.58902306261632198
-6.5471263412888101
-6.43572205544060694
-6.83883120137640343
-6.80645676695570145
-6.75486666407075909
-6.67163096592227767
-6.53547233556725082
-7.10303523494319133
-7.06543742349678539
-7.01259933186625872
-6.93899919292029388
-6.83925308853126968
-7.39976534903547201
-7.3682295081951148
-7.3283370142940516
-7.27921487898243402
-7.22207878742437526
-7.71994457716930071
-7.6999448667062742
-7.67835983498696351
-7.65640754926455358
-7.63605116864859212
56.6529360971634759
36.9217363932521323
13.1721757257058485
11.1765092652860147
0.884723070378186094
0.430262560806692562
0.571766319364391151
1.37089413638151925
2.40667562256016154
-1.52581829910512567
-3.78836483208104369
-3.55394763874393504
-3.36982327628104494
-2.7665829840392977
-5.19916369839944714
-5.08483356742018167
-5.0097250357139087
-4.97654939596403345
-4.27635289350403269
-5.53541007827708675
-5.65717581096017152
-5.67407879325117825
-5.701760839384864
-5.03902006656166357
-5.74213534959550476
-5.91115145496576044
-6.11538882245014737
-6.42009925666877912
-6.56940983377490006
-5.96226715550815278
-6.15752831378230603
-6.42198286103449867
-6.8072494864108668
-7.4925537060487386
-6.1558359265001954
-6.33740814734833346
-6.58794589354639903
-6.98858360469824991
-7.62682450991751359
-6.30884857770263263
-6.42929033639247027
-6.60610472012513839
-6.89722269815080846
-7.30255165162653075
-6.45725952315222429
-6.5055568678753799
-6.56985067990218763
-6.67474126349145092
-6.75720655447140661
-6.62818850501694357
-6.62116145313310955
-6.5995169016044537
-6.55677885880696021
-6.43813396042047703
-6.84474067675196629
-6.81081026222895947
-6.75496149443222649
-6.66468770250675391
-6.51180783306697997
-7.10493049125726372
-7.06514390499663048
-7.00822423136924311
-6.92775924816636124
-6.81609460879883944
-7.39958807162680721
-7.36629978494637605
-7.32359700104402922
-7.27029451963378026
-7.20731528410987465
-7.71902302549076591
-7.69830576598096705
-7.67573447710274426
-7.65261536864517744
-7.63105236606412607
59.0194209080617753
37.2422646831869457
13.6791223967702855
11.7589295610504863
0.0711405873240096298
0.710794515619944889
1.03732046480472206
1.96879703271302553
4.03397282855128481
0.959608161690994166
-3.54823934633766225
-3.13205578235014315
-2.85482567247044061
-2.3399540443894935
-5.11218270068232883
-4.89269964624602238
-4.78959542016803308
-4.69881739082745042
-3.90922587577868086
-5.45902391784534302
-5.5010858407781047
-5.56570517725732472
-5.59117186502786012
-4.69594671812456355
-5.73345201346902833
-5.90403581396803911
-6.13322497729281224
-6.40461331325141625
-6.53408883158642517
-5.98790167651421967
-6.1892228291207374
-6.48387470515526232
-6.8995881064536837
-7.59710309802850148
-6.18437940851968637
-6.37349630165148362
-6.638981874835018
-7.07701635492911141
-7.77360655125774258
-6.33414425214100696
-6.460249883316874
-6.64486461876303203
-6.97173244649930535
-7.42880690327949988
-6.47423747576902464
-6.52473355244915787
-6.5859854788990404
-6.70334181952051278
-6.82024186721317882
-6.63727515761905718
-6.63027008741535173
-6.60463606638103151
-6.55846906122553985
-6.43417871301497524
-6.84912016607843732
-6.81416929846870634
-6.75522084137720746
-6.66027205625419505
-6.49336466086641018
-7.10632891646074683
-7.06512535974293066
-7.00547535690778655
-6.92030359800124995
-6.80011980257079252
-7.39946253154791922
-7.36497931401135641
-7.32035887842890798
-7.26410479196277681
-7.19697550949479758
-7.71835470756481268
-7.69714380063088388
-7.67389975066394836
-7.64997696327399179
-7.62754540677679227
61.0916189911414875
39.9570397216722313
13.1837554937050427
11.3998695661046483
0.279856163941417435
0.519179087313627718
1.06841579934029518
2.09851280513796112
3.69340341052188847
-2.66751824200916587
-3.29264859168656443
-2.44367768424968634
-1.98941890888041684
-1.77559259339266262
-4.79589429035290138
-4.60429691484492221
-4.18896781678167152
-3.64003979252739285
-2.20099549209289336
-5.32606383314554588
-5.25257628292427636
-5.1590557974993434
-4.7137000409288996
-2.40278120209273993
-5.66242534758015292
-5.81069446196590089
-6.00520118055600527
-6.10194451135629201
-5.70701518619095083
-5.98196124187450096
-6.17998831437762419
-6.47722093987030245
-6.9263153741831065
-7.54493072432615097
-6.19073017497488465
-6.38154883019921293
-6.66126699495617647
-7.13573400162009364
-7.83833356061795339
-6.34712845727165309
-6.47794659760298863
-6.67842269095306307
-7.04015757201585846
-7.45978120835121672
-6.48560135531884718
-6.54331351616542278
-6.62496528980501331
-6.76722701440425389
-6.85740169574635061
-6.6433208951317404
-6.64051989525301156
-6.6246585079531366
-6.58828655631759297
-6.4698134935668854
-6.85188646289580916
-6.81784099589795822
-6.76174556423633799
-6.67106518381573288
-6.50874868984889421
-7.10721665837596817
-7.06567657905313595
-7.00566116208058975
-6.92026692075255045
-6.8001443561649868
-7.39943927361338361
-7.364438325145092
-7.31904649687889464
-7.26175530348997533
-7.19366276093209756
-7.71801229030728386
-7.69657095346931808
-7.67302396522939656
-7.64877242104497412
-7.62604280870187434
6.00227813735030935
4.34582896679792263
0.59966356093230111
0.703782652417229926
-5.53641531036993229
-3.60844779704327046
-2.52855393194442168
-2.38985985774729581
-2.03999508173479294
-1.15079347179072045
-3.85090729508166518
-4.1917873038079696
-4.13967849710356006
-3.91830962854891407
-4.93874109127948291
-4.73697395072249616
-4.88020737550362327
-4.91349372423133879
-4.72860042146082371
-5.09618032316215341
-5.10791741087600393
-5.20001210071245445
-5.24281712696549107
-5.14169936892283452
-5.21225602987956993
-5.25009013035881544
-5.29529353845682849
-5.31931165121278049
-5.25642252982212366
-5.36056543291478871
-5.38982036502910322
-5.4028459672555762
-5.38740939666745255
-5.32679669932903188
-5.59753257806908344
-5.60508455750229739
-5.59640695147703138
-5.56423599846309269
-5.50669042829915512
-5.85586525072700592
-5.85061638003164219
-5.83348006448981771
-5.80313710068338207
-5.75543543913683919
-6.13846036935507566
-6.1258680767023419
-6.10352712538072506
-6.07133865282397345
-6.03199059775413016
-6.43357326753563719
-6.41736212163545616
-6.39503214561017597
-6.36696725567102018
-6.33442340944698579
-6.76813289841856136
-6.75710052428845653
-6.74308101121226233
-6.72546145909946702
-6.70428262883431447
-6.68010742938954216
-6.65421150388047966
-7.09016868173999981
-7.0773592030774406
-7.06247525904789519
-7.04551324784909294
-7.02672511171400327
-7.00678277354110524
-6.98679424350167189
-7.41763549759129592
-7.40458543801514679
-7.39032682187031753
-7.37512921746380012
-7.35944368910989155
-7.34390825524294488
-7.32933341927465154
-7.75086132032743258
-7.73862614852403663
-7.72589198134446153
-7.71306482628340273
-7.70066947684005498
-7.6893007254171124
-7.67952819707948997
4.66973635661020836
3.42917832260851618
0.149860013027062422
0.0814607605740436114
-4.58004524213714603
-3.18302404736391864
-2.42830459635860407
-2.52706747774284102
-2.34455115800698977
-3.29393446604161966
-4.30349061874744176
-4.32954610713021637
-4.25693842236924613
-4.01338661773015737
-4.9427328152641703
-4.83723595279940266
-5.02913832564934893
-5.04776983288161674
-4.83114614712004453
-5.01222801331254608
-5.08038462371075727
-5.24205861276569252
-5.27172364738447019
-5.11782110198605533
-5.1843295149578168
-5.23025215140206168
-5.28794660535745287
-5.30923278259090914
-5.24493990019810408
-5.36727655374295498
-5.39533408261656433
-5.41911160435396155
-5.41140500475753239
-5.35411810961207824
-5.60493953770579445
-5.61068242499451486
-5.60215338476386648
-5.57308330249298844
-5.51514592065804976
-5.86361367053019666
-5.85816382857376183
-5.84035691683137337
-5.80818364032347834
-5.75872374825951816
-6.14282638327430597
-6.12992089104599192
-6.10688387410031286
-6.07461808781625656
-6.03354801603422164
-6.43666067230658534
-6.41986584274753991
-6.39672377632890221
-6.36776158518223401
-6.33414768665775885
-6.77040432514427781
-6.75907316753563503
-6.74463189384916451
-6.72655429127924709
-6.70473113579154845
-6.67977110665682616
-6.65298510235473373
-7.09143155852918827
-7.07843202738331811
-7.06325792474606828
-7.04587794510489651
-7.02656879955641678
-7.00603116811367421
-6.98542161551623142
-7.41818120072794862
-7.40502103685311663
-7.39057902564648739
-7.37511354344934844
-7.35908315968987825
-7.34316364917215392
-7.32822700426720175
-7.75088002685931166
-7.7386245447123958
-7.72582620154843447
-7.71289056640670978
-7.70035152818559787
-7.68883505383733645
-7.67896539405053336
4.68726351352646198
3.22050037588262761
-0.0997327608622411432
-0.146778000958687649
-1.65431656278803985
-2.71655801013059595
-2.76721740811072925
-2.79349740044088657
-2.47450232868583386
-2.76048381310870639
-4.38101964417457967
-4.5932347813747807
-4.43819573356958053
-4.13247794343964081
-4.95652548172724394
-5.06269890825862756
-5.26741636452129924
-5.23510366709829711
-5.00212352680934469
-5.05385325433007537
-5.21331193398950266
-5.38601060661118147
-5.40275383010768007
-5.29310941584766059
-5.18385379991544504
-5.26985999551225071
-5.34809598440679057
-5.381329826736585
-5.34735062823244789
-5.38743738780617143
-5.42199660480630641
-5.44140761674040885
-5.44760774437231632
-5.40889341708862048
-5.62329942073557021
-5.62765276213911569
-5.6217337380022423
-5.59887855793480416
-5.54427885852144708
-5.87941231032301292
-5.87350061347813757
-5.85573242232567104
-5.82406666163978226
-5.7720973256566932
-6.15264472575001697
-6.13952200978501672
-6.11631637011640361
-6.08317110132267214
-6.03885085276855715
-6.44298729991623098
-6.42564323951303429
-6.40158637083341375
-6.37095141425513933
-6.33441625810413544
-6.77462997255072708
-6.76302016768824021
-6.74813220342635489
-6.729396265971058
-6.70655067302068542
-6.68002270992751424
-6.6510049736392407
-7.09382672295621752
-7.08057903252183873
-7.06498281889778301
-7.04696834687221152
-7.02675989255612077
-7.00501198350460275
-6.98289252869961885
-7.41929189997378025
-7.40593181739604489
-7.39116921417682882
-7.37524755976441249
-7.3586125899981818
-7.34194585288299439
-7.32616236700222689
-7.75107722046101166
-7.73870978578574142
-7.72575160968827124
-7.71260987450794389
-7.69982858919480595
-7.68805452070912043
-7.67794527059104404
4.22161541583138877
2.43736831950986321
-0.321828543784707044
-0.637870507971886269
-1.25360491275364438
-2.85057706612548145
-2.87480482098795154
-2.8194455092383448
-2.62814202933292052
-3.65717957397707494
-4.66632468420437441
-4.67177929858187557
-4.51481163314371248
-4.30075080403878829
-4.99640351605259259
-5.20225681364782755
-5.42120132133566912
-5.39429025330332745
-5.22280186619888642
-5.22543326682317577
-5.41874552987666736
-5.60648910629513963
-5.65161592283815928
-5.58003309463053654
-5.29983721803197749
-5.4090320542009529
-5.50900793424632518
-5.57690085825670501
-5.60461899920408513
-5.44470442655873832
-5.49367400566145925
-5.5404460318132589
-5.56905577012215858
-5.56128836908993485
-5.6561546727955081
-5.66619695626915476
-5.67272545168184195
-5.6636135894751316
-5.61686676096802007
-5.90164487893364331
-5.89784406302935693
-5.88518245231422288
-5.85712624147325123
-5.80264889457643829
-6.16691166262718582
-6.15443415343659517
-6.13262764628568746
-6.09915348504272359
-6.05049325236599689
-6.45214375742703616
-6.43443908059541059
-6.40963194780706313
-6.37690597217626731
-6.33607191047335672
-6.78044947629157058
-6.76868407425186103
-6.75334188955177162
-6.73379162397871323
-6.70958823231877233
-6.68078585911908363
-6.64833059125494508
-7.09724253117690385
-7.08368793434304589
-7.06753504578228231
-7.04864306587472988
-7.0271381675662381
-7.00357551873780881
-6.97910804289360609
-7.42089762985584933
-7.40726675478257057
-7.39205448886769112
-7.37547487790122336
-7.35794627345535091
-7.34014661515469768
-7.32304253740300837
-7.75137545198526379
-7.73884709641479063
-7.72565808990742919
-7.71221517934103051
-7.69907352570499803
-7.6869074019057555
-7.67641843475229724
4.01738898536590661
1.85632571171771943
-0.861511405881300263
-1.48640889328767756
-0.993308950643609023
-2.77164918849552588
-2.94612572399238015
-3.03580466879803224
-2.90462482738896455
-3.69472511442337037
-4.66164770393642947
-4.71860391387367617
-4.56703567772000518
-4.42515275353553506
-5.12837378293551183
-5.29219367332153645
-5.51027367591914619
-5.45973211101780898
-5.39428726989496887
-5.3309244735363297
-5.54190983912040736
-5.73524420866984475
-5.80648277052697459
-5.8704506677661179
-5.36252705608475022
-5.50825200341009769
-5.64638473275165076
-5.77524710647207939
-5.92925881295316071
-5.48844490776479343
-5.56642640196472627
-5.64206057234567293
-5.72227916643414591
-5.78831508093848335
-5.69035064147883851
-5.71572506330536356
-5.73931198855945546
-5.74944223563955426
-5.72346180279335393
-5.92544459882237895
-5.93051708999617055
-5.92578010033085345
-5.90411824077101066
-5.85011515770190194
-6.18460741397961833
-6.17492006484988831
-6.1555536733647287
-6.12231045687703723
-6.06907208115645957
-6.46390925998343668
-6.44637361803249842
-6.42091668121422643
-6.38564446043112355
-6.33925550425530115
-6.7877769725327175
-6.7758798577920949
-6.76013028444660691
-6.7396796117475839
-6.71374367578665243
-6.68193101649042198
-6.64481255452172359
-7.10157114005342827
-7.08765670366755529
-7.07082723194842089
-7.05081815511262455
-7.02760286606103257
-7.00158335942247945
-6.97387759792413853
-7.42294163651343375
-7.40896618024368614
-7.39317717703540556
-7.37573410752003511
-7.35700761178966811
-7.33766230365996108
-7.31872993741636435
-7.75173475358542952
-7.73900696444174496
-7.72551978751007695
-7.71167775330345417
-7.69805218817579462
-7.68535433320388872
-7.67434258446174056
5.56435882801156723
2.54863013639110392
-0.867276340209631513
-1.91657301911275013
-2.20277903145395726
-2.80446965950218985
-2.83786335232875775
-3.27441274345820421
-3.10026829922266334
-4.18307359398207979
-4.72414781664349981
-4.71814951099248781
-4.666315743735721
-4.58088297159630553
-5.17220054731109613
-5.33086316290410345
-5.55995836795774423
-5.55962370672629635
-5.65454261238508771
-5.38237271136222972
-5.61963516759568638
-5.80187170594672708
-5.90824923921101064
-6.1368393002670274
-5.4356523437868649
-5.59718548396688398
-5.74754689895564574
-5.9124880356780789
-6.19205458892279381
-5.5437756469949111
-5.64263794618415382
-5.74524522724239883
-5.87415352214693609
-6.02697563706617956
-5.7339494507270965
-5.77547623276974154
-5.81637148945522942
-5.85141030413654839
-5.86278395047162082
-5.95776858902827211
-5.97179482950799745
-5.97666121832912367
-5.96428070151287848
-5.91758273057073936
-6.20710227234751155
-6.20110450581743322
-6.18495025846454816
-6.15284415650558092
-6.09605188261061581
-6.478505996820493
-6.46137946979592215
-6.43526812101416379
-6.39706567878780596
-6.34410446976155473
-6.79645635387032776
-6.78452204632129607
-6.76838988701197319
-6.74689171074204985
-6.71882045544474149
-6.68319752952576618
-6.64009994032377993
-7.10669781003064571
-7.09238620259873898
-7.07475521913087491
-7.05337098186160194
-7.02798895657944556
-6.99879654759974645
-6.96685720900229111
-7.42535052837297105
-7.4109589062648924
-7.39446196753652707
-7.3759368938299934
-7.35568278979544221
-7.3343373488965522
-7.31301233696988007
-7.75211838285112975
-7.73915197158523238
-7.72529874387565751
-7.71096020212463706
-7.69672743205395093
-7.6833531249767999
-7.67166436541337404
10.1135417547037587
7.08520038798966922
0.0931998809767762282
-0.551696971325027263
-1.1946420559570754
-2.63572194405465776
-2.75463449650803183
-3.37763034751064151
-3.05874498735681755
-4.26363459787888388
-4.77808812857739884
-4.81077660069801283
-4.85692816598914767
-4.61781985937211292
-5.06288855560162521
-5.4010338341320141
-5.65650548062703074
-5.67142501291963352
-5.73908688789856747
-5.37234597064378328
-5.66237588034393102
-5.84266595514888198
-5.93624563345087441
-6.18571892465703854
-5.48859340270576457
-5.65558614608653265
-5.79246380159365426
-5.94765611025265795
-6.19803498966890576
-5.59174655929086928
-5.71384872389588061
-5.83370032912465319
-5.97578507014971727
-6.16699700758508573
-5.78270273875133967
-5.83846713678781626
-5.89728207252162839
-5.95649304088017928
-6.0070940794166745
-5.99767659590373015
-6.02027374972530893
-6.03531025908094865
-6.03443585799317717
-6.00114183406086443
-6.23435806259459735
-6.23278628835888249
-6.22032888320357547
-6.18968132997424814
-6.13022168224288677
-6.49586762545001495
-6.4792131320284021
-6.45225882393640937
-6.41055533271219424
-6.34974761397311838
-6.80641964211543637
-6.79449813235576894
-6.77795236943029789
-6.75521473144907425
-6.72450560371902473
-6.68411855676434197
-6.63346321195979804
-7.11251054187263421
-7.09774626024381838
-7.07916971170232845
-7.05611696525838994
-7.02804643497404946
-6.99485645179700732
-6.95751338924367424
-7.42804171687935622
-7.41315427965229734
-7.39580750629283656
-7.37596463395113044
-7.35382254061911222
-7.32996747614266475
-7.30560554585244493
-7.75249237711474315
-7.73924591593402855
-7.72496030551813906
-7.71003144479661007
-7.69506374132512594
-7.68085109468917882
-7.66831464474843028
18.7017294862257657
15.4735907832406951
2.2284311851837737
2.33062145532608156
-1.00937472688605112
-2.46731463166047504
-2.49133102608918611
-3.1210979787185158
-3.2510505364033655
-3.62701946606066628
-4.8504342797557829
-4.8667438400135552
-4.99521074894178163
-4.56514040152929468
-5.15975102881573378
-5.47655029274710969
-5.71025827486804882
-5.7338813021392534
-5.46893073634372051
-5.46633665406949198
-5.70597607923168049
-5.84968685193298477
-5.90265346244293454
-5.95163022258925789
-5.53768287630284739
-5.7027751558475428
-5.82862323733562526
-5.92270434962950354
-6.05656586150694487
-5.64995511095568226
-5.78270516325467998
-5.90742433697114677
-6.02958904885159708
-6.18882549110665803
-5.83651050025793872
-5.90682723273842658
-5.98136978024142429
-6.06273157473894297
-6.14277648702250723
-6.04232664393838803
-6.07401422437839322
-6.10046027353716891
-6.11338620165347368
-6.10115645603242118
-6.26606450793714664
-6.26890052212656546
-6.26093434669006044
-6.23298734499743023
-6.17243626441037829
-6.51534110288893942
-6.49930271990465691
-6.47139808256325821
-6.42565519540227825
-6.35538413513374323
-6.81745477053565985
-6.80555084969526192
-6.78849532067423578
-6.76425505411095251
-6.73036953635008572
-6.68416490043723144
-6.62402334847724106
-7.11881702245566306
-7.10351835676789189
-7.08384139585527084
-7.05880750858288231
-7.02749140595923194
-6.98938739655495223
-6.94526743972598037
-7.43090529804597466
-7.41544072754894401
-7.39709724569034943
-7.37569241016471633
-7.35127905251813107
-7.32435355827854018
-7.29622717319769709
-7.75282919541627713
-7.73926209099631546
-7.72448018888557186
-7.70886217512981453
-7.69301560203442847
-7.67778957253794303
-7.66423796675857893
13.7980574394253424
12.8089737505223251
10.7354055057170807
10.1766954179400351
8.7014532970334777
8.40452054257860581
8.09209659594526265
7.0415571356342177
6.78292988537543984
6.72405338779239869
6.51339574510615371
14.2394794748542033
13.4700941233153273
11.0904612990712135
10.7323603264245584
8.73163956243428352
8.7336046153804503
8.58487074280229301
6.76148117990650732
6.79094864154609468
6.96988438167471003
6.9028333471016996
14.5358415879045459
12.9414078690820986
10.9072504869506055
10.1643804944583991
8.64861133246840197
8.35130321534821718
8.05534616380363389
6.89409877437639551
6.48212636992570523
6.54970284265019842
6.36062253358883112
12.7927483636595696
8.78446284198008698
9.28469751479136107
6.18386981372792377
7.71672085821217735
7.22318283986443532
4.12837937995453785
6.13641540115436612
5.35983854667452064
5.68659159445478224
2.58996737420132206
2.81401057124989507
-0.546620351573778862
2.54493966770635893
-1.220430004289625
3.50042513273598388
2.38155605830451123
-1.40549554968777102
4.54781492669062004
1.23712823693347218
1.89952885063610211
-1.7587114106672459
-7.48326065369235316
-3.50039484605064999
-6.64364834194109477
-3.8046434278079273
-10.9501158442487849
-6.76083704604078406
-4.11246240960467802
0.126140308895571707
-10.8858273916661688
-6.94390168124553497
-4.25537027525532352
-4.29590718749382106
-4.41288159388840295
-4.87571619694415848
-4.7516102614987048
-4.779673393584698
-5.24334919580041614
-5.04237354903616719
13.2404089573127806
-5.29596701469360376
-5.57828171714872045
-5.29642948732466579
-5.21821671631067296
-4.91639383838984489
-5.3271541104113842
-5.10095524938951428
-5.74588217295147707
-5.4993717616576232
-5.26459373324669411
-8.04069172994433856
-6.09968630915309973
-5.69200036157352773
-5.40102868075511289
4.06010655212752436
4.17908199202690422
4.30647599438105466
4.10887875049504459
1.18157566647325307
1.64425660973340815
1.85707542710841267
1.50776326089965362
-1.43750696403772471
-0.878441009550477769
-0.587163637636682445
-0.77652194980814393
-3.50039309233783769
-3.16487456510798015
-2.9679967686084483
-2.94679188231227052
-4.40191400691098611
-4.12842389247817376
-4.10698468903573133
-4.3139579815305984
-4.91735914449701284
-4.68756633031480252
-4.61249662633441559
-4.68529968947224162
-5.09484563859284645
-4.91697074972181625
-4.82881635594250724
-4.87351222154912467
-5.20831031750522655
-5.0918645458147731
-5.01824779033461521
-5.03035276453982227
-5.42769042183911044
-5.3544107242750858
-5.30820742953529923
-5.30414032832028237
-5.69968904506582774
-5.65068523531298972
-5.61642950738285052
-5.60338192758066889
-5.99137775622068691
-5.9558987712413991
-5.92905154010385438
-5.91455713312216602
-6.30352702427736578
-6.27697354434310029
-6.25600961642650333
-6.24254699903550758
-6.63075247069428553
-6.61115568505134821
-6.59560260016439681
-6.58493579363830062