/*--------------------------------*- C++ -*----------------------------------*\
| =========                 |                                                 |
| \\      /  F ield         | OpenFOAM: The Open Source CFD Toolbox           |
|  \\    /   O peration     | Version:  2206                                  |
|   \\  /    A nd           | Website:  www.openfoam.com                      |
|    \\/     M anipulation  |                                                 |
\*---------------------------------------------------------------------------*/
FoamFile
{
    version     2.0;
    format      ascii;
    arch        "LSB;label=32;scalar=64";
    class       surfaceVectorField;
    location    "0.149999999999999994";
    object      Uf;
}
// * * * * * * * * * * * * * * * * * * * * * * * * * * * * * * * * * * * * * //

dimensions      [0 1 -1 0 0 0 0];

internalField   nonuniform List<vector> 
20536
(
(0.732597137059568304 1.72223572756559462 -0.744005043649157205)
(0.749617781062977717 0.398910948760213491 -0.357935976897755692)
(0.82022851039899658 0.740657331506958339 -0.373482019170116641)
(0.813178455305036962 0.272105836611584329 -0.383594181217804919)
(0.612055549789005893 2.69521761532081028 -0.982184605704392588)
(0.564362280519231763 3.16927120751441382 -0.977793560650523252)
(0.63157442259104879 2.66342682109270079 -1.21075814365057055)
(0.668428840761919663 3.06884851641101841 -0.918023031243514587)
(0.685002617305802697 1.50736802862825825 -0.596115538952989743)
(0.48764386767753215 0.102338884454633933 -0.327946771192121955)
(0.655668676029916964 0.452395835206855612 -0.315348797489103716)
(0.594862317173141641 0.142062313205623292 -0.359722191614810172)
(0.665443370068114382 2.46489964985389953 -0.750404582936715414)
(0.667905757660823496 2.83005878424090662 -0.766671001084481274)
(0.656243783393160918 2.41149000505833921 -0.940357683902104391)
(0.662343457033054417 2.95956387462563253 -0.939064185388463368)
(0.306230407376587521 -1.18119396656788811 0.058142162029267197)
(0.349258159097719567 -1.2498445981641404 0.0747603677925506027)
(0.259110297324258609 -1.14683576831546241 0.04775574504488167)
(0.273997413921324928 -1.20775572793994868 0.0510385052710609702)
(0.389290292808276095 -0.931418457703871661 -0.00149454456220877302)
(0.479516402610015269 -1.23641815964615098 0.0706318265629853476)
(0.38219343595534544 -1.11915213582746653 0.0322806707822131528)
(0.402703621523546273 -1.26217633861343614 0.0366505770200997241)
(0.401055794501725849 -0.381215335615314732 -0.187321635877927994)
(0.436725479857400734 -0.670171135612812718 -0.044999834889176589)
(0.399490895751045183 -0.571955201437018168 -0.0886162753784290463)
(0.416266889717590405 -0.736268456529963533 -0.137714137360757549)
(0.469245130672045152 1.0751977227753402 -0.482235815175845461)
(0.207287871705480603 -0.150214751618342524 -0.262962197275262377)
(0.323578503135280027 -0.0282559861281252017 -0.27373552705133708)
(0.253334971300531731 -0.167935781859891831 -0.381489279399102432)
(0.617772541247314066 1.99579812167736637 -0.568006775553615451)
(0.676856796626658874 2.43168900480980277 -0.597046330313681484)
(0.627234295488453553 1.95878741782257859 -0.713372643994777511)
(0.690204093972712762 2.7597709193944242 -0.815121781936214984)
(0.497704537888104648 -1.26029017021661516 0.087250032326268781)
(0.467830271832079092 -1.42453759552425963 0.130228966328657519)
(0.396588898376678434 -1.22309626348265588 0.0647308359350544371)
(0.407762616404427236 -1.33822416195147365 0.079198617942054364)
(0.458517483481715393 -0.990557855007953791 0.0271265362360175386)
(0.298685215919517688 -1.17832640708515402 0.0455288838036802257)
(0.491995748041541392 -1.19460770174809117 0.0305253255449647008)
(0.464831596378319056 -1.33550385542051897 0.0344202314466341974)
(0.373339812118205217 -0.459309949895937486 -0.120640396286510326)
(0.246820608319165247 -0.563269679027221803 -0.11196640323836031)
(0.4522211906153627 -0.660991393832580654 -0.0893374616012606038)
(0.391138402065255686 -0.727309948070616996 -0.0937824567660567321)
(0.287072084185509613 0.765679250655726618 -0.348733157653030867)
(0.0499766009869370698 -0.0766789615159902127 -0.321025634528977533)
(0.156298361982959294 -0.140736744208948661 -0.256923642556084131)
(0.00132448270919344213 -0.0766405595736635303 -0.284580154397714169)
(0.449117805533204351 1.43214107273252456 -0.440671168273859548)
(0.58574659497100523 1.89441328752995974 -0.445397055492315008)
(0.476482140009938715 1.44822027850507418 -0.514329011080493226)
(0.63226570873051513 2.36680314897836341 -0.662216857163901995)
(0.264968423140709841 -1.31199786707694366 0.08850781780606852)
(0.0666492757813995085 -1.33300859072815814 0.104593306560738342)
(0.398411664704154345 -1.53586867469839472 0.142011996039236782)
(0.400871937367328179 -1.57991786013492108 0.100545731823607404)
(0.0753859506652424377 -0.779549267426801862 -0.093564055670697463)
(-0.271388283753384418 -0.971050883881849347 -0.0486991191613732263)
(-0.0227122846300595732 -1.0703165146972804 -0.0485293670210228262)
(0.0137271156101619971 -1.19686542388823103 -0.0788631039075218671)
(0.0817839110297501892 -0.189659447108002782 -0.312351641480827391)
(-0.234387069395790765 -0.513863795829889836 -0.221143990948455244)
(0.0680477682700485614 -0.426953484342520395 -0.248301995810584958)
(0.00730124865671492179 -0.489510470334494519 -0.209674761822173289)
(0.0856637416118571637 0.598354121781418113 -0.412963645149805547)
(-0.118709091857916879 0.0105289519651720342 -0.416272000394210084)
(-0.0245058624260736449 0.12915573732847721 -0.461238356620307377)
(0.0142102847451795328 0.0214511149292731795 -0.399647720676027107)
(0.153207104611915279 0.842749607140273027 -0.39258515733999072)
(0.348882372239223915 1.28893372667625616 -0.369838289105823448)
(0.240388987857502068 0.849516516261905719 -0.421788911776804887)
(0.469261744215654697 1.82480285514320029 -0.550488591497319546)
(-0.484383206834662017 -1.0305227592436339 -0.032613630406703939)
(-0.480959151049773992 -1.04935573088087852 -0.000685665772518438666)
(-0.29279777388203676 -1.15772826232539505 0.0089550062856762272)
(-0.341542581110739207 -1.34019349337730009 -0.0589236616864299012)
(-0.528045022630045158 -0.622199859946373501 -0.176279054439131166)
(-0.628677075944208963 -0.917984847048088692 -0.0431457523885944716)
(-0.548134440669564071 -0.908954171783530218 -0.146937158560014769)
(-0.57915990198817846 -0.925733259039598577 -0.150367499436484059)
(-0.36119853231925636 -0.174892762570551447 -0.325064349861837742)
(-0.571205180698123427 -0.651158746389780885 -0.137885188958270843)
(-0.455983190058392274 -0.414536835586787611 -0.271779216814066027)
(-0.5043707403805473 -0.474423380739427525 -0.21499848211737041)
(-0.127619137607641625 0.309849644238539668 -0.395893512584395257)
(-0.347195388308895514 -0.219151965462446641 -0.289407383128093443)
(-0.221233445105353033 0.17028239640577314 -0.439360930556081553)
(-0.214426724658952517 -0.00771119038425008806 -0.384850960717748714)
(-0.128193649588263153 0.318838205193618385 -0.372912685626775708)
(0.0145772345036944348 0.69876844751161693 -0.36942581482620418)
(-0.062141278903931306 0.399632764142491104 -0.410473178274455841)
(0.219135777143522281 1.19661603789286497 -0.485292391678395163)
(-0.630868369084999547 -0.952920791899283692 -0.0112177877544089692)
(-0.556280068572271191 -0.906292869752927333 -0.0177752462682401885)
(-0.544014825115142653 -0.918852380060876994 -0.0746059854273107975)
(-0.583216099039448821 -1.02906885543336934 -0.0537694637321967372)
(-0.647574255194905524 -0.868642294450725938 -0.00475188690773388142)
(-0.630999999620663443 -0.882794982619757085 0.0533899576566101153)
(-0.633385154752206803 -0.963534293290630006 0.0084482133422511263)
(-0.667902952161130492 -0.991362558990584453 0.0170580315508820149)
(-0.563137896163221741 -0.606140513697374206 -0.102228222224525933)
(-0.629640894294540288 -0.724781054312467088 0.0274438035733938213)
(-0.596411091305842134 -0.736601794554209155 -0.0432767352763333835)
(-0.649014276279224145 -0.8019014527185645 -0.0173033451544454681)
(-0.324255168011689132 -0.135396831061082301 -0.266426556170474171)
(-0.516424996022075922 -0.48642596993351972 -0.0769893765473304709)
(-0.426258562755845172 -0.311492858078939339 -0.199412623384113641)
(-0.481910831237746973 -0.504762076757315103 -0.165251369275216303)
(-0.323167565027132397 -0.0940689567255920678 -0.240456787938463812)
(-0.198673992555079476 0.298858631247367057 -0.38203780030219453)
(-0.260637424327337608 -0.0109629949609365007 -0.365602066281983329)
(0.00391546889614660838 0.626835756590437554 -0.428603194488255457)
(-0.55035570014621904 -0.815779257663882262 0.046832499142778726)
(-0.484007917371687302 -0.761503130591461463 -0.00291714711117914069)
(-0.473956961744740113 -0.788406159519986494 0.00249593911018001005)
(-0.524262875332631606 -0.851995342158173741 0.043306540019566804)
(-0.610076538971518922 -0.757761214323207533 0.085585648137737641)
(-0.555159598736357784 -0.742302660389444924 0.0745376142138631653)
(-0.580623856519698056 -0.811585649808163057 0.0689962243903976119)
(-0.618850281083262233 -0.779289277168349725 0.10957157273298887)
(-0.600772415413553196 -0.656028017891890136 0.0526826492505902619)
(-0.605998314701623353 -0.66421123339226007 0.0830824557050921647)
(-0.605698772102413963 -0.686547316952528908 0.0663178674910639837)
(-0.652521413964142316 -0.69086995295884035 0.114966732959705512)
(-0.476826918491375873 -0.472464328610108009 -0.0510196083153193342)
(-0.593199465437999174 -0.565118366007726913 0.0478839758460372356)
(-0.529768232543071593 -0.517952266771807501 -0.00969437522703750151)
(-0.600998282986914933 -0.610476103648420754 0.0480154374707837533)
(-0.509189153348798107 -0.324218250086093174 -0.0568023975469233167)
(-0.348143651162618639 -0.170517320596738908 -0.168242962969592125)
(-0.486198766622713108 -0.399696527455965067 -0.101740243414927031)
(-0.229396344628524429 -0.0279621257378106884 -0.224578117842435698)
(-0.48091344395550284 -0.697739201988354041 0.024787967959905028)
(-0.41804628626282786 -0.653663455096826107 -0.00792962509919850969)
(-0.437301247239769153 -0.722284697482014626 -0.0109599371412053854)
(-0.452164049657498845 -0.729517594681550641 0.00656460715918779844)
(-0.554081454432971188 -0.645438507765455971 0.0720344217812177168)
(-0.482274135479157706 -0.615559022217389451 0.0403848015663174562)
(-0.501932480503567868 -0.682172105575909016 0.0523304506076951448)
(-0.526097308498915117 -0.676155553912060392 0.0717875835523043015)
(-0.602819442862382981 -0.566834253032059365 0.078283782300539298)
(-0.557577576977150269 -0.563237309900478045 0.0514207821308334673)
(-0.574053460816841721 -0.608479170829466121 0.0693824084222149778)
(-0.599072206175730537 -0.601112851658732517 0.0933758975582310857)
(-0.602645181525225726 -0.436335513121447693 0.0421011866144335306)
(-0.610625641429228261 -0.502015677179091346 0.0486225214852917809)
(-0.59592649573591383 -0.492098036758612967 0.0563750569345787406)
(-0.646729442680601174 -0.52096350690010873 0.0985932634387130663)
(-0.632932827769526529 -0.376634714799802706 -0.00556886177236299955)
(-0.55795899000026894 -0.266828051166102809 -0.0219053832683275898)
(-0.657697119245449269 -0.384280506372155939 0.0393709617285097693)
(-0.49439293326832201 -0.166439276619457149 -0.0780748751632917709)
(-0.415616055637094584 -0.580362161886353589 0.00766720850721372763)
(-0.357045997275239002 -0.550418271992562436 -0.00399152786332879379)
(-0.376137991102133862 -0.603388630156094341 -0.00356741718662309006)
(-0.389520313534570173 -0.593691863612037629 0.00546299209771152101)
(-0.489948283251912087 -0.536042075152335373 0.0197711619159330852)
(-0.419837262322942606 -0.506566931415504573 0.00593274750575309082)
(-0.447933805520063899 -0.570031601104059704 0.0131758052465065813)
(-0.457406150936742084 -0.54513581277881018 0.0197659845308079327)
(-0.562574066777525195 -0.487009472557336454 0.0217595213155860195)
(-0.489024132404006551 -0.459343689358223672 0.00596530922794239436)
(-0.52444789648608181 -0.524581765459537275 0.0216865401500469304)
(-0.529808654560453007 -0.496692644682749873 0.0263917193703762307)
(-0.623621410457893544 -0.411156763914260925 0.000952473098495516118)
(-0.558671397615729037 -0.403932286549211428 -0.00451507391098476731)
(-0.593604320201335134 -0.460718248359096083 0.0145807179737253729)
(-0.59972535962173823 -0.440846970066155919 0.0256998664135532733)
(-0.623362776761286708 -0.31331358274469856 -0.0464582391156676128)
(-0.639478348104002281 -0.319205497263215454 -0.0323003751674465142)
(-0.666467047534384349 -0.349563379678271335 -0.00431275878965641565)
(-0.639623873880659999 -0.248186657780875064 -0.0730483731301067446)
(-0.35840995608511278 -0.480376392104928218 -0.0057259888647893855)
(-0.302333932570858555 -0.46320830970877741 -0.0113569720128961112)
(-0.328409099222376988 -0.504648321183158832 -0.0093166073231042458)
(-0.331201011946564261 -0.49857501319527775 -0.00300438422796144543)
(-0.418515348330264936 -0.432871783839747615 -0.00787310518223757923)
(-0.354780966662155972 -0.41778564992743944 -0.0122894604525950728)
(-0.389522244757500802 -0.465035066435825206 -0.00748529038845299581)
(-0.388232814184262587 -0.452505085888059266 -0.00172113103260299982)
(-0.482691306570343259 -0.3768952926516137 -0.0203092859986283084)
(-0.409239584163929748 -0.364147230202387095 -0.0205256498811212558)
(-0.45564068552558068 -0.418157232876300577 -0.0139983641206218104)
(-0.446428650747046851 -0.396631668145436156 -0.00758381250464294776)
(-0.549269034982459936 -0.303024375281969072 -0.0519257861251478312)
(-0.466511499273780328 -0.299367379861610716 -0.0407172809056892335)
(-0.528673656699839012 -0.359050383261638906 -0.0355803113948593777)
(-0.508227650657579799 -0.333071285174894482 -0.0250562797831249372)
(-0.521987830073140091 -0.211518653399912826 -0.0828607707060980414)
(-0.600764779107627489 -0.254907295846496518 -0.0831854685244990816)
(-0.56911137479764462 -0.248060314043781649 -0.0628552818275720931)
(-0.602744854095287663 -0.181483954693953287 -0.116485790786708274)
(-0.297228725876201305 -0.403889711402017904 -0.0179204436007018714)
(-0.245451766193988369 -0.397327023388409362 -0.0172356611032349928)
(-0.275471969388698112 -0.428633616421904673 -0.0176344829512463906)
(-0.27446105883352534 -0.424678895071078477 -0.0138550505662643868)
(-0.343506781715748277 -0.35280469692282479 -0.0249420051514787355)
(-0.28481246236474006 -0.349898436489674669 -0.0218513439805686632)
(-0.323934553405112236 -0.383997996489652493 -0.0216155908052420506)
(-0.318239548878957168 -0.377424190424220374 -0.0174954428085005199)
(-0.390735853966440727 -0.290710596545657285 -0.0409336447881819554)
(-0.32429295184470508 -0.292487408537515481 -0.0321713175414418198)
(-0.37536587254685988 -0.328945766361646075 -0.0328563240219265293)
(-0.361882191911765516 -0.320367087921367033 -0.0270699105520157135)
(-0.436424953488057876 -0.214844634033602128 -0.0716522654866394576)
(-0.36216329971721678 -0.22317432739839968 -0.0518130052686725864)
(-0.430001215320566843 -0.261876061934309845 -0.0570476740070689284)
(-0.404000694499119295 -0.252013309780334815 -0.0468788026699934537)
(-0.393262971725384936 -0.138349530741123161 -0.0852265877872269012)
(-0.481668771997061707 -0.172561258556237773 -0.100987556719961152)
(-0.439821002338308731 -0.169250224615671102 -0.0817511958951236684)
(-0.469655398866012486 -0.116732700023429531 -0.122020901047916408)
(-0.168247009970031114 -0.425371945308201604 -0.0163315878372877823)
(-0.133438528324371197 -0.422454932783484227 -0.0148583469173659416)
(-0.153820277113164705 -0.441080718887183199 -0.0148407585115421375)
(-0.199544935836227205 -0.390567710707596827 -0.01739476650598493)
(-0.159031424736642751 -0.389964876897132162 -0.0152292419005355898)
(-0.183555113249227714 -0.409896469324112112 -0.014897998395956423)
(-0.232074321229388369 -0.347379509653796714 -0.0211665614831017673)
(-0.185856465232901835 -0.350055848713069995 -0.0174215277605348114)
(-0.217648453879436626 -0.371296723916224869 -0.0195459761058808454)
(-0.214621788428618454 -0.370798935384805239 -0.0169511567886586403)
(-0.264493651132090002 -0.294941578443145003 -0.0290806563705317198)
(-0.212781310432055726 -0.301784881644148351 -0.0224178531434756773)
(-0.252330005649516742 -0.323792862344963572 -0.0253320015209481907)
(-0.245648026699106431 -0.323014893246905965 -0.0220735792092351113)
(-0.295046285873154124 -0.232206078398599969 -0.0430506780219323537)
(-0.238380417548954421 -0.24448271785109657 -0.0314657722285745373)
(-0.287140286327770777 -0.266171158547311881 -0.0365688624138908389)
(-0.275175495990288121 -0.266087785423173351 -0.0317320914717946767)
(-0.32004704133255174 -0.157659898720816261 -0.0653873275692600786)
(-0.260153813934160094 -0.177368690469592055 -0.0460301884704021336)
(-0.319777255657639758 -0.196451404612656394 -0.0559904145577991424)
(-0.300537139199827219 -0.199123155256999335 -0.0476841444661322902)
(-0.27354616587566738 -0.100013573846859855 -0.06743990298317043)
(-0.344369474870795389 -0.111875044742323917 -0.0866268871090390691)
(-0.316818317371683311 -0.121073377618976324 -0.0716509965576461044)
(-0.33194401926387912 -0.0704291672971858879 -0.097100642613288532)
(-0.123617610351099708 -0.389431546518495431 -0.0137560009806137612)
(-0.0913729544602956273 -0.393162650940420966 -0.0109874931477053541)
(-0.113470055400545985 -0.406663764953992091 -0.0124454891741752824)
(-0.144846922176725207 -0.352738330487886276 -0.0152560031550854798)
(-0.107892574476193673 -0.359256150171978039 -0.0117561774695608585)
(-0.133728923244728348 -0.373441277506424418 -0.0132233336640130775)
(-0.16629041498478786 -0.308741535527409516 -0.0186728194209087352)
(-0.124805976406491936 -0.318818092104858231 -0.0137248766694978586)
(-0.157153355866686495 -0.331656874020099801 -0.0171592788062765143)
(-0.154390522459297075 -0.333477760840663218 -0.0153966382975462175)
(-0.186725261917114221 -0.25677464829068708 -0.0248029690015185052)
(-0.141265555932602871 -0.271138475646334143 -0.0174557569648268393)
(-0.17955835371560086 -0.283246323348857687 -0.0219684242788607022)
(-0.174376791531045572 -0.28605259659125698 -0.019703844493261808)
(-0.204403443004699287 -0.196557778517733428 -0.0344452826770442963)
(-0.155991466649036015 -0.21589576397989213 -0.0235444698734594768)
(-0.200561817904417711 -0.226105762253520137 -0.0302060023862121552)
(-0.192236571810918105 -0.230868059635427197 -0.026865735597320823)
(-0.216390692552260289 -0.128341719691526635 -0.048082763884312367)
(-0.167104452083233102 -0.153426647985367953 -0.0324917859751108831)
(-0.217714701791156817 -0.159797421267277556 -0.0428142938869163631)
(-0.205824567792634888 -0.168121967071797024 -0.0375081838169604789)
(-0.171765982019804309 -0.0850798165869966899 -0.0442782139947601738)
(-0.226754953735224196 -0.0843579654275989216 -0.0601798030917152019)
(-0.211800762583395641 -0.0986393536891230771 -0.0516611749191628333)
(-0.217998177902777535 -0.0535850996110253802 -0.0651214138773676399)
(-0.0754300127137203791 -0.365873459005925716 -0.00898766963665247401)
(-0.0460315791518884493 -0.375828303271663611 -0.00562009242066683658)
(-0.0692253600220887749 -0.383767986969012764 -0.00808203147666345691)
(-0.0878705701400857436 -0.328674528074885397 -0.0102250509839732582)
(-0.0541729350001920323 -0.341306205880216151 -0.00621464429783190071)
(-0.0811629988904619404 -0.349836515667761527 -0.00888978862788736453)
(-0.100120992706341908 -0.285075460942378622 -0.0125078142134159697)
(-0.0624113605178060055 -0.300930512109878867 -0.00739452147837845689)
(-0.0948369551563957303 -0.306906035418429091 -0.0115256291943203991)
(-0.0930958125125833091 -0.31002133275293775 -0.0104943333831515467)
(-0.111311187222118857 -0.234701515126823274 -0.0161972578367678283)
(-0.070260835421682738 -0.254202549171772429 -0.00936704820407458817)
(-0.107317797578867766 -0.259149345384473706 -0.0145694691062193613)
(-0.104301581628153076 -0.263795747500463695 -0.0132268937110107832)
(-0.120233078040123245 -0.177735772399000597 -0.0215909731715260983)
(-0.0769982135305593424 -0.20112110676609507 -0.0123451266479572951)
(-0.118325510264636655 -0.204109567361570599 -0.0193446811187091249)
(-0.113755915523391121 -0.211043516333090986 -0.017421713475223928)
(-0.125229040456453194 -0.115304777030661137 -0.028687236085558683)
(-0.0816371220982274604 -0.142467303715294785 -0.0164674082739111917)
(-0.126282606757118027 -0.142212060466882478 -0.0261298083135899847)
(-0.120139303311378606 -0.152428850573213592 -0.0232554407336064486)
(-0.0829491656821825518 -0.0802161524642535373 -0.0215843596237373994)
(-0.128993602715808342 -0.0750605067863335945 -0.0347115823197163484)
(-0.121820485893912422 -0.0896733797322780413 -0.0304923843217028423)
(-0.124129478574730098 -0.0498830964123054832 -0.0368601483741706135)
(-0.024892218584691074 -0.354714111825829292 -0.00284706708184627108)
(-0.022735042850599612 -0.372831479894487283 -0.00250730817666794262)
(-0.0290148611422911401 -0.317499752815775416 -0.0033841147922370864)
(-0.026646358994496841 -0.338703754962052572 -0.00288987383936914781)
(-0.033105442402766215 -0.274508307848753852 -0.00425375546903709271)
(-0.0312024280557313613 -0.295684780121567292 -0.00387668505408185916)
(-0.0306099828098687875 -0.299201818351376991 -0.00355821409202435089)
(-0.0368131623900499749 -0.225558624917179013 -0.0055149170152640958)
(-0.0353036427658128191 -0.248840470903529759 -0.00497822154165821536)
(-0.0343462707292404093 -0.253990841301563852 -0.00455703085659408744)
(-0.0396620920753182268 -0.171072036818326972 -0.00722156175034234342)
(-0.0388438757868850154 -0.195697298460588781 -0.00653850082789729937)
(-0.037465962706176581 -0.203151796660852119 -0.00594363658591865688)
(-0.0410598786126350618 -0.112353662692471296 -0.00936453181208990459)
(-0.0412562861530127167 -0.137029359034640502 -0.00861892548121473943)
(-0.0394745196619555108 -0.147472968919969555 -0.00775640457111851506)
(-0.0419112068927590259 -0.0747375427510366674 -0.0111514113744575691)
(-0.0398723612457176219 -0.0887445577977863526 -0.00992774655307947576)
(-0.0404160172957427691 -0.0518731136106577659 -0.011768481469657123)
(0.739710322616554561 2.1876928114557721 -0.620953416622802457)
(0.726279405365935715 0.653437372494382274 -0.341924556773749888)
(0.78655131435341219 1.05784662273230223 -0.367091966850054241)
(0.620212488391049588 3.11282682731986071 -0.760942220446140571)
(0.547687860025751538 3.51476651727207967 -0.786192468900037578)
(0.712438001261637033 3.29670118176180793 -0.844953499619901627)
(0.664437827281859295 1.77508659081949771 -0.481913360597087448)
(0.491603311487664119 0.275225409380902786 -0.252523224939207869)
(0.626927139255239241 0.528730938441949627 -0.23625490467944868)
(0.679319184219367989 2.83218843941189968 -0.607846671830369334)
(0.658151821649269442 3.10276715711730411 -0.613105560373194303)
(0.702156168165976702 3.21554282108264244 -0.744392136663850512)
(0.272669690029359313 -1.08479393757504039 0.0275807044690273909)
(0.306441036603217531 -1.19121239368806298 0.0523091976049662247)
(0.264312664183153023 -1.14240396454228277 0.036222101223226201)
(0.353137449196401554 -0.759688879560614261 -0.0482117657457960327)
(0.394672781386871507 -1.09564331184114283 0.00692584492260582638)
(0.379591070038924894 -1.06428649236218509 0.027246669738387623)
(0.39635204101537469 -0.218995851949829845 -0.164445481152678374)
(0.414986606509007094 -0.510256143430588893 -0.132345931976175307)
(0.403756138340535697 -0.536214567558249589 -0.068561709758453257)
(0.497888951646168754 1.32823529590632439 -0.378456536172488867)
(0.272588993412759106 -0.0146570128633176106 -0.240993051800951347)
(0.329658881590076447 0.0281194664893667304 -0.170734588716726421)
(0.644830850350350038 2.33799036793391268 -0.47271851723852587)
(0.668229137741516488 2.66931709403186535 -0.473665990722615449)
(0.729735851534298541 3.04130901399161013 -0.652379634459556601)
(0.437972407263668595 -1.15741379501413144 0.0316543380585443193)
(0.327170291248754019 -1.49020723096245478 0.097689787403186068)
(0.373589240141880996 -1.21379128527493108 0.0929932269960163788)
(0.384444443930064494 -0.865041240572717585 -0.0772083213077733171)
(0.170598247491963589 -1.04265135798347064 -0.0543858949811591025)
(0.473502658321159786 -1.15568065641597051 0.0427771227033265089)
(0.401776689702329937 -0.342418188145592661 -0.208893502624448196)
(0.273448350566245835 -0.477282759009081792 -0.235298740303765852)
(0.460744825890659737 -0.584336294254408251 -0.126727797875732406)
(0.341799540143173375 0.987997292665274252 -0.335255032866987324)
(0.0818158985699488639 0.0294168115642535373 -0.399226516696953082)
(0.180647261332862408 -0.00134575384387486852 -0.232991086983448725)
(0.485511161677025405 1.76366704962133514 -0.379427295834530054)
(0.579209120724738513 2.12111516299284686 -0.357676588141556506)
(0.673857821377489952 2.66454431073481146 -0.54453059005995641)
(0.0677859306718377325 -1.29418732231873168 0.0116495543634831476)
(0.0389646150407180758 -1.18626097304519518 0.0796632712407459032)
(0.355162531847964591 -1.51607332884294177 0.152492156926066075)
(0.0452515242829107309 -0.717720731613000207 -0.212476313977151415)
(-0.299458441546239185 -1.05022804739744879 -0.130795264343474105)
(1.39890081889603701e-05 -1.04644830061086913 -0.0234488427072128067)
(0.0984709128730851257 -0.108138299906041069 -0.425631754376270544)
(-0.153548352392554127 -0.502541914026018111 -0.30567193183725816)
(0.16831456578694487 -0.348413403729098903 -0.2787726551648394)
(0.0941943469939959255 0.819735342223318342 -0.443398779664495035)
(-0.127030215673509583 0.143116913873757245 -0.509318795781223521)
(-0.0371785403729500211 0.266468927265290367 -0.53323956064296385)
(0.210252502131002827 1.1465629160562647 -0.356522522829517852)
(0.359337294006143448 1.52887490051659558 -0.330399676152062893)
(0.512654803745275722 2.14541102747305246 -0.462436885943541265)
(-0.343064224458395517 -1.03615967486529081 -0.062781547466210938)
(-0.355853447947406309 -0.94328550850558357 -0.028934333900731489)
(-0.224684700366510393 -1.18609011331957648 0.0637561279021335581)
(-0.429721222164267613 -0.70129114742394294 -0.223990882203580627)
(-0.552842519477562244 -1.00461233470708322 -0.0850125240256896786)
(-0.454079202975806728 -0.935185063807914219 -0.100322564946122919)
(-0.291604921599178113 -0.0693616766104628579 -0.389358973242210971)
(-0.481189100666110425 -0.603056252744627597 -0.180883709590080571)
(-0.343429249014140792 -0.339418472062896381 -0.327542476303713137)
(-0.105966228714180044 0.559201199678850625 -0.422442538946245449)
(-0.300296619552303135 0.00185868620212578661 -0.340061265084793729)
(-0.179397156680214276 0.346615070297219274 -0.510204300588151027)
(-0.0559031084631217978 0.618091598880749493 -0.378773704170578818)
(0.0826777842775069799 0.972061674798014308 -0.368955532071831238)
(0.289857240973303176 1.53921970726616131 -0.433111094295385524)
(-0.531393137849685782 -0.929465881452223197 -0.0511653104602105141)
(-0.46169171828761163 -0.842015520755109215 -0.0472715807956587825)
(-0.446206947931718445 -0.881524957032339351 -0.0607808560525998492)
(-0.575380108952788571 -0.831493793394113445 -0.0419053514121897827)
(-0.583009011651241082 -0.901027080775272604 0.0141863969802975207)
(-0.547280424366075935 -1.01498883807692852 -0.0215071024349694842)
(-0.492630968447515083 -0.441954138935775842 -0.131586001432663191)
(-0.572468969113715587 -0.661344119562950916 -0.0130817884547679078)
(-0.524506688881202443 -0.613412589235440731 -0.0779730880756190486)
(-0.256073648568968137 0.122762604229509131 -0.296392430309126764)
(-0.439601799276840788 -0.270106982536580886 -0.114669770212222771)
(-0.330561357093270447 -0.00900462650497388384 -0.228377641288633249)
(-0.223650078690566023 0.200810142606164005 -0.300955377962887183)
(-0.127631047456292251 0.559510186151057742 -0.407804317265192062)
(0.085876586219153242 0.977644918722690104 -0.42495997386526263)
(-0.489174821007955396 -0.784212551664267288 0.018080126644849006)
(-0.427250291612821964 -0.730699937087095464 -0.00725117650637881021)
(-0.415720750990125454 -0.749124799434057187 -0.00866057343580244748)
(-0.574961239746374586 -0.740371752437484543 0.0430099599377192776)
(-0.527396738286908251 -0.752971929609487556 0.0441418033723010791)
(-0.520258455909893391 -0.81337220288286971 0.0465472337416198215)
(-0.554263799117143185 -0.548471565832446828 0.003834442765672956)
(-0.573753918217632441 -0.637199303470739276 0.049475826915698573)
(-0.569711028811605513 -0.645062851051561359 0.0318229725443983438)
(-0.377783091752961708 -0.216005258758440788 -0.119232717865982524)
(-0.53249526284098625 -0.445420248705783117 0.00490831871751657572)
(-0.461111868597669172 -0.330414370082126152 -0.0496944161819472194)
(-0.396913487814089416 -0.0668430193148416285 -0.123990721473870677)
(-0.260241867532085946 0.188654986739638042 -0.250059237087452868)
(-0.0850052737919551327 0.392259310333367028 -0.281004367826202639)
(-0.45147787606663814 -0.70671760106956949 0.0188105002210733931)
(-0.395392952079074878 -0.661100265082595784 -0.00556510027113382624)
(-0.405098454144557918 -0.724920084603630221 -0.00458151848741686872)
(-0.52981520660389414 -0.645212768639919054 0.0506076703502803746)
(-0.467592150544474006 -0.633580691770581628 0.0258669322628495395)
(-0.477470424263852056 -0.684717085409383808 0.0423697153303226187)
(-0.565794573292314529 -0.533742954556019944 0.0505497028675423177)
(-0.540923780325773262 -0.574937180690245131 0.0398586301036229843)
(-0.540744332246954951 -0.59177706956280185 0.0598602168810343088)
(-0.525284514586469409 -0.322590574803268026 0.000150315109629400867)
(-0.578905174508020592 -0.47468976393875012 0.024790674489782713)
(-0.539224034639379735 -0.410964993274734514 0.0398783063680128169)
(-0.564504510334744247 -0.237812447542134625 -0.0446700671390861878)
(-0.454238183777625038 -0.0606691920198257628 -0.0615349168301424915)