/*--------------------------------*- C++ -*----------------------------------*\
| =========                 |                                                 |
| \\      /  F ield         | OpenFOAM: The Open Source CFD Toolbox           |
|  \\    /   O peration     | Version:  2206                                  |
|   \\  /    A nd           | Website:  www.openfoam.com                      |
|    \\/     M anipulation  |                                                 |
\*---------------------------------------------------------------------------*/
FoamFile
{
    version     2.0;
    format      ascii;
    arch        "LSB;label=32;scalar=64";
    class       volVectorField;
    location    "0.0299999999999999989";
    object      faceForces;
}
// * * * * * * * * * * * * * * * * * * * * * * * * * * * * * * * * * * * * * //

dimensions      [1 1 -2 0 0 0 0];

internalField   uniform (0 0 0);

boundaryField
{
    inlet
    {
        type            calculated;
        value           nonuniform List<vector> 0();
    }
    outlet
    {
        type            calculated;
        value           nonuniform List<vector> 0();
    }
    top
    {
        type            calculated;
        value           uniform (0 0 0);
    }
    bottom
    {
        type            calculated;
        value           nonuniform List<vector> 0();
    }
    left
    {
        type            calculated;
        value           uniform (0 0 0);
    }
    symmetry
    {
        type            symmetryPlane;
    }
    interface
    {
        type            calculated;
        value           nonuniform List<vector> 
67
(
(-3.29716722674567876e-19 6.59433445349134307e-19 -0.000593964843750001826)
(-0 -0 -0.00055564453124999798)
(1.31886689069826823e-18 0 -0.000593964843749999766)
(-0 -0 -0.000479003906250000317)
(5.74345258852470505e-19 1.14869051770494371e-18 -0.000517324218750000531)
(-0 -0 -0.000555644531249999715)
(-1.31886689069826823e-18 -0 -0.000593964843750001067)
(5.3180116560414053e-19 1.06360233120828106e-18 -0.000479003906249999395)
(-0 -0 -0.000517324218750000531)
(-6.1688935210080125e-19 -1.23377870420161078e-18 -0.000555644531250000908)
(3.29716722674567731e-19 6.59433445349134018e-19 -0.000593964843750001718)
(0.000517324218750000314 -4.59476207081977328e-18 -2.29738103540988664e-18)
(0.000555644531249999823 4.93511481680642387e-18 0)
(0.000593964843750001284 0 0)
(0.000517324218750000314 -4.59476207081976789e-18 2.29738103540988626e-18)
(0.000555644531249999173 4.93511481680641771e-18 0)
(0.000593964843750001826 0 0)
(0.000517324218750001507 -4.59476207081977328e-18 2.29738103540988664e-18)
(0.000555644531249999823 0 2.46755740840320654e-18)
(0.000593964843750002369 0 0)
(0.000517324218750001073 -4.59476207081977097e-18 -2.29738103540988664e-18)
(0.000555644531249998956 0 -2.46755740840320654e-18)
(0.000593964843750001393 0 0)
(0.000517324218750000531 -9.18952414163953886e-18 0)
(0.000555644531249999498 4.93511481680642079e-18 0)
(0.000593964843750002152 0 0)
(0.000517324218750000748 -9.18952414163954348e-18 0)
(0.000555644531249999607 4.93511481680642233e-18 0)
(0.000593964843750002152 0 0)
(0.000517324218750000531 -9.18952414163953732e-18 0)
(0.000555644531249999281 4.93511481680641848e-18 0)
(0.000593964843750001718 0 0)
(0.000517324218750000531 -9.18952414163953732e-18 0)
(0.00055564453124999939 4.93511481680641925e-18 0)
(0.000593964843750001176 0 0)
(-6.80705491973299728e-19 0.00122625000000000164 -6.80705491973299728e-19)
(0 0.00122625000000000121 0)
(0 0.00122625000000000381 0)
(0 0.00122625000000000164 0)
(0 0.00122625000000000164 0)
(0 0.00122625000000000164 0)
(0 0.00122625000000000273 0)
(-6.8070549197329915e-19 0.00122625000000000273 6.80705491973301268e-19)
(1.36141098394659946e-18 0.00122624999999999817 -1.36141098394659657e-18)
(0 0.00122624999999999817 0)
(1.36141098394659946e-18 0.00122624999999999948 1.36141098394659657e-18)
(2.72282196789319621e-18 0.00122624999999999817 0)
(2.72282196789319621e-18 0.00122624999999999817 0)
(2.72282196789319737e-18 0.00122624999999999883 0)
(1.36141098394659888e-18 0.00122624999999999861 -1.36141098394659637e-18)
(1.3614109839465983e-18 0.00122624999999999839 1.36141098394659657e-18)
(0 0.00122625000000000121 0)
(1.36141098394659811e-18 0.00122625000000000099 -1.36141098394659965e-18)
(-1.36141098394659946e-18 0.00122625000000000229 1.36141098394659946e-18)
(-2.72282196789319621e-18 0.00122625000000000099 0)
(-2.72282196789319621e-18 0.00122625000000000099 0)
(-2.72282196789319814e-18 0.00122625000000000186 0)
(-1.3614109839465983e-18 0.00122625000000000121 -1.36141098394659946e-18)
(-1.3614109839465983e-18 0.00122625000000000121 1.36141098394659946e-18)
(-6.80705491973299728e-19 0.00122625000000000164 6.80705491973299728e-19)
(-1.36141098394659849e-18 0.00122625000000000121 -1.36141098394660003e-18)
(0 0.00122625000000000251 0)
(0 0.00122625000000000034 0)
(0 0.00122625000000000164 0)
(0 0.00122625000000000186 0)
(0 0.00122625000000000121 0)
(6.8070549197329915e-19 0.00122625000000000121 6.80705491973299728e-19)
)
;
    }
    procBoundary1to0
    {
        type            processor;
        value           uniform (0 0 0);
    }
    procBoundary1to2
    {
        type            processor;
        value           uniform (0 0 0);
    }
    procBoundary1to3
    {
        type            processor;
        value           uniform (0 0 0);
    }
}


// ************************************************************************* //
