/*--------------------------------*- C++ -*----------------------------------*\
| =========                 |                                                 |
| \\      /  F ield         | OpenFOAM: The Open Source CFD Toolbox           |
|  \\    /   O peration     | Version:  2206                                  |
|   \\  /    A nd           | Website:  www.openfoam.com                      |
|    \\/     M anipulation  |                                                 |
\*---------------------------------------------------------------------------*/
FoamFile
{
    version     2.0;
    format      ascii;
    arch        "LSB;label=32;scalar=64";
    class       surfaceScalarField;
    location    "0.750000000000000444";
    object      alphaPhi0.water;
}
// * * * * * * * * * * * * * * * * * * * * * * * * * * * * * * * * * * * * * //

dimensions      [0 3 -1 0 0 0 0];

oriented        oriented;

internalField   nonuniform List<scalar> 
20856
(
6.93649481282647866e-06
-2.26946333879097105e-06
-1.30651281000149755e-06
4.14072389059397599e-06
-1.4313332211724543e-06
1.24765468666853016e-06
-7.45867431647653508e-07
2.54785389601165839e-06
-7.77475272858970341e-07
7.88137310730777832e-07
-5.24706058456928944e-07
1.57033435696677538e-06
-4.19863225506640688e-07
3.70426506871099476e-07
-3.76854959650870366e-07
1.02624009704865155e-06
-1.69716935004192376e-07
2.41123566058927602e-07
-2.188991564052115e-07
8.58746142426342193e-07
7.43449467258984455e-09
1.04586471173378746e-07
-9.18227880818653634e-08
7.17880269299574103e-07
1.28287993696265283e-07
1.10918144159765697e-08
-4.72424990024607886e-09
5.94833247722943692e-07
2.90963298326501454e-07
-6.79379668325327408e-08
6.49787336107872261e-08
4.78414507796183916e-07
5.16653186974410371e-07
-1.70933765509699279e-07
1.3936915553677914e-07
3.40680707384393902e-07
8.63528266481442847e-07
-2.7347949760552592e-07
2.074021967918219e-07
1.14621468814638551e-07
1.20715527909404368e-06
-3.55625827979768534e-07
2.7507328730182595e-07
2.36269318836461339e-07
1.77836166172409071e-06
-1.63929797974103302e-06
1.00871336943379699e-06
4.58212575757578905e-08
1.61999738188230708e-05
-1.61126062967674547e-05
7.84587801423324894e-06
3.11229016698505606e-09
2.83406334667408779e-05
-6.40650086237247463e-06
3.58295338455055165e-06
-1.12398967285829583e-05
0.000134584335216785439
3.76539533521102075e-05
-2.64196203792522648e-05
0.00083370539985169116
0.000111085802879518401
-0.000112272154028867147
2.60467290852001407e-06
-5.60124468859727189e-07
5.48645412998373395e-07
-3.18881937985237271e-07
1.48070515968714811e-06
-3.93636953005443703e-07
3.54378870389548551e-07
-2.9791102140264092e-07
9.11869202752491883e-07
-2.67512374373743097e-07
2.80726780594951938e-07
-2.54112081920024233e-07
5.95576518535558933e-07
-1.38620355200354127e-07
1.56071057060975589e-07
-1.39106370518835732e-07
4.14869891548446617e-07
-2.73545857323626352e-08
6.84872859143662279e-08
-4.07098601194308451e-08
3.38465446909785473e-07
3.67658526191435294e-08
-5.36478607530276178e-09
3.21471177396288428e-08
2.90247523228331028e-07
1.15516317918942695e-07
-5.41489045360947225e-08
7.14467972162924663e-08
2.75338261359275292e-07
2.40455887046985744e-07
-1.12646103666383337e-07
1.12779435718813914e-07
2.45052582304972661e-07
5.0028758757401747e-07
-2.24110536467428169e-07
1.89392316232918537e-07
1.80196628844221257e-07
9.59737891931460549e-07
-3.8825967430124059e-07
2.73777345149909067e-07
7.36591953604789886e-08
1.3855164193999451e-06
-5.6223181851495813e-07
3.53997785575365373e-07
3.95508282388742741e-07
2.61682332400627693e-06
-2.67120660600606939e-06
1.55278435789390996e-06
6.26193539981704354e-10
2.01615036144088617e-05
-1.12326561208919385e-05
7.98128516756242417e-06
3.0041483223628665e-07
2.98706661852441867e-05
-5.222049239132269e-06
2.35826935329307937e-06
-1.49446247772119518e-05
0.00012664953268268957
3.85361093443101888e-05
-2.69598774196651804e-05
0.000837371664347236135
0.000110602854049467942
-0.000108042715109947149
5.57277767493540341e-07
-3.47147050107557489e-07
1.82394585857152254e-08
-5.49778261483151863e-08
4.32656852395483892e-07
-2.73544156529314318e-07
8.24946777374544966e-08
-1.53258355520800324e-07
3.29575925427151679e-07
-1.88438938180231165e-07
8.78889611679504914e-08
-9.06257033911917789e-08
2.08714511178081689e-07
-8.68649923177798302e-08
2.96979707333615784e-08
2.3455727279518137e-08
1.23459226328334792e-07
-1.12806508809816451e-08
-2.3916211678940756e-08
8.3403470314226969e-08
8.14342316597619869e-08
2.96408487325311873e-08
-5.64339259931400163e-08
9.14049637179762165e-08
8.11389112512723545e-08
7.87438377996509412e-08
-9.24401295373259949e-08
1.08298091783113387e-07
9.04984925540065765e-08
1.95436740220622557e-07
-1.57003801180478647e-07
1.48479240071037225e-07
7.12812824990785677e-08
5.12308602417768638e-07
-2.92984023083275252e-07
2.34790274478566986e-07
6.84335187084282885e-08
1.09969922103285033e-06
-5.69776175274256251e-07
3.61521782366313827e-07
1.08127457256549646e-07
1.7096342914968097e-06
-1.02071495295941162e-06
5.57397043696128438e-07
5.90592764660814147e-07
4.28695393850639545e-06
-4.77579999349994633e-06
2.74247819576154889e-06
-2.6451423236925912e-07
2.57118451877640599e-05
-1.44457386318620505e-05
9.61220285570422313e-06
-2.70504397429584997e-07
3.20090293803866781e-05
-4.3980511455235049e-06
2.06936687526393277e-06
-1.98235134011385575e-05
0.000106990475372216624
3.36330814882375119e-05
-2.22672997263232611e-05
0.000811488273121087453
0.000110399214373753976
-0.000108176039715588364
1.60096219039682653e-07
-3.9793485087914056e-07
-1.55057176702175689e-07
-3.53760753819940179e-08
2.17696004236114147e-07
-3.5278072851232492e-07
-5.98266903847203768e-08
-5.10584016967187932e-09
1.5521817077169854e-07
-2.52423207598357805e-07
-7.05765752019453113e-08
1.80809752775943791e-07
5.9220099787008115e-08
-1.41524751101117405e-07
-6.81305951486448752e-08
2.16463393882885755e-07
8.80675476141340612e-09
-2.98471585950431071e-08
-6.37158428552687103e-08
1.15858167771099568e-07
-8.26041757685794066e-10
1.01095265545006546e-08
-9.11298883050942135e-08
9.86874720872596869e-08
-2.49804329164392692e-09
6.01707271252741403e-08
-1.34084418337282199e-07
1.36956495578360126e-07
-1.51051666364994128e-08
2.18697420476574357e-07
-2.23115578664055119e-07
2.02491424167652556e-07
-6.37799568061160333e-08
6.31784076820762511e-07
-4.16691856105983056e-07
3.24441532714632656e-07
-8.26792558513256513e-08
1.36241964489617629e-06
-8.10288348903936278e-07
5.19154743907007525e-07
1.52997817177952201e-07
2.44183679677896128e-06
-1.94996413193132964e-06
1.00916890446744156e-06
5.44277031660174757e-07
7.31528772378287752e-06
-7.97125265555079346e-06
4.64068951774582043e-06
-8.64339695336592392e-07
3.10320489292136373e-05
-1.60440951501099633e-05
1.14213931208961042e-05
-9.75069341022831191e-07
3.19471093434669023e-05
-3.28596902072281919e-06
1.92313220169410801e-06
-2.18420290226773501e-05
0.000118085291928123078
2.82706427023470227e-05
-2.13096160986891983e-05
0.000778415025744643363
0.00010863076497275953
-0.000106980180854293139
-4.03710502232056297e-07
3.13043790653831601e-07
-9.45964621222738817e-08
1.26914469955257184e-07
-4.84946237635087218e-07
3.11679948539975463e-08
-3.10057353383020191e-07
2.64097630056956369e-07
-4.74825956836933474e-07
-2.18933856749810215e-07
-4.52536114511069703e-07
2.51803937368265261e-07
-3.04683348477837459e-07
-5.05829779334761095e-07
-5.39647191902732953e-07
2.94230112049100109e-07
-1.73530346453403744e-07
-7.25384793566022644e-07
-5.1578959084779849e-07
5.72301188203667144e-07
-9.81608610810655265e-08
-7.20411823789883872e-07
-3.84626880061518185e-07
7.42201649321477923e-07
-4.40309077766353566e-08
-5.26027576288959256e-07
-1.72881653574638068e-07
5.45487931739195232e-07
-3.19772750862560723e-08
-1.44300983259667778e-07
-1.19042581376553941e-07
2.32450254353727724e-07
-4.38465513681170261e-08
1.77610096303472863e-09
-1.42678047386131974e-07
1.52180086549527842e-07
-6.22621247697299727e-08
6.89889083502438028e-08
-2.05138325741672724e-07
2.05223407425909055e-07
-1.10082576593084162e-07
2.90991550382209269e-07
-3.38881601071605742e-07
3.09804596559868586e-07
-1.82929479048345306e-07
8.40441374354844424e-07
-6.23038637334116465e-07
4.72571319741225108e-07
-1.75264686683803214e-07
1.78845574907047589e-06
-1.25147472261143348e-06
7.66283375411398626e-07
2.44305059688810546e-07
3.88618830078795459e-06
-3.70473634255872007e-06
1.91133070260489969e-06
-1.07631733055619113e-07
1.20012135226625222e-05
-1.14815809682593275e-05
7.28429167521413443e-06
-1.49365155507767558e-06
3.66309906644304194e-05
-1.69943778466989807e-05
1.29538518011462764e-05
-1.74428842577093192e-06
3.294283473625877e-05
-2.97202929053421334e-06
1.3494876755396731e-06
-2.14941641081915792e-05
0.000146011231935106356
3.4119563520914661e-05
-2.60324955667597551e-05
0.000746293139957674226
0.000106785676893772019
-0.000105541269021500617
-1.01061933313539763e-06
6.50792056873779243e-07
-3.19905398179488498e-07
3.0029053931689339e-07
-1.11896693927028634e-06
-4.80252455927012962e-08
-6.87495218836400566e-07
5.07999562883294794e-07
-1.1507884864222868e-06
-3.55152941638895699e-07
-1.04141883045199055e-06
6.38492879939389088e-07
-1.21389864783023311e-06
-7.50844519736240297e-07
-1.07289318104181936e-06
9.5975252072815064e-07
-1.11024324911995877e-06
-1.44543848671175227e-06
-1.03662375448481491e-06
1.39081255243826892e-06
-8.24843350348268233e-07
-2.07740213836889739e-06
-8.77899664356421556e-07
1.88626349001018511e-06
-3.24135916939468221e-07
-1.91282074228778134e-06
-5.87453534141678004e-07
1.59218304564115713e-06
-9.71894138375082076e-08
-6.66481382656149527e-07
-2.89692515179629125e-07
7.11496140870662267e-07
-1.09250917243380776e-07
-1.43807223709992941e-09
-2.34392014325810584e-07
2.89525202675584782e-07
-1.36811382699240709e-07
1.01419783100333565e-07
-3.27238805884311572e-07
3.34402712771567415e-07
-1.9928050198065246e-07
4.87041021773362465e-07
-5.3563264324058853e-07
4.97903905728906483e-07
-3.19621899483071578e-07
1.2152755230012071e-06
-9.92130999843928044e-07
7.06599169020730381e-07
-3.9751660036469123e-07
2.65561679882143284e-06
-2.14898089644854443e-06
1.25621931355984516e-06
-2.16730845555726621e-07
6.73287688355589888e-06
-6.85312331951703322e-06
3.6043803668417969e-06
-2.07177718673604394e-06
1.84065734370707088e-05
-1.44692945344871248e-05
1.16165013843476329e-05
-1.76315694010377719e-06
3.97059257227493247e-05
-1.72388418239557587e-05
1.37936644570696201e-05
-1.94274447191568381e-06
3.34668231860978403e-05
-2.06826094979744242e-06
1.7539266827261647e-07
-2.23546728672296666e-05
0.000160208112299023713
4.48450373244032135e-05
-2.92020797054045038e-05
0.000712276306374304475
0.000105025376780420711
-0.000103400422768338288
-4.07313682103288337e-07
5.7386613654137084e-08
7.5418786532450982e-09
5.12967748324298744e-07
-9.30933181147106154e-07
-1.25984744739792088e-07
1.74842086054149327e-07
9.53655442101010175e-07
-1.21291996058328579e-06
-4.65299484946660008e-07
4.37866077191206835e-07
7.28047199267402546e-07
-1.56603636127643364e-06
-1.01116996970393241e-06
7.40832750791670841e-07
-1.99596116996832425e-07
-1.91026177714895656e-06
-1.57242484600811701e-06
1.10925293366316852e-06
-1.00813268918241493e-06
-2.81565487229921755e-06
-2.17053104421174105e-06
1.88755047018163483e-06
-2.05463477858980634e-06
-3.68916946562962528e-06
-2.20691017176635533e-06
4.01846639737245364e-06
-3.67889366701916883e-06
-3.26347653058598497e-06
-1.9830659471449654e-06
4.33819627743244099e-06
-6.05162230296217566e-06
-1.75476516635447669e-06
-1.6277291085722936e-06
4.50996957523161129e-06
-5.87755522496612202e-06
-3.69304915353033585e-07
-1.0060827192402396e-06
2.87264546999014542e-06
-3.36238721511141838e-06
-2.83216863097882512e-07
-5.423195020572248e-07
6.33894754755374143e-07
6.94191472528805333e-08
-2.7387805720048773e-07
-5.36680511387254794e-07
5.83039015265005519e-07
2.19114212625344401e-07
-4.85378303141615446e-07
-1.01508971504448097e-06
8.99122194255266016e-07
8.40286815721178942e-07
-8.92350941003473833e-07
-1.89391906221241521e-06
1.33520282284701454e-06
2.08508502209525927e-06
-1.88525201761658099e-06
-4.42708964689148467e-06
2.73945374935513892e-06
5.1916212486141967e-06
-4.26293429374217289e-06
-1.25117086148432282e-05
7.63910963635834244e-06
1.3742752793355233e-05
-5.34251286159346691e-06
-3.09015440296469892e-05
1.73976342059198833e-05
3.86436077861539005e-05
-1.8858100371992663e-06
-2.10892796632168475e-05
1.19860881223650689e-05
4.44586784324075768e-05
-1.12246519591502651e-06
-3.64309088644780523e-07
-6.38348136688237679e-07
3.24612686505294616e-05
-2.4534515573493101e-05
6.18090492794323861e-05
-3.02184056507610669e-05
0.000152738959922287464
0.000103236890155543378
-0.000101371066407477989
0.000676276881778641492
4.80750565427881582e-06
-1.95273315336179598e-06
1.19871404835045394e-06
2.86238805582549913e-06
-1.07367450291291414e-06
1.04588499495180076e-06
1.56058981727440156e-06
-4.24534191725085627e-07
4.28162403421990093e-07
1.01660922857075319e-06
-2.03391843974974745e-07
2.35607246868568514e-07
8.21643285943614498e-07
2.86345445962550606e-09
1.1294410868805789e-07
6.93457044718699026e-07
1.34952453002257427e-07
1.39781690649097201e-08
5.83642610400759976e-07
3.17468090854498169e-07
-6.77697528003354297e-08
4.77737751389545406e-07
6.09645427214683986e-07
-1.82950694932625425e-07
3.37800596289910114e-07
1.12745976325735323e-06
-4.12931490075881166e-07
2.54621677825578802e-07
1.66614882588290649e-06
-7.51795555565250409e-07
5.06053149276179642e-07
2.59274239462211734e-06
-2.77092534121758025e-06
9.97022258196732774e-09
3.29843328208145496e-05
-2.19907474248822817e-05
-1.47072397126773397e-06
6.34291602857773727e-05
-1.51456957345377894e-05
-2.16012641751504156e-05
0.000200632480232860923
3.75514353298807524e-05
0.000891934813623312538
0.000102309873973883741
2.33111024181056796e-06
-1.06946348984768612e-06
1.03821664624449913e-06
1.62152375412985909e-06
-5.47502229864219866e-07
4.6447400838048758e-07
8.57478178219879782e-07
-2.78894360129474351e-07
2.34847106924880462e-07
5.4840015839608791e-07
-1.17465448465531515e-07
1.50073448531270162e-07
3.58422866493868036e-07
-2.17287051794586148e-08
6.72172131325157013e-08
2.83920780549014928e-07
4.06220188749771503e-08
-5.5785002979967779e-11
2.47816524662201618e-07
1.18184892418535749e-07
-4.92887641976685416e-08
2.4577064093076295e-07
2.62510708902695943e-07
-1.22463585979243495e-07
2.12284811251319732e-07
5.95683798164945436e-07
-2.68443259939459757e-07
1.85746104493551018e-07
1.24009582005219573e-06
-6.22107392141822187e-07
1.69928538517837884e-07
2.03835092460083573e-06
-1.18461905795565057e-06
1.0816591522567872e-07
4.71316238476201536e-06
-4.85991286206387911e-06
5.32742704401857318e-07
3.59957621233108815e-05
-1.61389483731541581e-05
-1.76455373802401562e-06
6.43915894590685117e-05
-1.32778036174991955e-05
-2.88033990011775147e-05
0.000209989630529619617
4.73964314598485803e-05
0.0008627018618335364
0.000101509047607956023
4.62843575891490192e-07
-7.60989522455819134e-07
9.64906697625429102e-08
3.32837459693373867e-07
-4.13360723525998532e-07
1.57071351977303749e-08
2.38775541349220722e-07
-1.51759358540437809e-07
3.32239027322226295e-08
1.4705938403715519e-07
-2.60145493245947782e-08
1.88351082864885765e-08
8.61298194766389882e-08
1.09509185817132291e-08
-1.13690196431563009e-08
5.78749989446107985e-08
3.36241695906098043e-08
-4.7016310555065331e-08
5.88571039761284631e-08
8.37336983366372739e-08
-9.52529456694669672e-08
6.01494240396675134e-08
2.36354039478532384e-07
-1.80546895855360735e-07
1.83740239440665208e-08
6.54914260310802038e-07
-3.771535402130031e-07
-3.39978943570524555e-08
1.52342462556048293e-06
-8.72159576417134815e-07
5.32729091783753489e-08
2.78084646226744335e-06
-1.97479294207486262e-06
-7.54169920984264418e-07
9.51136367620603659e-06
-8.728832150254913e-06
-2.9461645640661673e-06
4.42599026165975984e-05
-2.28656399425899867e-05
-2.16385287121786066e-06
6.51365441046988992e-05
-9.57231188725365275e-06
-3.18191462799348015e-05
0.000153766806102052084
4.1113757437886125e-05
0.000831970346674838052
0.00010031526349731238
-4.17694549106948177e-09
-1.0663565410117569e-06
-3.25634295410151883e-07
1.03486997128359857e-07
-3.70520190011945824e-07
-2.57805725919911034e-07
7.46772305722067165e-08
-9.85726273960295023e-08
-1.04331446764153195e-07
2.16378830163776143e-08
-1.76088978969005092e-08
-3.92196811286401881e-08
2.36765456623998236e-09
2.04677301994786753e-09
-5.69086327412312583e-08
-7.28235131231355844e-09
2.15792163399691177e-08
-9.08021007148134866e-08
-1.96940178735516923e-08
8.2347202487222438e-08
-1.46119489896703423e-07
-5.27363810496005774e-08
2.69948546574045847e-07
-2.64193325858714938e-07
-1.3986819458471061e-07
8.12903374408144245e-07
-5.48462191786002406e-07
-2.07531793319239305e-07
1.93835713746599496e-06
-1.22706433788126175e-06
-3.13580250628264811e-07
4.57539174523820713e-06
-3.40136110425788352e-06
-2.87585258133938038e-06
1.84931583265035162e-05
-1.34058833982013321e-05
-5.59676079296356224e-06
5.21274898008686777e-05
-2.27703289504316257e-05
-3.89662385707914816e-06
6.4993553548738618e-05
-9.44118307491213985e-06
-3.4279730887226963e-05
0.000174085451907722653
3.43865832523909229e-05
0.000797458681697295856
9.87276837890277518e-05
-7.91192294343067656e-07
1.23260788417313737e-07
3.01309728693415114e-07
-1.09895971929835092e-06
-6.36504400322295654e-07
-6.78209526045754904e-08
-9.88093365083886841e-07
-1.42783566828098615e-06
-5.35064961285008082e-07
-5.42095930222648245e-07
-1.52440424162348443e-06
-8.72418543853769647e-07
-1.44237555927377382e-07
-6.37738626345272848e-07
-7.40621575499087979e-07
-2.78231816881931089e-08
-1.60864016160959986e-07
-4.2685172471913409e-07
-1.92494063625212998e-08
-6.83399561594541783e-08
-1.31745827832446115e-07
-2.79476573439784583e-08
-1.92268428310611153e-08
-1.05433839114929018e-07
-4.63753014170234863e-08
1.40044013279185514e-08
-1.42551129244073796e-07
-7.87309120289338022e-08
1.01003901315519132e-07
-2.21649820008451071e-07
-1.53951983444730591e-07
3.61569449227800128e-07
-3.96844321172270199e-07
-3.02358209083775559e-07
1.10920238772592056e-06
-8.260653738599343e-07
-5.62470012047697137e-07
2.7697126185574605e-06
-1.89987413554908138e-06
-1.70013276109138361e-06
8.0506875911267418e-06
-6.10450102935425965e-06
-5.93119327720714374e-06
3.11455278742100086e-05
-1.95579229314028783e-05
-7.70215219014482159e-06
6.38716088874264259e-05
-2.7506397225085775e-05
-4.39313935180070579e-06
6.90288124662808344e-05
-1.39662318665291453e-05
-3.31008003330480016e-05
0.000206841929061087401
4.03381920575047865e-05
0.000763264451382791864
9.75137254231501382e-05
-1.41195398405178562e-06
-6.77356853831189849e-08
1.4076201068217467e-09
-2.09042926102406598e-06
-1.36447962775171921e-06
-5.48745904815945149e-07
-2.1227307883461632e-06
-2.71222502290485732e-06
-1.18566251473297181e-06
-1.47002700035785788e-06
-2.59220611576390787e-06
-1.35348433716296626e-06
-7.55167380734173355e-07
-1.40640443265578961e-06
-1.27736008948764619e-06
-2.86950052184661536e-07
-6.41710526060962016e-07
-9.18636383040046269e-07
-9.53119258461660018e-08
-3.20658009197491705e-07
-4.87147751069007522e-07
-7.03334326223023386e-08
-1.26368495242917859e-07
-1.94271754464782346e-07
-1.05843169268070676e-07
1.86190029536954875e-10
-2.08100745010238583e-07
-1.66589644972439607e-07
1.4035877487923086e-07
-3.43462275291296298e-07
-2.88969707321125935e-07
5.5291200385661909e-07
-6.40768175475016643e-07
-5.64540769557035794e-07
1.65749230608917801e-06
-1.33825485496639692e-06
-1.37581325199630125e-06
4.51206348562133844e-06
-3.11432455805593247e-06
-4.55794874979131992e-06
1.44934665564891417e-05
-1.00950128022758367e-05
-1.15853485000981728e-05
5.17053018239482405e-05
-2.80367299954144253e-05
-1.07331574696597876e-05
0.000109456997664086981
-6.30604305042322343e-05
-6.6055657611038832e-06
8.02921131695837943e-05
-2.81830813113721364e-05
-3.44942280445085549e-05
0.000263121605494843775
5.59361862872806328e-05
0.000726681014149449804
9.58051012644754919e-05
-7.22504904323875507e-07
2.28496486249385769e-07
6.56258612534137252e-07
-1.24133307888178206e-06
1.03989342046413993e-07
7.54656585417726165e-07
-1.69419681410590464e-06
-3.1730690343677642e-07
-3.33974676238769205e-07
-2.6448938081841211e-06
-1.07569548442351315e-06
-2.20498200560999957e-06
-3.59428483588920818e-06
-1.78481605758050107e-06
-4.04808793382532815e-06
-3.55736138363860929e-06
-2.51002418218580764e-06
-5.29659924860394048e-06
-2.29925037562634892e-06
-1.95064897586527327e-06
-3.6132274648765462e-06
-1.46759545983712931e-06
-1.58504561257236911e-06
-1.97837109117479524e-06
-6.6181211748268085e-07
-1.06294008691352901e-06
-1.58235329041284794e-06
-3.44905487146087055e-07
-4.42899457964812526e-07
-8.83217193301448622e-07
-2.96159726967090747e-07
-3.86367412475508911e-07
-1.92270884294896312e-07
-3.69579363738327409e-07
-5.55788746584105536e-07
1.94325204185454383e-07
-6.83446364758459494e-07
-1.10354381023075867e-06
9.18716316972273109e-07
-1.5839390977883948e-06
-2.32896335540105592e-06
2.90966114917411001e-06
-4.18764651293166392e-06
-5.38967972054043281e-06
8.05177488649506735e-06
-1.19593577943453398e-05
-1.5675956196205604e-05
2.51873927567615936e-05
-2.80277309098043886e-05
-3.70114686744727275e-05
6.91607466360936855e-05
-1.58192938033663764e-05
-7.01751123931510992e-05
0.00014241303522085063
-1.3347540886229717e-05
-1.74243065751568129e-05
7.9687810932791564e-05
-3.62945522548900338e-05
7.82692271526709869e-05
0.000289119488244745369
9.51035881604961238e-05
0.000686340181369385566
3.99172017834334689e-06
-1.6447461036382433e-06
9.92509143343208062e-07
2.94288808697024194e-06
-9.21418251105603419e-07
9.1372137984255138e-07
1.2361525765138458e-06
-3.60164503520317563e-07
4.69149444644781369e-07
8.66037503039711485e-07
-9.17825659880876158e-08
2.12656990198793537e-07
7.67720473952795298e-07
3.7053125761857489e-08
1.07069969812246878e-07
6.40360296797243728e-07
1.71196532261714457e-07
1.73602332468465794e-08
5.66753872109762215e-07
3.61875368036598799e-07
-6.75941724503486029e-08
4.90073797700895521e-07
7.17550796619456521e-07
-2.44606766424891988e-07
4.37652677323147014e-07
1.54472232615249399e-06
-7.04284890391031709e-07
4.85779643973349305e-07
2.98759488532057187e-06
-1.65282515701310611e-06
-8.08432795960505208e-07
5.18530619551389305e-06
-3.91555527748573413e-06
-2.68420176696531465e-06
4.78633295884697965e-05
-2.62004437907437709e-05
-8.46708737468838023e-06
0.000106205669168463632
-3.18159875677247878e-05
-2.92578466151672245e-05
0.000375952951302855427
1.31636404755556367e-05
0.000916868467482911368
8.23484393069353167e-05
2.39997546968147755e-06
-1.36792193948906552e-06
1.18984485255782635e-06
1.10474273858950911e-06
-6.11393088156731697e-07
6.72326683570614357e-07
6.70495125776189732e-07
-2.00266219651282629e-07
2.56903049240107662e-07
4.08363189638340506e-07
-5.66358317489965143e-08
1.09804370532892528e-07
3.07091224112215109e-07
1.08982057176002962e-08
4.96702890164445791e-08
2.46979103880999002e-07
6.43641665938880981e-08
-8.45050396530678755e-09
2.3632826882915448e-07
1.39346072277902331e-07
-6.43693604213058048e-08
2.39913589852907681e-07
3.19395789886173743e-07
-1.57339493352428246e-07
2.10917359148173631e-07
7.6584491646018085e-07
-3.77724555362774023e-07
1.71250082633961658e-07
1.83363420233175791e-06
-9.82791213421311151e-07
1.60511185763281833e-07
3.67246031129287193e-06
-2.11274633439609998e-06
-2.88439125980960428e-06
9.79185309217881278e-06
-6.36975746672864914e-06
-7.52931869772916875e-06
5.78093152138111228e-05
-2.78541261529592282e-05
-2.78682500892039352e-05
0.000134495349934563225
-3.12947320298988718e-05
-3.80081250444226713e-05
0.000351433992444138814
1.34133994262232283e-05
0.000893498676862244587
7.93627698145011159e-05
2.87893368468689807e-07
-1.02157499472207634e-06
3.88928549523130784e-07
1.72248847389466011e-07
-5.84128663458472409e-07
6.5156255679934711e-08
1.22378033778705208e-07
-1.44702284843424314e-07
7.36550230841520095e-09
7.18129698638612313e-08
-7.3290751424867464e-09
-5.94628509705023737e-09
5.50092383025592584e-08
2.06953861001107893e-08
-2.88120620269710776e-08
5.80458881801664289e-08
4.70999489347115725e-08
-6.92756787285541618e-08
6.27612202383373425e-08
1.16301670111619804e-07
-1.22827988343074975e-07
5.46873923474567774e-08
3.21149867920395405e-07
-2.31089573002929622e-07
-6.43363897606607059e-09
8.64139138184213894e-07
-4.91574346319421514e-07
-1.20153017170957096e-07
2.17151131263170472e-06
-1.16259401458990782e-06
-7.72723827342820239e-07
5.11226172824217035e-06
-2.72906138270568744e-06
-6.14606370124971023e-06
1.75940485136776549e-05
-1.01919862154970759e-05
-1.29092219288662038e-05
7.22804141800199987e-05
-3.3227810035869441e-05
-2.20655741433351117e-05
0.000170880850737635629
-4.01976002879443606e-05
-4.49524942068147464e-05
0.000275158140940115763
1.18431760950158901e-05
0.000861971795071802779
7.72915419930349007e-05
-3.30923037016475803e-07
-1.76506745679809112e-06
-1.68551911035454663e-07
-5.15282530315288769e-08
-8.63313923948724609e-07
-3.34923770578677294e-07
8.08371986548807585e-09
-1.44152681064241614e-07
-1.87805807641715015e-07
4.2885280163442895e-09
3.65691277401966544e-10
-6.74120303597765012e-08
2.78754850468853984e-09
2.21544383119080261e-08
-7.56609085422471883e-08
-3.27308013056098024e-09
4.51799314578704022e-08
-1.08654658429794211e-07
-2.12388624588543125e-08
1.2326652328161199e-07
-1.72372411796171489e-07
-7.1110252362794171e-08
3.67982472975689957e-07
-3.1288987093401751e-07
-2.07456526483918688e-07
1.05153677809481032e-06
-6.72205199202358511e-07
-5.21239557344953541e-07
2.76700183768896573e-06
-1.53433555917732147e-06
-2.36474730027117299e-06
8.10198217704550741e-06
-4.08253565084067832e-06
-1.01236009366625339e-05
2.81269521019647748e-05
-1.4812715192656557e-05
-2.37801954950297436e-05
0.000107494471371383167
-4.33632313505786867e-05
-2.22625449180499779e-05
0.000232639885477938619
-7.91492132360674725e-05
-4.8727147716537071e-05
0.000305839295628781299
1.06755473226006599e-05
0.000827337882304430183
7.62715918739821733e-05
-8.53367415612064543e-07
2.26550722580312674e-07
6.28481724865192361e-07
-1.31294437922181581e-06
-6.73763232487723732e-07
3.74971362810907091e-07
-1.38679370102593691e-06
-1.91332617888089674e-06
-2.05908543878239657e-07
-9.84646782177435766e-07
-2.65851629389765562e-06
-7.61581901433822887e-07
-4.03105661168292051e-07
-1.44048315310759308e-06
-9.48099647237984352e-07
-5.68147919576760626e-08
-2.37108921312234755e-07
-6.8893882384136703e-07
-2.21853445618153085e-08
9.17590413008569521e-10
-1.89760108636225288e-07
-2.41645574570557352e-08
2.10521334993010721e-08
-1.24134986678198735e-07
-4.38103160749929699e-08
4.31495771771657753e-08
-1.51731604544536721e-07
-8.96977655909537195e-08
1.48842840247650232e-07
-2.36414271361788808e-07
-1.95145364288183176e-07
4.70061873687065567e-07
-4.43146150011178987e-07
-4.55323024154663334e-07
1.3696485910835803e-06
-9.62588065188011788e-07
-1.29562802973011642e-06
3.93713673739821531e-06
-2.27406465210689604e-06
-5.6189601837205777e-06
1.30580050284041366e-05
-6.19897126055847487e-06
-1.60277751843244296e-05
4.05035711119675204e-05
-1.9530438464524255e-05
-4.65107000614949393e-05
0.000169709067622630461
-5.83292898458782455e-05
-3.16090422380941073e-05
0.000296986790208368201
-9.31744061765653222e-05
-5.02976953394496912e-05
0.00038234087208291115
1.72199078982925522e-05
0.000788316497090069904
7.78231665172609888e-05
-1.48529757748254301e-06
1.20925282992509211e-07
4.22156648700922073e-07
-2.00601864647803747e-06
-1.14270951045325502e-06
-7.64603590381782132e-08
-2.29140359683676152e-06
-2.66860597048997003e-06
-8.12510169623104427e-07
-1.92293768386184189e-06
-3.59571961002103937e-06
-1.4674553995572035e-06
-1.09689556037572563e-06
-2.33230151792316129e-06
-1.6552005397796934e-06
-3.02999780020913822e-07
-7.85972050346653648e-07
-1.2586206615181671e-06
-6.47734489039039082e-08
-1.01594825966192197e-07
-6.35641208105861947e-07
-6.26085910907836416e-08
1.4760943316715875e-08
-2.15742193947755394e-07
-1.04988365621208684e-07
3.43758344018864579e-08
-1.91817627638799957e-07
-2.1293697879647217e-07
1.96094926866149111e-07
-3.20844261178269312e-07
-4.19595861880154152e-07
6.55331205796548946e-07
-6.47449478531937806e-07
-9.26622837343618704e-07
1.95437204835703594e-06
-1.45038663731242327e-06
-2.90452130226234037e-06
6.13110150045284709e-06
-3.28976054842786585e-06
-1.13270780656652282e-05
2.03475396292625634e-05
-8.78802025779708392e-06
-3.10345559481753011e-05
5.63048268829952298e-05
-2.36613447236989026e-05
-9.05156860071975504e-05
0.000226067102642728914
-7.40419617162034639e-05
-5.1961292527555096e-05
0.0003223656147154596
-8.13865765357559408e-05
-5.13555105120836012e-05
0.000443448460603890139
3.11151355421066008e-05
0.00074650644383463991
7.5953859880742669e-05
-6.20858915457767624e-07
3.59998008820818993e-07
6.31164390443952399e-07
-1.21284807471536905e-06
3.81106008259689317e-07
8.22363341767346903e-07
-1.56613145905778121e-06
3.55318184416009629e-08
-2.0987412882318114e-07
-2.54417400569185881e-06
-6.59567883050758522e-07
-2.10567107869868098e-06
-3.86473516761395046e-06
-1.69447984512535419e-06
-4.28504764922566991e-06
-3.67029185841919294e-06
-2.47560552930151377e-06
-6.51614474661018694e-06
-2.4963164734272994e-06
-2.16302003892173017e-06
-4.08315827581675372e-06
-1.17672835566131731e-06
-1.84783241259238029e-06
-2.04252929742761802e-06
-2.9312247082174063e-07
-1.11967752583923193e-06
-8.94024631333832968e-07
-2.08255744195157139e-07
-3.56621144028243778e-07
-1.58347941463507633e-07
-2.85343747395406176e-07
-2.59912168494634186e-07
-4.21027696937987238e-08
-4.78887360235986848e-07
-4.62080989434859416e-07
2.57307680615999491e-07
-9.26978551667564233e-07
-9.74582032064654443e-07
9.47264992451212734e-07
-2.29751857517937549e-06
-2.12930743793760265e-06
3.046788156743008e-06
-6.89406153896181164e-06
-4.69300792235074231e-06
9.92645961002620167e-06
-1.99315561427752471e-05
-1.18331979101085912e-05
2.92854167455837904e-05