/*--------------------------------*- C++ -*----------------------------------*\
| =========                 |                                                 |
| \\      /  F ield         | OpenFOAM: The Open Source CFD Toolbox           |
|  \\    /   O peration     | Version:  2206                                  |
|   \\  /    A nd           | Website:  www.openfoam.com                      |
|    \\/     M anipulation  |                                                 |
\*---------------------------------------------------------------------------*/
FoamFile
{
    version     2.0;
    format      ascii;
    arch        "LSB;label=32;scalar=64";
    class       volScalarField;
    location    "0.750000000000000444";
    object      p_rgh;
}
// * * * * * * * * * * * * * * * * * * * * * * * * * * * * * * * * * * * * * //

dimensions      [1 -1 -2 0 0 0 0];

internalField   nonuniform List<scalar> 
7340
(
26.2591330153039912
21.433350477074459
11.3740060507183021
8.90893259364487911
8.34272632099489009
8.57246350227273091
9.29329580436766811
10.2720000968144838
11.4893185650906382
13.6869203634904579
18.1141736619862037
18.7912584843831034
12.4047155842244585
3.745262995983067
83.4106832531953586
934.261927241616718
13.4848842614567594
11.0011596719918732
9.26827146939328905
8.16579174553441867
7.83519661747068596
8.11367529484439665
8.72387554995562198
9.56060821931986915
10.5915522114338625
12.651390422338423
18.2879875738025355
18.8686906595057415
-13.3215822670854234
-9.33217695663906177
145.45939248356197
921.831477508956141
13.0269096119320711
10.931140453689256
8.98607474066765555
7.88888472286546794
7.63922128649033017
7.89724549620621818
8.38918339259068624
9.06621814242815383
9.84117983743918323
12.0947014271745896
18.8280791080459764
19.0613758938124001
-25.5416748481166955
-14.7757499769473704
209.216118853274025
1128.57593559068368
12.9836816193129341
11.0794080825402137
8.78217293836285151
7.70724798982489645
7.61978372958992356
7.88328036774622287
8.27228778241814666
8.776620595171849
9.4541834530571478
11.9828338796553471
19.6170638154097077
21.4869447725536276
-31.0350394491944606
-4.24771512969299891
117.925892407679243
1246.0939943634678
11.5897283727976319
13.3335147122710946
14.1321526170233316
13.5649186143084641
11.8664180206739882
9.46665219496549781
7.96122548935066998
7.73494336297895302
7.95127139465352517
8.34977593481782776
8.84637816736407245
9.57713259030923503
12.4152513493558896
20.7568843170621307
26.9484194344558077
-34.29284749046451
-1.88252496590162743
130.823581577061759
1337.76612638400661
11.15123307929459
14.1461715473421386
16.1858986678341488
14.7919526687010521
13.1081557126677346
11.1531330810957954
8.99103448425947782
7.98885612207207263
8.053517723890673
8.54362906575225622
9.10452928587339905
10.1409609412752975
13.2075198731813277
22.7801344478738592
27.2628512026126906
-22.270729008670763
3.10090095957931045
253.731860929359442
1432.1034040507468
5.70068083185361285
7.82428709383427101
10.0460376766592336
15.2024189246867731
21.1082459459261713
29.2307342202354477
23.7635263984011047
23.3930667614132553
12.8691279772768485
9.10054332961487233
8.31735223354659503
9.7842924782120555
9.82305320047851183
11.0525929238919129
14.9277299748104202
28.2623614338753661
44.484633141922906
-7.40909881563098427
3.381930785552965
335.523053294685383
1516.48811456303406
20.7953534378382692
16.7671980247555013
9.79408236031409807
8.66168955347053249
8.84926372656366134
9.62130666345689889
10.799234643585633
12.3146969405421363
15.2022269272998525
20.532365616992859
22.4131226051668726
21.9209758978656915
24.6825278684834402
128.985460700120399
921.747929955456925
18.3223721634010488
10.8072608410017779
8.90247602563357532
8.19843698475136939
8.11874729431057851
8.4852995426717861
9.12504395450825356
10.1014846683289523
11.4087387493536649
14.2239215908504484
20.4614370437343354
20.6993471158054163
-10.7603002376807773
33.2734215333845853
209.219591219075255
1158.3270590873467
12.9066053783882353
10.2040731592192184
8.57159661526309335
8.01051971820585962
8.04001103529072481
8.35034652956795043
8.85064058623668082
9.61072970278597261
10.6246545891922484
13.4344665708731501
20.7062704165297795
20.3935615129784047
-18.6901455689785898
3.24162997803004638
493.027128279090903
1239.08478959864237
12.882559246612491
9.93202420543931197
8.33719232364381213
7.94493838547075626
8.06196095706232541
8.33502210580443403
8.7519218841378521
9.39756005700941088
10.3284608789900982
13.2564170819984035
20.7077813853504793
18.8507707177969692
-23.1007603020455576
3.9181248474420558
115.15742849151799
1329.61669848164138
12.4930869708054626
14.7253437089170554
15.3985582806795058
13.896728659845536
10.3864495596205124
8.44359050638854036
8.0362210640846623
8.15198699291088147
8.46085456980840256
8.87690514573887413
9.48245426428850102
10.4848515007214811
13.4566037428631198
21.6061552172080766
24.8684270029179011
-16.9747142513947793
17.0755743702077183
132.929638051364293
1425.70827937964077
11.9503779180157146
20.4532941509560544
22.1879285154972834
16.3573973928677567
12.1346391768982667
9.4770511077456181
8.35546738330720551
8.30072040095733144
8.63912588841004059
9.10117353748070457
9.78205576951134326
10.9665629339953412
13.858793106666969
23.6512442672737997
35.5971320159191862
14.9558032736928368
75.7768723960021617
213.780250923224486
1522.41728186997079
5.83028478209739198
7.8835460168575846
12.1512399343572746
23.2363925522722283
29.0245062456251866
33.5784841182357709
15.7957210561589374
11.7884209918022655
9.6165972436499203
8.65333762043321641
8.8909575002594039
9.57959169641398489
10.5674673100315601
12.1504940626773692
16.2790620406463589
32.8940665742372076
130.981007318557715
195.048587081430583
119.272102603500855
504.438774241327735
1607.47793128138687
20.9445772276918376
15.6849133459173693
13.264608307477987
8.92624737501527932
9.31977019855038868
10.1951805559136748
11.5904716970418615
13.4460407230056553
16.889710253647138
23.208800499434961
27.3539045282385622
6.52484302649129422
125.560276512539033
395.976699872753613
1226.53377120816845
19.9793750824338687
13.5688190748018389
8.59322788357058265
8.20058088911565974
8.38563298449669325
8.91568365590137901
9.7010554522444874
10.9184893835916697
12.4508609869307172
15.6476529140833467
22.7963646853704525
24.2566831558938638
-0.689580465999407921
44.4911085165944939
827.445593716424014
1282.25972165854569
12.1683394523504287
9.43520965350423957
8.26361805380181558
8.13881339412909277
8.33734885722043906
8.76626703285028519
9.4266980475308646
10.389171109631798
11.7276183090042334
14.6598310980867428
21.4841402094009801
17.628124962735793
-6.72511002302536642
23.1968811926591592
901.209736738426272
1362.53553430071247
12.4932289720592298
9.4324973853850409
8.2180070182583993
8.14295745769178936
8.33671802755617009
8.72713406722432516
9.320311446540682
10.1994820243453379
11.4319870365827789
13.9923805391986491
18.8819447855547047
17.6292064327099851
-10.8639937874270558
71.7253235262214872
349.656606554635857
1447.27693387568479
11.2171351329002658
13.0392059584253488
13.7291095814515636
12.9733434498814937
10.446133682638024
8.35948994001534373
8.25043341084450432
8.47320842582274025
8.90878950968705929
9.45543600214057278
10.2546990870316073
11.4709137306529794
13.8972108614086931
18.7811241670722708
17.2480570084323048
47.0259590085985906
234.501045030198355
343.025936135040354
1543.97344728781036
9.79740264269739036
12.9723520143001796
14.9178987926681224
14.8787916280176162
12.3161801844982524
9.24499865575084101
8.40690657973738986
8.65663222302620028
9.16148354694368017
9.71470098618680389
10.506822804454929
11.597925216077746
14.2528600214080541
23.594439040801209
40.2517981249763039
273.011510769927497
895.953070754874716
723.049263805618693
1647.94813213149428
5.02112609876502436
6.48066092286554873
8.54297572909428737
18.6882833907756343
29.9082311836226289
29.4952677400661507
15.8401518217417472
11.6411093315498668
9.07518686696089283
9.00978905050176415
9.55840836876982003
10.2355477109919093
11.3282185568195182
13.119095091046507
17.9086592547136334
34.1749977266462039
68.1312345536867525
757.88421295498074
1220.58649327764965
1190.46743067541024
1737.76780569035577
14.6255820969790289
17.3229542460102302
17.1279355914128786
14.6513403636661508
10.0386899438282473
10.5191152852638208
11.4178015734471305
12.855209689521736
14.7289159564936245
18.8229184832720868
27.3449836699526934
38.7651766737998145
40.4589526840604137
109.182264404113511
979.877408932516346
1397.39990474964134
17.526421855835757
14.7943539983528289
11.1101382685725856
9.12829963458739968
9.12086294979254752
9.70104189284767493
10.6210589738029384
11.888483786399533
13.6022136125284145
17.4740460748160444
25.7486522544667018
37.6385550766957735
35.4181311137136277
80.3021246799590642
547.50982239973348
1444.87412202351516
11.4276173116538065
9.3226909322436029
8.75921267999179065
8.57123567923066609
8.779129224540414
9.35218319981244051
10.1807518989889765
11.3449679664687118
13.0732551370973251
16.6350390422183629
24.4529648775424988
34.2950215248821095
49.2334884852324208
348.556431764605861
758.875665591195116
1503.47768396565698
10.1575835562497296
9.22005618426000417
8.61279598743896635
8.54103300380128871
8.77019866954743144
9.29933118847471363
10.1192294278041572
11.2852842316238569
12.9681909686316317
15.9884976376276171
20.7032795778219558
24.8504498423817957
95.3460217057233308
1088.46051194136294
1297.94123972664897
1583.37036366853908
8.79391966201131403
9.09285718745861793
9.5941570262332494
10.1530588998524838
10.8425048732533131
9.06274683060673958
8.78898926794757607
8.96551726922842285
9.51000811340737862
10.2987908573318627
11.3438937383459688
13.0747237479429081
15.703873795617195
19.7653977488612007
32.4797529320750087
186.495012976800297
1218.15749747929794
1478.38164767995841
1674.27429604172903
6.69047057299220516
7.63735989803494064
8.75162184519381192
10.8939695678963933
11.9269596805785696
10.5960111339639163
9.01914115157451057
9.21100034577339066
9.81841715945993698
10.5825920105930198
11.5002558943533799
13.398330336778411
17.0362387357721374
24.9162466848211643
42.9749911350138305
257.693362700932312
1334.86677076828755
1558.94655781451684
1766.13934172480845
3.80491352764824509
4.70773678020919295
5.45112849664122479
6.40339829234241176
8.7361866201524716
13.2311457923796834
24.2907316853754764
12.790940663709506
9.34955366862311621
9.66677447730335793
10.1848949408480944
11.0598609450294845
12.4492995094596726
15.0007431771173128
20.1655103236472648
32.03000413944212
70.131410448552046
478.305285482627937
1440.89801995851849
1655.22534689315194
1854.66674310078247
12.3632231391232725
12.0719407323748502
12.0535463204425852
10.8476294447970574
10.6495759999344415
10.8843279050634081
11.6271406049574146
12.9464235624000246
15.9182904740675522
22.68620871261313
38.7465961180182958
63.2367097298540415
88.2833202751844652
139.698897710519702
952.852258718164194
1554.81719357784641
11.8609409422182601
11.3809857431960957
10.4087244192510315
10.1446007909732554
10.0884709022528671
10.3320627802103644
10.9059213785520512
12.1956513047334241
14.6258452515709045
20.4317912472562959
36.5389165673758853
55.3242048411168099
107.312271315594515
148.733851410811326
1114.11743669384873
1569.19777644504416
10.1295563087509901
9.96019660704698317
9.96576505578358507
9.6973253766048213
9.68920126602415088
9.9935440625494607
10.8199232667164278
12.3096501223508152
15.1267100056896791
21.2106701725590305
31.2144909391254401
47.4538119904694113
227.367002983025998
615.400288268131362
1458.4475212696866
1610.87916490547968
9.19316866675663569
9.95294078677951966
10.0266519234051348
9.64651811617890509
9.71445354467930322
10.174992243017364
11.2178816963501387
12.9644995178738647
16.0864082856603581
21.4401089014709214
29.6312941621904749
42.3854174034204618
192.563291070833515
1268.12950556250212
1527.39814737769552
1666.04794999532328
6.20493057281553018
7.09103235262187148
8.18744009601592104
9.55891103245540563
10.3859783143087494
10.5092575642720458
10.1815184106687919
9.96446171910444711
10.4726141786083939
11.5976933094631267
13.3495630759757482
16.4611195124155252
21.4896331110126653
28.356757140762241
39.7053404190453278
147.324647960058257
1198.40908876465414
1592.45056032072125
1733.4125121746938
5.12093594473014324
5.94407828316631548
7.47502460330879437
9.21384500751235258
10.2308600097651947
12.1801569319178711
10.6624229538266651
10.4266173985454884
10.8431473970404397
11.9727384396688006
13.6420979084815706
16.8592220912610031
22.0353597623384267
28.7146109930893161
42.1043486584648647
85.5788188411325734
654.626296089567631
1667.98834761906573
1818.37417771330274
2.96602903427105336
3.71840558402541665
4.37965624077516402
5.13112110860972859
6.49348255915209283
8.39503068450750689
11.3805861232064256
16.3243023148700388
11.6321292914737029
10.9225027245195019
11.3542756925288604
12.5404619726063427
14.1008429987302808
17.0569267554316397
22.461690062077146
30.7003157188929592
46.3379676335847179
167.839474698722029
1076.42877955905897
1747.63575591594554
1906.7391121888752
12.0018965649603899
12.2483463222369604
12.0195517634816831
11.9526268231639943
11.8454761144643026
12.3533698036045685
15.1129240286799345
20.6615052508929828
29.0073750007875688
48.0064484248943373
57.9794806708731159
69.3395498107272203
101.796375425843124
181.377543994126114
864.815311226254266
1704.28001476994859
11.6771834658863387
11.6791399308318127
11.7141141454898605
11.661938174227517
11.7210570169859594
12.3765221272337733
14.0083498631225751
17.4113583837619963
23.2928775842792462
33.7668873187508467
47.4225639865008546
58.9768649213942098
85.6345010922814822
139.030851039090265
1253.7492992762127
1663.00420939638184
11.0739217568971444
11.0769807302891365
11.4334323921565115
11.4392101367456949
11.5975049892072821
12.1741754135577498
13.8014717287504372
17.0600716789744133
21.8150107280013401
30.5209570462120503
38.5930846462024704
47.3329723330245855
66.2243054711570522
242.912887318883463
1481.05517150680748
1659.38393596252217
9.99433879253787438
10.6452359189892523
11.2645597432614935
11.2591628384253397
11.4420823366705626
12.179796898683076
13.8924905848687938
16.8195846327602609
21.1074668303966
27.5504745292208035
34.8352678106518212
43.1892197971982696
56.4305484401295345
571.881033858670435
1529.52658489431587
1687.82958684136133
6.25677976908166844
7.30054514840648405
8.23185149286550555
9.50182197729228406
10.8124420037140894
11.9611609593410257
11.9255096547102468
11.451068679004047
12.0079549440826785
13.6976830093815956
16.4414705467256894
21.08064750651263
26.3992511462900197
31.8629348572188285
38.9195521620964868
50.6143946522999713
829.574350564325186
1589.95213528065847
1713.22902665414358
5.43677681708769711
6.31993858653948415
7.24618543343137755
9.21640008941623989
11.3397407765920271
12.1540924723757939
12.1014762846857309
12.0337060312924979
12.0622534441537397
13.6108327113343801
15.8895166340787046
19.1383625053938751
24.4313330451839796
29.9587518347504442
36.9683320271196578
49.3874042889634737
260.988997451865316
1612.15715035437142
1795.49120867991724
3.0930722838545317
3.70189871645149005
4.60787289876038209
5.62737940565373318
7.16636995737803328
9.44886159144868998
11.8347136407974354
14.2898237368912557
15.0104304719019197
12.8543301686425231
12.2179556199022912
13.8161728725629338
15.6087365785262069
17.9431965071362391
22.3511138646394798
28.8033135977941797
37.8256819964961508
50.2532135838756489
125.856153834409469
1702.9062657726879
1885.3138979908947
12.0230987983396247
12.5826224058057008
13.2515201826864022
14.3118638954031674
16.7094681422563376
21.1829957312410748
26.4858432997822248
29.9333601152161997
32.4302542608388009
39.8261701822493279
44.9381173565616763
59.3383466879124555
107.212386257843789
220.642920877701528
1346.79708429159518
1816.60102562223778
11.1398590113566307
11.9838656478554935
11.6440164068119465
12.6039166239747029
13.335642286081713
14.534491940422086
16.6850446400754997
20.3384638513576519
24.3641758188402591
30.5223675250842845
43.928161096287802
49.4445010494749297
71.903139681574018
136.173239051836958
1111.80693584822302
1702.47541265427708
10.2424421648063007
11.5503153279734772
11.8268314363665805
12.3022289935471001
12.5729010574824329
13.6164172409337461
15.7364821770459002
18.9346464035316977
22.5242794719643342
27.120838831464912
33.7648844565670956
43.5926857084244261
55.6640970411320524
91.771432419079801
1001.6605162309022
1645.79366491852625
33.326623090673408
23.4476658168965244
13.4597633907468879
12.2911684231187621
13.0486162069696068
13.8617362910807032
15.7235340836870687
18.4180713619038521
28.7808125123761869
38.5028696846974086
42.6110310199804658
46.2078886054124069
54.8962290740838981
72.3329775841785079
1396.34404892344946
1609.04475447709137
4.99235982764689634
6.82212199399626584
28.3310838000698446
31.9775146143612652
35.029443966556677
33.8061820242762465
33.7983989568797654
25.1426154333330629
25.4059511716435402
26.3946062280780396
31.1918608725060942
52.2829723457712348
57.9735337834421856
42.0736102932141662
45.2881391735952477
54.9391116497222285
63.8140114546852573
1447.82594161267093
1600.04163536610008
4.65471819448326229
5.39911827933899069
7.54980852957776971
18.4167669216904386
31.4566654582440322
35.3023954336064421
40.3881730869191102
36.8568425460169777
26.6058778769573578
25.6276043640801134
32.6033920386255787
40.6543528022655778
45.9183068236377778
42.5212852879224243
43.8146608312838168
53.528830385433757
67.8833535572787952
1050.51975407029977
1667.02326833823486
2.87360682991300775
3.34026989345210845
4.44940301709081076
5.58223940353654235
7.33220796930968
10.0390542431846157
14.0775424795083595
19.6334779577851961
22.6354209336257668
23.9796323523821755
27.2957526406604529
22.0380592601786667
22.6535843722612462
27.9101871030982167
37.5907934874982317
40.6674876064730881
44.6014229634216122
52.1099991212817173
57.0859791536401104
751.307156060877787
1779.09293097427008
1.6488768937453222
7.50305649480858516
9.7312755303246643
11.6853573100672001
15.6289208443947789
19.9536764856165689
27.5653286164465854
32.1306014879467412
35.740363687849289
41.0758848786192772
56.3923687408538044
75.8469104787637889
135.978526526933706
643.10229849140535
1367.98186947691283
1921.46307625547252
3.42245152518957507
1.83262980245482421
4.73327933708721549
9.10449866265664731
12.3185364858181039
14.9241342516152873
23.3431692314180665
28.8695363153333666
35.1609585142025054
42.0621832076650506
50.7595334352079774
63.7850793188610226
88.8163700622276338
169.645965542610952
1236.0547013381622
1780.2292212003033
-4.36192863739496062
7.78557605318525159
8.73889949911441732
11.152389203440686
12.5293890481397945
15.4507382762326877
17.6855942878908614
20.5815094544382511
25.3613137699642408
33.7257874446648671
44.2144346833805599
55.7764720391520186
69.866002191276678
105.263466736447995
1267.15185360214036
1675.46653143696631
13.3953080867040679
14.095689491772383
13.1926926589076636
16.125701468988872
27.9422008431337439
40.8060125345263103
47.8852462744300595
46.358288533892356
39.9907147720403202
50.7745983933601792
50.9172061788349097
56.7304790318777705
66.3588155670124422
83.5771622863679795
1334.88287365165615
1634.73360197709712
5.95580523893812153
10.5122099617555573
22.9756613381869315
23.7719735548096942
22.001322608067106
45.2541712165455365
54.0059866627926226
55.8223024591228381
57.5815498736534366
60.2674327171884556
64.1842645246526899
68.524795477649306
73.1290100761548274
76.6780644749659501
66.9563216272016604
67.9257278635597714
79.0128174732339517
1259.98009175006905
1573.74980924956753
5.74815435501240657
7.26946296975420569
10.2687251954470788
15.2535648057387547
19.3574157389354369
33.7941218167485857
59.6182961977699577
61.5245116754695474
62.2274503387876052
64.131841980949531
67.7084372427073049
71.4107712210892771
75.2493233729172033
80.3950767137022382
62.5658161499374259
64.7354826728785895
74.3364535814393435
790.810399388489373
1649.14896244122815
2.1215794631469862
2.56225465397854135
3.67170523080703237
5.70152180279142762
8.53178894840634072
12.1836607677687798
17.5402281525453709
21.9375057896919756
50.8466814002309704
64.490789283456678
66.0834877385225781
67.3670372557143651
70.5091900174293897
73.8824637914532758
77.4889154625564345
76.1525949702281508
52.9859101466259546
61.6117910659842778
70.9100802669411792
102.259164900427905
1711.15521667217808
11.1772810223440988
12.8497534753151115
12.4496985930144639
10.6159125744637297
10.4918158996965687
10.7152668693685165
10.9895553297805293
11.3861090841128973
12.2159428172315696
13.2555437318189977
15.4289782128605886
18.274240037874339
36.8306892911374177
703.130901077506905
1010.35236765701586
9.82395405459279303
12.4845640907343274
12.8705342804396583
11.3804847677451306
10.2052879534728138
10.1538332768180268
10.4673402831007074
10.6779229292468436
11.1119082431011229
11.721499607020009
13.3076000652430544
16.0122185773838517
18.4972289205643072
10.8457742850541994
377.462474358273539
1085.13068628749011
9.99082507339413439
11.6888989784871598
12.4808355404891476
10.4689334301600745
9.37918693417548077
9.50175156263498977
10.0345888682167459
10.2370958345740668
10.5701356714841701
11.507794494811721
13.5086020700769449
16.2875005859339481
15.842154155104252
10.4651172247800588
183.590795564251579
1173.62184550763072
9.7126904927151152
10.6925483949277318
11.1274481015215443
9.71981468167471263
7.87772750176987646
8.89531987405730717
9.48925006953525596
9.80197427702369772
10.3289994038821504
11.427554742592779
13.6726699099516331
16.189874723300278
14.3342416789174862
9.33896053489308287
237.574514805883979
1268.41809856566601
4.09499646767596559
5.51576420240464138
7.39285472835200075
8.6957722060467546
9.92932843722836367
14.4173179699131921
12.2377769511061647
7.0718546445402275
8.14307178267843135
8.82988023973507019
9.35777227709830406
9.95601071325518028
11.2237403289154134
13.6761230426257132
15.0483930322055262
12.6104947417124755
8.18777237952135728
380.254783428276937
1362.53329955590175
3.99523151238743512
5.24965886312090912
6.75769511501824116
8.30294713454805056
13.2115307621871683
9.78555448875830436
6.06341364275118799
6.05143434143224912
7.3272519249783219
8.16391003445860264
8.84747130647528657
9.60200937868084026
10.9853621176276341
13.3296252095169958
14.5886572995084371
11.5127673479620558
7.73365560618103665
374.351270505241018
1454.42104768268541
2.55395537421264551
2.93525072986767688
3.77058617177945798
5.06472425841043172
6.94134084505676352
9.30212535716625943
7.50835352804639289
4.05350637556649129
4.70689813673981305
5.36996428696962269
6.61165141877262386
7.56708003619384684
8.37844813090417873
9.19749662525223677
10.605040389728444
12.8330480912713902
13.6322585882968426
10.936818125396444
8.09914527407808471
260.258394875438853
1547.72172042027523
10.3653834994375025
11.8583082023411102
13.4691473507992061
11.561684795198321
9.99705591987937403
10.3740863272279462
10.6605401287553079
10.9538047849158282
11.4819347067960784
12.6600813733816544
14.0849648707718469
15.9483203250757892
14.5038529392943936
356.830841849751607
987.456057535059472
8.92759064238898148
11.297414171207997
17.7939523443743255
16.0160844688764392
11.8559713358482846
9.51877265013479068
10.0775854908926501
10.3969064471883712
10.7009036873337156
11.262684913533997
12.7595096243528054
14.8412429480973778
18.988526448087697
11.6630099915170184
221.64811090801922
1068.84359670146841
8.7831133125488936
15.7421469779582477
17.8998862121332181
14.5727431010126267
9.5222607475599208
8.87279051038776601
9.58951033315217849
10.0779369880993031
10.4650816787322647
11.2049448355073391
13.1845440120006163
15.0805979173388778
13.1589089793822023
8.84431951799364136
205.837170365356059
1154.5332977784883
8.2497621405924626
15.6583180128433934
19.4454842210194521
17.9693972809928724
8.91638588563557377
8.05360955618695407
9.06365206894331976
9.70040490388755039
10.2828820757800088
11.2368053204312837
13.5315760339686921
15.2760309439858446
10.8829982592528562
7.00987682666916623
284.791714816243143
1070.98450727605928
3.52320232357812468
4.46762657212499015
5.74296283504422878
8.55978348382591747
16.1644895865478624
18.7626568299723786
10.9033269349434381
9.4195114424616726
7.12818289107240055
8.41499465442620398
9.28769228825262161
10.0401762731379289
11.2883243036290857
13.8228045668195936
15.0835620627765472
9.38185829427960449
6.08764256000679538
269.441702603248586
870.1551120474968
3.21628412156935051
4.07878149357949837
5.1269132911272548
8.65133488250794436
14.2771114807872745
8.38821135120904771
4.87938821712129922
4.57402522788589128
6.50407158922259221
7.83448136866713352
8.89067046195995658
9.82689506490034326
11.273712679270373
13.9218403025881106
14.8216849545665887
8.23514483035013889
6.00480088077939733
186.109724089933877
1119.59774183652075
2.16193047310121145
2.47499152386797494
3.02041458201595781
3.9968473210641644
5.48681372438361681
12.7027525962205505
6.02868937118256465
2.9098430185561055
2.95218765111887205
4.31159043812794174
5.9871295300541485
7.37218270418892097
8.52824029819511686
9.61963258385215525
11.2424399132466561
13.8419949862603673
14.3587586310162081
7.93240778156373239
6.44232535018887553
133.186524860392154
1536.81077586729566
9.9404583633933985
10.954529894657135
11.7918212306208794
12.5094775935126439
11.0059870783051679
9.79503391331832596
10.0778253703355389
10.4422811476700783
10.7816964942241178
11.2825359618841023
12.3376920247629993
12.8365049443212449
12.4458233858748155
16.52103319959053
168.49972744468144
819.337647314887022
10.0484593394838484
11.4063722251980906
18.7847510985666943
18.5527651003265213
13.3462232750320684
9.42696817672085885
9.77929248099299642
10.1656089056282841
10.533191033044794
11.0670269031683013
12.5945695279266108
13.6382671432716194
12.6692886317394802
14.8648443509090296
80.7658904715480617
1045.34298982053156
10.11305180244997
18.6877190976820593
20.7479381490738355
19.36042874109161
16.8130795152233148
9.79524476244250408
9.55865775904661419
9.79880988171123235
10.2964587682928066
10.9197921268822515
12.9012068478815305
14.4327236635816991
11.3484793836924549
8.33461192505976101
136.264843928063101
1118.93609294974954
12.4282153319971922
21.0896498672055195
21.2122650935779475
20.2055007107515578
18.6269957219929267
10.7353336085285616
9.4204042412107718
9.43899032084368983
10.0181245492173385
10.8154364428568233
13.2354959648632189
14.8691565163308095
6.30245653647057136
6.00256517915421028
354.21263533967408
1163.29740247282416
4.00962602986351957
5.23343855694475835
6.5945700884568641
16.1990122049899092
20.94379840260655
22.7921575992086112
20.3966742997682609
11.5320983729962023
6.58716795441890746
7.91814300170814356
8.95833066031150871
9.72511688214504844
10.714152415934775
13.5338799979346565
14.9454469116530007
5.79866521624957354
7.0285873615824217
330.416777027174419
1222.86713760028874
3.478013742450484
4.60526964094490321
5.41525230682031999
15.1655268732613724
14.8776079375771513
6.18046158042263105
5.92309089520637233
6.53311661249149456
5.86354827820035052
7.37633421977256543
8.55953081832880258
9.42850964389604407
10.6604379621518497
13.7704580014271443
14.8660248580738106
5.06741773570831189
6.63960469007989929
182.92424612225318
1174.44033220147435
1.9634186779260292
2.36520866791296491
3.09946262922202331
4.07872222003158402
6.36111498801789299
14.0391549605524606
4.80412859656371438
3.50471220971835562
3.15398483725550438
3.97369015167643713
5.50621749871346555
6.87737169344347787
8.16138754493650254
9.15113432403568261
10.6299896021435725
13.9727091005420601
14.7385625978348678
5.02951576835149172
5.27436130955688665
118.210396494109716
1148.21839781090921
11.2669542405743748
12.3203362240788845
12.05927809923182
10.8645703430127831
9.63034937664341939
9.6543167713415361
9.78772559957565846
10.1493997794570205
10.5349324175254235
11.0805208883466761
12.4720447653894464
12.8537940251311102
12.7580015049974946
8.09926630696817007
140.428093031338676
852.566149060084967
11.7443765027782074
12.6714813478102748
15.5479734908578333
18.0625072473568657
10.7087155508219283
9.20833554188291181
9.53828336110892572
9.87831206337602552
10.238459608771274
10.7768500170633317
12.6583726226325783
13.5685118022684144
10.5380233894370381
8.95217262801933877
123.550015670653465
949.405399473334569
12.0634135431007703
16.0092793712113561
23.6469364836162654
21.700985385618786
18.8172648974744945
9.27868769611911937
10.0914869434783316
9.65467078011651836
9.85391976198593333
10.489469996208916
12.9005270660768598
14.2665418801485941
6.99365126286848238
5.7138095681331631
172.138664293287036
1063.616005732433
13.8751547767284187
24.9169563623519466
25.14863028239294
23.6051782517870699
21.4789147616841021
18.7573907484744993
12.8838920649009481
11.3829735008103334
9.54406987320439804
10.2273336164162796
13.1794317701619139
14.8295618262729292
3.27192512389549739
7.43309701211193286
307.113878381356074
1141.70488073306387
4.88146766789874942
6.81275938114966628
8.61251961275840294
20.6077522252699197
25.6243493454395477
26.7979446129081644
26.1858591545548585
23.9925008781590421
19.6371424623729958
13.0946613056298364
9.69806692375121671
9.14152540354849208
10.0250824373717933
13.4834937090896503
15.1761411587620536
0.956145070608963588
5.37635918773673005
275.775152421891619
1216.70602299256075
4.24853810891215655
5.8415192458589269
7.21510183378560921
21.5428080731795077
26.1476399720070702
28.8231425670951289
29.2350405322686377
13.6890281947654699
6.43747732151287089
7.06059780983294338
8.08051935040823288
8.8080557959304997
9.88823418728553349
13.7518370691684151
15.2262571127471187
0.702763031177959019
2.18504174251612415
184.220036742425634
1290.78145342885227
2.03410093130691161
2.63813847510090582
3.64988304156388921
4.93622781679393796
7.31940795291079027
18.7169861232226999
13.061784235299541
11.2743879150949748
10.1109608579766075
7.76451831011311366
5.18992579276994537