/*--------------------------------*- C++ -*----------------------------------*\
| =========                 |                                                 |
| \\      /  F ield         | OpenFOAM: The Open Source CFD Toolbox           |
|  \\    /   O peration     | Version:  2206                                  |
|   \\  /    A nd           | Website:  www.openfoam.com                      |
|    \\/     M anipulation  |                                                 |
\*---------------------------------------------------------------------------*/
FoamFile
{
    version     2.0;
    format      ascii;
    arch        "LSB;label=32;scalar=64";
    class       volScalarField;
    location    "0.750000000000000444";
    object      rAU;
}
// * * * * * * * * * * * * * * * * * * * * * * * * * * * * * * * * * * * * * //

dimensions      [-1 3 1 0 0 0 0];

internalField   nonuniform List<scalar> 
7340
(
0.000495379096168630352
0.000654158091385395732
0.00105148229237391291
0.00162253264164146055
0.00243271616700357256
0.00361668654083500875
0.00410272170832428739
0.00366364650011095179
0.00309448384598190592
0.00252659192463236103
0.00229628173530073204
0.00162639704558444173
0.000281061579543281676
0.000203992434377846119
4.0068086710467782e-05
6.83454401209231849e-06
0.0011046198153758886
0.00165904468897161775
0.00236011703527777778
0.00332896229091363344
0.0048613872438626124
0.00623800196105607063
0.00538379347651727399
0.0044095613116901149
0.00335812943576959321
0.0024900345307033063
0.00210595248994931194
0.00124206609967041949
0.000268388852231682352
0.000215869833900696531
3.94486019565840651e-05
6.90209243757079173e-06
0.00345131721495322424
0.00381192324409942735
0.00447835755312488235
0.00616864518364864702
0.00797032168176629689
0.00787499392090207015
0.00664364793487757718
0.00510143883784909546
0.00355105402860528274
0.00237056630422553555
0.00178825140666508467
0.000841308251778666305
0.000212450808398283956
0.000211318661826253874
4.29255477329318658e-05
6.89099202993357383e-06
0.00588262324588208381
0.00581157557523296914
0.00585304386134421779
0.00686648198200275148
0.0091661216907261249
0.00936596447572876807
0.00745236760461960666
0.00518421920103397365
0.0032098184778388268
0.00204973892885091562
0.00135661200761806643
0.000550737434209340503
0.000175677565097843145
0.000199589851513552502
4.64358603955231639e-05
7.07138413140280302e-06
0.00599493425053786427
0.00475041977075171037
0.00377426802940361919
0.00344076454195875675
0.0033162333393618685
0.00356857778276943203
0.00453455603550462737
0.00645493497225646095
0.00731331884246907461
0.00576702770957993396
0.00397756018985795119
0.00251861647466597926
0.00165873835172696406
0.000940189793624015917
0.000364664400872444889
0.00015053258354358833
0.00019292990198248181
3.86688226474545682e-05
7.30542122225792543e-06
0.00278742439015665453
0.00266919047651538628
0.00210571830844591412
0.00183971287978893969
0.00158660449977141905
0.00149825778644777888
0.00184688891595421404
0.00341878715280509102
0.00563801258204352056
0.00457241272897747093
0.00304368222527623281
0.0019828923235796032
0.00125217548101258578
0.000609114946671513108
0.000243779290080864994
0.000131542660659757921
0.000191628526831389849
3.2064767283485239e-05
7.55837664636531653e-06
0.00481334604221467146
0.00265420273672106917
0.00217333082340819429
0.00198930883045089551
0.00133407593245870562
0.000912006727794534853
0.000672108850981172827
0.000580455462948795521
0.000674162334210639484
0.00118094315586325898
0.00354172747151661801
0.00314713534011600666
0.00217141929927542471
0.00133874954463255452
0.000715789167058733695
0.000305432388404580754
0.000122220673195146443
0.000116195757497408137
0.000196938357654033441
2.98512230812153919e-05
7.84393491729167655e-06
0.000631269168744971179
0.000839458639799264632
0.00152707824075429526
0.0024136046847038151
0.00366635685360816805
0.00423369832277454682
0.00364627162037029764
0.0029275946983126932
0.00224538565047215999
0.00187637243260964262
0.00118801449736967175
0.000142427373888274166
9.57044020376174347e-05
2.86159156615233798e-05
6.58455336949903895e-06
0.000892575728124671503
0.00141405760436065508
0.00227541945800121062
0.00354206560519842876
0.00513096115783898132
0.00709086674387831607
0.00582556414385773137
0.00449118128978485964
0.00320569053534127584
0.00217806649811661673
0.0016498465838584071
0.000851622338498504521
0.000154920584329726113
9.35572218622674753e-05
2.5573238611509878e-05
6.52051674473155805e-06
0.00282539853370322724
0.00413950663901165982
0.00536473623529610047
0.00753904386970035735
0.0100332434751992158
0.00904007595558112623
0.00717813484280752003
0.00516408900390437353
0.00335133476035183713
0.00203117400419962433
0.00132697816377338801
0.00049398779197047367
0.000123671918378700916
9.63665646799312918e-05
2.66550120840179782e-05
6.69219105880504004e-06
0.00342078267281876753
0.00575642495168320924
0.0081964746222913127
0.0111477512991420974
0.0120346607004952495
0.0096720615139647189
0.00717574556076782527
0.00477614887570865666
0.00279351820146112517
0.00163091892170582438
0.000892670572797058404
0.000280249681266833304
0.000105576700712143874
9.50544883607784406e-05
3.29590987817817663e-05
6.89530411272918394e-06
0.00467659588655587252
0.00268569065655172327
0.00184669449942230285
0.00187908807802661848
0.00310398450061364056
0.00555517642842156146
0.00840896296125148365
0.00883580471205753191
0.00747166714456123839
0.00559308774288286379
0.00375166418275222919
0.0021860729717349597
0.0012352133944831293
0.000541786463228591383
0.000170123707680379599
8.61611779397739356e-05
8.76248963073786454e-05
2.82464394121545849e-05
7.13148751277988001e-06
0.0030361362828054462
0.00144785031862659438
0.00103335885168670061
0.00112721161186357405
0.0016474242192991127
0.00267619549916028139
0.00418074337187626308
0.00590109828287590545
0.00612945174468319982
0.00446618697840301098
0.00289257888836531689
0.00164454701056981922
0.000846190318683088518
0.000314891648045909772
0.000107107401239700634
5.34293345365225136e-05
7.05292258980821972e-05
2.16683632114330401e-05
7.38657012804730657e-06
0.00352746351779173331
0.0025740480347141749
0.00227829749707326393
0.00103925467235130515
0.000696735187116720423
0.000589621521022179419
0.000822575082690985004
0.00119323146836383502
0.001679208084606681
0.00270884798820305228
0.00388058880756255538
0.00335425386129407097
0.00200582998682517733
0.00104906322817376074
0.000481881422098417989
0.000175714078270598436
6.20101209002910916e-05
3.5075693296623438e-05
6.60541652641104493e-05
1.72387337729111287e-05
7.6864877273601661e-06
0.000751465142023971023
0.000953326473955659875
0.00150992541474765794
0.00288441308522632226
0.00400137854120139348
0.00424062114784872629
0.00358094049250416973
0.00276938194393263996
0.001878981173132712
0.00126552596611645158
0.000788114337363257254
0.000107380729063808177
4.92509899196758513e-05
1.64237960629755402e-05
6.30029141242536918e-06
0.000906207954660582702
0.00142420878665214788
0.00262723293608586959
0.0043145821285334356
0.00631325480575803746
0.00729243569531281763
0.00583788611022493294
0.00431812994782159853
0.002957538601680501
0.00179003330026100953
0.00111412942669457372
0.000482409653683974241
9.23108117897789281e-05
4.50541562695153325e-05
1.41438917271521207e-05
6.39907083565548538e-06
0.0024409621076400957
0.00457904727547981012
0.0076482396909627803
0.0110635979940460726
0.0119408830826686126
0.00921623395741768235
0.00694038713148351256
0.00483706326567648424
0.00301541776749255719
0.00163655008778884484
0.000854818295639578709
0.000283320057190894264
7.41419777711678989e-05
3.75593272557508633e-05
1.65031740945990319e-05
6.54342824611954099e-06
0.00234639284411832395
0.00363516259551340589
0.00820319765145036475
0.0144665677058651125
0.0119760064581015228
0.00947484175587494024
0.00687267808253700513
0.00439780243299658403
0.00247565259612593947
0.00129524918019493585
0.000571459689557023641
0.000176422465200780403
5.49912571966213097e-05
2.71090780566556528e-05
1.95658899595655891e-05
6.73283155407812613e-06
0.00350032502590384535
0.00253892980196132731
0.0016100925771710226
0.00133952079011919974
0.00194252902139258835
0.00417901261482953208
0.00910315356219746318
0.00886637927372613092
0.00736985798046558074
0.00539379379102089811
0.00348586242054011938
0.00193993752133233698
0.000948751473960549041
0.000353389518390450589
0.000119168739902781765
3.50706447934699613e-05
1.94857058817986141e-05
1.61129877116977914e-05
6.95471365873100116e-06
0.00286218813131155787
0.00172830087280354547
0.00105709542718880828
0.00090249672363503159
0.00118999682299362705
0.00226037200381627376
0.00485323494393262358
0.00713203119786360619
0.00625993398694422824
0.00433020363881607331
0.00266044543076284987
0.0014327800945828906
0.000641374375115779586
0.000220467870829457713
7.95659994201488544e-05
2.16402931990984326e-05
1.35540038565259937e-05
1.23900032601457358e-05
7.22852151816062099e-06
0.00327839241643769702
0.0024194553133578124
0.00270075373022805269
0.00114090977179478093
0.000668391750960257145
0.000536314839808991421
0.000744066222980368369
0.00119114305685012268
0.0023016371684202023
0.00467319279662603212
0.00479368396415747432
0.00327775113143789027
0.00190072325405606481
0.000949393862278687236
0.00039151686122122141
0.000142518031338237106
5.68108855997916269e-05
1.74114471961063039e-05
1.41989157525209093e-05
1.05968967701251178e-05
7.59341742459914336e-06
0.00156531891292730364
0.00138654049517280198
0.00148720123910413434
0.00208535448758668347
0.00316541365165876141
0.00342142459414819305
0.00352173576696638039
0.00294791107861614625
0.00213889507331037516
0.0012357788679250132
0.000723347947707520911
0.000449419018228784423
8.38491134771509374e-05
2.73032931953278042e-05
1.17170457473754514e-05
6.30198357421078573e-06
0.00144339508285714919
0.00182197203043944636
0.00301348291245366303
0.0044935515261630421
0.00509918318152983736
0.00510698939954476894
0.00433572664629605989
0.0033087302340724942
0.00219883595634306475
0.00123921688962115801
0.000694317080909708255
0.000313118465887470183
7.38775709832783969e-05
2.25570767783854862e-05
1.21426617101848235e-05
6.37388775914094907e-06
0.0029786150753285689
0.00540025434638279327
0.00914528486873880837
0.00945554469069519871
0.0075975460467369773
0.0062172091123232423
0.00499125549650050737
0.00361538844814627679
0.00229185273579289193
0.00130151788500745282
0.000614309554068578835
0.000212296375446181036
5.36230118850321546e-05
1.40011324146555143e-05
1.00732309336727041e-05
6.50433956754542885e-06
0.00360174129073737807
0.00418605296840960078
0.00733724381934817635
0.0109867266188224833
0.00838334896310996905
0.00690809674799660895
0.00545417923985337585
0.0038156805001712756
0.00220533427007106641
0.00113900406427158403
0.000475337757342762064
0.00015088432854216594
3.56051648722380701e-05
9.82689885727734852e-06
8.37639937033401644e-06
6.67738531879552414e-06
0.00308067751531741285
0.00316585246477600396
0.00280269513393648171
0.00181933469330321685
0.00174881435072808482
0.00307464748696794667
0.00824961596230186674
0.008288698061360655
0.00694278325232369244
0.00505911233126760552
0.00322015564923058177
0.00180705072896577917
0.000892303730937157912
0.000343911319267204058
0.000115863803188096244
2.60433891774642499e-05
9.28136224890165476e-06
8.15539136977414768e-06
6.87692796071950024e-06
0.00247938363910254903
0.0030268323193472506
0.00182422428243486255
0.00111375762539173118
0.00102540135048666183
0.00160545395315122067
0.00408091230703468318
0.0066982084784234109
0.00609490564248708899
0.00426361286101344279
0.00258330917771675472
0.00142290781060673359
0.000673105443109248743
0.000244425011405756702
9.44217885146636613e-05
2.08228190567322257e-05
9.29947837825280608e-06
8.22995717828890713e-06
7.1347203811957457e-06
0.00377324307789606234
0.00251705166899317831
0.00245004354893047383
0.00248050970791234343
0.00120472145890830737
0.000780504511646374472
0.000650720593772886684
0.000987896247939389766
0.0021554503579995837
0.00482194746947748384
0.00484324762799246376
0.00326802359914496422
0.00199483894989921189
0.00113479703484117844
0.000499747522845028162
0.000174141238743098938
7.16411648885557451e-05
1.62876386905223297e-05
9.54073697931468076e-06
8.3665738438308984e-06
7.43803558245176024e-06
0.00292623330241066713
0.00286783503220634783
0.00271452067047824172
0.00275523995833517341
0.00270334763621596147
0.00260356815629874533
0.00214759780612177155
0.0014738057679017048
0.000935279914785188478
0.000566185992875174846
0.000338914636830498005
0.000245397301969780624
0.00011145628733252794
2.36221655372493728e-05
8.63085194832069133e-06
6.36909736677278427e-06
0.00280694424394538474
0.00290587265911737645
0.00322174833854837637
0.00346469790363936958
0.00350971215802809312
0.00322418173602023305
0.00249886201157924637
0.00170637438096402864
0.00109592389236916722
0.00073915433157527256
0.000457611740806408804
0.000266179789586829094
8.57835247280018011e-05
1.62182643359624506e-05
7.18659848108639465e-06
6.39154634384744609e-06
0.00306089112619920174
0.00402741502542105188
0.00488289317543601654
0.00506228140792009621
0.00454107305842856804
0.00390513502359105371
0.0030357499696826518
0.00211059885729640573
0.00136296941829250665
0.000876619085781715638
0.000575557777773002231
0.000239270117506407766
5.75122827475757538e-05
1.01389599576098884e-05
6.66173686159369798e-06
6.49334049524199073e-06
0.00501163635434256211
0.00865741089814879225
0.00903537468291005195
0.00715270278805013072
0.00556890507326517677
0.00471209072097667284
0.00373961098306268289
0.00273577674728527282
0.00179695942812055473
0.00107384753301407727
0.000592438388759243041
0.000217693105271178281
5.07474855734218715e-05
8.98319089464855028e-06
6.71224711042537389e-06
6.64347934986943734e-06
0.00314737560211666382
0.00294318019079384176
0.00339179723391214811
0.00467367010846873963
0.00399565396310565604
0.00399040875219110365
0.00700327734201875666
0.00655164019949943787
0.00547360184301189448
0.00448894319043518369
0.00309412301068408236
0.00183946934421853414
0.00107370232693390893
0.000569389850743219042
0.000198123446399434128
5.39561503076954314e-05
1.08988238852869856e-05
6.80389956135974991e-06
6.81032908374279832e-06
0.00277895233828948139
0.00265202836959592446
0.0029812035060357029
0.00269114884150305125
0.00170226102866010754
0.00156204086801402416
0.0034108118070139584
0.00609358829113144668
0.00585582802584763088
0.00452374924321682741
0.00281452874042547024
0.00169699523238466682
0.00107184583995165389
0.000543952076607219482
0.000177645277381914215
5.52988363091307643e-05
1.21316068854972934e-05
6.9700551334054164e-06
6.98408532551575984e-06
0.00446724561683602139
0.00308325538821277792
0.00250993540597278407
0.00241560300840025933
0.00241835833305741564
0.00152640657232069659
0.000962051187191900769
0.000808626955222267393
0.0016636512194887407
0.00565673290028406717
0.00551009515448345946
0.00391531214274091783
0.00248345945846161972
0.00172287621599284549
0.00115194055732259189
0.00046443026836052965
0.000142002935007950445
3.93582063661403948e-05
9.81846913091519594e-06
7.23224048127710065e-06
7.24822725149815636e-06
0.00229080230710254629
0.00228730221911811835
0.00208890222046437691
0.00184125547007359678
0.00150139878492616262
0.00123699454850877957
0.000967088935232147647
0.000704002712502970916
0.000531568112042003337
0.000374646402569470832
0.000307413600903849011
0.000208101186349973733
0.000126402899953160917
3.11085466793252564e-05
7.54811766044332931e-06
6.3570509783827271e-06
0.00282793379651314269
0.00289697734266809422
0.00283869476905442746
0.00271269299474999857
0.00233282082457674607
0.00184321920948947102
0.00136525376882531729
0.0010627516941044482
0.000869590919389113507
0.000686080913906640514
0.000559055186804264257
0.000344767741680913518
0.000173707796106024171
2.60883093090564509e-05
6.55539341039188104e-06
6.30718074702561351e-06
0.00292910120688894427
0.00340272300073737443
0.00371672203199459317
0.00394750282123375838
0.00352262907978077768
0.00284475136824395266
0.00223620009916763573
0.00179640707613684604
0.00158896237184840469
0.00117644624391032428
0.000955012910114997021
0.000574964237992667097
0.000227454393636068058
1.86889742558482557e-05
6.48962420033908105e-06
6.35553473728605455e-06
0.00297258792077972076
0.00405166323235913155
0.0049860935169354411
0.00509627737089411118
0.00456559798252052524
0.003889098368299055
0.00329958440136995153
0.00273613782956611375
0.00219652235233155045
0.00163019920193417309
0.001255914511838705
0.000832769860052509376
0.000225387405078780972
1.75744537874237666e-05
6.57549480381344372e-06
6.45569234409943494e-06
0.00281428204182756526
0.00264705070839693505
0.00266828105866395628
0.00334962696850465199
0.00484202605170852042
0.0066035022469770983
0.00650246170115012338
0.00525888869960618177
0.00438982059732447721
0.00398476458330851522
0.00343169065508797068
0.00270147981565600076
0.0020980281742191834
0.00171611550777783675
0.00098416763899945056
0.000228222245667144571
2.31169350231147139e-05
6.71988851489558008e-06
6.5960392893396269e-06
0.00276596562575415206
0.00253438325669869428
0.00268544700384245032
0.00334959305690257217
0.00563639553786810573
0.00353255808018330736
0.00331397899217371903
0.00444977851242399445
0.00450206126378625143
0.00454149364165529461
0.00413831638020255733
0.0033724006339380724
0.0025906173299498356
0.00209274791009631065
0.000958908075469884751
0.000208874769277572449
3.50748684216550859e-05
6.94774973889702504e-06
6.71740881779783257e-06
0.00471681623601717757
0.00347834934740743262
0.00274125118490976772
0.00248999544758547568
0.0027696035968625991
0.00330849689445654243
0.00365795636012122187
0.00147542168510037897
0.00161692719850804441
0.00345684038969412515
0.00380607218701915859
0.00498985908592461565
0.00475933225250285696
0.00370475677904872659
0.00330185645309745293
0.00193204610745361803
0.000830648186729739438
0.00017989757175314723
3.32195365216053295e-05
7.26103442446319145e-06
6.95641480512980635e-06
0.00101839592962026386
0.00105775988843793338
0.00099126845440434359
0.000840477241610657218
0.00070618644911683555
0.00054795429648120278
0.000472890136901033323
0.000486553211261554828
0.000494070968016434471
0.000479707093082735645
0.000456996424814887464
0.000228756048455814871
9.91342945024254471e-05
3.60201764874222352e-05
7.35916383123448961e-06
6.3963513095318873e-06
0.00131096982727604209
0.00151537940214585532
0.00173410211072339937
0.00174246206101706007
0.00155613974884754279
0.00129566116296922344
0.00112728933878678103
0.00114950143568433891
0.00137400940250535981
0.00123472193277388139
0.000633560584953182164
0.000554643991126396404
0.000201802887562706006
5.65066572373737952e-05
7.9526342747247861e-06
6.34875683630915666e-06
0.00147377042558303876
0.00182401658660667613
0.00217293674888706465
0.00250983545115764746
0.00276127050704613524
0.00283776340821516879
0.00308304635707108178
0.00315923938271609308
0.00282367350571520416
0.00168570441201864088
0.00114004914823705584
0.00103714792565330616
0.000405135198372141294
8.83334923106031687e-05
8.30401723316162974e-06
6.39456604703762088e-06
0.000667671959059895842
0.00107966404494742397
0.00205986810780129422
0.00280839145998324239
0.00272305136540530518
0.00295966845478814891
0.00302555456222312804
0.00303086870011129352
0.00150121272771579087
0.000975780029523093048
0.000985960031745453406
0.00102507766238294049
0.000612846106585902221
0.000135366786003811534
8.62128468085312593e-06
6.59614398851812259e-06
0.00184064705985174872
0.00100602461578452678
0.000635980949319817817
0.000586886008591519428
0.000614400792645416181
0.000663165822803779711
0.000827063926895925633
0.00105421197915552597
0.00109910019223973497
0.00106443158160884812
0.0008483311473949732
0.000650374222207137243
0.000751217742778614536
0.00109362806427477704
0.00105783951982502036
0.000761589607230449099
0.000200116826081597
1.0582221264263911e-05
6.71903564586324175e-06
0.00250515912433399478
0.00170736879559029819
0.00121785754431461219
0.000872296126904275335
0.000700520988448304809
0.000668752017520345414
0.000715656081382106952
0.000882035109560036696
0.00113586694436655189
0.00111954070197896089
0.000954005116298546597
0.000835163287482264326
0.000829227222579076678
0.00109373618486140168
0.00116041243948048303
0.000852411159463657415
0.000207499437626089054
1.57418475580011017e-05
6.82527614347154247e-06
0.00636298722446588475
0.00460667177295276918
0.00303576530499982244
0.00222669731974481713
0.00183388483416593189
0.00173983756929003389
0.00163131472791187078
0.0013979464576392498
0.0011838885915244153
0.00113538374364724492
0.0012012074193439165
0.00158785965511145494
0.00163271856455947514
0.00122695543253741328
0.00103786255101254838
0.00113837592131005695
0.00123550173705029944
0.000944312699644828286
0.000194568477403434653
2.04847550486247541e-05
7.02968435751703708e-06
0.000295911673462430998
0.000257286539008111381
0.000255390253628545987
0.000231746206444369209
0.000250641378499190609
0.000267202563014671255
0.000310759592984996905
0.000325684630652051056
0.000324261374105652873
0.000320774795852183867
0.000260561004937399042
0.000157467923952543573
6.75125090924938556e-05
1.95478888013990338e-05
7.28100333289800745e-06
6.82148739953700318e-06
0.000387506995272308714
0.000356811006151796638
0.000377038419371949064
0.00035501915339803601
0.000366253639646566052
0.000417331285168024617
0.00051667301415841472
0.000659918417277337039
0.000740907908690357077
0.000673172698987983473
0.00057674392019855874
0.000443583063911070173
0.000159046683546861293
4.37778896195461451e-05
8.0873312079647687e-06
6.73365994702291741e-06
0.00042802617962031962
0.000386827167475994025
0.000425315165440527491
0.000459339389402911352
0.000449991945379471276
0.000457957979882074346
0.000533352405172526022
0.000707937873698839793
0.000931404626656152685
0.00100703383039089022
0.000840761955608743269
0.000704292331096751712
0.000345082269587633549
7.92100053592260792e-05
8.96397158994914724e-06
6.75079081111257707e-06
0.000373618784865964741
0.000388504198447619956
0.000348706252278806737
0.000300274342483443195
0.000283882273775003377
0.000282338642809379489
0.000301839158520215436
0.000369896919890512325
0.000526152865447858018
0.000540984828268035426
0.000676828178295841285
0.000746839342154956179
0.000550468361518439563
0.00013893878197224194
1.06651006711523992e-05
6.83303023586955909e-06
0.000605916753727671494
0.000476737131091736668
0.000404590983782235824
0.000391139134703111929
0.000385582511022847826
0.000280457447755710725
0.000240050943363518277
0.000232716152330695745
0.000236860770165056898
0.000248839763363588101
0.000268787757405689206
0.000300463410580185627
0.000331103717788336761
0.000410855156836192263
0.000604891620839089535
0.000649132975119843234
0.000228810735627942865
1.54203888907832962e-05
6.96587448444858342e-06
0.00102470500481038375
0.000739810955577004385
0.0006076279295079396
0.000537698151755791717
0.00050073311967548616
0.000356591189447532709
0.000254824538567792859
0.000233276711209575723
0.000229919146954800764
0.000235345742987154444
0.000249570314213322364
0.000274167355802997924
0.000296524203748408223
0.000398239050665070602
0.00057742213260851907
0.000625378125961330777
0.000285881833677265496
2.92323174493590807e-05
7.17515262677864375e-06
0.0108813221232836529
0.00425891609839689107
0.00197901784526314725
0.00122214696635053401
0.000908585422465660927
0.000767660379286648075
0.000695882923479222877
0.000549991193721992224
0.000307633035099713419
0.000245789286177795384
0.000227854290683552062
0.000227208441737294757
0.000239594911000504834
0.000261082708123941474
0.000304827147661661192
0.00045072215074703928
0.000656872704627489029
0.000658476314272082495
0.000327782012826565643
5.03518693121102315e-05
7.64626737591257623e-06
0.00600362338766194121
0.00542466009759478424
0.00614434852746950731
0.00779602536655135334
0.00916628525412646264
0.00911590773703041535
0.00763191596094623705
0.00719844262367364159
0.0077686866950149305
0.00563332416565373497
0.00309310571746938693
0.00145160172587734202
0.00077149200292786534
2.92162721872980126e-05
7.65998600272273444e-06
0.00589641581926056597
0.00504061834635158388
0.00482267865842614211
0.00456294778402516806
0.00542829411485720292
0.00686939937695499585
0.00723336809294079525
0.00703806512878567877
0.0071659563923918302
0.00828774159588270901
0.00757271040304561324
0.0046357163810230818
0.00316870638752950835
0.0032258041378721283
5.68445331921328811e-05
7.81580253374194111e-06
0.00425497853523851277
0.00369397292593669213
0.00313325491788359447
0.00308608431565706148
0.00426022584661862533
0.00561602423320439054
0.00614734684795032772
0.00660493582536623297
0.00732690827055256302
0.00812555171794662572
0.00811104059073664702
0.00669649768132697144
0.00526695789086093283
0.00567952702053181081
7.0103206173714619e-05
8.0450642672313242e-06
0.00323891922540828865
0.00266039202105423141
0.0025104390883721947
0.00247730781270474355
0.00374834844148480475
0.00479232425119846539
0.00545693184487599549
0.00616365884833806194
0.00704217822724871254
0.00746998753773413585
0.00747428037884926687
0.00803449293012025931
0.00477672719365656879
0.00622607978124466079
5.78590427210363671e-05
8.31569903374518745e-06
0.00401770414373827777
0.00362427090313038403
0.00318966530748390114
0.00276485207669367825
0.00232073608457939026
0.0022613943378416994
0.00216734978910573979
0.00311970844351780463
0.00419506800416600059
0.0050976121790801826
0.00595734424826859562
0.00702904161632677323
0.0073994149901696598
0.0069690000368369991
0.00753008024658875265
0.00456126030047980177
0.00659948645104199618
5.26727675352404222e-05
8.6218803641543615e-06
0.00390562874880795267
0.00346892973073416322
0.00297669843335363624
0.00252424036026362587
0.00236627169244323175
0.00290860421536756836
0.00268941685736589836
0.00293580562363666715
0.0039761521152314773
0.00493352146053897041
0.00585053371003962583
0.00681343536928239856
0.00697107714236331125
0.00642296937903207802
0.00584062043626883652
0.00400724707338166643
0.00644650766159501551
6.13950900041097873e-05
8.97895061768351476e-06
0.00564706788706724992
0.00455951459298485021
0.00391841510751576947
0.0034455334816472314
0.00275861998841215065
0.00269385792015032531
0.00342714917651019925
0.00369207530594261495
0.00272248886524664073
0.00296169020728541399
0.00397351467217348705
0.00496170382413652425
0.00589916118603945987
0.00677881745129626113
0.00668512734332326816
0.00606782663264032913
0.00555217315001334082
0.00383698947955191019
0.00504072728248636682
7.2093353354058784e-05
9.39409083476861631e-06
0.00646966012125886527
0.00352384841030693426
0.00317905850441911695
0.00447403590976983012
0.00676767702211124832
0.00848982732538500033
0.00779411196546341608
0.00689489851701763877
0.00629388107622029513
0.00512666669274378182
0.00403235132651396343
0.00158222598781958637
0.00114229952861443634
4.29873801032729672e-05
7.31359322823356018e-06
0.00454679333182613117
0.00371231686393310714
0.0019181517741610895
0.00241527798139947033
0.00336969431885598318
0.00552376076500959122
0.0067371814351658418
0.0066174503280553602
0.00634894715660691989
0.00623988452873607338
0.00527566265438323724
0.00429688813675869943
0.00166846688514764524
0.00241427607200244386
5.74555601058377322e-05
7.44469418479024037e-06
0.00338956688839761253
0.00220351075152148447
0.00164527021884297488
0.00196099686538545471
0.00243880776174692148
0.0042541617965757136
0.00551164679491696063
0.00578937269796660214
0.00589223148568335589
0.00595234262087655525
0.00515881599233901974
0.00455480916213228497
0.00244641329122225869
0.00391866886299585809
6.02660780254091202e-05
8.03847423866472618e-06
0.0027112509823836355
0.00189637422465451714
0.00157471575270888716
0.00144099426134974428
0.00183065999056978819
0.0033458575711534321
0.0046019041654760005
0.00519641510965473084
0.00566942709562509757
0.00583590956008344427
0.00518953706248278645
0.00469055402049284136
0.00237859361414160305
0.00357304878048295268
6.20235980673382331e-05
9.28831053438007381e-06
0.00400338740038748506
0.00317687622082438951
0.00265169550259060751
0.00223885422772522992
0.00186492055787193826
0.00168383617065945724
0.00172282778041692869
0.00195054840873294883
0.00300925110879791177
0.00408874370939016265
0.00487901002745578551
0.00561731678183157064
0.00583517615069546747
0.00512306734871062746
0.00469311814960290605
0.00272639659533157816
0.00301821532501281211
7.72753742403418627e-05
9.1656798129318669e-06
0.00373076824573743537
0.00300165796514444399
0.00253471599736972966
0.00217977502276560462
0.00235770291852825838
0.00267442816162426732
0.00268278166264552566
0.00234997880945106864
0.00282534655157635952
0.00385597861245114224
0.00476277543657654349
0.00570478668443942603
0.00591665472328991617
0.00510048333456103887
0.00457441624016643143
0.00296348438418142252
0.00289817298653158089
0.000101486729077461947
8.61198409467215197e-06
0.00646422496296010334
0.00463034139666394437
0.00364775459499533817
0.00297240749471859187
0.00235549649266836737
0.00251558146709318989
0.0040165046472828347
0.00405284265967036355
0.00303443251762601724
0.00243557994371822835
0.00288419532144181326
0.00383701444561755124
0.00485114983665966941
0.00592918340948331637
0.00589166478728867134
0.00497767300086416915
0.00453026560717710754
0.00320230399126016042
0.00358896953233093412
9.33400656941967569e-05
8.42201025417584333e-06
0.00713535057020887268
0.00672677319379205718
0.00288822805257209995
0.0022993716992680646
0.0039531139230526988
0.00539122741866495791
0.00687513513377014437
0.00765140659628475717
0.00710011328358982688
0.00612551085245589388
0.00470128167388655233
0.00312473143869905013
0.00100804976576599576
0.000761598426971142085
7.33562945819972304e-05
7.49323183037528488e-06
0.00559661212594981996
0.00354525001822872171
0.0012615694483507434
0.00123431765640287213
0.00260909440642544425
0.00484551930027024309
0.00614551975628335832