/*--------------------------------*- C++ -*----------------------------------*\
| =========                 |                                                 |
| \\      /  F ield         | OpenFOAM: The Open Source CFD Toolbox           |
|  \\    /   O peration     | Version:  2206                                  |
|   \\  /    A nd           | Website:  www.openfoam.com                      |
|    \\/     M anipulation  |                                                 |
\*---------------------------------------------------------------------------*/
FoamFile
{
    version     2.0;
    format      ascii;
    arch        "LSB;label=32;scalar=64";
    class       surfaceVectorField;
    location    "0.330000000000000071";
    object      Uf;
}
// * * * * * * * * * * * * * * * * * * * * * * * * * * * * * * * * * * * * * //

dimensions      [0 1 -1 0 0 0 0];

internalField   nonuniform List<vector> 
20789
(
(0.0498720175220633971 -0.0126993433341898217 -0.0226674828753039674)
(0.0258204804711561556 -0.0222654266332045943 -0.0214297169782806628)
(0.0248746432129502981 -0.0102571665537567417 -0.0212369309716154454)
(0.0254014282535915056 -0.0102510517813278815 -0.0214371020059135366)
(0.117700831308368656 -0.0154736282161152226 -0.0252113844016531204)
(0.0842139291096758585 -0.0302939976181774116 -0.023682442490229081)
(0.0823091268008683541 -0.0151190858551330728 -0.0236460154578834111)
(0.0840100354516206405 -0.0151379846060072532 -0.0239417628076507433)
(0.186638750650219148 -0.0157833620164806593 -0.0287161668375423874)
(0.149078504855143734 -0.0308064004140728952 -0.0262315536513590374)
(0.14689079320710105 -0.0157499169997396965 -0.0261685602431726005)
(0.149817525658426071 -0.0158495069616872951 -0.0265032109590477884)
(0.253850355316677712 -0.0152712251595046623 -0.0342055206566746969)
(0.217548029688104688 -0.0300737627980051901 -0.0305705680510125893)
(0.220049292283026637 -0.0156530940515826403 -0.0305258945821363786)
(0.225073456609673678 -0.0158585925831880026 -0.0309297594031263008)
(0.31665824406146903 -0.0144065895183747555 -0.0422078933403371229)
(0.279528355671499085 -0.0281696714523763207 -0.0370801904161650459)
(0.282164050808387579 -0.014656640306039314 -0.0369673154105718341)
(0.289655461673899772 -0.0149239797357034638 -0.037477439839289757)
(0.377173642047384849 -0.0138434789231587953 -0.0534109084935539893)
(0.340039033452917083 -0.0272611473858089121 -0.0464533390421098397)
(0.341569442857823702 -0.0138801516789893199 -0.0462407502858674033)
(0.352086991556282036 -0.0141982485754975542 -0.0469716036360175657)
(0.436712141801936238 -0.0135956607939320857 -0.069138901144238013)
(0.399895104651427968 -0.0269101171240449175 -0.0593874671590421468)
(0.399580655683631603 -0.0134794438570747556 -0.0589824127148818114)
(0.414067302981055319 -0.0138708269690414349 -0.0598795069988361794)
(0.494832823756226226 -0.0132586640930591974 -0.090102385334738827)
(0.458935472962786473 -0.0267163103855697845 -0.0774745954327930725)
(0.456209131370423571 -0.0132784877352457309 -0.0769127318362839291)
(0.475888069874791542 -0.0138050901961145975 -0.0786824599991999551)
(0.550697710759598502 -0.0126826605495638425 -0.119461393715863395)
(0.516297108493725898 -0.0256884000539205522 -0.101169138067037978)
(0.510021035007507506 -0.0126679103413977166 -0.100045759331858039)
(0.537014207245736674 -0.0133558754305088939 -0.101764845736797629)
(0.600327327506896435 -0.0114949053499236679 -0.157843011234256675)
(0.570143508748760963 -0.0244602514740300987 -0.135189765765939079)
(0.558831412812312411 -0.0118569171417076333 -0.133585768265516103)
(0.595479319812899255 -0.0129026133211193605 -0.138391039537885591)
(0.643661499547493299 -0.00990881973276092065 -0.213836783810546965)
(0.618787641634607199 -0.021147363101223067 -0.178192134239212846)
(0.599705223077017346 -0.0100192436615001209 -0.174859445946113162)
(0.651526326270148171 -0.0113787420666930164 -0.178634889431888294)
(0.67000583002123093 -0.00753589792508487042 -0.285312342676137198)
(0.657419827910790566 -0.0187203255300805067 -0.244818715146460752)
(0.627317875460490781 -0.00833866032330816791 -0.23937038778473313)
(0.698380667328095228 -0.0102363034954401529 -0.253393840748599053)
(0.686493181426002574 -0.00585411216466653374 -0.399303897739832547)
(0.683862915263796833 -0.012853543172643778 -0.323730884922104445)
(0.638462245886837088 -0.00497981514501992864 -0.313136353992059913)
(0.746163227398065954 -0.00684860259840480365 -0.324187995849085753)
(0.64477918216830854 -0.00445852411902710431 -0.554889903635029658)
(0.682465208983364269 -0.0127775898952227282 -0.470701575359113888)
(0.621679176299302361 -0.00457838725923812983 -0.441674220153182862)
(0.753977092985965047 -0.00823502257761160941 -0.504308488147376277)
(0.564876620112645611 0.00327030104187748822 -0.934840426400070812)
(0.669653470620186098 -0.0097225231364443214 -0.635606264883884053)
(0.577723165072567602 -0.00284854375185750186 -0.578211374184921301)
(0.888836747489871515 -0.00940859311848252222 -0.668680875566361688)
(0.368502153083326456 0.0171091408381380782 -1.25200238900688676)
(0.355818355979658441 0.013500616368115689 -0.913329448857105763)
(0.733557660092822528 0.00341052395318283122 -1.38122364124716968)
(0.0530505488227613412 -0.0395160094597214115 -0.0224446765932057764)
(0.0272610207874242512 -0.0459538979194162589 -0.0213911773442098489)
(0.0262457737294812636 -0.0332331800877835801 -0.021215112720061529)
(0.0267837847928910251 -0.0332118331682491053 -0.0214360845146888135)
(0.118685002671387166 -0.0456812398667900479 -0.0247026117399349945)
(0.0862969865760945809 -0.059613043552149414 -0.0234294282630265263)
(0.0844491522648927184 -0.04570762049680413 -0.0231317782976732667)
(0.0861301827910945644 -0.0457989617935676968 -0.0234281453050873868)
(0.182073642131627439 -0.0448116515696472539 -0.0280859548648292427)
(0.149974867482193797 -0.0591435658939863662 -0.0259193356871020505)
(0.148282502166817931 -0.0453928460192482286 -0.0256105089069438401)
(0.151372306205812157 -0.0456921472222526354 -0.0259393560639870034)
(0.242829726604789964 -0.0430272020182802459 -0.0334452378105029313)
(0.212473498168875591 -0.0572643369987815426 -0.030102714680296478)
(0.210140829197036666 -0.0437774570028845803 -0.0298024451281964399)
(0.214980595245727851 -0.0443076980453349645 -0.0301782120790915417)
(0.303473137185862718 -0.0414171397005174066 -0.0413256361179377696)
(0.273219577772676636 -0.0553561847374557797 -0.0365133919186402117)
(0.269672654087749042 -0.0416744800368901921 -0.0361801703668258867)
(0.276730612236931572 -0.0423666814101946801 -0.0366479945458745293)
(0.363555383890508399 -0.0405858284150690529 -0.052429897707598011)
(0.33350067569074443 -0.0542810439633235747 -0.0457363852501268264)
(0.32840244354070669 -0.0404394389966470993 -0.0453076855087314739)
(0.338310526053876293 -0.0412882619026073081 -0.0459409808568697134)
(0.422893390677750391 -0.0401798139346153729 -0.067723161447597241)
(0.393414006954561302 -0.0537528903538674122 -0.0585676571974361945)
(0.3863286132602472 -0.0398512744626888099 -0.0579562862717695332)
(0.399966035592954017 -0.0409226461519167015 -0.0588967817865024695)
(0.481009823131234249 -0.0393707773331803956 -0.0885413481650922096)
(0.45261264771904719 -0.0532532840396047757 -0.0761196675697665137)
(0.442872354207744345 -0.0393488922676080155 -0.0752082116754466679)
(0.461411332632162996 -0.0407614903471723161 -0.076622983102819231)
(0.537026796246908522 -0.037728745176957304 -0.116897510117113704)
(0.510277638155986257 -0.0517202286788184876 -0.0999147525115101492)
(0.496984646038792444 -0.0378390939204121118 -0.0985078466419238713)
(0.522235435634214706 -0.0397218073885677592 -0.100778562358671775)
(0.588346095254829504 -0.034659974728675165 -0.155538888770895278)
(0.564944281106241619 -0.0490572165831131141 -0.132435468534789047)
(0.546876906672572716 -0.0354096006414517384 -0.130220815834540149)
(0.581195230399452312 -0.0380928466508322072 -0.133797514162399378)
(0.633800677435026549 -0.0304287948136586703 -0.209174065575126633)
(0.614693664373380688 -0.044335607567710475 -0.17663748665274881)
(0.590024837513872025 -0.0309655727725398136 -0.173032028218266243)
(0.63776643700072122 -0.0344765472476971369 -0.17900436664059885)
(0.66590246861832425 -0.0245694057373720132 -0.283237257392428055)
(0.655971870482368935 -0.0383317588900528999 -0.239060494416200614)
(0.622573311678816355 -0.0259986842422722068 -0.232578272954448689)
(0.687611279375520024 -0.0306871334155364162 -0.243266130612674047)
(0.683168275482513243 -0.0196070863602248631 -0.39512856254138562)
(0.683997866633138552 -0.029658413509074312 -0.324063398681290304)
(0.637530512583326714 -0.018190686375221414 -0.31295955876869469)
(0.737357955685865596 -0.0238136266765848342 -0.331221828154708742)
(0.651614119419230753 -0.0194569552250870234 -0.551417936607968562)
(0.683892470903470606 -0.024207960576776863 -0.461408445578237292)
(0.625578697823535035 -0.015022837679261181 -0.433334421866029385)
(0.756767784371929375 -0.0230735572661922746 -0.484243162205462818)
(0.577248793965883356 0.00528920651573822759 -0.952768227490698116)
(0.668464024084511665 -0.0323281054910668636 -0.636165856798668994)
(0.573808213990155691 -0.0159087934211429166 -0.56816252681808399)
(0.857042985278556047 -0.0322718986415840431 -0.679475999373182926)
(0.378324046352755405 0.0473435732100834228 -1.25860036299976219)
(0.388451073207506714 0.0399117163775345174 -0.961665496874034131)
(0.720687265633934371 0.010149091632816019 -1.41430660388781604)
(0.0561405149298916106 -0.0662682061327845018 -0.0223759290140305989)
(0.0285094111642256801 -0.0710347278686054018 -0.0213257082922167947)
(0.0277479981090207849 -0.0582960500216819846 -0.0210312079946183735)
(0.0282940842608065055 -0.0582575856557504476 -0.0212902200750135356)
(0.119270534703447145 -0.0737948230620261297 -0.0246461522101935789)
(0.0879797216087914169 -0.0878377775100483704 -0.0233803789408488505)
(0.0864900722428008362 -0.0740717003471799001 -0.0230465641756986174)
(0.0881591251765010686 -0.074188103054182622 -0.0233804376436443535)
(0.181907807869698235 -0.0721588449871019832 -0.0279360955025692859)
(0.150217494063787538 -0.0871561312879311351 -0.0257717686503583301)
(0.148626298694765263 -0.0730895336809943563 -0.0254848202773051494)
(0.151640142319509702 -0.0735364448937031873 -0.0258323488962166892)
(0.24296046144527686 -0.0699382360751369947 -0.033170868788433755)
(0.21215437356891334 -0.0845793253059131667 -0.0297987028038922408)
(0.21003068876326611 -0.0705270932532057054 -0.0295782069289988354)
(0.214769653218502415 -0.0713187805579558881 -0.0299391869142498143)
(0.303663752533602005 -0.0683995504985274172 -0.0409241410508292686)
(0.273017322973308219 -0.0825439232474040746 -0.0360578760415090765)
(0.269799562192961251 -0.0684283071144394794 -0.0358558154070002522)
(0.276751436014533281 -0.0695030740864915064 -0.036272840080622204)
(0.364055828318560759 -0.0675732830605651619 -0.0518741447399650238)
(0.333548457580563784 -0.0814030580831360262 -0.0451241629277734646)
(0.328842542608219157 -0.0672524215805956893 -0.0448621349709976691)
(0.33862749088394889 -0.0686017568680446221 -0.0454242509990732887)
(0.423849197634139085 -0.0669609202741726084 -0.0669641633196054742)
(0.393765648130558588 -0.080752869361415458 -0.0577549165031430792)
(0.387116069461033774 -0.0665103654807000372 -0.0573377987212385087)
(0.400595590200354956 -0.0682140820008965976 -0.0581879839066269805)
(0.482582847652026914 -0.0657259133354958225 -0.0874930719161844533)
(0.453486017545605025 -0.0800292498045084844 -0.0750335722546399964)
(0.444224776126324605 -0.0656192930859868656 -0.0743463613223405567)
(0.462544619968609849 -0.0678128162578172655 -0.0756905422416639106)
(0.539229229462974691 -0.0631384608119937574 -0.11545271092918552)
(0.511820661206229488 -0.0779749387404527067 -0.0984316289911169456)
(0.499001690558002364 -0.0634167240312258906 -0.0973063710310051039)
(0.523953162815626983 -0.0663597593874280384 -0.0994634159911575999)
(0.591597599676933927 -0.0586599803891342114 -0.153534066416642495)
(0.567408252471219621 -0.0740977603034945476 -0.130411566251109723)
(0.549734185878255066 -0.0595064635087845864 -0.128542797066784897)
(0.583655432563612409 -0.0635205016167316033 -0.132074166903463824)
(0.637588493800107403 -0.0519956372012436371 -0.206523915493822791)
(0.618205021425146661 -0.0676470596380164962 -0.173846324963142479)
(0.593728425542130234 -0.0532492600644283998 -0.170772817952703215)
(0.640996592082494931 -0.0585972494120135107 -0.176514838932722101)
(0.670209424189774583 -0.0429083523131279579 -0.279886635705063114)
(0.660394037286869962 -0.0580863162344919526 -0.235453042922305733)
(0.627086126166154223 -0.044606143810072163 -0.229675304599330915)
(0.6916036442348098 -0.0516951541485226804 -0.240187931098075708)
(0.685852582116513343 -0.0335001631469861311 -0.390343281718142032)
(0.687888851180355254 -0.0455655952641366782 -0.319584030441711908)
(0.641119038289862164 -0.0330778055762724899 -0.309294784460628469)
(0.740083928533262325 -0.0426328169168636376 -0.327204016711316437)
(0.652737606547736715 -0.0351185886274734058 -0.546156365768938334)
(0.686719479347314365 -0.0340069779595797567 -0.454719835160524166)
(0.629150373925117634 -0.0242611941633123634 -0.42852998961617772)
(0.758502995784552159 -0.0349839075846028608 -0.477563411649923164)
(0.559778185245774829 0.00904641296537379846 -0.941997992307733067)
(0.665464110044164725 -0.0448597104345019732 -0.629547708781293736)
(0.569412271343160192 -0.0304713285599518061 -0.56501851379346435)
(0.850971369575231229 -0.0526975077011792511 -0.672712172103202555)
(0.361186401540150637 0.0703831058021854028 -1.23967034221736028)
(0.366941141840869678 0.072425082832762569 -0.945654575161341659)
(0.697938564451703103 0.02117783522149045 -1.39715606211676024)
(0.0581353313994180942 -0.0928878506497328588 -0.0223301582190350463)
(0.0293000182940127939 -0.0970421934093988331 -0.0213650546392058112)
(0.0287433593074104612 -0.0839689318559928843 -0.0208907751846627021)
(0.0292863035523573227 -0.0838501436106535158 -0.0212298515736046543)
(0.119715160386523745 -0.101462056743776272 -0.0245059953810136018)
(0.0890465816784051373 -0.115405763668694164 -0.0233170060158952447)
(0.0878453948836142168 -0.101576092454822825 -0.0228836564904073281)
(0.0894581805607779362 -0.101626299238216811 -0.0232819560305837572)
(0.18154948258124079 -0.0997456721298117521 -0.0276343759516812851)
(0.150344656314521846 -0.114823914644948788 -0.0255260699880568397)
(0.148847419069921078 -0.100764746958713666 -0.0252264180319511748)
(0.151731720870106279 -0.101315126281136522 -0.025598117815202763)
(0.242538518465039654 -0.0972723515596459198 -0.0326857100569675624)
(0.211727877600002889 -0.111848957266166046 -0.029325769016656629)
(0.20959779440773274 -0.0977650377298889262 -0.0291814952242867402)
(0.214175710639975536 -0.0988264918515681379 -0.0295083149053313593)
(0.303268927524949106 -0.0956374076772895654 -0.0402578979184532587)
(0.272600890477323943 -0.109698262266451657 -0.0353746699795705957)
(0.269373045985859427 -0.0955262014206630511 -0.0353172214143156818)
(0.276154654869430305 -0.0970039941982560605 -0.0356433290530048311)
(0.363864759543097604 -0.0947090462971170999 -0.0510049346909515477)
(0.333329318241380457 -0.108551796507367987 -0.0442346516198326989)
(0.328634871230430947 -0.0942367618734696044 -0.0441591801292170183)
(0.338227365114803835 -0.096097585647739181 -0.0445936282061330028)
(0.424065531365820092 -0.093943607626592221 -0.0658243254381776083)
(0.393843846650277607 -0.107861642831431126 -0.0566162281568599879)
(0.387226067720674083 -0.093322025611017545 -0.056413230250160408)
(0.400458233542531794 -0.0956479110121937481 -0.0571189064529244311)
(0.483451763626098374 -0.0923701056186603253 -0.0859721293295725164)
(0.454102851614769043 -0.107023262457636645 -0.073545600235106201)
(0.444896138055004164 -0.092176410276203366 -0.0730938121924798873)
(0.462872124506329474 -0.0951384902107351299 -0.0742940580758245095)
(0.540947096647474868 -0.0889815117691619695 -0.113390484313041134)
(0.513254713148035169 -0.104539301181164029 -0.0964496698329274094)
(0.500469141649361182 -0.0893350959107826331 -0.095593637736329784)
(0.524940694696370724 -0.0933031777468248669 -0.0976153864271722543)
(0.594642064468392739 -0.0830474865196741685 -0.150723824797609651)
(0.570054184493287597 -0.099676773741716726 -0.127705834348342984)
(0.552326575016245269 -0.0841298793914092569 -0.126167524957523786)
(0.585587065436891985 -0.0895155956044066531 -0.129596626961281658)
(0.641750287898840477 -0.07362103589681461 -0.202775452391625421)
(0.622428264508048446 -0.0913897468469652974 -0.170147951145837306)
(0.597699864070752818 -0.0757334267505131858 -0.167562028207320579)
(0.644123883204892222 -0.083000824709275195 -0.173173302378517358)
(0.675231203497999921 -0.0604639489864919125 -0.275150437658954528)
(0.66588485017657939 -0.078116349521448844 -0.230561537909602987)
(0.632186547637974328 -0.0630038814017747639 -0.225495144635693007)
(0.695722716511086636 -0.0728133528525656271 -0.235794257249542505)
(0.689404821276049184 -0.0456902980380510249 -0.383960583884094209)
(0.693813750731439693 -0.0607333162521876066 -0.313430244810278757)
(0.646271202746598772 -0.046565960659065396 -0.304129296562304308)
(0.743791473412628412 -0.0597336263007299251 -0.321865826852277437)
(0.654606460769955656 -0.0434378037030635766 -0.538111178172879678)
(0.690466075005561342 -0.042551023486266458 -0.446062850867902205)
(0.6326026146358531 -0.0311994662609457393 -0.421510745283172061)
(0.760455434464761604 -0.0460289339286440793 -0.469530560004913)
(0.548470856375171123 0.0167501055186801556 -0.927220058690921389)
(0.665075971489866413 -0.0503253713793565122 -0.619325134141445188)
(0.569703498871184655 -0.0345817077521906879 -0.558021912711054169)
(0.843133591058553788 -0.0628381842392735229 -0.663295862750230003)
(0.351649072732104995 0.093807849400190102 -1.21556268265531897)
(0.354048743980958092 0.101056713117162439 -0.931378842582228361)
(0.680085191456952232 0.0322559189912596245 -1.37205891466657159)
(0.0592633106988678451 -0.119754089211086073 -0.0223519024360660096)
(0.0297511720690872179 -0.123620062827655267 -0.0215258854887629344)
(0.0293439385839574067 -0.11031051766848872 -0.0207894896525745235)
(0.0298676025666129892 -0.109977095497581986 -0.0212666954406894489)
(0.120044236480413472 -0.128914426254120223 -0.0243370806229384791)
(0.0896367470834346647 -0.142661172160821165 -0.023282382215151224)
(0.0886976978191362092 -0.128934916404785965 -0.0226966770962204016)
(0.090195044859128673 -0.128788022070483676 -0.0231799449389127644)
(0.181266773524193986 -0.127115366767277804 -0.0272174630530321836)
(0.150353742041255345 -0.142230651153151449 -0.0252015168784341104)
(0.149003000133621888 -0.128166778063645986 -0.0248819130110149098)
(0.151678631913022943 -0.128760185625147905 -0.0252753388014582588)
(0.24220165699182955 -0.124444974784820986 -0.0320147289392596762)
(0.211382494338680504 -0.139064240397883704 -0.0286831956043418976)
(0.209305953243923648 -0.124835233930652725 -0.0286451540861791219)
(0.21365576249244464 -0.126159640061842326 -0.0289114177054122269)
(0.303024547455931881 -0.122762614876110385 -0.0393514236809500359)
(0.272289754918393523 -0.13682215209092638 -0.0344649671198337532)
(0.269103231735616177 -0.122477235446087296 -0.0345952955218899461)
(0.2756654794093234 -0.124362618701033101 -0.0347782850910507771)
(0.363835349591311585 -0.121848374424543104 -0.0498459450857411598)
(0.333205053063803824 -0.135695189254305321 -0.04307976819766271)
(0.328583534305918856 -0.121177380912291022 -0.0432331877484106383)
(0.33794130448169496 -0.123543921450101499 -0.043465862203404905)
(0.424481857983445066 -0.121069964809113861 -0.0643375029537885529)
(0.39402702354618202 -0.135052273617605523 -0.0551757604069655211)
(0.387525288383924804 -0.120242845942524282 -0.0552167433895417378)
(0.400461735893543169 -0.123160672254182882 -0.0556899617568844957)
(0.484636601531531597 -0.119294322980360384 -0.0840231407384611079)
(0.454863071876539571 -0.134240613397850622 -0.0717183108501714406)
(0.44583494307571947 -0.118999545699556272 -0.0714990639729070482)
(0.463396210760822602 -0.122666753569682679 -0.0724629022580881854)
(0.543285702706425067 -0.115288547170206382 -0.110765019868229231)
(0.515000455057416429 -0.131523337909880023 -0.0940536839824761689)
(0.502422152024788571 -0.115662000300333287 -0.0934056177229895812)
(0.526291998012374806 -0.120560146523121831 -0.0952411516615760678)
(0.598727121531618001 -0.107978528563517986 -0.147129960696570639)
(0.573398483163035766 -0.125976082630318509 -0.124406206140252107)
(0.555805733018795767 -0.109373557995141327 -0.12311412757670083)
(0.588221115975427367 -0.116040594019414092 -0.126431397157609343)
(0.647572543298041259 -0.0956953264799843967 -0.197934036663814761)
(0.627956838787830707 -0.115871528273422009 -0.165551519856513452)
(0.603150807427382696 -0.0987424732505928215 -0.163368623735214713)
(0.648452895287107034 -0.10788454494768622 -0.168913879004880446)
(0.682497814287788773 -0.0779563059884250398 -0.268841345060927273)
(0.673373537608496386 -0.0987148223508861888 -0.224335120716479292)
(0.639287403608013061 -0.0817485035486697209 -0.219997275404790193)
(0.701571082250622702 -0.0942768269270587989 -0.230149361059806074)
(0.695848156447516075 -0.0569600029854819279 -0.375532511794086921)
(0.7025980427347428 -0.0755223432525912453 -0.305342474528960073)
(0.654304285669480512 -0.0595345655913796859 -0.297073252353855011)
(0.749836977781953018 -0.0763232832049280663 -0.314784150016121089)
(0.658569311550836534 -0.0484931586795132874 -0.527276806836467382)
(0.697431958341309111 -0.0494998926225799912 -0.434998731839959907)
(0.638753793859156871 -0.0366650244569940303 -0.41231867547487866)
(0.76489211873742402 -0.0558865503368040778 -0.459353000135109213)
(0.540120635945675165 0.0282123508639303133 -0.90766775810584388)
(0.667165873202269166 -0.0494104794724864113 -0.606138026047493672)
(0.572658338536683353 -0.0337349950149796532 -0.547592252903433496)
(0.835290800431693903 -0.0687329257844943448 -0.651050050679077175)
(0.346333489022227214 0.122071581129053225 -1.18667722633016881)
(0.346223677504555793 0.131642821646316299 -0.915887322051674557)
(0.668648394483541408 0.0492667571712115809 -1.33946698581709867)
(0.059821907187634249 -0.146726441154708925 -0.0224563652678481489)
(0.0299344465595522344 -0.150545291482681642 -0.0217976498648634054)
(0.0296744504049718458 -0.13712710022341304 -0.0207127688260706246)
(0.0301546534435806167 -0.136356104253860716 -0.0213881460872373148)
(0.120163858327356349 -0.156130534179610703 -0.0241468184706468518)
(0.089796680750814678 -0.169758828244773119 -0.0232745294632108815)
(0.0891487009072318565 -0.156088797369286436 -0.0225229394413085579)
(0.0904431017878423449 -0.155558536546364756 -0.0230809074173967989)
(0.180974663660497581 -0.154342277912150772 -0.0266672494297438244)
(0.150189709894664791 -0.169457512106001879 -0.0247679542567465667)
(0.149035647715822922 -0.155329149591426019 -0.0244601498175609985)
(0.15139943854880944 -0.155895117041072395 -0.02485982966142046)
(0.241891552398097343 -0.151588548801331741 -0.0311334337849159815)
(0.211063555040152728 -0.166221519483528396 -0.027832598992837073)
(0.209057337987376107 -0.151847945857461447 -0.027958490347332457)
(0.213102762319345274 -0.153447877467846466 -0.0281247438740683843)
(0.302831620262586143 -0.14988689542596495 -0.0381933116365464273)
(0.272051016232218723 -0.163883507089954084 -0.0333090045816738234)
(0.268900415219356703 -0.149429437362672446 -0.0336900517914524369)
(0.27519602742105187 -0.151752461050471521 -0.033643792372502597)
(0.363852705940205745 -0.149031415564640779 -0.0484095835188870782)
(0.333128694127406921 -0.162766840727158774 -0.0416642352765007953)
(0.328584143458659605 -0.148150722914040467 -0.0421061455099134979)
(0.337674018334537696 -0.151033497768816943 -0.0420084218160334047)
(0.424943596046337024 -0.148350490986261713 -0.0625565683033484088)
(0.394225070869803906 -0.162249319375323053 -0.0534802318696834811)
(0.387870629323643024 -0.147293544056152859 -0.0537973914725317012)
(0.400483187444970412 -0.150770200219086242 -0.0538884705469840977)
(0.485938518526265018 -0.146572079701457747 -0.0817488540941865294)
(0.455623339788118975 -0.161650199846416154 -0.0696589605597218858)
(0.446858206751644171 -0.146135962753916937 -0.0696336853680469964)
(0.463955751048025611 -0.150413469137313321 -0.0702351946990978082)
(0.546046196215264734 -0.142253665532188767 -0.107694870254498976)
(0.516911449136779 -0.159048506395672418 -0.0913699784351953703)
(0.504652673499937698 -0.142564315038348433 -0.0908162371366006277)
(0.527808742097281902 -0.148242074194670503 -0.0924375155071127802)
(0.603756021464155967 -0.133798065553215745 -0.142827765300194975)
(0.577413315806470262 -0.153261291021976664 -0.120551855481805081)
(0.560038797534680555 -0.135521174376411868 -0.119415118332139858)
(0.591405562438635624 -0.143307330000758043 -0.122687804854649765)
(0.655165833137578923 -0.118627861815953847 -0.191952603909177844)
(0.634882380886774622 -0.141530950808771316 -0.159952861881188929)
(0.610051389072604699 -0.122692992365496689 -0.158181586926145035)
(0.653935178588418653 -0.133614285631263124 -0.163802661072794925)
(0.692445623054537163 -0.0957081395505463561 -0.260836250184512342)
(0.683276062978683152 -0.120359736824468933 -0.216517415677720981)
(0.648736556415382859 -0.101200281234679126 -0.213040786264928478)
(0.709391180470401839 -0.11642154772394514 -0.223192832588782586)
(0.705985932935635607 -0.067220534286452166 -0.364808694574833114)
(0.714952097336877035 -0.0904115394348972423 -0.294998112086913677)
(0.665638171763906938 -0.0721402320412553311 -0.288074962741345586)
(0.758616218596997904 -0.0926624406432743353 -0.305817317739412897)
(0.665755128528211726 -0.0494106998381452361 -0.513859951050985919)
(0.709514632975937309 -0.0545144707238465684 -0.421085992139218157)
(0.648926599255025272 -0.0401031677528017744 -0.400760299578286405)
(0.773183125749314026 -0.0640871309677917278 -0.446549999388594854)
(0.534032086352590474 0.0455582707429348505 -0.885147494271819046)
(0.672042826894099887 -0.0419131336667874776 -0.590555014919294741)
(0.578801219891722618 -0.0267745241110042033 -0.534326946761588539)
(0.830087229087184353 -0.0686120674675776837 -0.636419300268645682)
(0.344567918871608037 0.157256149371775039 -1.1565176257833707)
(0.341697623006769868 0.16618738492591964 -0.897569767923691142)
(0.660736564501907986 0.0747217466035191569 -1.30189574753683912)
(0.0599125971239084093 -0.173779736501325388 -0.0226158140602261346)
(0.0298559432462914484 -0.177633570513884648 -0.0221202318046960604)
(0.0297477849707831962 -0.164245790537794978 -0.0206201986596069864)
(0.0301394611212921736 -0.162706900826895096 -0.0215410617779910607)
(0.119997952211677472 -0.183238541725504328 -0.023895665249310593)
(0.0895190014909500176 -0.196753116793461358 -0.0232261161635373969)
(0.0891961310497228765 -0.183194170906141901 -0.0223803532176634103)
(0.0901635629455644627 -0.182049364849438566 -0.022959693074367838)
(0.180626192449137662 -0.18148852918346231 -0.0259333038198398154)
(0.149828235536700077 -0.196592178667129858 -0.0241492956336611976)
(0.148896404769784108 -0.182363807556066043 -0.0239424003868934122)
(0.150822850730568475 -0.182849917958662761 -0.0243199982457202799)
(0.241624730576761426 -0.178665674835744248 -0.030008169789594915)
(0.210788208819072898 -0.193325582160136733 -0.0267242842573521579)
(0.208832485469248652 -0.178796104439858661 -0.0271064740157128115)
(0.212493824311141055 -0.180726406696257808 -0.0270937080609994739)
(0.302697859641843647 -0.17690838762610428 -0.0367799282216282053)
(0.271926414813242812 -0.190804506763412512 -0.0318949405218134641)
(0.268778518629195107 -0.176310036712146345 -0.0326205942173625266)
(0.274769326412116932 -0.179130934667015934 -0.0321753174420363122)
(0.363890116566608746 -0.176132976965667931 -0.0467348836272972121)
(0.33311423471008772 -0.189637408978409583 -0.0400131002369357863)
(0.328629335642636522 -0.175046950970533355 -0.0408288031300813939)
(0.337443613344299176 -0.178467173164889026 -0.040176770000529792)
(0.425368354380055991 -0.175694982285454049 -0.0605826241260569651)
(0.394385758171522327 -0.18932059812810012 -0.0516179253853189662)
(0.38820232079328082 -0.174386025832070607 -0.0522358747721047637)
(0.40050615197649736 -0.178368913674860435 -0.0517311445015691332)
(0.487263541969722824 -0.174246596955394961 -0.0792800849007307129)
(0.456283184772209138 -0.189224118892327237 -0.0674970110899735382)
(0.447857167912727061 -0.173591928677401197 -0.067586623308542107)
(0.464481913341316277 -0.178311691637789704 -0.067716570283298444)
(0.549233069286656717 -0.170110884480835167 -0.104226963662501407)
(0.518981542991198475 -0.187331296140452769 -0.0884226704384765139)
(0.507111849333661491 -0.170239627408351246 -0.0878649852096206191)
(0.529441304285875769 -0.176421431574091903 -0.0893465126972798063)
(0.609889109498737314 -0.160924690228220063 -0.137676952062799118)
(0.582226942748670928 -0.181927875821749879 -0.115915407466752232)
(0.565148107882007977 -0.162921933969514848 -0.115004258617990213)
(0.595222459078518007 -0.171535849307996341 -0.118420839204635045)
(0.664876937329096251 -0.142944589305690123 -0.184517673649732233)
(0.643379503254489227 -0.168922256987006386 -0.152921911379765296)
(0.618644470998647944 -0.148076975287911305 -0.151829239137781458)
(0.660763389319179439 -0.160569216736989401 -0.157733645792384136)
(0.705901492653394191 -0.114290551818718847 -0.250679277580122761)
(0.696110875543686336 -0.143728647393365216 -0.206597068720019955)
(0.661031215195120203 -0.121851830933931787 -0.204389822555684691)
(0.71953845660058624 -0.139726858698857065 -0.214661185879478439)
(0.72144897598372737 -0.0763863683243772296 -0.35127540965129872)
(0.732480810370954916 -0.106094711022458085 -0.281764352223620063)