/*--------------------------------*- C++ -*----------------------------------*\
| =========                 |                                                 |
| \\      /  F ield         | OpenFOAM: The Open Source CFD Toolbox           |
|  \\    /   O peration     | Version:  2206                                  |
|   \\  /    A nd           | Website:  www.openfoam.com                      |
|    \\/     M anipulation  |                                                 |
\*---------------------------------------------------------------------------*/
FoamFile
{
    version     2.0;
    format      ascii;
    arch        "LSB;label=32;scalar=64";
    class       volScalarField;
    location    "0.840000000000000524";
    object      p;
}
// * * * * * * * * * * * * * * * * * * * * * * * * * * * * * * * * * * * * * //

dimensions      [1 -1 -2 0 0 0 0];

internalField   nonuniform List<scalar> 
7248
(
-1.70390224503825838
6.01377177804002372
-2.42247655759817793
-2.43285989372194233
-2.55367833858152382
-2.60460269763557983
-2.62089131824718491
-2.5963965784760461
-2.58520685822124063
-2.90514416369111261
-2.91256005615070146
-2.90906618458714439
-2.88794778031268917
-2.83607959858440584
-3.24624677466354505
-3.2375808073408554
-3.22500991631753609
-3.20541079176463484
-3.17751922852479263
-3.6182882288926419
-3.60466469103585441
-3.58891056681546194
-3.56953100014808733
-3.54661684616982242
-3.99729037097774764
-3.98282050659470244
-3.96708321353477711
-3.95002027284410318
-3.93212706918185839
-4.38599607414479475
-4.37189597499053395
-4.35714517726047568
-4.3422112542350586
-4.3280471032615786
-4.78135410920350168
-4.76821289021248429
-4.75454147903070545
-4.74103941533115414
-4.72888552991563671
-5.18273015234460388
-5.17069408645384865
-5.15795261328928412
-5.14511590628977
-5.13325675429483841
-5.58962042105447132
-5.57878050013371052
-5.5669177128357008
-5.55438303265389521
-5.54185887356107809
-6.00161673800055162
-5.992274403293119
-5.98162816968079092
-5.96973927945830862
-5.95684189955944898
-6.42924333596222297
-6.42426602713562112
-6.41816873076221572
-6.41079689356531279
-6.40197949135731559
-6.39154040277409408
-6.37935993288780168
-6.84506220837869872
-6.84226491651996405
-6.83857089501834814
-6.83375429564478321
-6.82753291161419718
-6.81956413348928869
-6.80946486852481936
-7.26329306109017381
-7.26309931361122008
-7.26234126418698978
-7.26076670416962333
-7.25804262361629426
-7.25374100349164941
-7.24731518097957839
-7.68309546644960406
-7.68592096134258185
-7.68862774778854519
-7.69098405314712075
-7.69266876735578631
-7.69324468960359464
-7.69216705012660196
-2.1206337405699327
7.47776775444947361
-2.47177784555707492
-2.41375219111891814
-2.52628217064078031
-2.58356073124704544
-2.61729897516803511
-2.62190313414984866
-2.63312732952787076
-2.8901675705190355
-2.90868070776257515
-2.91165004585677734
-2.89441571105509299
-2.85104589076220627
-3.23962692812068198
-3.23388614454941159
-3.22555294839869466
-3.20898136125214162
-3.18506165680496656
-3.61384939230928337
-3.60225202798826505
-3.58909844085894791
-3.57219048124524052
-3.55149536252032094
-3.99424510544305722
-3.98063793904473107
-3.9664734658853118
-3.95120101851229633
-3.93475153629585872
-4.38422528889198215
-4.37071923115183303
-4.35700551651641987
-4.34319037374090655
-4.32971477932698345
-4.7810678555902566
-4.76845895784039353
-4.7555237674710451
-4.74276395285251162
-4.7310500803029063
-5.18337843146108312
-5.17190219746933977
-5.15987849306376134
-5.14785215926517825
-5.13674315815435101
-5.59088595030308788
-5.58065989344086866
-5.56962348287551556
-5.55815691378900212
-5.54694792867567354
-6.00322732389928859
-5.99454394140231983
-5.98481866051835176
-5.97420457307328334
-5.96304972871668681
-6.41992231531892887
-6.41320853396922708
-6.40532311805650334
-6.39619787140611162
-6.38585473139599635
-6.84031379544453788
-6.83611183625197505
-6.8307585725909199
-6.82400427204077875
-6.81559163390881295
-7.26396740010348374
-7.26293298495351447
-7.26096683013140787
-7.25771194752976356
-7.2527243489185329
-7.69006123707735245
-7.69286267040071792
-7.69517437458979536
-7.69661657124698895
-7.69667535928483826
-2.17544218849041826
8.45826954202519232
-2.49921873725457377
-2.44821071839783322
-2.5093225449877492
-2.55345242224712532
-2.59111659930304583
-2.61759235934460266
-2.64386797494632253
-2.88005360911113417
-2.90138643050140166
-2.90448895360400705
-2.89456211401817676
-2.85946552582031988
-3.23293184649554721
-3.22918335363945452
-3.22376058028584644
-3.21052818956591057
-3.18908660471997507
-3.60769072001745794
-3.59823236473605101
-3.58780494273161432
-3.57374230647701907
-3.55479901490430272
-3.99084980827376867
-3.978294832588678
-3.96553202351386602
-3.95171576565740601
-3.93639049266434249
-4.38223494128319935
-4.36959364141345752
-4.35687463896948124
-4.34397011195996097
-4.3310578064187375
-4.78070742667498827
-4.76868532884662244
-4.75642017409555962
-4.7443105904601266
-4.73298898751036212
-5.18387636450471412
-5.17295722405202518
-5.16161194152183
-5.15032804283958079
-5.13988690707419149
-5.59202505629839841
-5.58238360786387222
-5.57210909003423716
-5.56160102608994755
-5.55153653467273234
-6.00471737880517331
-5.99665056331344992
-5.98777120284920272
-5.97830369302548892
-5.96867912868366535
-6.42156196459792827
-6.41546473959743846
-6.40844143391801779
-6.40051383716593758
-6.39181819828858799
-6.84195386537701733
-6.83832968511011607
-6.83378586665922594
-6.82815437386786961
-6.82128128569088776
-7.26550294128808183
-7.26497660121150091
-7.26372075783285176
-7.26144249387949792
-7.2577768413638033
-7.69141516962344607
-7.69463318696018117
-7.69752985326614247
-7.69977348219700097
-7.70089412029253761
-2.2370180482366675
8.92984034852597119
-2.53653205788313718
-2.47414330456534426
-2.48560106908349532
-2.53041901279145787
-2.57240163056824001
-2.60601934196722729
-2.64697733172905103
-2.86168139125819199
-2.8793079039143441
-2.89092457497240352
-2.89390825692789866
-2.868577076545062
-3.22624973578333529
-3.22584057726687679
-3.22273960189482267
-3.21343562364555568
-3.1950993575618698
-3.6049135916754711
-3.59610044745780932
-3.5863801563451374
-3.57391955267381567
-3.55687578835996998
-3.98719452184424972
-3.97510569590181451
-3.96356656510098793
-3.95121475577624715
-3.93712956848032647
-4.38021061583223847
-4.3683537777991841
-4.35658036640442781
-4.34452253738388183
-4.33213597941759421
-4.78037666459868138
-4.768912023525127
-4.75723715514957224
-4.74566255981168261
-4.73465479157255142
-5.18438504488195839
-5.17393275078251769
-5.16315951368544379
-5.15249273147840814
-5.14259386652048267
-5.59307372242553935
-5.58393856438387637
-5.57431447612110631
-5.5646044463732256
-5.55546287031552577
-6.00606420200587365
-5.99853435768340759
-5.99038238168620474
-5.98188185759182378
-5.97351689380730555
-6.42303736502657152
-6.41748269352468625
-6.41120974223382589
-6.40430912037643107
-6.39700158060266588
-6.8434306134520364
-6.84031844242746701
-6.83648619173140482
-6.83183124029290756
-6.8262775349158753
-7.26688725565970461
-7.26681322283666997
-7.26618653834403716
-7.2647662104966555
-7.26224400704702955
-7.69263679823099089
-7.69622501496194733
-7.69964001311344592
-7.70259155594509703
-7.70465759493684654
-2.19938925807780894
9.98577414142425823
-2.55375163556148266
-2.4540514049233475
-2.47593855757632486
-2.52871868814459999
-2.5768116532965557
-2.60635390592772254
-2.64853187314340532
-2.85092442245667899
-2.86823101141663495
-2.88649339205026223
-2.89521984607721583
-2.87445362614193289
-3.21959153123224739
-3.22270681844132811
-3.22171976252110071
-3.21409780544251467
-3.19776658818371429
-3.60250137558981187
-3.59378026094965586
-3.58390647062637324
-3.57215008299428316
-3.5568811236952449
-3.98641870191170389
-3.9737628437174628
-3.96249502380647645
-3.95102982136021996
-3.93779896077991465
-4.38006897147065377
-4.36853675948435249
-4.35713188760745851
-4.34541087972678319
-4.33319518791405667
-4.78062389768627849
-4.76944668436892094
-4.75812388460953706
-4.74689221510091475
-4.73608521553237605
-5.18508063067537339
-5.17497082138888942
-5.16461056494133075
-5.15438369151699582
-5.14486224416704374
-5.59405503237247181
-5.58531418244856592
-5.57619707355160354
-5.56710222365909235
-5.5586578734613914
-6.00724623499827448
-6.00015000014981048
-5.99258138856810341
-5.98484476281685041
-5.97745719995921476
-6.42430405080359801
-6.41919508674574146
-6.41353407545280785
-6.40746099918365442
-6.40125740947846378
-6.84469120355457772
-6.84200457166849763
-6.83875996309186629
-6.83490465869783748
-6.83042159894620493
-7.26806719019467451
-7.26837172953405641
-7.26826929730031779
-7.26756069184654585
-7.26598365215686837
-7.69367917422670899
-7.69757722209509154
-7.70142482095490433
-7.70496433845541873
-7.70780454921593794
-1.92948509084024855
10.1199802938700714
-2.52793667623676699
-2.4405501350478005
-2.48074906993637923
-2.53492046631773782
-2.58457454182089075
-2.60020487354671648
-2.63885658103766518
-2.83979896998581571
-2.86380211377568594
-2.88752964204568752
-2.89640410159694905
-2.87306517940087147
-3.21565303053517715
-3.22033951263240503
-3.22078249778602377
-3.2128220954576836
-3.19663425774151166
-3.60586884383288009
-3.59536234100885554
-3.58356071963907574
-3.57174912347147089
-3.55710596120650679
-3.9890773775417161
-3.97511956240134312
-3.96342340534770887
-3.95208501739525886
-3.93898700010001601
-4.38124141408695777
-4.36955646084871052
-4.35816713718636883
-4.3464884379617903
-4.33423658036399484
-4.78137304883070602
-4.77032355943892039
-4.75916773653755332
-4.74809910898989962
-4.73736017635598383
-5.18591026414643963
-5.1760021658639559
-5.16589531491167264
-5.15594248795715338
-5.1466557571464957
-5.59493965818194816
-5.58647474034543023
-5.57771498706018143
-5.56905215698100875
-5.56109408455098109
-6.00822111108434775
-6.00144431472915585
-5.99430471355778671
-5.987123969739514
-5.98043631468848869
-6.42531599377713025
-6.42054384865177585
-6.41534314171245246
-6.40988596393021393
-6.40449052408244768
-6.84568789190977345
-6.84332763935993604
-6.84053187709932597
-6.83728319591486677
-6.83360324602853186
-7.26899734935467379
-7.26959451320506833
-7.26989652875055459
-7.26973618388559739
-7.26888476626409208
-7.6945016266167432
-7.69863931311944416
-7.70282141559349398
-7.70681548235654379
-7.71025387526361694
-1.50938777150521797
9.88830738476178794
-2.47462260962170433
-2.44527521752062782
-2.48532429810084521
-2.52159836433790918
-2.56641458453592097
-2.58478916984184837
-2.62106683458763268
-2.84874008576362669
-2.86372157631892321
-2.88521230940951945
-2.89334193615928514
-2.86658969466219871
-3.22109193782694758
-3.22522901435921838
-3.22568695970550978
-3.21467375319627324
-3.19546640923895353
-3.60800385031033022
-3.59955658108003629
-3.58746063466893306
-3.57375747692834
-3.55813965731293758
-3.99358067941094586
-3.97855826193785855
-3.96591139759932343
-3.95394763925846116
-3.94033390654952687
-4.38281980724244846
-4.37095969023816178
-4.35945878890476735
-4.34766086971337806
-4.33522005116616249
-4.78228056040990168
-4.7713665972434125
-4.76023351666597261
-4.74916209538402345
-4.73837937290252942
-5.18668884262500995
-5.17687502398224098
-5.16689492772482595
-5.15708557464512296
-5.14792349625540258
-5.59563142820293891
-5.58733905441035894
-5.57880206815565938
-5.57040724443519597
-5.56275118615243613
-6.00892893547223661
-6.0023587611487299
-5.99549744660387862
-5.98867697477704741
-5.9824390654416284
-6.42602664935604917
-6.42147861182364466
-6.41658437364427137
-6.41153598014451021
-6.40667413805059471
-6.84637962635845465
-6.8442397562478261
-6.84174729076459531
-6.83890926943110777
-6.83577589133370811
-7.26964060407599355
-7.2704366451795277
-7.27101428159685792
-7.27122972658524258
-7.27088078350378275
-7.69507080869984428
-7.69937154720444994
-7.70378210242388928
-7.70808876126013764
-7.71194499365439512
-1.27703524821116954
9.18461599205323864
-2.43893808005483104
-2.45351223906641636
-2.46706748544912635
-2.48670603981213745
-2.52517553857716148
-2.5638955231538092
-2.59255993797301842
-2.81055770223910706
-2.82532117966795671
-2.85932858899200015
-2.87769208904226481
-2.85457012395575838
-3.19620797908067455
-3.21092210673155076
-3.22213718328197984
-3.21436207203451207
-3.19454117240124535
-3.59746217639918431
-3.59814043777745729
-3.58970141753661398
-3.57541762644748484
-3.55900978063914408
-3.99435420240828876
-3.98005385778484078
-3.96793909619796548
-3.95559510267557179
-3.94137649674616686
-4.38419156615438244
-4.37239876118387905
-4.3605514102256091
-4.3485013383208031
-4.33584673769445761
-4.78296926683684376
-4.77204869677415822
-4.76089558752517572
-4.74980294198040554
-4.73896386230845401
-5.18715252941825966
-5.1774046467173056
-5.16747640607406478
-5.15771335110269025
-5.14858532316397355
-5.5960341087373946
-5.58781351779392033
-5.57937554528607738
-5.57110532107224099
-5.5635885259774307
-6.00930243986702184
-6.00283404165394874
-5.99610996856003808
-5.98946649639530637
-5.98344968852263115
-6.4263954363064606
-6.42195883200670892
-6.41721752387124145
-6.41237464795004186
-6.40778772587429035
-6.84673493451510318
-6.84470598933768759
-6.84236700941724507
-6.83973970721725788
-6.83689627032637404
-7.26997015514572897
-7.27086660567781262
-7.27158446098572764
-7.27199362214011824
-7.27191007917620791
-7.69536271047630294
-7.69974596007892398
-7.70427299594299342
-7.70874084636947821
-7.71281870791018331
-1.49905053240807362
-1.47136522177727702
-1.97154749072276525
-1.96824136591525889
-2.52512116577149381
-2.48860464371604362
-2.4519316465606944
-2.41618775125460195
-2.38129955259745074
-2.88903040562352853
-2.86014114917664797
-2.83160581957761792
-2.80439937843410636
-2.78587195041443891
-3.24751446656540743
-3.22061354823795254
-3.19416120170264151
-3.17360757420991968
-3.16056244330383374
-3.62071298200162284
-3.60034404619273429
-3.5782170575059209
-3.55581213564690746
-3.53801932761543547
-3.9998603075962289
-3.98159949750841768
-3.96241751771972694
-3.94321334782473842
-3.92659176803281484
-4.38601697155755854
-4.37031272817988814
-4.35421956010387223
-4.33879792901351546
-4.32569489907059701
-4.77871078341372435
-4.7646617640626161
-4.75001584479784178
-4.73586927931884905
-4.72482443635849059
-5.17712082447297028
-5.16325888013743484
-5.14818551122365786
-5.1337010307423645
-5.12219730815592023
-5.58136861933276585
-5.56803425813606978
-5.55335063334421708
-5.5380134617603094
-5.52333455656988903
-5.99186995407938916
-5.97995461386191884
-5.96599967476763293
-5.95002643932293918
-5.93260166753267182
-6.4226051553889576
-6.41631100436616197
-6.40825540757622658
-6.39815024477606187
-6.38567721076920591
-6.37054826083875891
-6.35270643588909234
-6.83873152294698539
-6.83461421168790295
-6.82899055386805287
-6.82148295516625058
-6.81164604540230467
-6.79899953184552608
-6.78314654487040158
-7.25731363111543448
-7.25590150400365541
-7.25337751847956547
-7.24934379459384104
-7.24329906765851206
-7.2346920515030444
-7.22294418172421437
-7.67733408797477423
-7.67910659952609187
-7.68027852039129488
-7.68047797855959224
-7.67924298761017798
-7.67602325678251862
-7.67019514238019084
-1.52806031920361352
-1.52125060970469295
-1.97303801540071855
-1.97836552738069171
-2.50658390705774803
-2.46257150486888055
-2.42318832678766238
-2.39231200824778911
-2.36771068299433329
-2.88599077030578721
-2.8498956111311875
-2.8134015148126208
-2.7840044055847728
-2.76487044683554961
-3.24909487082920645
-3.22190791938902965
-3.19336204733031437
-3.16580006912438172
-3.14487026695983563
-3.62072787516510708
-3.5995415047039967
-3.57622059123244762
-3.55266921516261247
-3.53299876149703884
-3.99984230198774871
-3.98155750625398186
-3.96216292677722182
-3.94231726656631798
-3.9241908836280821
-4.38596136113395119
-4.37003954509313619
-4.35341839087021221
-4.33714407659076961
-4.32283078364614326
-4.77846325866767874
-4.76409358452267284
-4.74907531364461377
-4.73462817469377484
-4.72287304004116848
-5.17715309759493447
-5.16344909805998586
-5.14864983532359233
-5.13391628593105498
-5.12139135299722259
-5.58185672384682086
-5.56876205804545155
-5.55402160366484132
-5.53818222042362152
-5.52256050682880861
-5.99255041808900479
-5.98061716012981748
-5.96649947081589715
-5.95013403910410155
-5.93177475568164869
-6.42304150085217618
-6.41677492117091663
-6.40874722211777748
-6.39864749007102773
-6.38611240028542948
-6.37074820826649724
-6.35223594510382927
-6.83906243602404373
-6.83497382892940397
-6.82938536195732304
-6.82190634394874262
-6.81205279275202624
-6.79926218448692055
-6.78316163987603726
-7.2576115992721677
-7.2562204793968208
-7.25372126419313368
-7.24970812457400537
-7.24366225538790509
-7.23500007716152194
-7.22313395394196167
-7.67779812948995311
-7.67958273782814249
-7.68076437778215837
-7.68096400090510567
-7.67971501744007679
-7.6764584219515335
-7.67056454970860901
-1.50267593136772049
-1.51428819802979264
-1.9096797432751913
-1.91289812164084183
-2.50398912434103948
-2.44498755719947969
-2.38280458963589004
-2.33311560725498168
-2.29225965512061514
-2.87628129452871573
-2.843669105547451
-2.8000245591853381
-2.75844254017104262
-2.72502798774088761
-3.24300807470666097
-3.21730751897108114
-3.18752932524256893
-3.15511458531875144
-3.12561193109279634
-3.61859049034032765
-3.5972418141788931
-3.57368283200518189
-3.54858176884644871
-3.52368613881356385
-3.99948284979191948
-3.98105854754425792
-3.96123523152065316
-3.9405523179856532
-3.92057401758070556
-4.38587958390869748
-4.36965633146270704
-4.3525746787845172
-4.33566894913325296
-4.32065233732021792
-4.77854467840552388
-4.76389329599187761
-4.74846483528186702
-4.73350983608507825
-4.72123363939574059
-5.17740802861302463
-5.16357158384169157
-5.14860415271061989
-5.13353724022148139
-5.1203687623904468
-5.58233355804836506
-5.56924771635663607
-5.55442512406118638
-5.53825838951389304
-5.5218039105288792
-5.99319198583006241
-5.98128978235495712
-5.96711812145824183
-5.95046402313231138
-5.93124738410926788
-6.42358236696206664
-6.41735575428094407
-6.40939256732992657
-6.3993575927219446
-6.38683531765871848
-6.37131167050144853
-6.35222479627439451
-6.83953075799611732
-6.83549767365078864
-6.82998917274144635
-6.82260228357681875
-6.81282192980198875
-6.80001305638280673
-6.78362099348474334
-7.25804903245365107
-7.25671642683612994
-7.25429867657999949
-7.25038439985996153
-7.24443445340489323
-7.23581335507673895
-7.22393172247865145
-7.67826700409929241
-7.68010856422550336
-7.68136902628930773
-7.68166871373518401
-7.68053394246367649
-7.67738679936942336
-7.67159333168804736
-1.48229146926473221
-1.23563854904135262
-1.92131236258305238
-1.9061838211470894
-2.52497443233803542
-2.46141664065351584
-2.39174705195247927
-2.34222317987470685
-2.29129291304110838
-2.87946496059797141
-2.85038106990059426
-2.80379177059299023
-2.75176039074372714
-2.70559653272249578
-3.24260804934944824
-3.21705396946204436
-3.18662273580400734
-3.15126588029415577
-3.11587852766622486
-3.61851008487859493
-3.59697833944418299
-3.5729253076029428
-3.54659554684097644
-3.51965729631304836
-3.99935140555819135
-3.98098886326873691
-3.96086638003463243
-3.93959955840272125
-3.91889042537309162
-4.38605092976754651
-4.36971699595518004
-4.35240813976126351
-4.33517286505387656
-4.3198291156510864
-4.77893703888226362
-4.76419600594027237
-4.74861800387921118
-4.73340547762578101
-4.72074860059187973
-5.17803312519813819
-5.16418846632885931
-5.14917037088352902
-5.13389635425393021
-5.12021369101418422
-5.58315453556188057
-5.57013482251500136
-5.55532407689369645
-5.53900492848948023
-5.5220113930361725
-5.99411778491074987
-5.98232237980885628
-5.96822651858381281
-5.95153053408198929
-5.9319783880063186
-6.42432843063874515
-6.41817432877640748
-6.41032804644617471
-6.40044039972422318
-6.38806425981071335
-6.37261924417786396
-6.35340831184469845
-6.84020845490560969
-6.83626631449274491
-6.83089176480725957
-6.82367770418539177
-6.81409614831113064
-6.8014729220026382
-6.78507962062681269
-7.25867822564862841
-7.25744101843803513
-7.25515945123829908
-7.25142319383070166
-7.24568223100127895
-7.23723341501793271
-7.22564548905276904
-7.67886435847443316
-7.68079856235947478
-7.6821917416246368
-7.68267006269767183
-7.6817595155468501
-7.67886092114039975
-7.67338979063118032
-1.34703654714397958
-0.963636624977597833
-1.91968090326286744
-1.87994931575000868
-2.55576151725751188
-2.50827528749530693
-2.42846152334931631
-2.35252790106391174
-2.28809894790975799
-2.89081441972531472
-2.86367380819095674
-2.82259987279252922
-2.76072352363559448
-2.70074513927223769
-3.246709730596407
-3.22303484750003388
-3.19223951120097205
-3.15403720648697039
-3.11360676070415643
-3.61942678044003996
-3.59851300367157512
-3.5745173122133771
-3.54733492527238159
-3.51861523797386777
-3.99972752224747552
-3.98156388450535381
-3.96141890684581677
-3.94002458021234325
-3.91889183257555507
-4.38645922136168842
-4.37022766050148714
-4.35291609897709364
-4.33559128628467949
-4.32013262348954452
-4.77952226057418272
-4.76483091426667471
-4.74928012598939198
-4.73402992800567635
-4.72119531831819828
-5.17887764004425399
-5.16515175842928276
-5.1502611253720616
-5.13504577696159004
-5.12119868885375951
-5.58421150536751654
-5.57138648446228757
-5.55680616603071353
-5.54070324694405514
-5.52377948588125722
-5.99529319667797367
-5.98374521358799871
-5.96996234021726657
-5.95363580863210906
-5.93448778839949487
-6.42520275600527846
-6.41917483572644176
-6.41152793780584229
-6.40191840867498829
-6.3899021501323956
-6.37490098878289757
-6.35620912622825074
-6.84102967465371581
-6.83722690420958834
-6.83206008445039892
-6.825132907308185
-6.81592493958543066
-6.80376857603106533
-6.78788166504013901
-7.25944658055967285
-7.25834758992976248
-7.25626706652564923
-7.25280848630720865
-7.24743937737586563
-7.2394928083994543
-7.2282837110951057
-7.67957215163010076
-7.68163441649310297
-7.68321447178435957
-7.68395330877698157
-7.68338961699778888
-7.68093715155823364
-7.67594876740973753
-1.241585283212431
-1.06191766090936035
-1.94318991417664022
-1.90409790249672684
-2.56588371656933667
-2.54216232217216609
-2.47937445778327481
-2.3834483283286354
-2.29690460152685194
-2.89703241253041766
-2.8783080027602117
-2.84713314493434488
-2.78383001887710613
-2.70895386628226387
-3.25048683719647968
-3.22960729086549003
-3.20117824715580346
-3.16345347687291012
-3.11890232084483898
-3.62072982168449586
-3.60080917557432301
-3.57768869491225061
-3.55144952011570902
-3.52215197489443277
-4.00011910810841087
-3.98238028382986009
-3.96264069936094687
-3.94174919839952409
-3.92090672547814334
-4.38687589617189033
-4.37096144156930855
-4.35390461644481341
-4.33682198446103939
-4.32149809490028058
-4.78017543596097916
-4.7657013309209697
-4.75038041658452048
-4.73532035477974311
-4.72246984838990613
-5.17986992691968684
-5.16640938830054353
-5.15183915441843343
-5.13694349045877008
-5.12326526304508345
-5.58546748177368091
-5.57298157093403557
-5.55885668115722087
-5.54332808895537887
-5.52704571528385813
-5.99670073879936538
-5.98554898735301055
-5.97232131264884458
-5.95676601816307461
-5.9386871699084498
-6.4261746419973349
-6.42033432078216926
-6.4129756028960383
-6.40378207670780686
-6.3923491912234951
-6.37816122365923555
-6.36061058662410961
-6.84196450933442613
-6.83835284145679356
-6.8334702391761537
-6.8269467644917663
-6.81829956645255031
-6.80690511018277
-6.79202211760842633
-7.26032505207576229
-7.25940661237447671
-7.25759018939735334
-7.25450302597563823
-7.24965217085226232
-7.24239509207282239
-7.23199716229838074
-7.6803741367443088
-7.68259650321257936
-7.68441255003377766
-7.68548894240291069
-7.68537854015625665
-7.68352537236885968
-7.67926589846073249
-1.26496402517573259
-1.17309353393098181
-2.09262551488519666
-2.10526266047670507
-2.56440808378556939
-2.56471552999221997
-2.53044121732082417
-2.45941939284873667
-2.34224670367128773
-2.90125104378683574
-2.88978853865804419
-2.86850890254701252
-2.82143866022098333
-2.75050150401012861
-3.25340184632882989
-3.23606678656160307
-3.21144606485537221
-3.17828127329989751
-3.13656964641255298
-3.62157398367301742
-3.60388972643091687
-3.58247826839365668
-3.55830198407865872
-3.53074639853568684
-4.00013689937250039
-3.98335995184787306
-3.96449669265958526
-3.94455622149997343
-3.924622912878593
-4.38710386717765211
-4.37171022011277532
-4.3551740912911665
-4.33862002920542267
-4.32361996404194038
-4.78077331347025858
-4.76667369334973312
-4.75177448423831272
-4.73709004002163869
-4.72435422325219179
-5.18090282379197742
-5.16783869814962404
-5.15376571318265508
-5.13941706815465249
-5.12617895496308762
-5.58684309713948934
-5.57482880022360128
-5.56135259198640242
-5.54668019161474302
-5.53145929737342179
-5.99827811122832344
-5.98765365099828806
-5.9751807119551108
-5.96070280931016594
-5.94416076825086126
-6.42719877837051623
-6.42160549565700745
-6.41461642817965938
-6.4059598656307033
-6.39529773514574806
-6.38221699184040858
-6.36626079474522921
-6.8429743795050797
-6.83960186743873599
-6.83507231428763795
-6.8290565278140134
-6.82112835763535674
-6.81074603700612879
-6.79726482674613663
-7.26128198679751069
-7.2605814283605401
-7.25908425290526438
-7.25645261450313495
-7.25224004852625459
-7.2458536320474316
-7.23655984195297108
-7.68124736646391337
-7.68365599943413802
-7.68574716966303306
-7.68721752897327715
-7.68765336647763231
-7.68653268478820006
-7.6832018016137491
-1.32100758444658561
0.842416155950161283
-2.35964666087730945
-2.49561307459129367
-2.57520678565597017
-2.59636227957082655
-2.57959481366242338
-2.53360853771689598
-2.45937723616582105
-2.9065109391996069
-2.90567008440456975
-2.8923494239702876
-2.8630553563639447
-2.80168805002354748
-3.2525694805231149
-3.23989540609442095
-3.22100052386417346
-3.19394409114804123
-3.16009559434362686
-3.62078720620269312
-3.60529717469651922
-3.58672537134214942
-3.56439220456802497
-3.53899892318052744
-3.99908082050709046
-3.98350200148578004
-3.96608988752689928
-3.94738826446581959
-3.92825096044813904
-4.3867143165512541
-4.3720050812558533
-4.35631865877207858
-4.34049716342686942
-4.32586727395425452
-4.78113807634218535
-4.76751719826711806
-4.75320036226906506
-4.73905700618702586
-4.72656161943091657
-5.18187653616084543
-5.16930474725938538
-5.15586367708038917
-5.14222841922267815
-5.12962444052246713
-5.58825418196218227
-5.57680445762547716
-5.56410594014356885
-5.55046799377662392
-5.5365558108292543
-5.99994526707053666
-5.98993979103039376
-5.97835238574768191
-5.965137456287815
-5.95038847772335711
-6.42823364421866117
-6.42293397778589803
-6.41637478595726396
-6.40834029747695144
-6.3985735836246338
-6.38678072256055707
-6.37267563457641195
-6.84401932422226089
-6.84092330048761355
-6.83679784897839493
-6.83136378483636975
-6.82426444606554305
-6.81505676943016159
-6.80322383653933294
-7.26228288290978163
-7.26182819461721074
-7.26069032203576281
-7.25857308300977788
-7.25508481433391594
-7.24971470111925065
-7.24182966349099022
-7.68216436985104956
-7.68477742485275428
-7.68717055587985421
-7.68907532044173525
-7.69012287923753846
-7.68982985223548354
-7.68760163428458743
19.1790006105052271
7.68943476980817309
2.62220953314258054
2.93496479227649587
-0.480339157607364342
-0.12211829206559166
1.53453721207414162
-1.09552697654802178
-0.837329209142375852
-0.536785084625261533
0.210481752912727416
6.41357739420044481
6.41310262031923628
1.26953216374333522
2.74437852862246245
-0.113039279563944106
-0.365096602886278987
0.540030742607566339
-1.15488330351611901
-0.740530821812756201
-0.777249513578965434
-0.380482388609857836
16.1325380146517432
13.5527862850361061
6.98103493884738668
6.22061971440308525
0.663720741166457628
1.05980579907910766
1.08601984929404694
-1.04111306179641616
-0.358833486754917885
-0.317802532105217139
-0.228308604735805609
11.9842425671110604
12.9232045352842988
7.46316478339571177
6.9087808019401109
4.20183198354267518
3.40500241165790385
2.61296061449387906
0.99330796478641048
1.41414055627657831
0.811699979842472885
0.473220628823278311
5.65997864143711027
6.28617718357984145
2.6372368390708516
3.51925044072181947
1.81194442731057137
0.827327206599889564
1.40417224962244802
1.58578486045798428
0.495149517413807416
-0.383778079883256851
-0.183578410486649801
1.7706754535167839
2.76488270613667275
-0.63907976401712574
0.402581083308598764
-0.235370325856674611
-1.16158154202298114
-0.391817259706732202
0.0182314159146592658
-0.95096730131517937
-1.04800474276978228
-0.609431768718469158
3.76031369069973209
5.67927992588233721
0.933108061004542577
1.55067716011570056
-1.56532103259232969
-1.79383670259563566
-1.37760747866193967
-7.02632378726536544
-4.47597051793153078
-3.56044002920722757
-3.22828553416792374
1.04501324747963054
-1.95977268939304849
-13.9698413071007508
-15.8592601871231977
-41.4010048553861338
-34.0210063305357266
-36.1217729853627532
-42.0805354753596248
-51.3632575365534763
-44.7212464923137958
-41.7462118938749711
-1.39403727361687668
-1.29605625809074287
-1.18516447878782305
-1.0306949264243066
-1.94561208938451724
-1.91692090513669755
-1.86842122681892642
-1.79974891601011189
-2.34663587521718187
-2.31704994017705346
-2.29060499775897597
-2.26543274782618642
-2.76574767643677966
-2.7352527254021588
-2.69758031855992231
-2.66096472011575358
-3.14942837084831195
-3.12884189548964065
-3.09817216885599711
-3.05316840995112138
-3.52958187556301484
-3.51361655082881619
-3.48550268124571083
-3.44923274356691412
-3.91648408865451358
-3.90921758036454969
-3.8957377546422447
-3.87573663669463109
-4.31814014371734878
-4.31651470313557262
-4.31925248576222653
-4.32652618870406247
-4.72172608178035258
-4.72819939046715909
-4.74567523929682267
-4.7783600313558523
-5.11769142008904865
-5.12301054777417786
-5.14594898402743528
-5.19385989275141124
-5.51281526566166935
-5.50994203144309669
-5.52226035833726137
-5.55972872513977467
-5.91583333315822291
-5.90308360574749802
-5.89698639840045846
-5.90500020158717565
-6.3333336142081027