/*--------------------------------*- C++ -*----------------------------------*\
| =========                 |                                                 |
| \\      /  F ield         | OpenFOAM: The Open Source CFD Toolbox           |
|  \\    /   O peration     | Version:  2206                                  |
|   \\  /    A nd           | Website:  www.openfoam.com                      |
|    \\/     M anipulation  |                                                 |
\*---------------------------------------------------------------------------*/
FoamFile
{
    version     2.0;
    format      ascii;
    arch        "LSB;label=32;scalar=64";
    class       volScalarField;
    location    "0.840000000000000524";
    object      rAU;
}
// * * * * * * * * * * * * * * * * * * * * * * * * * * * * * * * * * * * * * //

dimensions      [-1 3 1 0 0 0 0];

internalField   nonuniform List<scalar> 
7248
(
0.00184764738468349492
0.000231067754114982349
0.0105024538472518764
0.00890206285661971838
0.01955353175396711
0.0184196673935198077
0.0156741530641518155
0.0129844188493614052
0.0121649235948799641
0.0174782488998533464
0.0162728091730005679
0.015304980518809113
0.0144011580105945242
0.0129331807784804943
0.0187309274797372999
0.0180186884635385736
0.0170685613695491685
0.0161410486190905408
0.0154354311504695339
0.0190738687035698073
0.0186058814196772768
0.0178676962148712412
0.0171221429758960167
0.0164494650022123205
0.019320475947810372
0.0187556604999411687
0.0180641106374457086
0.0173745798022071248
0.0167046022738383225
0.0195884463370955657
0.0189959285978041972
0.018354443593318448
0.0176920775277114445
0.0170209097508244658
0.0198295804701054297
0.0192928633598207361
0.0187111465064212605
0.0180930531935974276
0.0174353792194699604
0.0202270635133371159
0.0197328651000286924
0.019202274840262757
0.0186310827313793011
0.018006421136423291
0.0207133394801496742
0.0202759696420741521
0.0198118067231969411
0.0193125474929539721
0.0187634961396722574
0.0212578068812231367
0.0208847684380229492
0.0204994820133390689
0.0200964627975164685
0.0196652225598499437
0.0224516500148450072
0.0221378925565294607
0.0218263613564494939
0.0215186354013688942
0.021216276837625201
0.020919703565873464
0.0206266557779946
0.0229287575003876976
0.0226537297488490497
0.0223874805137766336
0.0221352642544388398
0.0219031229856466378
0.0216980398308893804
0.0215273782441310103
0.0233986023563948001
0.0231524602748751883
0.0229175659959077009
0.0227013482163473217
0.0225127314205703644
0.0223628911383683925
0.0222660899227472633
0.0180786451724550476
0.017740570209825151
0.017420369447382629
0.017128551122404783
0.0168774731013830101
0.0166825365527584688
0.0165613104235905056
0.00172541366628190928
0.000210380973214165101
0.0121703973068023122
0.0100350466750958704
0.0181410620629543079
0.0157982729376622902
0.014926114784907029
0.0147429098146839126
0.0134926295160253239
0.0176027541558230194
0.0165046560294189563
0.0154585399574903234
0.0147529562503193878
0.0138319917571080673
0.0189976671383930221
0.0180404819747398588
0.017090424079388742
0.0162530746194501224
0.0155521676553923016
0.0197325895260017439
0.0189758314072940512
0.0179964380429329281
0.0170762038685385378
0.0163519385314279501
0.0196641913701029181
0.0189738439400996238
0.018174797650391393
0.0173472599960465546
0.0166461190072936596
0.0197925453672448022
0.0190716516113598467
0.0183452171173942753
0.0176526795935187664
0.0169889685194714278
0.0198408252656221383
0.0192716196286844485
0.0186704216312811762
0.0180461699346490846
0.0173943292657429485
0.0202151428487347233
0.0197000425859255868
0.0191492168098369511
0.018562799563389857
0.0179309338467541941
0.0206715698604603773
0.0202127134138980584
0.0197254485058749908
0.0192029855172161576
0.0186312626793873615
0.0211963393739137106
0.0208007681351033112
0.0203878630513110379
0.0199516065729758857
0.0194809632826068342
0.0217544499712331585
0.0214227811345424277
0.0210897492085918674
0.0207541689681044819
0.0204122405859223192
0.022311804907812767
0.0220365375807421542
0.021774292257664158
0.0215303221892759085
0.021310281074272068
0.022844947696810794
0.0226085686781840843
0.0223931562401916556
0.0222084873471869206
0.0220668758725203994
0.0173321371210937054
0.0170217930534619921
0.0167448076630220058
0.0165143458021545231
0.0163475606469061542
0.00172211408472292124
0.000195478712668490967
0.0128817990270795376
0.0107655994758091844
0.016755906019829344
0.0141397237909817695
0.0147215781610425551
0.0149116968116230156
0.0136746565143704198
0.0174890371219265754
0.0166813534950823739
0.0156380572137703941
0.014929230714441669
0.0146594839059438469
0.0188125320229655807
0.0177839621750175703
0.0168689029665827668
0.0161278751666366071
0.0155267182662167224
0.0201212352363744455
0.0190872995820325631
0.0179975366988127106
0.0170280445174836731
0.0162795540763915024
0.0196249514662688619
0.0189217063412849378
0.0181820184455345098
0.0173258616154183774
0.0166126290443127378
0.0197162352360649926
0.0189973994638908336
0.0182793721557947784
0.0175996933951921494
0.016957589605408805
0.0198334613516923663
0.0192483867432672803
0.0186410726760396842
0.0180189147620142404
0.017378584432720761
0.0202030023697613616
0.0196740774122019027
0.0191133626753151875
0.0185224112715932816
0.0178936438902635997
0.020641081476072267
0.0201685957424713388
0.0196678629613670185
0.019133713545071613
0.0185535218787295821
0.0211530376211679985
0.0207417192230719589
0.0203106554716369417
0.0198541937123229185
0.0193617556192541042
0.0217010210736686276
0.021352003348277554
0.0209975436554005676
0.0206360283575387979
0.0202635376987402686
0.0222526039898549612
0.0219600687531510512
0.0216757421559285422
0.0214042269415171439
0.0211509130287200232
0.022784946432515548
0.022532566236721948
0.0222962924420600228
0.0220851598802397214
0.0219110033745657275
0.0172521415002930209
0.0169257259300683444
0.0166265600947719076
0.0163664028138112358
0.0161604450460479908
0.0016452638643228404
0.00018758073496867719
0.0132083272830059231
0.0112235010567318435
0.0166351531294673706
0.0149245867652344592
0.0145356921154824702
0.0143915087420882423
0.0133452789854894109
0.0161818698993813626
0.0161667142853092888
0.0156374073026196124
0.0149088369813807353
0.0146163939088539106
0.018508280891583774
0.0175286902057903461
0.0167204404109932356
0.0160545471326986079
0.0155010625443286875
0.0202419580109641645
0.0190599801170659583
0.0179326642466227197
0.0169786071886221628
0.0162268531150857077
0.0196475493951115618
0.0188325138150762413
0.0180184157036264898
0.0172211280604528602
0.0165483641572370319
0.0196316105703947842
0.0189050899897203299
0.0182033146637131313
0.0175518492011623138
0.0169394831327408374
0.019827164565379727
0.019235606438964728
0.0186301532773150216
0.0180147118263330394
0.0173869076270299974
0.0201886317273506886
0.0196552321820543316
0.0190933184862661018
0.0185063887850203009
0.0178881095131878907
0.0206227055174396864
0.0201448395216683555
0.0196394348904554497
0.01910295655586201
0.0185242336020938689
0.0211287117331878695
0.0207079744751782584
0.020266885134656798
0.0198008371024921241
0.0193000890225198535
0.0216672386699673161
0.0213070810621286653
0.0209395532570713604
0.0205633446327363884
0.0201752127389280972
0.0222116392247097248
0.0219071577504416012
0.0216081642320340162
0.0213193024247297948
0.0210467684288295105
0.0227393712060164274
0.0224751028263661876
0.0222237392428890554
0.0219942304185099802
0.0217990957546683357
0.017182777146301495
0.0168431410401465725
0.0165258935095633323
0.0162418981853132277
0.0160051890391378938
0.0014731688724616515
0.00017920956813555474
0.0133414096794414565
0.0118832147192763429
0.0174014964758078296
0.0165718897238635796
0.015956370801969464
0.0145802207423492373
0.0132652663272833198
0.0164333308121639605
0.0158747603377234585
0.0154735220303063893
0.0149660830930966951
0.0145956561324011806
0.0182541244799527165
0.0173622121926915625
0.0166439811380859441
0.0160760186560292839
0.0155405129886888576
0.0192799198590718444
0.0184339691562811943
0.0175863816048668596
0.0167884711596798172
0.0161070873509802266
0.0192672727565703708
0.0185270553866441583
0.0177772538720466604
0.0170894799051471806
0.0164885978568331294
0.0194477821974543066
0.0187935318675960597
0.0181519637371764762
0.0175425433200551359
0.0169567110205372136
0.0197936036657911235
0.0192160701366061344
0.0186239379075405949
0.0180222709532514291
0.0174111146289851748
0.0201717238008225497
0.0196450051524122496
0.0190920930920383362
0.0185172402208274821
0.0179144524663195914
0.0206229609307630804
0.0201448048146188642
0.0196403978383122325
0.0191076474744881833
0.0185367921961227672
0.0211243314787456782
0.0206996804591429266
0.0202554010381368332
0.0197880387440469152
0.0192887799033540815
0.0216544519476819936
0.0212885396707208005
0.0209149261181907319
0.0205329663359893402
0.0201401601242325277
0.0221899567506846432
0.0218783300808590743
0.0215711118322729836
0.021273293443215515
0.0209919434500561337
0.0227093256269691769
0.0224371232738291258
0.0221759783064361636
0.0219349531764814303
0.0217272146951581792
0.0171260830123734879
0.0167762072842531362
0.0164450390783547791
0.0161429447467739996
0.0158835327133978049
0.00147146284015298428
0.000182994877417012652
0.0121383380515260059
0.0116412026620173123
0.015950244817574788
0.0154714121000894336
0.0148923282113645594
0.0142903919882020752
0.0132809804133973263
0.0161274330980060061
0.0159121200154787069
0.015301500222437335
0.0146384275364056567
0.0143624743913319981
0.0174607335058402958
0.0168009578639274001
0.0161622077815718607
0.0156853272196626724
0.0152409418197171145
0.0184407588282799531
0.0176964342975898352
0.0170554145391435957
0.0164502129720566666
0.0159285375187914954
0.0188257291534528678
0.0181924208497209368
0.0175769433922133601
0.0169991906505658347
0.0164712055455598361
0.0193339267471986098
0.0187452370211429499
0.0181474449095206727
0.0175650794531969773
0.0169956161164120448
0.0197700449154071638
0.0192099626443397349
0.0186329027501745334
0.0180490022088691353
0.0174565547504170852
0.0201813171450597566
0.0196635480829181371
0.0191215436881110173
0.0185599897818705811
0.017972136641605737
0.0206460327575723711
0.0201704537986813759
0.0196707448504223961
0.019146021206889418
0.0185874540244705191
0.0211424987618610526
0.0207181419646171039
0.0202760734271670989
0.0198138121575061367
0.0193236031751921576
0.0216636896250415149
0.0212964509439019581
0.0209225561708529656
0.020542155268187378
0.0201536266708619224
0.0221881065063995707
0.0218736090456405768
0.0215637302072024702
0.0212638903311839732
0.0209820178859982387
0.0226955715899871957
0.0224191150120830671
0.0221529483169003866
0.021906253324591108
0.0216927107860567341
0.017083715426016062
0.0167265498804263779
0.0163854767803587736
0.0160705393056812737
0.0157950351093457224
0.00157496866690746973
0.000191195720611234897
0.011445521015808216
0.0110814480088895773
0.0117403000684456749
0.0121873221156456428
0.0128867468168256012
0.0132621428416522056
0.0130412832016586766
0.0125466775637008976
0.0135560265733486972
0.0144056644933079764
0.0144830885934958027
0.0143791943789694995
0.0148164834803287734
0.0159163503552289393
0.0157416436003473166
0.0154539460893734128
0.0151469420680363474
0.0176697551845439831
0.0172362535481405121
0.0167956931352586485
0.0163305206125720602
0.0159121304472717544
0.0186420599630241456
0.0181187507872451331
0.0175667808711784945
0.0170393938327528215
0.0165420671197181145
0.0193343832073354059
0.0187681668661066475
0.018190562772919458
0.0176229284486322801
0.017065617107116484
0.0197932338422029258
0.0192463277549496346
0.0186840874699003012
0.0181151256081668356
0.0175379128149261328
0.0202343031535678029
0.0197210623931281977
0.0191862440617251995
0.0186352418074730922
0.0180614469013010391
0.0206972575405916168
0.0202242615571705149
0.0197310767387573437
0.0192171306381246493
0.0186740161503809003
0.0211854457739925443
0.0207641354352473412
0.0203280392167147911
0.0198753620754653117
0.0193990188003907126
0.0216953867069673532
0.0213303825036576279
0.0209609369653493589
0.0205876768083974142
0.0202091467967378223
0.0222061437556732473
0.0218926510759658646
0.021584990961437546
0.0212887324835266505
0.0210114803206135209
0.022698466212306926
0.0224212168353128023
0.022154421037436263
0.0219071723414912128
0.0216925957294717836
0.0170569725317330848
0.0166953702829963357
0.0163482198769361077
0.0160252723163059191
0.015739301669871638
0.00177649475743233494
0.000201970650176277908
0.0111112612028597471
0.0108296849711423723
0.0134310151767896308
0.0119195268053571661
0.0110535389940064153
0.0115646977735005454
0.012415582785874249
0.0127193162922890311
0.0119296245270811632
0.0119690465169493415
0.0128438331636682532
0.0142180107631102448
0.0129143247596285905
0.0133165420687726046
0.0143616968341441463
0.0153265708458472476
0.0154421900994108074
0.0151559497496542538
0.0165641434752214316
0.0168361233227559449
0.016633704438670769
0.0162110080996383105
0.0185563789213153765
0.0183719745909557593
0.017854762979732805
0.0172641614677638902
0.0167006085472089887
0.0195721845822487694
0.018953261351310223
0.018320504427291634
0.0177218147314718646
0.0171608970370557071
0.0199051990952483354
0.0193297988585984341
0.0187670053527054376
0.0182068973899919065
0.0176412595788039972
0.0203084734027626466
0.0197991187279762983
0.0192708104301516324
0.0187282921836608093
0.0181668424160463041
0.0207631182291149671
0.0202922494475703021
0.0198058013179282025
0.0193042171504728688
0.0187791284839225782
0.0212347327167736501
0.0208187328453497515
0.020392648143057638
0.0199546145242544271
0.0194977955712352727
0.0217295649829574236
0.0213709403350288152
0.0210111362799433633
0.020651308851721846
0.0202900463055773785
0.0222237424940934063
0.0219154757048780693
0.0216154458486664293
0.0213293969076371707
0.0210642265306959682
0.0226973373447123747
0.0224232086456467999
0.0221607251619348952
0.0219189621827024818
0.0217103883404241339
0.01703518439788268
0.0166724083957095308
0.0163233989826916705
0.0159977030842881063
0.0157076476098515251
0.00722598713676081937
0.00625111807387387398
0.0135507130029744651
0.0138681942722515376
0.0223428771703838014
0.0221320107302376869
0.0202379303838621724
0.0181461486269024683
0.0167966312858108049
0.0191932251968830458
0.0196310861526456278
0.0195417393636930295
0.0199314819360228886
0.0206355887534441056
0.0178311206044002961
0.0178475738617083941
0.0179147261724550803
0.0181740716010688821
0.0184875634922488513
0.0193567149071016444
0.0191816947865616899
0.0188737505993961767
0.0186095114630249955
0.0182455984897255674
0.0194814930709332895
0.0191042474425480169
0.0187303705294884042
0.0184187544070466801
0.0179813220991511639
0.0197810783234120165
0.019394345761934044
0.0189956257671008988
0.0185763186134352137
0.0180394543239590609
0.0202712069931889095
0.0198747671428067367
0.0194573809247221424
0.0190225463610111285
0.01853379546564159
0.0208288913861140977
0.0205204144850484327
0.020249077985520305
0.0200256216633185082
0.0197999966001623125
0.0214786741929337034
0.02129935013480138
0.0212022785005123032
0.0211824696514973619
0.0211951057648733544
0.022175250376774501
0.0221005259797500027
0.0221141901227809197
0.0222237771099951555
0.0219334547941882792
0.0231134889128037646
0.0229358833277141655
0.0228204633094261783
0.0227800987850006152
0.0228341966487461447
0.022774072504179458
0.0222121496670873823
0.0235616392870639686
0.023392800004637837
0.0232819057781360993
0.0232476069987967264
0.0233170797342191899
0.0231521284840807001
0.0226283351124891632
0.0238954204778313063
0.0237317657510704404
0.0236187087276598338
0.0235740338547906665
0.0235940182163208896
0.0234669138528348781
0.0231798772405540678
0.0185942278003712567
0.0183026339171389468
0.0180595805077440746
0.0178832455087395148
0.0177882025945668744
0.0177632095853231253
0.0178454198317470475
0.0120626661918679431
0.00953629410005083812
0.0168929291310907503
0.0162843702676064746
0.0161080757761616865
0.0176842550528178641
0.0188522839153400512
0.0194026023547520694
0.0194864411212698103
0.0162912424326149656
0.0163723289077884818
0.0163240065871226581
0.016447740005134024
0.0167438587352426553
0.0171492345590535632
0.0167593430780585348
0.016354433752817317
0.0160787679702858177
0.0158856820558002897
0.0182937261177570608
0.0179278863791896524
0.017548921092239874
0.0171120479133923253
0.0164926267709009991
0.0189049233311543302
0.0184905596234524669
0.0180521183108889385
0.0175388966988534317
0.0168767000118214168
0.0194219277286383357
0.0190259128933088842
0.01858452190188737
0.0180726549774857179
0.017469361380970036
0.0199932682466785333
0.019608212049162764
0.0191892612419559128
0.0187243553077988401
0.018217444926044473
0.0206051976757658691
0.0202701370061783258
0.0199273036677827184
0.0195908803557021671
0.0192977394831056366
0.0212509126933487849
0.0210037799993940191
0.0208038354486341504
0.0206874076533491887
0.020705804483945392
0.0219085332494630691
0.0217675620802632551
0.0217181176997838891
0.0218032227483512149
0.0215285228199063525
0.0228771459927339556
0.0226779859825686388
0.0225371949588749169
0.0224740892868081216
0.0225182035541822423
0.0224972715993232639
0.0219751596956911203
0.023354094853049668
0.0231862759700456056
0.023075933692546919
0.0230434099141635408
0.0231184879162341546
0.0229748563814158174
0.0224758491891052063
0.0237762263208598675
0.0236144282134459239
0.0235020983549815883
0.0234584132375300139
0.0234830534121856643
0.0233644780331879638
0.0230833051792660449
0.0185040307551914314
0.0182178344584926107
0.0179800509260018802
0.0178096522739028019
0.0177218824224584758
0.0177060572913160866
0.0177992950434075238
0.0112920302851047694
0.00806780618490193085
0.0167786210431029557
0.0159172285599926688
0.0156259073037696636
0.01493229970897887
0.0170868955241649766
0.0195602794232489045
0.0212086582047333501
0.0164653538913408747
0.0162480679682881664
0.0161297248923607216
0.0160659024023852501
0.0161500652445545345
0.0176933747980592485
0.0172516705886880083
0.0165969689627513683
0.0160978901006060202
0.0157518942631623832
0.0185299054447701193
0.018035288259109182
0.0175589072040642467
0.0170866691154308407
0.0165750858566434227
0.0189302453146014023
0.0185229738018863679
0.0180786224337930318
0.0175642389192083442
0.0169643390756107973
0.0194114779951015982
0.0190093707159540541
0.0185595533593067678
0.0180424518886540854
0.0174519583015335586
0.0199533756630040533
0.0195660922320653324
0.0191510917736356888
0.0186975041237336
0.018193258390232836
0.0205664276599697854
0.0202379593636409887
0.0199049489321237762
0.0195680901374425432
0.0192435987718363385
0.0212091030436918904
0.0209594648688309557
0.0207470057353408843
0.0205961669588449608
0.020555736597687068
0.0218558309298526286
0.0216954546328249863
0.0216107893857439559
0.0216429716895410462
0.0213150764513701102
0.0228330391905649313
0.0226241873259863495
0.0224656696854033423
0.0223749799884579229
0.0223798752279761766
0.0223445129649553001
0.0218070255059849109
0.0233067929312841086
0.0231276424349608212
0.0230000754826583317
0.0229432877607718931
0.022985651958616099
0.0228366139158010899
0.0223323230973540947
0.0237368490310506178
0.0235663282661965276
0.0234411214726096238
0.0233794070501787271
0.023398098556051454
0.0232725349287267284
0.0229632985907349541
0.0184664642536977001
0.0181763273381653281
0.0179321804316777793
0.0177525603624265685
0.0176558925829520715
0.0176287431645787834
0.0177030976867519826
0.00829307912013498016
0.00222790752207460696
0.0174840186513600601
0.0146878928763313193
0.0165638356410814647
0.0143685141238678645
0.0149281468255016373
0.0167503633370115826
0.018071659258706841
0.0167147407330626857
0.0163033407749276563
0.0158488906490469941
0.015548259392631535
0.0155421698978051338
0.0177658064422228194
0.0172416775659253486
0.0165652699632767055
0.0160708836421355264
0.0157387840618657335
0.018655520105173462
0.0181418125334498401
0.0176471497446293556
0.017172789572972625
0.0166858448734626998
0.0190140486843265108
0.0186192918876762377
0.0181668420027171901
0.0176454382842408455
0.0170408495677980866
0.0194095768488292547
0.0189940154360258642
0.0185298453289506962
0.0179949806102060704
0.0173894675585123427
0.0199054302110285124
0.0194992114582310666
0.0190626834597682412
0.0185873954869718271
0.0180590184541290603
0.0204933369288170693
0.0201457775074783858
0.0197899166294136855
0.0194227913995419638
0.019044882210838391
0.0211177530218190808
0.0208449092951695641
0.0205995731631515473
0.0203969099448585399
0.0202669312732165034
0.02175551791037229
0.0215654362415117692
0.0214361924621392988
0.0213994830898144653
0.0211010900011682767
0.022765246649833034
0.0225421220322113182
0.0223614019262132098
0.022238154257660403
0.0221960125837220128
0.0221847549770349817
0.0216707518972582801
0.0232439249874533752
0.0230509895626639788
0.0229029242331845427
0.0228169385937363051
0.0228180658517142601
0.0226853494626697121
0.0221951873505245208
0.023685360453710478
0.0235042321448879904
0.0233634537563856964
0.0232797180922975425
0.0232764486246971949
0.023151103539117434
0.0228370919705598238
0.0184152566333713741
0.0181197350488809285
0.017866816429739845
0.0176742586230858416
0.0175651731485090452
0.0175217707038791901
0.0175664007887521983
0.00538508495489302495
0.00282566267120151716
0.0180153351788103488
0.0157797790404096833
0.0159979778279626464
0.0148538920358816627
0.0133858738699874861
0.0154776880303532354
0.016584390646394713
0.0166335777479058623
0.0163946222998955643
0.0158097808411906508
0.015433999284663184
0.0152694771813490556
0.0178806733056682786
0.0172230728573590473
0.0165269956491970252
0.0160158338777746934
0.0156913618292826816
0.0187683844468606933
0.0182411865431934064
0.0176794024614505864
0.0171381343300821658
0.0166261736986559744
0.0191140972588582751
0.0187241939063552791
0.0182570984963410059
0.0176878028871586927
0.0170335078785582156
0.0194192613426749268
0.0189872690554424711
0.0184932084128735727
0.017918165783142731
0.017280621102640812
0.019870622442432543
0.0194406494144077728
0.0189719176388959618
0.0184559152997852
0.0178819375615103179
0.0204203214277619838
0.0200442682828310854
0.0196500516228915491
0.0192304124789312095
0.0187770681772416424
0.0210199569866294129
0.0207133276106580382
0.0204195097486218891
0.0201447160254182474
0.0198999829613642314
0.0216437832099273392
0.0214156911339690795
0.0212304142429887779
0.0211080458757835314
0.0209173064297579064
0.0226939236595766411
0.0224532348731241276
0.022246150445139886
0.02208460114618227
0.0219866944490158533
0.0219807480987022283
0.0215460559489316777
0.0231768269734396667
0.0229679309479057757
0.0227963229489410307
0.0226765761805348583
0.0226294077987809414
0.0225366041235151304
0.0220944329563289542
0.0236285670457670356
0.023435117682546594
0.0232762324338070467
0.0231666298427784453
0.0231263762434189973
0.0230191792705996059
0.0227248223702198257
0.0183556142915402738
0.0180531143408531082
0.0177889223212186545
0.0175796206622796485
0.0174465149320835108
0.0173818426679155334
0.0173982277953556447
0.0070375289845225307
0.00527886350510515991
0.0147074762977971556
0.0129671955916262904
0.0182328657385982529
0.0175079557698935573
0.0145526150430242487
0.014120224777011017
0.0149594914402445701
0.0171812735635082682
0.016875474019634476
0.0153634673158112387
0.0147305666098443526
0.01474267022586624
0.0181528333970289828
0.0175969454617403466
0.0166159090321102883
0.0156495901890126195
0.0152966615703339793
0.0188423734187822198
0.0184020865535952684
0.0177531264427929387
0.0170124685753985302
0.0163860180246575282
0.0191959585992242665
0.0187957574134173799
0.018275014224565081
0.0176133728889674747
0.0169000909112158593
0.0194407204416481988
0.0189799060259108164
0.0184448263168441977
0.0178288683543957466
0.0171689047885171114
0.0198488244187732012
0.0193928602805416364
0.0188914182888043902
0.0183365259026572122
0.0177217830432281689
0.0203554207114525314
0.0199482796466618623
0.0195132937724834185
0.0190400805770930374
0.0185171625442712186
0.0209273820942035074
0.0205839376582824182
0.0202385483278236349
0.0198900806822685412
0.0195356102240486738
0.0215330788238147254
0.0212643277898117017
0.0210200946092980352
0.0208096323000003906
0.0206463203766133925
0.0226247698014151351
0.0223648720733918734
0.0221295714722134045
0.0219274061828600153
0.021770754228825042
0.0216774808270474573
0.0213779104253757554
0.0231093502290867676
0.0228832338506114591
0.022686487544874203
0.0225308275482242366
0.0224322252325034298
0.022402266314534458
0.0220427008283839432
0.0235691479496972708
0.0233622775470419611
0.0231837932924057293
0.0230463676027331046
0.0229666074562664899
0.0228890097056383586
0.0226328287320265858
0.0182898122265086338
0.0179790854112829059
0.0177017113033014692
0.0174727841315652777
0.0173114015187143429
0.0172228819062987988
0.017204907036215588
0.00789759527296970791
0.0040412415887777671
0.00771055046609967279
0.00918444268420934296
0.018437916698526801
0.0182249010939071511
0.0162091801349394382
0.0133702055104944154
0.0125615236803021772
0.0174323242820078328
0.0167802590013212613
0.015912302937366108
0.0139115271949116596
0.0132946710046003957
0.0181372594372740843
0.017797531146884895
0.0168024678559225669
0.0153494029019102442
0.014949632300243109
0.0187662301297684721
0.0185147107635944136
0.0178399198896880065
0.0170179512795446027
0.0162505948400235439
0.019237105293968073
0.01878338453519195
0.0182127717019711921
0.0174981530120527431
0.0167661783891718402
0.0194738225534164637
0.0189719126823153089
0.0184018185385280524
0.017761537461000395
0.0170909984597356172
0.0198339258639767466
0.0193504779282676967
0.0188201709129764971
0.0182358747913304482
0.0175942937307782474
0.0203000089501579155
0.0198617461203866585
0.0193893092224047096
0.0188722124203292464
0.0182983145870975368
0.0208435682074259686
0.0204644160845524406
0.020071434910948531
0.0196588364215520908
0.0192159576078278979
0.0214289052473913832
0.0211207030746200161
0.0208210783539371745
0.0205314766909834613
0.0202518081717473174
0.0225600382649735406
0.0222807190573941286
0.0220174369456711365
0.0217757261849828229
0.0215629988004536963
0.0213887734572640806
0.0212610727131571364
0.0230440096641035576
0.0228004623267353615
0.0225785545120747999
0.0223873941975388166
0.0222386901312328425
0.0221475547412448813
0.0219029167635048788
0.023509515245090231
0.0232888900738944873
0.0230904467966154825
0.0229247935922659643
0.0228054942916547862
0.0227506417659663722
0.0225448101988592817
0.018220136858709518
0.0179003974590677059
0.0176087394921459646
0.0173587312457174868
0.0171670291234571094
0.0170532924389471124
0.0169989772965530687
0.00359851287760883662
0.000365996599767256907
0.00864907236906161184
0.00800828615363485471
0.018239915818876639
0.0170108613644786993
0.016075633243370531
0.0130368354219582722
0.0116021243674604094
0.017221060753697004
0.0161664478808932061
0.015433429419835663
0.0140165697832833579
0.0126217313087705202
0.0182378144270939312
0.0178677605999723391
0.0169356695019775537
0.0160027871681304792
0.0153669980085378161
0.0188027850479875087
0.0185462018337166322
0.0179063098002790189
0.017092764009663218
0.016389750892426936
0.0192961216202619038
0.0187496134792662326
0.0181403944155693955
0.0174523981987508153
0.0167514403161732502
0.0195206126925770336
0.0189730889205096051
0.0183711916697032705
0.0177235469410957948
0.0170512133563814859
0.0198296311024662372
0.0193182726658938757
0.0187606998171269343
0.0181561923432394835
0.0175015362176479256
0.0202572910248273244
0.0197891039119595935
0.0192843257166032227
0.0187349687680869043
0.0181287031898594124
0.0207714565418926529
0.0203605210102539881
0.0199275035086039116
0.0194643186530041035
0.0189572372098984684
0.0213359574145586643
0.0209922638273415431
0.0206449027571746976
0.0202905967479122019
0.019921832310121998
0.0225018260236871485
0.0222042290952639311
0.0219150241726562729
0.0216374695643130714
0.0213753907707473489
0.0211325986958357734
0.0209113828566640653
0.0229831650090246246
0.0227230251073086177
0.0224775158374415397
0.0222535540456361529
0.0220595459999671749
0.0219055671870291638
0.021792143211151447
0.023451980402389775
0.0232180328276522137
0.0230004685540101846
0.0228080865117307532
0.0226518458796170809
0.0225455251803730015
0.0224063690602518684
0.0181489473030626708
0.0178199272532335619
0.017513719659863182
0.0172423523993003973
0.0170201270787563377
0.0168653375875183857
0.0167757691277070041
2.91013502435864134e-05
9.63176546504235172e-05
0.000136479523231061809
0.00129361195411877147
0.000763348182224392433
0.00106405556056842908
0.00117122451653929702
0.00415086885716837127
0.00242816524707337644
0.00214550610097771939
0.00186589753946291774
7.51979266226653357e-05
0.000229322179362854577
0.000191029117750929182
0.000357390560037140162
0.000915014230310636249
0.000778859370162482282
0.000751518607359294216
0.00268952247930909216
0.00141390183225629292
0.00131593856130628878
0.00163702620902842324
0.000152837425174874407
0.000320074301242884802
0.000155815887202448428
0.000192498730824451777
0.000201522136796669491
0.000372266871304899544
0.000617382504497327031
0.000626393220810287851
0.00048961890773206371
0.00122994432442132895
0.00215860940816688758
0.000544087927881098735
0.000249510847351352755
0.000272455305510466974
0.000262356589788280002
0.000359319273830504041
0.000287242243230331816
0.000608955733758476396
0.000394666492378311577
0.000368249396470941056
0.000521634747751494282
0.00138769066112169907
0.00100391687596353596
0.000810968430714476256
0.000975691278506722452
0.000796437822504851003
0.00137103062600805146
0.000804036896084535293
0.000783523453703426987
0.00225015063616082955
0.0013077867536075928
0.00087707428867140095
0.00115464525290999149
0.000578697753003414809
0.00104598214020390902
0.000992052824081343957
0.00158066389823360138
0.000827957182993746175
0.00163869285027905699
0.00241770562445058719
0.000994823259716421911
0.00159457657603590095
0.0037000349234014439
0.00312653949596016292