/*--------------------------------*- C++ -*----------------------------------*\
| =========                 |                                                 |
| \\      /  F ield         | OpenFOAM: The Open Source CFD Toolbox           |
|  \\    /   O peration     | Version:  2206                                  |
|   \\  /    A nd           | Website:  www.openfoam.com                      |
|    \\/     M anipulation  |                                                 |
\*---------------------------------------------------------------------------*/
FoamFile
{
    version     2.0;
    format      ascii;
    arch        "LSB;label=32;scalar=64";
    class       surfaceVectorField;
    location    "0.840000000000000524";
    object      Uf;
}
// * * * * * * * * * * * * * * * * * * * * * * * * * * * * * * * * * * * * * //

dimensions      [0 1 -1 0 0 0 0];

internalField   nonuniform List<vector> 
20536
(
(-0.710810192658416051 -0.876558741114557782 -0.248642407455157755)
(-0.10543692387088871 -0.545977285251995736 0.191440644395946324)
(-0.757597024575369704 -0.98572585819985048 -0.054475916091711124)
(-0.51125761291009697 -0.877133819568714945 0.0265697319391017331)
(-0.0849113875927532957 -1.46747194808267878 0.0892731377313150526)
(-0.467707767345285297 -0.802843205203408794 -0.312705517947757861)
(-0.448765026415307633 -0.978466745892545675 -0.441896127329783561)
(-0.46708914305150212 -0.419458069789587717 -0.475451443086152836)
(0.450129802633908893 -0.991990481412195813 0.529356189582418257)
(0.450882852258676414 -0.471519512810635422 0.30221431796722148)
(0.494427191265549126 -0.196038226396940019 0.369984732390605919)
(0.379953059554785977 -0.363777239041129685 0.510800734441719029)
(0.391394993969146066 -0.853158041387191757 0.395367937521628299)
(0.367657024544111921 -1.77186121701802346 0.468611523807276054)
(0.310577501937907952 -1.41161475364359523 0.598908846488103164)
(0.135977816210500729 -1.59823270009225471 0.5113282830116751)
(0.399464286552026093 -0.101995642234711373 0.075770068538439872)
(0.43080941242629206 -0.0439676922107459511 0.07579054768836542)
(0.313022703602097552 -0.00295393186651241035 0.0820948020225290287)
(0.348270417238710106 -0.0815447134306564597 0.0899253785006370876)
(0.432108445334795144 -0.226606421726950336 0.0678461130468987622)
(0.495807921339584623 -0.111785014922280185 0.0752841353325014589)
(0.421844436500137587 -0.120200256627033208 0.0563664900811189154)
(0.404674742510093166 -0.182122112817436455 0.0628296617397247764)
(0.442965239786647647 -0.401572279180771652 0.106804778052286803)
(0.521930698118724279 -0.220729654192441116 0.10329918643352845)
(0.485248170396668455 -0.298302441968457732 0.0562935963504566234)
(0.415084049361615692 -0.302863679510635975 0.122581496731287626)
(0.487640572122638283 -0.54247134210912884 0.168226065906431382)
(0.524957471896876471 -0.361798267720074118 0.139433392060856809)
(0.524624709925253674 -0.474412662918277661 0.0933190508456414047)
(0.415951595338429347 -0.526954582552215389 0.206179429987442181)
(0.497185304585936294 -0.491754177885192434 0.170556948511056322)
(0.498161161683533027 -0.524793255018039417 0.130633096317512715)
(0.385891383453470405 -0.664862214197977641 0.285105503537233629)
(0.390367534385841708 -0.52737474204536039 0.211146432366995263)
(0.557052800041830887 -0.0750914047656840306 0.0753046144824270069)
(0.462231457896939424 -0.156376887493001965 0.0252988803959115355)
(0.519992950430688605 -0.0146409498602762204 0.06935155928490018)
(0.528202790404646683 -0.108069699495030869 0.0404524049410953795)
(0.588358644950593868 -0.125771305886003049 0.110737208719131106)
(0.506407027456324155 -0.184120221787574617 0.0508682139342473347)
(0.573169381164376102 -0.0710730854442971627 0.102572769343599463)
(0.571397803808940785 -0.13264587764250535 0.0821779032007319138)
(0.592848451228997209 -0.201011819848118223 0.135927800442098345)
(0.538143838907943817 -0.219441355760475354 0.0772649698456009115)
(0.60011287535823099 -0.143784973158171514 0.12303674768561905)
(0.583195869109015441 -0.174526065781490269 0.127887772124008064)
(0.562158777930590881 -0.317914563319077637 0.141764274665481554)
(0.555948451117964426 -0.281049565902390386 0.0944688622387356708)
(0.588497225508612276 -0.228021499262641314 0.127455728919084854)
(0.56176519574631667 -0.274306255197077575 0.154009625834656161)
(0.548868597898308774 -0.370713542329491996 0.0950037678721733225)
(0.554809237463479543 -0.363834659107046932 0.118365747264580268)
(0.514206234328844047 -0.418923708684333818 0.158623348900161221)
(0.51666681505141443 -0.440923881497647607 0.127930057762472932)
(0.41832926005333898 -0.24295331922327984 0.000862479847731929122)
(0.360789395891878584 -0.239064499310596729 -0.0114587983981909065)
(0.402976244546454199 -0.19336711670019513 0.0109820337175911154)
(0.398879348262907718 -0.248725607278825672 -0.0117918514110947163)
(0.460197344440474054 -0.265212970391129121 0.0173959750607172968)
(0.394539973567509139 -0.266485334324694845 0.00186372174222439809)
(0.438901094117411794 -0.2327757454660139 0.0198560143301372248)
(0.438547720533351393 -0.261426100537996087 0.00216304824333843305)
(0.506469938911675355 -0.29181589402277136 0.0358060316422383965)
(0.432522749681480523 -0.289844542432655727 0.0198691067282665869)
(0.478244928430952843 -0.270515053220121926 0.03231782182738583)
(0.483636989208449386 -0.272823490391825685 0.0265145937595281551)
(0.541580478098162343 -0.334934926714119396 0.0477083554454272307)
(0.473047471156122668 -0.321511285738807218 0.0347584592987895402)
(0.519785006304507968 -0.314440444291607502 0.0439740678282717207)
(0.519689507075617341 -0.312359801921555991 0.0482099294506977416)
(0.499211465209384253 -0.369044769941338502 0.0405800564666271429)
(0.547050218833123547 -0.367978604706900247 0.0492412953892409286)
(0.53156642606131721 -0.375430680620985502 0.0561184037732800137)
(0.548064451785664875 -0.381095462258187356 0.0502762969975596441)
(0.339107483238802576 -0.277758681375254279 -0.0104575565036984126)
(0.309786830668294821 -0.276357496550922954 -0.0111170633109926673)
(0.318363581277988805 -0.239645951410851377 -0.015388652987405058)
(0.328672668802972245 -0.269900024879811629 -0.0141513718070121024)
(0.369207086560093378 -0.306741856139214397 0.00433685340977378077)
(0.335653960623128134 -0.305652726999326219 -0.000583762632586861622)
(0.35201273154361834 -0.275580371823407222 -0.00274395318600092163)
(0.354055709672560837 -0.292281252689694404 -0.00209943940326454657)
(0.401054203366237649 -0.334696105083478468 0.0188215343848177723)
(0.363220985991343615 -0.333517820099236084 0.0134667039027096692)
(0.38574778979790425 -0.312834580508775273 0.0137426365412867714)
(0.385203492117885127 -0.310678780342818539 0.0129367184375425263)
(0.430986173312379095 -0.370263963625353187 0.0276301603199893935)
(0.392137879961223956 -0.366726263947185882 0.0245994108513021836)
(0.418642419194869164 -0.351552066266497765 0.0269455064541763122)
(0.418304978655231363 -0.34183878375277521 0.023409496158077317)
(0.41813310367548423 -0.409680912459385593 0.0311884149040999419)
(0.446185702020377439 -0.395639418932293707 0.0338333448748642032)
(0.446521397135897058 -0.388403747653020048 0.0278966185889815803)
(0.454783008186852078 -0.41506944402975926 0.0312052023016386217)
(0.306592859986800081 -0.303315180143088503 -0.00124326943988109506)
(0.276272145556862081 -0.29626657309329224 0.00170366592389497619)
(0.28975449804716974 -0.268329465350380214 -0.0104937134090612276)
(0.295165133442182426 -0.290743637095662755 -0.00153085313006695654)
(0.330202945029471562 -0.333685982638019407 0.00854608786034905324)
(0.29714264906078991 -0.324807348499273951 0.00766353969731315213)
(0.32000797054102087 -0.300626688877867476 -0.00151020481326584162)
(0.314917136985071844 -0.318679955799609949 0.00670770242470869645)
(0.354762305760431662 -0.368482508434494094 0.0192445803691940545)
(0.318175829126825849 -0.357444994165539376 0.017206059554308855)
(0.347457253735516614 -0.339002771038493633 0.0106433478701987595)
(0.338200573902684321 -0.349955194610389486 0.0165237287230908629)
(0.379056031024604723 -0.409534061780707559 0.0281576654354127077)
(0.339942324420559494 -0.395876576115432588 0.0267688006652529731)
(0.373166890372850835 -0.381270145464949528 0.0218696193995172317)
(0.364526424027552309 -0.389316331219645817 0.0240319636301526175)
(0.360574489410505461 -0.440427005624000334 0.0357767256355329896)
(0.39589401679701508 -0.427093769279895896 0.0310731890931849157)
(0.388766948206893115 -0.435255220609480797 0.0304364104394321267)
(0.401397409652843873 -0.454476917280063897 0.0359376791828602549)
(0.266539449560295683 -0.320069952637002109 0.0106104750610892112)
(0.237068452166781241 -0.31329558490155246 0.0140588032576568003)
(0.257923159485655251 -0.299847769396418495 0.00620110335805721703)
(0.25713205641269099 -0.306263791837355914 0.0112135257583666232)
(0.284881075011134632 -0.351433788750080023 0.0163235113912729261)
(0.252405403930991978 -0.343154509677887798 0.0180487197713611602)
(0.279178490920325095 -0.330049478920637906 0.0107119546044973507)
(0.274007904921240331 -0.336429024120451559 0.0147853603692766952)
(0.303045872942538097 -0.388099943266833003 0.0247302798503677354)
(0.267568621686126495 -0.377656585588114491 0.0251955305817658237)
(0.298593888630778515 -0.365384144399377053 0.0188222736875281044)
(0.291548337347383779 -0.371107130206570934 0.0214960073699635192)
(0.320706878505034876 -0.430100216338122399 0.0343878608653732237)
(0.282574003203002522 -0.417304819434725638 0.0342571209688359579)
(0.316788715938467691 -0.405269082120897572 0.0285129940638518715)
(0.308915924438362244 -0.411156881429384224 0.0299279535598315563)
(0.29733340428043481 -0.462374515062937919 0.0450275291742758543)
(0.334321082616402088 -0.449567687763296475 0.0387145096249462417)
(0.325532291160140708 -0.456392179687630295 0.0398893768224273595)
(0.338487216391863188 -0.476165521816479365 0.0448024530842390384)
(0.22249751274830476 -0.337011595694255539 0.0214970479679287459)
(0.196642280077926307 -0.32713230807147553 0.0211206717463278473)
(0.218665277138710729 -0.319624903873604149 0.0185223419033616298)
(0.215517130604620077 -0.322934069470829643 0.0200939772823658103)
(0.234554456557683838 -0.370122952325447563 0.0269207389618540578)
(0.206349195337592384 -0.357837342129422031 0.025573577608480412)
(0.231739852429403648 -0.350552907556500593 0.0229912534891677095)
(0.226696755560428592 -0.354140879468143543 0.0239215560912988782)
(0.246418034113633028 -0.407620557248468629 0.0347223717002339907)
(0.215393086757160124 -0.392468133387407214 0.0325919638949526622)
(0.244445476930464867 -0.385656140773992906 0.0297485288357154931)
(0.237581467044309352 -0.389355606640277463 0.0304214839366982945)
(0.258223688668255735 -0.450214710506433691 0.0448967892777385469)
(0.223865657384398897 -0.431706472080644499 0.042217862020302567)
(0.257154048065556307 -0.425220525242852476 0.038483635258282356)
(0.248215833616981935 -0.429704279005287848 0.0393783838443866191)
(0.231864671958703805 -0.476481090710348332 0.0550372890897360134)
(0.27015835406607791 -0.469819500983553628 0.0494155049575974378)
(0.258941631912223191 -0.476039787698892547 0.0511419058965900744)
(0.270743731858184344 -0.498022034992273599 0.0576326465612128427)
(0.180053368847185646 -0.348309793887602082 0.0251972013868794857)
(0.157593313283401676 -0.336164053273410202 0.0231469760833096505)
(0.178222255251620665 -0.332155696774559583 0.0222784086443931842)
(0.175025087386654482 -0.333895671210124034 0.0229653680520039392)
(0.186609727883318782 -0.380471288456271317 0.0312448025415789921)
(0.162576696478144961 -0.365381999765416188 0.028121197960282833)
(0.186406935485968955 -0.362315171127539692 0.0269562741426017279)
(0.181054529897572203 -0.3644653586286275 0.0277561928958147026)
(0.192042066433365549 -0.416679089982824769 0.0400874542150211968)
(0.166046976412164315 -0.397994878902745319 0.035700918900264042)
(0.19368836765586811 -0.396171161065908162 0.0340690861238291051)
(0.185843553829775077 -0.398781134350178756 0.0352153710774876019)
(0.196391359523219455 -0.457803823148994815 0.052358361832299978)
(0.167871106842433809 -0.434737602885663266 0.0464929968051273762)
(0.200161721900240452 -0.434242989100304122 0.0439798258553383004)
(0.189276779827316027 -0.437698610192231274 0.0458271514026519222)
(0.167825971675146124 -0.476651284273922948 0.0615019519395683459)
(0.205935762437229886 -0.477412112113441367 0.0574035706342190741)
(0.191212009134179378 -0.482327679322083702 0.060558261605153263)
(0.200065774983958305 -0.504728267183915946 0.0688276867012818788)
(0.139790375032217751 -0.353474485255864557 0.0260709726567129978)
(0.121245738986211021 -0.340097956134676194 0.0227581436856356609)
(0.140309909493187945 -0.339513932275343322 0.0230582973926463826)
(0.136604643007611076 -0.339422748585231193 0.023582263706167686)
(0.141557589787400573 -0.382932659594034941 0.0325773143189678413)
(0.12242245382041092 -0.366547642862634082 0.0279246769360835811)
(0.144142436894813819 -0.367433196031481057 0.0280704938141733834)
(0.138315103142812867 -0.367439191529327525 0.0288660202229313323)
(0.141182157668687469 -0.415752252410545309 0.0421064614903701798)
(0.121367410583959112 -0.39555236624756468 0.0356322980040804718)
(0.146296350518054785 -0.39837811673358714 0.0355768964580688782)
(0.137755436093181527 -0.398456038822672776 0.0368735952635444938)
(0.138310943301604899 -0.452772996388899784 0.0556365869123957441)
(0.117619280922225788 -0.427636376340969515 0.0466968493198929094)
(0.146590495464486437 -0.432952700907453747 0.046283123465969446)
(0.134455819561580814 -0.433257433052236518 0.0484672994035309987)
(0.110523524842069176 -0.463581206000675261 0.0623003695382256459)
(0.144769734151289353 -0.47207033779707791 0.0612309194416457356)
(0.127689179513208045 -0.472903125898439747 0.0649337894227385859)
(0.132671601047232773 -0.495019954054926881 0.0745087526883996543)
(0.103728779801865192 -0.35339950991959479 0.0246118479650062165)
(0.0890220626655709585 -0.339963377440056946 0.0204220130358255467)
(0.105837706328722969 -0.341756220721097403 0.021605856503462563)
(0.102023165479432215 -0.340289662122777503 0.0221740976161701533)
(0.101988023781452414 -0.379186524960902993 0.0309796606211962117)
(0.0876416861921421458 -0.362951942669170802 0.0252506983569240617)
(0.106332820876080217 -0.366607903076507924 0.0265596928512352032)
(0.100577814908125174 -0.364954555531288305 0.0274111095864321107)
(0.0973770228776138919 -0.407178863757223897 0.0402226858336031459)
(0.0836463964589653497 -0.387412370676085693 0.0323264688421986066)
(0.10459561929115313 -0.393590177196881719 0.0338562540088271427)
(0.0962545489356894102 -0.391552752350191213 0.0351863336784263014)
(0.0891719494182313249 -0.437799278048120022 0.0533606319457228528)
(0.0763650451386536644 -0.413488651508512939 0.0424151428465141672)
(0.100134443608262749 -0.42305017683825713 0.0442559199299350711)
(0.0882833896508809501 -0.420400339998363848 0.0463966541205760932)
(0.06487500494155507 -0.441422066679914293 0.0566020677253795609)
(0.0922994696959313632 -0.455519245836100872 0.0588362234280266488)
(0.0755056029219402375 -0.451983072377648565 0.062360709250559275)
(0.0765150762240869725 -0.471641438627658172 0.0718738941319087415)
(0.0735880051598042095 -0.309719707238101383 0.0149377142745250428)
(0.0610493695992357574 -0.300616480573521583 0.01223971903845179)
(0.0721457501407784529 -0.299119115382251333 0.0140996831433986506)
(0.074232665734588324 -0.329320574073099392 0.0173162642256957239)
(0.0620158582488106458 -0.318681622751099958 0.0138700611334739102)
(0.073144947794084203 -0.31814240636630714 0.0159135925482240849)
(0.0729741869676010235 -0.349910767440578474 0.0210608634277433884)
(0.0614357043742485912 -0.337521150668908587 0.0165310786885271045)
(0.0757199014565969469 -0.34062353081275798 0.0184254314738384189)
(0.0723279647642739026 -0.338100997816161597 0.0189358877507118037)
(0.069297508344679376 -0.371404233371682324 0.0265975065779265052)
(0.0588607065321618828 -0.356924136613953835 0.020532341563369829)
(0.0741842237206504357 -0.361950048876921116 0.0227893747926462172)
(0.0691752563532274656 -0.358874432743024219 0.0235412391857144181)
(0.0625323566351148191 -0.393732834845487156 0.0345189258551095932)
(0.0537576157808496297 -0.376672102147681265 0.0262917159617576113)
(0.0701924211556161082 -0.384297417883351922 0.0291000919408368371)
(0.0630309922538256906 -0.380345005313588946 0.0302487501482785297)
(0.0518178769602294503 -0.416848840859638359 0.0456565786261708753)
(0.045431228751648331 -0.39651704440930996 0.0343934166771277805)
(0.063113153774790931 -0.40766042249563772 0.0379987677130504478)
(0.0530479145008885891 -0.402386606167414951 0.03979133308322369)
(0.0329296610140950158 -0.416177280359654456 0.0456388729512847771)
(0.0520965432386072749 -0.432083333314188522 0.050355537111454525)
(0.0380442406784689546 -0.424855044305813445 0.0532204855496059004)
(0.0361050892090146319 -0.440747914377087047 0.0611719257582182541)
(0.0496512424191322133 -0.309978223481978898 0.0111720658974006765)
(0.0389200267413344209 -0.301701203152259179 0.0084263552857354318)
(0.0487796259101838034 -0.300227965097069671 0.0104979742161546707)
(0.0494120470915084334 -0.327172241147726917 0.0130848755963053134)
(0.0391718839544306016 -0.317916363151013015 0.00964489849249888787)
(0.0488887457517516444 -0.317040503736266299 0.0120003617874852551)
(0.0475319932170843729 -0.344682836735112297 0.0160025568241535555)
(0.0382228354875454313 -0.334400672213594097 0.0115646591305097121)
(0.0500947535212596037 -0.337511005892824623 0.0139809545362618182)
(0.0474480279434753086 -0.334216843991506474 0.0143909614861015729)
(0.0435572021991859418 -0.362162496674104217 0.0202265509472009386)
(0.035728973430462746 -0.350749315147491192 0.0143955734961648454)
(0.047838937658105013 -0.355480270507157581 0.0173536551341242351)
(0.0440134526184036007 -0.351401631168978268 0.0179382543024671631)
(0.0368886675345405993 -0.379197920208712125 0.0261662067837757986)
(0.0312649063100544841 -0.366491402526473498 0.0184108282315615587)
(0.043396285706322979 -0.373418735839190497 0.0221464557539606845)
(0.0380239790760616286 -0.368169555355762068 0.0230075983528700394)
(0.0267398526480454937 -0.395282510314248214 0.0343757110022416199)
(0.0242680965140903981 -0.381031471019131707 0.0239833260367534502)
(0.036164402224165261 -0.390937729597503669 0.0287978240344423479)
(0.0287485137321408374 -0.383984129562792653 0.0301021302186596784)
(0.0139832780660165655 -0.393641388985748519 0.0315985217106249661)
(0.0252844985161643429 -0.407579237070404221 0.0378784393305778497)
(0.0151893826480449246 -0.398168612073117101 0.0399094797324699505)
(0.0121210420414126115 -0.40980932989859703 0.0455667177355366312)
(0.028641939125441343 -0.309615020281649889 0.00689918788083366315)
(0.0189775132982810124 -0.302092086919965419 0.00429274439198665692)
(0.0281616950135873817 -0.300510140672563486 0.00647577333361723257)
(0.0282449422659532823 -0.325055233213568606 0.00812468202670330736)
(0.0189986705499315817 -0.317093602526561213 0.00494150252671330791)
(0.0279942132855774614 -0.315727691064516813 0.00745528688323732289)
(0.0267541675180923803 -0.340302733138661273 0.00995767580252100715)
(0.0183699043905143494 -0.33202131338551516 0.00594193508188612957)
(0.0284554645130777779 -0.334645247586909445 0.00871032782355685327)
(0.0267923243857737386 -0.330873720862635168 0.00897203078391953235)
(0.0238669024263795521 -0.35482204436219994 0.0125798507805254776)
(0.0169093644726681161 -0.346354724331031205 0.00740160448343193424)
(0.0266420975201946443 -0.350125508468770497 0.0108266990734443326)
(0.0242684445631644527 -0.345430534843675585 0.0111907568706544995)
(0.0191746448613668921 -0.367946693098028299 0.0162279474845392416)
(0.0143798145428076212 -0.359450025658148264 0.0094570673229137682)
(0.0233416175584355845 -0.36477820288154772 0.0138022398733711402)
(0.0200440516217654033 -0.358757820044539488 0.0143267514720212402)
(0.0121496795828952339 -0.378827076319379896 0.0212061367451367999)
(0.0104716670712751338 -0.370487585394297825 0.0122869335135994719)
(0.0181191674238265626 -0.377918584602299157 0.0178843983838828345)
(0.0136321743980121306 -0.370035959545185755 0.0186705908284261618)
(0.00474175986762224912 -0.378398977535186753 0.0161042079313267333)
(0.0103702360863898429 -0.388679544301113955 0.0233851928129523226)
(0.00440181113814447182 -0.378209451874041092 0.0245864313742063939)
(0.0020678572609688999 -0.386364314103729234 0.0278573813939818234)
(0.00948137461719995855 -0.309905069464798066 0.00233505903786629431)
(0.00931214732085048312 -0.301110707838897762 0.00218985290669271868)
(0.00933547397671965172 -0.324501330182875358 0.00275875558189611972)
(0.00923880745557636995 -0.315570116930101729 0.00253065341672121602)
(0.00881229815426355471 -0.338648947033119541 0.00338586376279708268)
(0.00937264971800781319 -0.333716302140054488 0.00296264497824925499)
(0.00880909463612274471 -0.329734049156290177 0.0030523218987379289)
(0.00780714829875310459 -0.35173026827562559 0.0042788210258202777)
(0.00872531646893292233 -0.347981975725272008 0.00368670382757222033)
(0.00792336824137174212 -0.34301927506446811 0.00381003028536761696)
(0.00617440254251082603 -0.362952727068469649 0.00551605335197400196)
(0.00756002666325504037 -0.361031204148474782 0.00470093087893409291)
(0.00644946427215353953 -0.354681948324715168 0.00487806031039827569)
(0.0036983324654551804 -0.37129401050442512 0.00718500469978942003)
(0.00572292926811208795 -0.372029918776170199 0.00609026059815340366)
(0.00421370285987829329 -0.363765942914514584 0.00634435077772066425)
(0.00296612677414275069 -0.379891699522213522 0.00793270418541642056)
(0.000935653062806084167 -0.369035921624767449 0.0083088174393254801)
(0.000108410379971141222 -0.37541573016219637 0.00938003372318511192)
(-0.821715012884697393 -0.912010322288701714 -0.134777645576605209)
(-0.157732909438929841 -0.52526049851455292 0.121762933002765181)
(-0.84441104596652139 -0.93326821353205347 -0.0962696798484425353)
(-0.0151393552084191363 -1.65699388627300492 0.0664769013667167175)
(-0.412868795842912695 -0.788357500002226708 -0.246802578417913338)
(-0.434508876633107499 -0.429563088053870556 -0.29105354842116643)
(0.539898994914120967 -0.975908962002763447 0.323017479946086428)
(0.568169048932126719 -0.313491991114180357 0.169329141690212681)
(0.641567556184094667 -0.00534614145832823517 0.185768030756721658)
(0.474423192258498716 -0.772536671398215247 0.22452795426734537)
(0.482169430573983759 -1.7681619295950004 0.299144966739446128)
(0.0672040627082712561 -1.38897173032346011 0.276037743917757317)
(0.374215545154339635 -0.0211585462588344472 0.069831899821282406)
(0.402206241606494097 0.0413873194418584167 0.0818502749187087486)
(0.329748242602189767 0.0428166612630245941 0.0528063162985035126)
(0.476276108345029314 -0.191896276868539883 0.0583549310326463844)
(0.499205896324929177 -0.0632174760139806446 0.0909067965813257772)
(0.459208133788983008 -0.100491266404677787 0.0423757381387241533)
(0.542630858753245349 -0.371142825705963131 0.0547827288053953643)
(0.563430347636175055 -0.194164464259172581 0.086975985277693596)
(0.555325706927842999 -0.284453010244373916 0.0237414362111363873)
(0.610042765325442327 -0.456734575827188072 0.070839616011471887)
(0.58816446353698959 -0.315324316516606695 0.0897030709494734957)
(0.627602986617554315 -0.44564299345820696 0.0346169781910348681)
(0.555785094561076054 -0.426302965437402759 0.0942549413936758923)
(0.595002583141145625 -0.458217591401449464 0.0539615688882822686)
(0.436620729878909597 -0.383206504068451026 0.0868115516955267758)
(0.546238345492651378 -0.010622630538889552 0.102925171678752245)
(0.460737737080203213 -0.0748562953072347131 0.0593414781549952142)
(0.516838533300259417 0.0521493247249177061 0.0952176839233549593)
(0.588125744892182833 -0.0890867527164657252 0.119527850826373128)
(0.505663447825463575 -0.132363785899912489 0.0737712189805115881)
(0.5694124741816875 -0.0298699041471029957 0.111435539248569984)
(0.602331108537850657 -0.170794652572694383 0.121896327421771949)
(0.540213964881239961 -0.201843984930337006 0.0826775227038311356)
(0.603205329339724594 -0.127259181524640302 0.115527981742197916)
(0.582784845154841524 -0.273941595050609943 0.113118396331677626)
(0.55233378069515604 -0.268711079634744221 0.0843490612603641637)
(0.594680743683880797 -0.215975563677291038 0.113753290865348994)
(0.552990858398294427 -0.346347598403422607 0.079751617685722781)
(0.563735816600397954 -0.348142951360185027 0.104945657393704636)
(0.537914183918959843 -0.384730333982828465 0.0975006149562449714)
(0.427009341702224099 -0.183189542942929134 0.0301875254567546755)
(0.360550429932564254 -0.18047334183487565 0.00719322065437401001)
(0.418807478106417275 -0.114881314521870434 0.0502787739874455547)
(0.460430784044128072 -0.238077828295006511 0.0369208908579695891)
(0.396373852093521106 -0.225616176284491515 0.0159012687219147221)
(0.450388283706145143 -0.182418146006961684 0.0523149090039518316)
(0.493680454342678599 -0.293139603488958012 0.0451302565424232388)
(0.431469968547376348 -0.278147247955151555 0.0284562127463065008)
(0.479083720220744191 -0.256904940455233544 0.0536301053171503728)
(0.526520708778245528 -0.347484122284388519 0.0509822826144092842)
(0.465379954343254632 -0.329479379108487236 0.0397569312074291942)
(0.506694627298452049 -0.326991883704450537 0.0552936391124886142)
(0.494024455644116733 -0.381780711018059604 0.0457679798146973515)
(0.531691380759434673 -0.386645492102613009 0.0554430720860944123)
(0.546116752457358801 -0.393480249040640884 0.0534893993181491251)
(0.332251019321858354 -0.237467641859004375 -0.00709303608046588183)
(0.298331248656863612 -0.233630733588406386 -0.0139473376091773255)
(0.31972793446314085 -0.195639589013048398 -0.0170109156919944562)
(0.369682228790731204 -0.281673096192968264 0.00743659061025158004)
(0.336366741461511021 -0.270854849568782419 -0.00285940018105416017)
(0.360208827498362472 -0.240700928852578155 -0.005858471452312922)
(0.404147445329670729 -0.329690541691794625 0.0230828874113124249)
(0.36998405754207736 -0.316736444046147092 0.011803437592635857)
(0.396162189308926493 -0.294736636183305589 0.00883148919160673708)
(0.434255920677986795 -0.37692752157343834 0.034542628407717324)
(0.399671429606495932 -0.363316229189729389 0.0251046000682742104)
(0.427805964086073132 -0.347571642926651325 0.0227386829474979339)
(0.42394661514190829 -0.410092684528054308 0.0343671347635213162)
(0.452670258637076828 -0.397827901739619461 0.0328756484030166204)
(0.45656513777569907 -0.423270896063032864 0.0406034416827222092)
(0.303070642040063343 -0.265640974085159076 -0.00971370170976559519)
(0.271405511975962854 -0.270227960578265092 -0.00500161854235251467)
(0.292647754383857317 -0.237191803347939073 -0.0213046988943932647)
(0.337393409305803471 -0.305943477278341591 0.00150744680133013242)
(0.302043812400555833 -0.303495833776523727 0.00256006499185515608)
(0.328581231575690247 -0.274959014887730668 -0.0102603577722870289)
(0.365924169332837279 -0.351790408068948901 0.0138251502495976286)
(0.327875313239469279 -0.344064277732060386 0.0130276811576638396)
(0.359099857290152757 -0.32172243744499962 0.00349922736246535042)
(0.389542503492612602 -0.398829852964137754 0.0249291064240782269)
(0.350013281890759198 -0.38763546475072197 0.0239225773639049032)
(0.384258250492682918 -0.370602783010001879 0.0170862374126910868)
(0.369640610002911429 -0.43336855165890098 0.0340455450278986452)
(0.404998253975073386 -0.419186301767575542 0.0285192608585931387)
(0.409870003919895642 -0.445262791811520231 0.0343739346444465604)
(0.270219691718048216 -0.309827295680054293 0.00727214815926817935)
(0.239519984457584684 -0.305328287857127734 0.011468960863677196)
(0.261698404713617994 -0.292188712668915884 0.0071274816049007603)
(0.292568113200463165 -0.343999834569934937 0.014080299348188819)
(0.258512939418736765 -0.336519000045987393 0.0164232687138475275)
(0.285412741590781727 -0.324097509459388311 0.0128600510959880881)
(0.311909908471278252 -0.382553283253441512 0.0231251082719711037)
(0.275470743875116941 -0.372442348411691659 0.0238763484381037255)
(0.306138388948613338 -0.361042668470553496 0.0205458427351967697)
(0.329667860061781282 -0.424736553546071316 0.0330390159677252451)
(0.291368760801021531 -0.412332164296956571 0.0329285592865405374)
(0.324675018320791264 -0.401444710279523109 0.0291901273411314804)
(0.307146032402045188 -0.456320643298244621 0.0431164576534971006)
(0.342446360170919784 -0.444982082638860021 0.0380600605208653436)
(0.347615396829352497 -0.46966657706673054 0.0430741566985748253)
(0.227487661773757177 -0.333166215735849258 0.0206200814182565285)
(0.20024525231240492 -0.324333816439050349 0.0200997180451659083)
(0.222353012394103294 -0.31502654774103378 0.0186759202475978783)
(0.241108075950442757 -0.366086096005045991 0.0262193178037624583)
(0.211797592577780136 -0.354718194053385782 0.0246779391746988035)
(0.236939370988155235 -0.346203651201038576 0.0230145656038747218)
(0.254478957014103557 -0.403256108768376698 0.033679799452673187)
(0.222740757829172881 -0.389106905584798102 0.0313626982101334398)
(0.251127901609465409 -0.381478499632840695 0.0289703002829231719)
(0.268094740272214971 -0.444825315719972358 0.0430060009723123582)
(0.233450112581397751 -0.427679547683885219 0.0402357984056013959)
(0.265404814178525683 -0.42066329666499036 0.0366096058241581548)
(0.244229444544604157 -0.470977644747626323 0.0516856652574629524)
(0.280243664023200667 -0.463966253227936387 0.0461001374023402716)
(0.282814338245640673 -0.490448405924346409 0.0543151087632071788)
(0.184183411491018439 -0.346161074014497139 0.0241575758016081867)
(0.160938851461407045 -0.335224748316500953 0.02227041378185627)
(0.181402822956223675 -0.330497680619286194 0.0212009011849475758)