/*--------------------------------*- C++ -*----------------------------------*\
| =========                 |                                                 |
| \\      /  F ield         | OpenFOAM: The Open Source CFD Toolbox           |
|  \\    /   O peration     | Version:  2206                                  |
|   \\  /    A nd           | Website:  www.openfoam.com                      |
|    \\/     M anipulation  |                                                 |
\*---------------------------------------------------------------------------*/
FoamFile
{
    version     2.0;
    format      ascii;
    arch        "LSB;label=32;scalar=64";
    class       surfaceScalarField;
    location    "0.540000000000000258";
    object      alphaPhi0.water;
}
// * * * * * * * * * * * * * * * * * * * * * * * * * * * * * * * * * * * * * //

dimensions      [0 3 -1 0 0 0 0];

oriented        oriented;

internalField   nonuniform List<scalar> 
20390
(
0.000129741800565704091
-9.58061651548128236e-05
3.51371923212423251e-05
-9.10934406297150373e-05
0.000242615744456458021
-0.000101520399628841646
0.000121705938220990388
-0.000146477205819313606
0.000318651629159437421
-8.43267741917719211e-05
0.00016689972535361989
-0.000180717845175186887
0.000377000444556898566
-6.68588676871986645e-05
0.000196737201299551244
-0.000202376484170701187
0.000422429938596826933
-5.68982790420109838e-05
0.000217564446619667579
-0.000218784563524676492
0.000462187785911031591
-4.78978095606402848e-05
0.000233700665127430985
-0.000232054053335950359
0.00049752991319357222
-4.06472022787958173e-05
0.00024724805714710713
-0.00024298558014830245
0.000526822486504825499
-3.60198257435357248e-05
0.00025766507196311279
-0.000251816527424690486
0.000551741343671853686
-3.25395429070565452e-05
0.000265630573240401642
-0.000258695902353644038
0.000573622163550338072
-3.05741001797424337e-05
0.000272132183578494978
-0.000263991978909045607
0.000593552956827623113
-2.95412462489069608e-05
0.000276904943802002118
-0.000267792384693835313
0.000611934677711976341
-2.92093293715486012e-05
0.000280566773831387745
-0.000270061659878435465
0.000628958562764723268
-2.95325476146781463e-05
0.000282991058433777092
-0.00027081371185632688
0.00064501632250317032
-3.02702237656179461e-05
0.000284006806260966578
-0.000270134129200668772
0.000660206698952239173
-3.0784461415821589e-05
0.000283515927907455922
-0.000268310036409354709
0.000674566113580593748
-3.07935621975482008e-05
0.00028155717506873402
-0.000265682455660617577
0.000687695184649893786
-3.03116646012428626e-05
0.000278995559984406753
-0.000262458082796193485
0.00069948134447060347
-2.95413830271071227e-05
0.000276093733795602665
-0.00025906020110445262
0.000710744587005904412
-2.95149117152791214e-05
0.000272734223270040051
-0.0002554079627349654
0.000721117238797253958
-2.87897538569880389e-05
0.000268821214749654128
-0.000251545744005059321
0.000730673947838295307
-2.83861137228266292e-05
0.000264493817870184369
-0.000247010740976706677
0.000739203347543991324
-2.81818842828093339e-05
0.000259610384480000154
-0.00024154182965085714
0.000748375013214922988
-3.01337287930529427e-05
0.000254371706562080526
-0.000235417867367274927
0.00075579750952832253
-2.81504176741034738e-05
0.00024870429000404241
-0.000230495381193432554
0.000761617541897236308
-2.58976188752136251e-05
0.000242636055146141111
-0.000225681064708563008
0.000766433527057505562
-2.49373139403635925e-05
0.000236498689646524104
-0.000220336124674736585
0.000770333543220327334
-2.51135913171080087e-05
0.00023022466640793175
-0.00021376423603569096
0.000773430113558055618
-2.61772644850221506e-05
0.00022369450528902929
-0.000206296642654266762
0.000774938148987209152
-2.59917274050498283e-05
0.000216112080073379127
-0.000198473489568208247
0.000774549143201827919
-2.45522938648496208e-05
0.000207385353004704848
-0.000190328763101298701
0.000771005723861517122
-2.15112221041230482e-05
0.000199389762644581396
-0.000183273909699420683
0.000765479068267450945
-2.02354981817742674e-05
0.000192003464900170821
-0.00017640022769296426
0.000759591554464819976
-2.22983279077913187e-05
0.000185492438937332979
-0.000169533972356550018
0.000745865425275721826
-1.66895400344724616e-05
0.000178575250947716184
-0.000162734512989676472
0.000705968598326797573
9.16127593457793567e-06
0.000171703949938853835
-0.000157257335022257009
0.000582343712797875009
9.14181252178916903e-05
0.000168713165786107738
-0.000153849909902209958
0.00029862269173587671
0.000248939852876075044
0.000162668415057884745
-0.000146499369362699871
0.000265468542295458905
0.00011122016177319599
-9.82002351146357428e-05
6.65319721062263437e-05
-4.51696897025000076e-05
-3.65651509094385348e-08
-0.00010955696792732906
0.000118131185773609791
-6.26095654902542422e-05
5.03274906586147794e-05
-0.000146475316607912057
0.000171505271716419267
-6.03587202100467796e-05
7.21221644844526272e-05
-0.000160487443949105895
0.000222927963222334781
-5.52338193389839661e-05
7.3181388897013269e-05
-0.000172167052465485685
0.000290397861397707793
-5.3615213439161711e-05
9.24973886803364569e-05
-0.000186009516353160886
0.00036017120465557011
-5.18250018831666431e-05
0.000125903251474576206
-0.000203956869231467983
0.000411463313918709807
-5.09182808678323176e-05
0.000157416860027517449
-0.000218854340649481539
0.000450877048471376028
-5.16760310937732856e-05
0.000182528481522649063
-0.000228991761920805938
0.000487358643782915342
-5.29923159811279378e-05
0.000202032985265075086
-0.000236406031156912539
0.000518870891485036776
-5.5032628729985844e-05
0.000217601069944711772
-0.000241849582328476274
0.000547137304050503582
-5.51037759756890975e-05
0.00023014978247507949
-0.000245505458294213968
0.000572100709071882781
-5.71695894178217412e-05
0.000238874779670330119
-0.000247350357882430202
0.000593771859525578415
-5.79663779885339735e-05
0.000245194469274907356
-0.000247432095450806668
0.000611649252038665246
-5.98818608739706658e-05
0.000248236529570686659
-0.00024570761504150889
0.000625990256743554248
-6.12557855060451057e-05
0.000247680052461059436
-0.000242506263731558265
0.000638797671171111069
-6.01054078100132652e-05
0.000245914425012835381
-0.000238567948981983024
0.00064984056106121707
-5.82141857749174783e-05
0.000241389866700257301
-0.00023388019840928312
0.000659325334145708926
-5.45137064940252132e-05
0.000236663309781938566
-0.000229817066442275562
0.000669398504577420296
-4.9810184892027035e-05
0.00023400262896653627
-0.000225408744161425048
0.000675566758408113928
-4.54018282354937664e-05
0.00022981773068857361
-0.000221452515851203516
0.000675930850261334689
-4.64719735336048827e-05
0.000222166113031430068
-0.000215565742368486319
0.000687337313682393099
-4.47310532735652289e-05
0.000221623585971438203
-0.000210620869886988545
0.000670707804393102787
-3.95011224415677085e-05
0.000211895016044803916
-0.000203122966807876376
0.000644496811104247396
-3.10625363737524152e-05
0.00019477806353098364
-0.000196228405405675534
0.000643401050739803894
-2.67761866230714132e-05
0.000187574380541935261
-0.000195007354871976611
0.000660572580491037729
-2.46439702945817328e-05
0.000186053474810253658
-0.000190501951984548468
0.000650213077859500819
-2.43727426525883886e-05
0.000184357975312513813
-0.000187712077077115667
0.000619929028501937864
-2.19675625235166673e-05
0.000177384617280822697
-0.00018532846372829338
0.000580957880728821038
-1.89051422067302606e-05
0.000170456393444676994
-0.000177309576474634148
0.000486247249643224964
-1.63911517887440082e-05
0.000146757872086016348
-0.000134952099836243119
0.000487819045710641069
-1.31398109486361161e-05
0.000133581367277359913
-0.000126287580444230812
0.000529334627052843471
-1.11170017336048254e-05
0.000136071203993487635
-0.000139236172299062001
0.000439063399154643482
-1.04715025189151908e-05
0.00013163766890272096
-0.000144985331153668379
0.000332134538679536783
-7.82944773991410145e-06
0.000101180425851441882
-0.000104626557502351695
0.000335182374716608115
5.09004969433226056e-07
7.85212037658755403e-05
-7.1360769037300605e-05
0.000374348507501729268
5.92885551853647211e-05
9.2947338186597124e-05
-9.43974397627508704e-05
0.000282644530392902802
0.000282198045809963351
0.000160447537809107284
-0.000147595401864106105
0.000510917611862851564
0.000174486527528433408
-0.000159431123076559712
2.50026315422233791e-05
-2.35070892410302052e-05
-1.9263781132154674e-07
-7.290216517578558e-05
4.39423052015430412e-05
-3.49488977552452911e-05
2.46207799681666097e-05
-7.27372509491540538e-05
4.882853714121779e-05
-3.725195765084461e-05
3.27468109499948337e-05
-6.34354320228974419e-05
5.57607425100226995e-05
-3.31180015703593113e-05
3.2054932762858924e-05
-6.4302679634360829e-05
6.70569845515831269e-05
-2.95985155117062193e-05
3.29857778662146544e-05
-7.540692143623908e-05
7.85785566790967729e-05
-2.7369453088807116e-05
3.5556393970335274e-05
-9.50747792734557058e-05
9.26153456527597309e-05
-2.50168216505285624e-05
4.05372231953349507e-05
-0.000109989300240269177
0.000107842403029343706
-2.30305958059089241e-05
4.59859549058701028e-05
-0.000122881162681780568
0.000142405160584449265
-2.26363459669128073e-05
4.93232356809866236e-05
-0.000131006286521435537
0.000178835203912266268
-2.37211544356847999e-05
5.16446470315429771e-05
-0.000140595017758992768
0.000203318028165636511
-2.48681366205513755e-05
5.3135663283546853e-05
-0.000151438568538398403
0.000235898069071394123
-2.64340258270493391e-05
5.77100076335354339e-05
-0.000156014500485384582
0.000254668030510403064
-2.70448490019121664e-05
6.2772619938928644e-05
-0.000154813517287600568
0.000269445725744945741
-2.71111183258474503e-05
6.99657014453638955e-05
-0.000157454437686700265
0.000270013676409350614
-2.59332731397114785e-05
7.30436635232375325e-05
-0.000147901464485176049
0.000252320198079919542
-2.38922338013067596e-05
7.02900236440653496e-05
-0.000133367990464726145
0.000239369784053980504
-2.156524115968833e-05
6.72154165629467338e-05
-0.00012352893405653836
0.000216076594956464516
-1.89625197553822701e-05
5.90890955084125017e-05
-0.000121335951746327815
0.000185375593572120539
-1.67174095104602364e-05
4.88923362201668256e-05
-0.000123166821152764457
0.000180387043032343808
-1.43210913757723447e-05
4.4795367322712998e-05
-0.000105771848760643949
0.000186596876463690389
-1.30433723635426239e-05
5.06973214802847207e-05
-8.86063689020600073e-05
0.000168713148600229665
-1.20909504544619921e-05
4.91340806459289751e-05
-9.14147490198286667e-05
0.00010423786373814184
-1.08787348013152293e-05
3.71872995799341172e-05
-9.08776295019528068e-05
8.55513372252471923e-05
-7.29040930352314711e-06
3.30134959897374579e-05
-7.18269086907938478e-05
8.22848061487320653e-05
-5.79207026382623936e-06
3.179474883595953e-05
-5.91097602697030272e-05
7.74552853173257649e-05
-4.93574176991359134e-06
3.10249373777542816e-05
-5.21502677834443924e-05
6.93063493078163045e-05
-4.54036006452909463e-06
2.95331465891271385e-05
-6.01749181593165175e-05
5.74814215771952866e-05
-2.82531255698088458e-06
2.6498011294133156e-05
-3.8162225967035839e-05
4.83850231559931261e-05
-2.24341568738962693e-06
2.33586538234437389e-05
-2.97506395537424151e-05
3.96396622918032047e-05
-1.72877821326832895e-06
2.04449428928687084e-05
-2.5479955019316014e-05
3.26994650351855032e-05
-1.19873865914307234e-06
1.66404928339610731e-05
-2.07970372956671252e-05
2.6457374579612805e-05
-7.94977102204674353e-07
1.35021097976200117e-05
-1.69305102676700454e-05
1.98594166279417416e-05
-5.49036065452527264e-07
1.05511043301075799e-05
-1.34760545425453487e-05
1.48713054810820556e-05
-3.54647202115836021e-07
7.70110715326720401e-06
-9.80320161649188595e-06
1.73818303719089404e-05
-4.56230250574319662e-08
6.13931045273637067e-06
-7.89263742422958135e-06
6.23767993318792243e-05
1.56286087201858264e-05
2.13796625117445408e-05
-2.39964720616827652e-05
0.000140316894845041195
0.000129437172011163655
7.10524323246186602e-05
-7.92305133300288733e-05
0.000614288157712289569
0.000161693332076765715
-0.000150360289695277197
1.5033510511390499e-05
-1.7944580285427426e-05
-3.68245984735091742e-07
-2.06678876384072045e-05
2.22779851326186117e-05
-2.6075856412011559e-05
1.30841173522801122e-05
-3.0184007620433477e-05
2.56735381166466399e-05
-2.39335033318667756e-05
1.87414437601071033e-05
-3.7473710143477509e-05
2.85606855229456443e-05
-1.89819029687555331e-05
1.84837882494982959e-05
-3.70617520451340085e-05
3.11092223829419391e-05
-1.50260666283920751e-05
1.73677785340370139e-05
-3.52943904706915786e-05
3.28706313979416705e-05
-1.26599278979696405e-05
1.65050451150154378e-05
-3.38024876964293828e-05
3.35228965296468826e-05
-1.10959476559117078e-05
1.544904970868042e-05
-3.10235171451720538e-05
3.43849843846457182e-05
-9.98841779032271648e-06
1.45618531710004616e-05
-2.95126556646381712e-05
3.57011594768494872e-05
-9.30849565466017284e-06
1.41146522053544942e-05
-2.99081743354984357e-05
3.66900462563002184e-05
-9.10890178461963071e-06
1.38783484601917638e-05
-3.0646664372634758e-05
3.7547267064405426e-05
-9.25063742935933439e-06
1.37722747753809742e-05
-3.15723324283696642e-05
3.75151320988179165e-05
-9.33109650173346639e-06
1.37785917192849349e-05
-3.22288269340754996e-05
3.65104322844888592e-05
-8.93758532188230784e-06
1.37434566102464601e-05
-3.2105274696250452e-05
3.43042753791685402e-05
-8.12469230726271452e-06
1.35310616504996634e-05
-3.15100624926620545e-05
3.13817725549425682e-05
-7.13678011758292531e-06
1.30633414468158356e-05
-3.00362038151294144e-05
2.80047807798024364e-05
-6.09963575061230772e-06
1.21508519066935402e-05
-2.74097649553990404e-05
2.46587087323553522e-05
-5.13771009441996184e-06
1.09650688211887864e-05
-2.47027242341846424e-05
2.17450219214944313e-05
-4.28926087490400429e-06
9.75702065307207508e-06
-2.20886657740072367e-05
1.91328540464461964e-05
-3.61529453786969692e-06
8.86449580874480077e-06
-1.9892162166894915e-05
1.69492519631192495e-05
-3.07851943806021879e-06
7.98231784438099175e-06
-1.7611726417127901e-05
1.48734883649478008e-05
-2.74868627550993238e-06
7.23814704977494207e-06
-1.58473517428745214e-05
1.28477314999484718e-05
-2.56475991261405044e-06
6.95780227221084375e-06
-1.44855960194560569e-05
1.06462581717245952e-05
-2.47499825497454808e-06
6.77111380613736816e-06
-1.30420842346331421e-05
9.48078283783562789e-06
-1.91019127749724938e-06
6.42901181581503963e-06
-1.07775883455558564e-05
8.46472629657729882e-06
-1.39571448946519767e-06
5.7671759473691121e-06
-9.25347327221243505e-06
7.269038385800912e-06
-1.00824955685997786e-06
4.84555984308449064e-06
-7.58675978487138404e-06
5.51452481935870472e-06
-7.31348176129465117e-07
3.91200407812409261e-06
-6.10806379096990117e-06
4.32704866012424803e-06
-4.80920793594642817e-07
3.09494673339768855e-06
-4.2931794873251434e-06
3.28833402053950968e-06
-3.22359706046244639e-07
2.31288303430275116e-06
-3.08086929223538834e-06
2.36962455519196177e-06
-2.18503790635128215e-07
1.62659359276245487e-06
-2.15230469137646876e-06
1.68920176085123115e-06
-1.45600371144715449e-07
1.08295797250254386e-06
-1.39668513796709276e-06
1.22247441416170821e-06
-9.09174308022064855e-08
7.23445372208770623e-07
-8.97054583019549683e-07
8.78469840518117143e-07
-6.06239320720169172e-08
4.79088669154954381e-07
-5.87924527673249047e-07
6.40049214952476186e-07
-1.89327782248249776e-08
3.20485463982046968e-07
-3.96269484819023548e-07
6.36285359274680279e-07
3.1209650177383119e-08
2.35112078056681711e-07
-3.03379543810454032e-07
1.31387372791794366e-05
4.17305284417299923e-06
6.20724464109210985e-06
-6.92601336270782417e-06
6.16140650638174082e-05
8.0553276262621123e-05
4.05539619652977456e-05
-4.19982753661590267e-05
0.00062538283757936422
0.00014924503170260457
-0.000141721985932095006
8.56614515681575703e-06
-1.38441403063678271e-05
6.83786288008884256e-07
-1.42711094552770896e-05
1.01124307231578943e-05
-1.6187600512928703e-05
7.43689177200329508e-06
-2.00073652323854188e-05
1.02513848575457385e-05
-1.25661052557618951e-05
9.40114380546135265e-06
-2.21494322325196201e-05
1.00734285350343657e-05
-8.74824878321541486e-06
8.14739276632974943e-06
-1.90889677266125528e-05
1.01264799247161426e-05
-6.23174218890671841e-06
6.60958101179951275e-06
-1.59060037664589294e-05
1.04661367459466324e-05
-4.80869923649432038e-06
5.55585303446849151e-06
-1.40929677764633579e-05
1.06432374054168275e-05
-4.09610959784948133e-06
4.87323464695538782e-06
-1.24571290769665185e-05
1.07154999347184043e-05
-3.71895960239465561e-06
4.59160469351018e-06
-1.14258709274707752e-05
1.08247220016969628e-05
-3.55230082955058645e-06
4.53886235636632661e-06
-1.09701707654308316e-05
1.0884603659185799e-05
-3.57225076079036155e-06
4.5917569170137678e-06
-1.08442993064421727e-05
1.07671224522259921e-05
-3.64500531620109584e-06
4.66520290198711194e-06
-1.08482281953212174e-05
1.00922670722968604e-05
-3.6223907008549387e-06
4.70031100804645535e-06
-1.04534353959668283e-05
9.13961257658341047e-06
-3.32045996842022984e-06
4.47454720550830376e-06
-9.75685164879320788e-06
8.12157749328401171e-06
-2.85962874878283272e-06
4.20414713478665834e-06
-8.95379097036443741e-06
7.08427449071958803e-06
-2.34025985330235584e-06
3.81876861625958367e-06
-8.02683520590532541e-06
6.05261847514736306e-06
-1.84411777470911454e-06
3.32512106822993421e-06
-6.93309935223793403e-06
5.11495414351295758e-06
-1.42022532440549853e-06
2.82022520300972199e-06
-5.8772335146133328e-06
4.36998865262987276e-06
-1.10614060953484764e-06
2.37487916203518355e-06
-4.99956994454896267e-06
3.82092258930385424e-06
-8.92937519808633344e-07
2.04387137496926039e-06
-4.3504091301751018e-06
3.45551955356459943e-06
-7.59869200089686175e-07
1.81230928382875938e-06
-3.87769031641387149e-06
3.17536494668686264e-06
-6.85863543077202993e-07
1.69072240280011952e-06
-3.5640487476159793e-06
2.86519654289073271e-06
-6.69661697697603197e-07
1.62923059849888741e-06
-3.26415323333270151e-06
2.47608197000861806e-06
-6.61173431887498135e-07
1.56338035156559028e-06
-2.83753613184154484e-06
2.06869589351416765e-06
-5.21403696511201282e-07
1.40603033832506404e-06
-2.31674484801910254e-06
1.65146952073317304e-06
-3.63074992065659226e-07
1.19001038941720537e-06
-1.80719603413360044e-06
1.25104255677783646e-06
-2.37887004511844811e-07
9.15676191305820297e-07
-1.28780284803159511e-06
8.83431443260158027e-07
-1.54072090902366182e-07
6.45315737014995982e-07
-8.44270751582487088e-07
5.99034725125156078e-07
-9.74285049058422388e-08
4.1852153708943925e-07
-5.04580699340816389e-07
3.87371677036076565e-07
-5.86314414487585607e-08
2.46663546716611643e-07
-2.85498443931550555e-07
2.44780433942620597e-07
-4.05572814779579652e-08
1.42800550963312907e-07
-1.58661958858266644e-07
1.69474828495570852e-07
-2.75632984666340265e-08
8.23430898330860371e-08
-8.56484816989129557e-08
1.25369461598167938e-07
-2.50317687292147548e-08
5.58262605538868382e-08
-5.26260206442111634e-08
1.01165650806914908e-07
-1.72662972854739948e-08
3.83476823338087477e-08
-3.71244673240901535e-08
8.56327512928140157e-08
1.90121694431318771e-10
2.41836655370502908e-08
-2.63377823324991313e-08
1.0237318089657481e-07
2.31888927079593905e-08
2.57957732038498064e-08
-3.21304633054943861e-08
3.08309156241943786e-06
1.60936666563350472e-06
1.61258830885902436e-06
-1.91479151636172203e-06
3.0360094184664971e-05
5.71047739159428471e-05
2.42338234237473557e-05
-2.7265486600707418e-05
0.000654337170429186016
0.000136639700213038326
-0.000129235003581091998
3.95139699644381275e-06
-9.63171005708093908e-06
1.01797110422274895e-06
-9.87316587364037295e-06
3.84202965058463696e-06
-8.84676056072018534e-06
3.81132714713407912e-06
-1.18716252308330529e-05
3.40447105006155133e-06
-5.81389201024998056e-06
3.68465904659937824e-06
-1.07879930958041052e-05
3.23228266945419694e-06
-3.53915167517289178e-06
2.52544904720534888e-06
-8.06217942401763901e-06
3.32767577512235373e-06
-2.18507695860744428e-06
1.62677751052779786e-06
-6.0751857489235601e-06
3.56483169401335108e-06
-1.41698819271968101e-06
1.18646066960074747e-06
-5.037258813268836e-06
3.84367257068225747e-06
-1.09856275566871732e-06
1.08491872658469428e-06
-4.52989116569723142e-06
4.14544438744216424e-06
-1.00385515903115504e-06
1.21501238342646493e-06
-4.38788148437639107e-06
4.35566441482112766e-06
-1.0482381522450372e-06
1.45446020454644664e-06
-4.3984465084387324e-06
4.41742438082503907e-06
-1.2018462896599407e-06
1.63082474686188429e-06
-4.3875968185990211e-06
4.32005495735442349e-06
-1.33177754384330543e-06
1.63684836216798276e-06
-4.24827056016104763e-06
3.91033016863253014e-06
-1.36309662670186268e-06
1.68093862511950206e-06
-3.94658348292720933e-06
3.36594319518604732e-06
-1.16515325075159214e-06
1.54606530549550722e-06
-3.53625019006602947e-06
2.77353479742918706e-06
-8.74917166482866053e-07
1.32151286267812064e-06
-3.01274012836161007e-06
2.19752506811623962e-06
-5.93679739000785e-07
1.05797707040033182e-06
-2.44289499331927201e-06
1.69847359498494564e-06
-3.84068975573918037e-07
7.71784323120647513e-07
-1.89150128185054719e-06
1.32750516456683306e-06
-2.22039530574226251e-07
5.52333411379014801e-07
-1.49236847626311712e-06
1.10511416160292507e-06
-1.28826183962932936e-07
4.03646745829242492e-07
-1.2145298397309923e-06
1.00551980298059309e-06
-9.47064919381586134e-08
3.46808037234504082e-07
-1.06368930713282699e-06
9.85527743045937432e-07
-9.04900827383134938e-08
3.62728031317952422e-07
-1.02604259525085499e-06
9.65700440155343969e-07
-1.18031568360916334e-07
4.16193096714013388e-07
-9.89671880746854874e-07
8.77815914722476444e-07
-1.6478969705655649e-07
4.89653117575824351e-07
-9.16985083188169281e-07
7.33254939102005585e-07
-1.79237932943838303e-07
5.23572188647501914e-07
-8.01199964462983368e-07
5.56526095703636718e-07
-1.35356515764377937e-07
4.15681482158391194e-07
-6.08751160654352613e-07
3.94142236708666905e-07
-8.5151739652924005e-08
2.94999816450301563e-07
-3.97252564016075385e-07
2.48078212263834677e-07
-5.12280674976098324e-08
1.93737170132695828e-07
-2.27470588307890547e-07
1.4503224622665084e-07
-3.03157163444479998e-08
1.07304112265138334e-07
-1.10577895477847882e-07
8.46797780817558351e-08
-2.15576326768112329e-08
5.55997650166461986e-08
-4.87118009353435986e-08
4.77113465054604599e-08
-1.62733867384259065e-08
2.75221448711006997e-08
-2.22781488159047216e-08
3.12523782087094697e-08
-9.94467200144489796e-09
1.39533142404230164e-08
-1.13900922286579976e-08
2.82505659721478096e-08
-3.53394537394735141e-09
7.16356185266181819e-09
-6.18604504034698612e-09
4.01109424613298928e-08
-1.55055814175747266e-09
7.10841569319434258e-09
-4.73608024558770707e-09
3.17625316040350871e-08
-7.62486060029659332e-10
4.61639173271083969e-09
-6.01100784728987595e-09
2.62046522326231666e-08
2.60728321297324503e-09
2.83713207341090906e-09
-3.78320659711018204e-09
3.66784197726027035e-08
1.76476048086424393e-08
5.56411792190420974e-09
-8.2088103491226815e-09
1.08892075518275273e-06
6.95704106663769886e-07
5.6917640368015268e-07
-7.06801046271322161e-07
1.22848903448162073e-05
4.53046076750794372e-05
1.80411914946235154e-05
-1.88541054256341678e-05
0.000644326507171925629
0.000129053164095498948
-0.000123377173999504591
1.67541984327355539e-06
-5.8038823371993435e-06
8.22847115836792851e-07
-6.68028940731669421e-06
1.20194860460954905e-06
-4.13687393240874341e-06
1.39075903780937264e-06
-6.09791111513684693e-06
9.6521319865134579e-07
-2.5170193463211359e-06
1.02964765694481266e-06
-4.40081350280075226e-06
1.06511764064469077e-06
-1.75225631886876493e-06
5.34794094808025506e-07
-2.7126982876528711e-06
1.10689216083841786e-06
-1.09904411277587213e-06
2.34617789977061682e-07
-1.63531054129709707e-06
1.16288732461706423e-06
-4.95586323295245307e-07
8.711078735665385e-08
-1.25765566194735408e-06
1.3384973956658534e-06
-1.92702292057080969e-07
8.62993984173376447e-08
-1.28061025389059129e-06
1.6284040444805237e-06
-6.84090422732732709e-08
1.65402004485210279e-07
-1.4382999776971713e-06
1.90622271092282595e-06
-4.40745544192911418e-08
2.98686189925110991e-07
-1.65000360605990305e-06
2.01154985589707463e-06
-1.26681695835357658e-07
3.83679731168276842e-07
-1.69331918648963024e-06
1.9112458620565019e-06
-2.37687814567177514e-07
3.99565619135904174e-07
-1.62786787701122907e-06
1.56438787722050149e-06
-2.87233360376332898e-07
3.86341940506092128e-07
-1.36246363039060932e-06
1.18139170599337706e-06
-2.14045140477089548e-07
3.06815720244758723e-07
-1.08802822001327288e-06
8.1559312886893185e-07
-1.01114889124731647e-07
2.02328173824290962e-07
-7.73733215218004784e-07
5.14174500908235865e-07
-1.46736875201275634e-08
1.13634244366454414e-07
-4.86179079054555087e-07
3.15002964158948069e-07
-3.44730865056135469e-09
5.14915612425159531e-08
-2.71103706900120614e-07
2.1013515488187914e-07
2.74381439808886456e-09
2.26239282665357002e-08
-1.66368388943118197e-07
1.93017264017834694e-07
2.81046794249070166e-09
1.59662012844138676e-08
-1.40657805353981602e-07
2.33293301737940057e-07
3.31565171793180283e-09
3.36716867324310285e-08
-1.79043625670375161e-07
3.11012241232902727e-07
-2.11101890484578623e-09
7.71527155442779621e-08
-2.46033029139561029e-07
3.74968401535799371e-07
-8.42073805217503649e-09
1.1960522663584081e-07
-3.66916439471497878e-07
3.26306522908086657e-07
-4.08204598224233397e-08
2.07844703608456907e-07
-3.14710733358152479e-07
2.10207935410141401e-07
-4.62840038531125564e-08
1.70015382611768659e-07
-2.08841885232312568e-07
1.39943854563181167e-07
-3.5733585880056139e-08
1.20613786225123108e-07
-1.32550469459614463e-07
7.47631933047743703e-08
-2.18313478470663655e-08
7.13297934493084227e-08
-6.19817980070214007e-08
3.57258245539908896e-08
-1.06716311795919284e-08
3.24262321125819778e-08
-2.3268878527952581e-08
1.79323511191287063e-08
-4.27751152881162315e-09
1.26303122008936296e-08
-7.20953209025327156e-09
1.24868633790670439e-08
-1.83733981624792985e-09
4.0148329935006463e-09
-1.72466831410229525e-09
1.05459319045745342e-08
-7.86444751359635832e-10
-3.36674410868807222e-10
3.01209083223338565e-11
5.52667041428271384e-09
-6.46301379612658075e-10
-1.57355017113932708e-09
1.39108002499569093e-09
4.2636701125734448e-09
-1.17595889929870615e-09
-1.99443843447944712e-09
1.48470111311310833e-09
3.1859598833951921e-09
-3.21303808669322491e-10
-2.0437621760757015e-09
1.31454332637354201e-09
2.82692945274588985e-09
1.73465129400069053e-10
-1.70206275359225914e-09
1.19976011695832962e-09
4.84140139936295748e-09
1.40508289682853697e-09
-1.30942705199333941e-09
9.89736464065169903e-10
1.1364409074116716e-08
1.37191752112092303e-08
1.06846764149548378e-09
-2.31280712291274446e-09
3.96816444428969718e-07
3.87760657432971929e-07
2.53950413433325681e-07
-3.02691172836435065e-07
4.38001727812560206e-06
3.69682912554516709e-05
1.54244751186281902e-05
-1.35697798621741043e-05
0.0005929866499388498
0.000124449057070889708
-0.000115640444031651614
5.91827660092683994e-07
-2.73729037867149264e-06
2.84707584894617866e-07
-4.10359416421045337e-06
2.79478659440209605e-07
-1.69665153559643004e-06
3.47684894507363966e-07
-2.65605547809527462e-06
4.20586086471272217e-07
-1.7135477399964837e-06
1.76394851664031162e-07
-1.25524569762357563e-06
6.30663890098047597e-07
-1.86484240064542363e-06
6.05695984157757207e-08
-5.3763638631164704e-07
6.09928976884545126e-07
-1.19830646985246316e-06
-3.746919626296464e-08
-1.79185902906258857e-07
5.04760438972411799e-07
-4.36533193369197568e-07
-7.17307779192834223e-08
-1.41733231580026887e-07
4.71009947708115097e-07
-1.75501402442974673e-08
-4.54257410182175208e-08
-2.56402982190370242e-07
5.82766893507081279e-07
1.18974574920839012e-07
-1.09928428532077021e-08
-3.92035015129653617e-07
7.19573874820707112e-07
1.11863572181690351e-07
3.77472983275336344e-08
-3.98382086095482207e-07
7.41124486671841946e-07
2.91995908376411238e-08
8.03215735510404427e-08
-3.42290511504406509e-07
6.52131894609765405e-07
-6.33674058671733635e-09
8.01008013298916487e-08
-3.46091248798840874e-07
4.38007743402248913e-07
-7.30144227325449367e-09
5.24784281734827362e-08
-2.39667158144062929e-07
2.44036866393899352e-07
-4.67670742869319029e-10
2.70118055251491194e-08
-1.32522186951391073e-07
1.17201022908044511e-07
1.03278986272972686e-08
7.87135860047394468e-09
-5.91639833715135781e-08
5.13767508500483089e-08
8.65686137207111501e-09
-3.07609179819130551e-09
-1.55977762134397625e-08
2.37715904843403588e-08
5.29775786689426099e-09
-5.32496077345358918e-09
-1.06359082017280297e-09
2.0232287945499893e-08
3.67306342752549158e-09
-3.70275286464036638e-09
-9.17912028980869472e-10
2.76696806464047824e-08
2.3490055778744404e-09
-7.79205399356582857e-10
-1.06269251575938918e-08
6.67860618479493405e-08
1.65282202975221705e-09
5.66313717291554981e-09
-4.72676638425178367e-08
1.23498173448929928e-07
-8.61192118313654942e-10
1.98285037628304894e-08
-9.38897758030795805e-08
1.3540382995624575e-07
-3.81794027205188884e-10
5.81404004077080313e-08
-1.19436988713283185e-07
8.07113071868609764e-08
-3.87255623026524505e-10
6.83089640536155393e-08
-6.9516840511971001e-08
4.17042067634941444e-08
-3.95335722123942769e-09
4.66905406968067869e-08
-3.85415963376133821e-08
2.26912982038133227e-08
-1.95738384790458246e-09
2.01103498088648103e-08
-1.38669645402338446e-08
1.25492733086403298e-08
-5.80251772612588818e-10
7.01394230816901382e-09
-3.2335356197235334e-09
5.5939953200690259e-09
-1.4056333730167501e-11
3.14879822731097086e-10
4.56543469591540289e-11
1.5300305402389134e-09
-4.56494927324178673e-11
-1.37883313651183272e-09
1.04236816764152145e-09
7.96211049888737598e-10
5.88981147091060941e-11
-1.27247246590395039e-09
9.74416604172617457e-10
2.90104335628230996e-10
-1.94960480298747591e-12
-1.04009017646135799e-09
7.32020117793473939e-10
3.56526082011999401e-10
-3.53335054890778697e-10
-1.49832249934282074e-09
9.63243033605747425e-10
1.27906631549827875e-09
-4.8836328095267e-10
-4.00502242099191396e-09
2.19883295686593167e-09
1.93645984752074005e-09
-5.48163754911883189e-11
-4.08276856978252553e-09
2.49263564421955563e-09
1.98539938172096986e-09
1.92753217201200828e-09
-4.70249348575774963e-09
2.76038231704385784e-09
2.10659279825574071e-09
2.49684475195669336e-09
-2.69313790127188968e-09