/*--------------------------------*- C++ -*----------------------------------*\
| =========                 |                                                 |
| \\      /  F ield         | OpenFOAM: The Open Source CFD Toolbox           |
|  \\    /   O peration     | Version:  2206                                  |
|   \\  /    A nd           | Website:  www.openfoam.com                      |
|    \\/     M anipulation  |                                                 |
\*---------------------------------------------------------------------------*/
FoamFile
{
    version     2.0;
    format      ascii;
    arch        "LSB;label=32;scalar=64";
    class       volScalarField;
    location    "0.119999999999999996";
    object      rAU;
}
// * * * * * * * * * * * * * * * * * * * * * * * * * * * * * * * * * * * * * //

dimensions      [-1 3 1 0 0 0 0];

internalField   nonuniform List<scalar> 
7236
(
0.00647057185280494954
0.00448737289455885136
0.00252736178050537441
0.00156324578745347938
0.00114797746084950429
0.000937736361672988103
0.000925375371524615959
0.000983515759431224197
0.00109626847902338678
0.00126085799228843045
0.00141324706944454394
0.00164071289467684618
0.00202775864480723338
0.00256263084688534634
0.0031568950046489434
0.00402631740907954689
0.00548982893247047105
0.00773419918561854807
0.0100057828119093344
0.0124775968416676909
0.0149829107373149369
0.0172608998348728823
0.0191857127705994876
0.0207445278352309352
0.0220193679954613815
0.0230803450338367827
0.0239747154329252969
0.0247389152174498778
0.0254000000561060736
0.0259784841843954568
0.0264909143306002841
0.0269505646435476733
0.0273679014556131445
0.0277512203288377592
0.0281071561292407165
0.0284410338247557612
0.0287567320183530137
0.0290375314773431981
0.0193615324873173261
0.0158200640887695941
0.013242933789584483
0.0106873753963660934
0.00973436242708685361
0.00879562549262299584
0.00822507020356090177
0.00810360221202556172
0.00824456590108008959
0.00847349503636951086
0.00830898818773803151
0.00780681947596290407
0.00703051739657533682
0.00648928032726814579
0.00628962582123739847
0.0063862715721558971
0.00673409327033390372
0.00745133572409898207
0.00881256461535810838
0.0108652429691048422
0.0132800910582252883
0.0156778797256387249
0.0178848001587054786
0.0197773980954444664
0.0212932484176760473
0.0225028022797987906
0.0234908504257198142
0.0243185538244368657
0.0250260750031371382
0.025640468552847618
0.0261814162945605798
0.0266639183390311868
0.0270995497041122795
0.0274973332479011567
0.0278643762809729495
0.0282067177634070868
0.0285296879825440858
0.0288181265070269095
0.0176372161544729802
0.0175050168880974653
0.0191087838449030128
0.0186481392379129404
0.018212274690771392
0.018520494027825761
0.0185440193770209372
0.0182959949231701717
0.0181788172878606068
0.0182520813197197679
0.0179638389386767849
0.0175372377633059955
0.0160769011205565381
0.0146393422345946142
0.013387779892645146
0.0123268025234782169
0.0114154854962672577
0.0107812105468014265
0.011140102823539947
0.0120901846609350778
0.0136337245925421541
0.0155918002926251666
0.0175923386454876242
0.0194007615383934642
0.0209048028676286704
0.022127804800217088
0.0231344984858284468
0.0239805559923593932
0.0247042981874541247
0.0253324243019489616
0.0258846513329018778
0.0263760400097017289
0.0268182481524306959
0.0272203773418187335
0.0275895648090934767
0.0279313176108861236
0.0282501282149312354
0.0285320603676321519
0.0157786254897276761
0.0168388003816349816
0.0185732057717701744
0.0190737515993160099
0.0191322646666191414
0.0193526575636298361
0.0194198868723363532
0.0196141590496298444
0.019932712160428287
0.0202067197459190814
0.0204801525897896387
0.0205581465960183347
0.0197641734304415152
0.018773266647723913
0.0174381217546354279
0.0160101194034413079
0.0146937677556488906
0.0137546575831770292
0.0134716287306947922
0.0138014993054579229
0.0146805790047248984
0.0160329894364982864
0.0176471791732654114
0.0192367615536785837
0.0206412264775652637
0.0218288526734576951
0.0228282163127730767
0.0236776519883376349
0.0244083061883027252
0.0250439786065395006
0.0256031302856943276
0.0261002173689704221
0.0265465979282746393
0.0269512174725367697
0.027321115740436646
0.0276617595637508942
0.0279775228156830431
0.0282546510133745363
0.0145519012118566597
0.0168699978005817514
0.0187234676872858052
0.0194285865894691413
0.0194146081094973416
0.0195406147681996267
0.0197195658198798668
0.0200484554554482969
0.0204997758416871727
0.0206122444610866533
0.020315085968817221
0.0196166521892141774
0.018815160109777497
0.0179967458751941027
0.0172998950782286658
0.0167974796369546597
0.0161867303247183701
0.0154005515385812527
0.0148862407803947525
0.014917651226522206
0.0155019974117928741
0.0165286616322845061
0.0178315053828765127
0.0192017020754231757
0.020480746133792721
0.0216064918319026494
0.0225785892105593404
0.0234174652331694752
0.0241453382328127228
0.0247817037585904322
0.0253428211595174042
0.0258419472045044868
0.0262897596310635272
0.0266947986311582217
0.0270638449668331414
0.0274022151251022486
0.0277141236468924496
0.0279862436682899382
0.014204111625263088
0.0167065155049434255
0.0187254261387633132
0.0197008026166060647
0.0195456489936234705
0.0195766890812868917
0.0198367033923501079
0.0202645866600128302
0.0205025853549235769
0.0202835535265857674
0.0198135172443990419
0.0191832501669351521
0.01850143471714406
0.0178447586842409057
0.0173094742883784548
0.0169380057990809983
0.0166876636683529443
0.0162302749174256696
0.0157451182979734434
0.0157025431943591184
0.0161303129663451089
0.0169578315750070624
0.0180500222661955888
0.0192409252203497548
0.020396960917529669
0.0214494605958766467
0.0223811080888714209
0.0231983972402534724
0.0239150700710889612
0.0245458361457656579
0.0251042078876418454
0.0256018192119658351
0.026048363731631375
0.0264517625168440296
0.0268183861475042723
0.0271532649135771895
0.0274603231443675405
0.0277270408079690056
0.013990632965191525
0.0165036629015728603
0.0185197844509754073
0.019724855694025701
0.0194548627646129631
0.0195331613617223433
0.0198738725892907454
0.0202465815742941049
0.0201408087098711927
0.0198673463356463034
0.0194503058154933371
0.0189137831927450803
0.0183560257283044252
0.017848301648449711
0.0174468618041755223
0.0171887570471394406
0.017044856443534321
0.0167023994438088678
0.0163075591191032786
0.0162796123266653985
0.0166403878836845105
0.0173408439514756568
0.0182782359535781022
0.0193235945515345051
0.0203674305336853829
0.0213441298361737794
0.0222280481589312816
0.0230161196284567396
0.0237150439592728988
0.0243349547926113609
0.0248864605579479578
0.0253793529981383471
0.0258221451516216435
0.02622198277301711
0.0265847067211943504
0.0269149621773937218
0.0272163264608856481
0.0274771956933954412
0.0137934245101144683
0.016296075956668498
0.0182787226095707418
0.0194938066473135801
0.0192756666058485487
0.019450359540815889
0.0198826916892099401
0.0200551861243493529
0.019866464877199428
0.0196084995524119891
0.0192380777620837773
0.0187877970993287798
0.0183333402945714541
0.0179365618631225042
0.0176383971903839309
0.0174699100453284371
0.0173497577928841823
0.0170476111760645664
0.0167423506621477668
0.0167470546529299227
0.0170745653671745476
0.017687210314101573
0.0185062423458203472
0.0194320847103680583
0.0203760212262069605
0.0212789019748875347
0.0221119434718733167
0.0228660167096195951
0.0235424240965588991
0.0241473051012956151
0.0246884844335033618
0.0251738649173677484
0.0256106842089928975
0.0260052158675878921
0.0263626874494656861
0.0266872918461079148
0.0269822285856813893
0.0272368128814933531
0.0138166692365846149
0.01620306399489033
0.0182053219571850187
0.0191599397075878711
0.0190628122231237436
0.0193475714034300472
0.0198786278866116967
0.0198286307990962474
0.0196488144311330187
0.0194106073702699188
0.0190900309856973649
0.0187188508466503908
0.0183551243122130475
0.0180508072907549812
0.0178392768227321509
0.0177478029045330908
0.0176307432484177629
0.0173459047984313858
0.0171166960790359694
0.017151984972777496
0.0174578760662357467
0.0180041360727032154
0.0187292277504325574
0.0195556824728353972
0.0204113246546169455
0.0212445555771060314
0.0220262383296176006
0.022743684127649294
0.0233943171191285833
0.0239809953759944176
0.0245090411447111307
0.0249845445657877543
0.0254134551665680213
0.0258011306017221498
0.0261521365180938034
0.0264701717059449594
0.0267580390581261228
0.0270059418426718024
0.0139737259474608574
0.0162720552062125753
0.0182627312326786237
0.018807897573039415
0.0188366860117108181
0.0192413873246768188
0.0197598896492938748
0.0196276636037473091
0.0194648648178451233
0.0192543907516420608
0.0189846289063168513
0.018686211535634295
0.0184043158198874783
0.0181795464860314941
0.0180412137851826242
0.0180151598422917635
0.0178961826925221126
0.0176205155073295809
0.01745381635290243
0.0175140817376045303
0.0178031727045208192
0.0182962913741280125
0.0142795692397116435
0.016523803677774361
0.0184065753219769257
0.0184194336507311589
0.0185914706600919903
0.0191377448206134851
0.0195662104305252028
0.0194625412551857821
0.0193237267903387105
0.019145178875823822
0.0189244522854871353
0.0186897733963032053
0.0184769615043085603
0.0183193093967525152
0.0182430130519101522
0.0182716736154295671
0.0181487746800798218
0.017878178983783511
0.0177624669672827445
0.0178424519851551611
0.018117393585706687
0.0185666798012420961
0.0147752358234341449
0.0169142708359126086
0.0184826893725673069
0.0180271022816258265
0.0183534787882759683
0.0190606017071174444
0.0194178247713278213
0.0193398027875474089
0.0192248415311601605
0.0190754160678052037
0.0189000255043104103
0.0187213115354519961
0.0185679550027690321
0.0184678808618276291
0.0184443568756190203
0.0184846103824100397
0.0183567228826988435
0.0181214871116388634
0.0180472178981872997
0.0181425462560339951
0.0184051356846936173
0.0188174637735828466
0.015569678492210963
0.0173837944726076277
0.0179689707863261092
0.0176412045108974777
0.0181306537714313078
0.0190172430869035396
0.0193011993683701345
0.0192468443769905975
0.0191571348089463293
0.0190383540300322757
0.018905438659377001
0.0187759839740323786
0.0186744115907884305
0.0186238226892262541
0.018644758361005518
0.018668823228734855
0.0185348697728093467
0.0183518708007129813
0.0183112401525942839
0.0184182992135734185
0.0186697672011292108
0.019050414295906648
0.019031484227682232
0.0189372225975759749
0.0188511996087687289
0.0187945662629602772
0.0187857922002926739
0.0188435334474073742
0.0188510537695943982
0.0187097705072566296
0.0185702906173167218
0.0185569446877430246
0.0189443421920995891
0.01892605478688901
0.0189518989389290231
0.0190393596043993973
0.0190302657064197883
0.0188810463082781169
0.0187777675645543068
0.0187864669236325194
0.01914206571439157
0.0192529580751105676
0.0192235448401788522
0.0190626318240444924
0.0200451845429975122
0.0242634544404215294
0.015353389221920739
0.00835967016736386022
0.00613958619058238911
0.00525493956674081414
0.00493073685804564909
0.00502087959515384961
0.00529523102979410736
0.00563681259822741438
0.0059791655914903678
0.00636243429272422695
0.00683801554690718471
0.0075098926047178511
0.00842844866046058364
0.00948457371055884402
0.0107737710467407863
0.0124506978386012285
0.0144138799353847723
0.0163626985142956913
0.0180704277261492588
0.0195214218094689716
0.0207737190808273305
0.0218822660210568724
0.0228646393118739286
0.0237237595884570406
0.0244720675555711378
0.0251270197958103382
0.0257048665722935284
0.0262194145478344097
0.0266820201953783982
0.0271021068985359062
0.0274875263099192378
0.0278446769505741806
0.0281787428691105853
0.0284938940590343144
0.0287930598220835672
0.0290586753629647546
0.0188970945301208323
0.021325604040489634
0.0220772750257813566
0.0211025549974495005
0.0199650350549137323
0.0172914479846685218
0.0147771727473480514
0.0132902547799072877
0.0126457955474448963
0.0122435647050732187
0.0117820347129432741
0.0112900290879869684
0.0109170751597388264
0.0106963852943921418
0.0107308316021254863
0.0108790629495345847
0.0111573484898905857
0.0118700927485126534
0.0131189790761361211
0.0147712311623843032
0.0164944184887446249
0.0181819382908941854
0.0197413489833708523
0.0210946743883721095
0.022237634207501359
0.0232018425235925481
0.024022981807203192
0.0247309448871745954
0.0253488438654536699
0.0258946907467963172
0.0263824956114312136
0.0268231036370606135
0.0272251675676884186
0.0275956154757271525
0.0279399843243226843
0.0282630733177754272
0.0285691710663224553
0.0288421748269380857
0.018532293568448141
0.0200039180009398375
0.0214345054626250767
0.0219285393388236674
0.0216851700508164068
0.0216685427745400942
0.021925058675197312
0.0215250939860481341
0.0213182883261970116
0.0212346986664650079
0.0209903026020503043
0.0202690255509814891
0.0188214397923178837
0.0173768973484208812
0.0162279638571560872
0.0153025464943666693
0.0144444068545359402
0.0140038953566742636
0.0142398082147139771
0.0151009594279145221
0.0164105774349349968
0.0178966400359553586
0.0193724991248135359
0.0207086939429356846
0.021859330296813282
0.0228382347532555263
0.0236758547941497907
0.0244000548548032048
0.0250327799104046837
0.025591302106660288
0.0260894551219776442
0.0265382053209617594
0.0269462990138943786
0.0273207250157696292
0.0276670340326784572
0.0279895046996398028
0.0282916180013117954
0.0285585452698025009
0.0179004606993511117
0.0194003072511181041
0.0207701200891303242
0.0218610670896580671
0.0218617784795121575
0.0216039233838152857
0.0213574447649007085
0.0209111503258098859
0.0206218092074569107
0.0203472737346294327
0.0200027621849365941
0.0194608046268603015
0.0187634036083799693
0.0181141056962277579
0.0176463151577575736
0.0173947394010352738
0.016811414499221515
0.015995154133070219
0.0156993553941291927
0.0159984663105363668
0.016808719876241468
0.0179602517175787395
0.0192344217547505102
0.0204644465524624168
0.0215693847393605836
0.0225336350601276492
0.023370694243154997
0.0241001273066952133
0.0247400494773195763
0.0253059089228249399
0.0258105992219719096
0.0262646553467787459
0.0266766050334103846
0.0270533096900138492
0.0274002327969763461
0.0277216162349661344
0.028020841506134108
0.0282832877348034584
0.0174752075448810079
0.0191821029371179695
0.020458223751112857
0.021551304794292965
0.0215667328995823165
0.0212666635507286553
0.0209073463524914425
0.0205859381411563312
0.0203401010095003755
0.0200945396814860289
0.0197747504677302614
0.0193063210184707193
0.0187193044485294315
0.0181662608782392765
0.0177724310967496031
0.0175451344466075639
0.0174356266503370716
0.0170383510598637739
0.0166069938880393335
0.0166932919623063412
0.017249046743393226
0.0181468936591328359
0.0192253959110458596
0.0203291100132850892
0.021363345095952762
0.022292386810354739
0.0231137674814604795
0.0238375723605310751
0.0244768424986513237
0.025044298325116187
0.0255512909682432954
0.0260074790796965896
0.0264208742211779861
0.0267980142066665192
0.0271441469809756072
0.0274633900722648233
0.0277589933721014842
0.0280167917470517704
0.0172702688446451195
0.0188480755507689814
0.0199726306452267556
0.0211601295344507993
0.0211746548100665809
0.0209213721034810091
0.0206556246337622311
0.0204158371002541618
0.0202083017430916452
0.0199802239715683796
0.0196754615009636577
0.0192621555768446723
0.0187818496988151687
0.0183304641717217699
0.0180067631321884324
0.0178333201189567539
0.0177982213303907212
0.017552209084155921
0.0171956550284213007
0.0172078642137303145
0.0176262752236429759
0.0183620491062107816
0.0192863832728931948
0.020271038393460894
0.0212263699470495656
0.0221079503580032324
0.0229023370604436761
0.0236114249512349508
0.0242430553644066502
0.0248067891538916833
0.025312039077613889
0.0257672658044043462
0.0261797265037059801
0.026555465930710908
0.026899394758117836
0.0272153910342106536
0.0275064533735430716
0.0277592550328350264
0.0172272535278042115
0.0185286647760487047
0.0196644167415700212
0.0210403172441963812
0.020904992904346404
0.0206709742089900526
0.0204623038711398281
0.0202712932716583201
0.0200936282706796407
0.0198859174414457891
0.0196105533778095885
0.0192555643208811335
0.0188627921508028804
0.0185031428749824825
0.0182490593964840971
0.018131578931589995
0.0181517037267053191
0.0179443300045110908
0.0176120713389736096
0.0176161186165675263
0.0179604228134395694
0.0185833137285818482
0.0193860384664227177
0.0202653189762685704
0.0211421971704622187
0.0219705930294351107
0.0227307531388480123
0.0234184051432198524
0.0240367638070793296
0.024592245391280125
0.0250921721435550561
0.0255436260411049665
0.0259529504745583187
0.0263255708240753665
0.026665962969114651
0.0269776823625428805
0.0272634288683731921
0.0275108280866796957
0.0173547344330377169
0.0184537873093499338
0.0196151195845947791
0.0209894951564107111
0.0206748137955320641
0.0204639429488534495
0.0203023355695399581
0.0201509448662994979
0.0199947971526171983
0.0198065986322085337
0.0195609420081015277
0.0192597843461162765
0.0189411910611896363
0.0186607658727263835
0.0184716360086791057
0.0184052358404426693
0.0184159679239497831
0.0182199490383250923
0.0179494586826274838
0.0179626408457679992
0.0182619102195006044
0.018801964121687078
0.0195070945071236894
0.0202947823988922707
0.0210976057272721888
0.0218713075900675083
0.0225932384073254354
0.0232548789111768142
0.023855685700247313
0.0243992288667990061
0.0248907802859545634
0.0253359866011276837
0.0257401939997626075
0.0261081273416324672
0.0264437583749151557
0.026750263940020981
0.0270300215290737098
0.0272716163186300757
0.017562096815184336
0.0185308112938550561
0.0197368665899078262
0.0208884031489818198
0.0204614922041279207
0.0202797850743458609
0.0201546018508387062
0.0200338038196091854
0.0198993760043982768
0.0197325612839635185
0.0195187585465802539
0.0192679101228791262
0.0190140005296311476
0.0188014890528645506
0.018671130489731954
0.0186519304886559913
0.0186529890581126831
0.0184624720947843511
0.018244417593441125
0.0182695492535322399
0.018537636045206838
0.0190138744515453186
0.0196392815403871809
0.0203478158726850059
0.0210824196812639426
0.0218024312607007185
0.0224844773313233014
0.0231172710157054664
0.0236974444649996757
0.0242261652808132347
0.02470682085768372
0.0251436590309814662
0.0255410083495182516
0.0259028535444346258
0.0262326207002629083
0.026533072892670817
0.0268062512533976255
0.0270416729616880618
0.0177597281533030671
0.0186892297942296073
0.0199460128904192791
0.0206104341706579465
0.0202435023655518076
0.0201002894152377057
0.0200119398893795451
0.0199202918019055035
0.0198094281944096277
0.0196663384836645409
0.0194860381672694351
0.0192828069449094003
0.0190860426184150771
0.0189320859272649536
0.0188538790860397973
0.0188775963153913519
0.0188705397327768032
0.0186833820664051124
0.0185098298709788327
0.0185465712326640837
0.018791421183364021
0.0192168640726030487
0.019776220160824181
0.0178954802713299534
0.0189156482050519929
0.0201718419785991906
0.0202867693216456021
0.0200141118994807583
0.0199263629268305979
0.0198780282690052823
0.0198173242994282364
0.0197311150308220815
0.019613502623935776
0.0194673045507287937
0.0193083261077590593
0.0191622288781087453
0.0190590949034604301
0.0190265213215778904
0.0190879052522744501
0.0190728563287526909
0.0188870989631158073
0.0187514855944317833
0.0187988399421239738
0.0190256863149113019
0.01940983298099902
0.0178260847272626519
0.0190691625740147773
0.0203984450326344102
0.0199288375177876925
0.0197807959041747215
0.019762710719842199
0.0197591840095615659
0.0197297994158360662
0.0196686701234307613
0.0195775623435427044
0.0194650972055068448
0.0193467862074591344
0.0192454075013213897
0.0191863215294210375
0.0191931460279544039
0.0192865152682385778
0.019262724542647932
0.0190765116645493921
0.0189731709687520414
0.0190299043776179025
0.0192424391490127779
0.0195923455992731248
0.0175322675161685738
0.0190855456274026114
0.0199066978579042521
0.0195547951630093489
0.0195557090741317954
0.0196167627666006469
0.019660012829848042
0.0196616433348665576
0.019625744636869797
0.019561164203866499
0.0194807356094881326
0.0193989576211942398
0.019336827161183838
0.0193155682356958916
0.0193558170006713839
0.0194755381644686164
0.0194420367899112816
0.0192538097590223695
0.0191777998302796876
0.0192425385468756524
0.0194433393551093521
0.0197643555805865519
0.0195658079583085724
0.0195144012450970648
0.0194650227199522873
0.0194368839847128341
0.0194474857081342566
0.0195155235612756058
0.0196402903693204851
0.0195961855207767502
0.0194206095534356429
0.0193676149728177448
0.019544285087433215
0.0195448310638105978
0.0195816729885052478
0.0196721547636151475
0.0197772115159521415
0.0197221641624718072
0.0195783263957363222
0.0195445902624763294
0.019740171026196067
0.0198481551743436395
0.019930013814963652
0.0198605080489973745
0.0212547364194901819
0.0223306411506898339
0.0240107435907782711
0.0219509934805560657
0.0195084357820098087
0.0165900082607621825
0.014740584750012704
0.0139667468687430657
0.0139191609230511961
0.014301848548679913
0.0147890181065539628
0.015231455422900891
0.015648790759220179
0.0161292296793645457
0.016630987065467024
0.0170628806566204376
0.0174945504177123588
0.0181093209923828199
0.0189044415330647253
0.0197594151352864789
0.0205914589787644375
0.0214033731180317613
0.0222000139371530056
0.0229759358322812052
0.0237103939013261072
0.0243830355190414669
0.0249899333211507993
0.0255363774458617181
0.0260299712298458219
0.02647849644501531
0.0268889894063857396
0.0272675304023691535
0.027619436219460964
0.0279492329234965059
0.0282606649864768425
0.028556758275779047
0.0288395130723621863
0.0290905565030522735
0.0209531410385746519
0.02168246041022601
0.0232501664943749221
0.0214977492014906159
0.02006679370729475
0.019162557276304417
0.0184426450638878227
0.0178963928087737256
0.0174657347038687828
0.017383572459322677
0.0173940078833964493
0.0174132752196275616
0.0172031034218894027
0.0170877949597720083
0.0170684235821936155
0.0169921789911065789
0.0169313250847662779
0.0170965556052393337
0.0175844195767595191
0.0183940556610957574
0.0193687082987170529
0.0203964643122847566
0.0213955379960462273
0.0223220384873673294
0.0231605155824891051
0.0239080139644736039
0.0245713892207904579
0.0251616122640584486
0.0256896609100221267
0.0261656652730863255
0.0265985181827419898
0.0269955010971829057
0.0273625566175291525
0.0277045845487789016
0.0280255789627177759
0.028329105777350802
0.0286184274385162148
0.0288765527904866377
0.0208225493498528334
0.0209571481878643197
0.021889147982349498
0.0221703543898466998
0.0214347287340379451
0.0208460974103720151
0.0202782726769197702
0.0198101902107071237
0.0196330066827315672
0.0196467387456172281
0.0196212206950260523
0.0193655681055789931
0.0189639659265670758
0.0186745490286367166
0.0185673351297699317
0.0184569027175820813
0.0180549525112552074
0.0176749438988919733
0.0177310461104793655
0.0182475753545106416
0.0190526534833166186
0.020010675200264446
0.0209976371267226354
0.0219349867681516569
0.0227887286525574363
0.0235521631676492149
0.0242312865507035985
0.0248363487023093785
0.0253779115236134681
0.0258656555944528632
0.0263081699547259643
0.0267127550019226369
0.0270854468797773681
0.0274311990694844181
0.0277540100787220245
0.0280569534100181643
0.0283425283174262715
0.0285949934522833384
0.0205286623294842173
0.0204664606163250246
0.0210220947681378154
0.0214354209406540062
0.021460138120422783
0.0209392744700398065
0.0204587815739600519
0.0200619128388889248
0.0198444171295504949
0.0197532648011620772
0.0196417995036554383
0.0193829477051859801
0.0190072274605867023
0.0187168390764159767
0.0185781115470683017
0.0185922492692575311
0.0186119362037936546
0.0183586755918030906
0.0181588142260663415
0.0184090381661662882
0.0190126631183651779
0.0198347677675536939
0.0207432057608441245
0.0216422494472235036
0.0224812493982069934
0.0232426454159108398
0.0239260291579669743
0.0245379928973917111
0.0250871506431144115
0.0255821620297357021
0.0260310163298312046
0.0264406891723310312
0.0268170582724774377
0.0271649801541158885
0.0274883800240610966
0.0277903005526131501
0.028073159794292913
0.028321456804048576
0.0202229985879384816
0.0200698796461282261
0.0205597150090525982
0.021136954525326386
0.0213523479844973281
0.0209098666318281341
0.0205288500733156604
0.0202176958121171521
0.0200199155075771219
0.0198907457070126234
0.0197418283834096646
0.0194941288529022656
0.0191727801530591352
0.0189078267080858356
0.0187683698868788447
0.0187688237891001017
0.018894085107393703
0.0187688760693065608
0.018523129870862267
0.0186379095575038255
0.0190927303574770467
0.0197849396898351591
0.0205980598204763346
0.0214362436062147006
0.022240906093963838
0.0229851722154588815
0.023661543933461017
0.0242720614218110316
0.0248225936648845298
0.0253201805479642619
0.0257718154937583953
0.0261838578018125621
0.0265618072682676058
0.0269102734450740802
0.0272330097693788513
0.0275329613694632325
0.0278124419181976987
0.0280564383917697793
0.0200221687053383432
0.0198187756344975034
0.0203355073212981505
0.0210527248017432569
0.0212118497171331494
0.0208427286959909884
0.0205502035915580694
0.0203171950072524449
0.0201492110005161013
0.020012367757600541
0.0198511421299460041
0.0196246826991376307
0.0193554177344560686
0.0191274102286866643
0.0190039396343981183
0.0190069799870551913
0.0191410206740062414
0.0190500751015240423
0.0188072584704267881
0.0188605809237385909
0.0192194571632764676
0.0198079671047432862
0.0205302793817386323
0.0213005350867068073
0.0220598738816743488
0.0227761817806444895
0.0234363651650075569
0.0240381322937865856
0.0245843532508310154
0.0250801067022236313
0.0255311014785806339
0.0259428532549970323
0.0263203070086756932
0.0266676955500019068
0.0269885056047219872
0.027285489136851783
0.0275607466623657184
0.0278001366648954161
0.0198828721704162638
0.019666755105939817
0.0202130557653843433
0.0210475925249339856
0.0210523595505464622
0.0207460822683579633
0.0205217678922728734
0.0203452671470600067
0.0202059258864717914
0.0200762758458473377
0.0199213850870051112
0.019721031660875965
0.019497753905592656
0.0193108688716855208
0.0192133115636552616
0.0192313856494323865
0.0193801204332833682
0.0192925369622286742
0.0190420399474408725
0.0190701993353243129
0.0193657946771487871
0.0198728551741005656
0.0205147021238345634
0.0212178041939821878
0.0219272166362165649
0.0226090237403642549
0.0232465093843292857
0.0238338166300120571
0.0243709859296066464
0.0248610691457255457
0.0253083551057429711
0.0257173767515740566
0.0260924015873616674
0.0264371871379337244
0.0267548762434330553
0.0270479593728559023
0.0273182852585768868
0.0275527016718879331
0.0197787405640362512
0.0195638668437149929
0.020158494129819772
0.0210845981302714598
0.0208665586772741156
0.0206190583484111983
0.0204528890116567538
0.0203224467440403442
0.0202105437554092292
0.0200950256953570591
0.0199557686394735007
0.0197839280060960604
0.0196029332974847897
0.0194577829956543505
0.0193910974982775194
0.0194300281403717301
0.0195623708015494856
0.0194728172774237956
0.0192493771124899321
0.0192677079548676695
0.0195192794612595658
0.0199617375921384635
0.0205339624539994207
0.0211741818239617637
0.021833064798088244
0.0224770743763293736
0.0230876790634339801
0.0236563530796266401
0.0241807177169455524
0.0246619277041993101
0.0251028452265216195
0.0255069649337569503
0.0258778078203328321
0.0262185906684808401
0.0265320566150244602
0.0268203890973986551
0.0270851681739680827
0.0273142420460094279
0.0196510134559624572
0.0194997545697384138
0.0201401444433304683
0.0210388132784251197
0.0206495058252377274
0.0204674855789633917
0.0203570407121257402
0.0202692099113257126
0.0201850297930140539
0.0200897287648159409
0.0199699924824376963
0.0198277256249958234
0.0196861012058270925
0.0195805692681341528
0.0195458595783090036
0.019607777491632828
0.0197256824275212593
0.0196338412528002035
0.0194382291869314335
0.0194537381104613293
0.0196732270060097185
0.0200637597600057151
0.0205762602655364599
0.0211591798243198868
0.0217691257593796879
0.0223743331436709533
0.0229557423852710038
0.0235029355944922566
0.024011655216813501
0.0244814090626588286
0.0249137178951791549
0.0253110490378504124
0.0256761539177713764
0.0260116743533934415
0.0263199193523555273
0.0266027365708725975
0.0268614279437480973
0.027084817664394599
0.019404339594818569
0.0194164718297097187
0.0201243997289175941
0.0206789440581806629
0.0204049563938336551
0.0202995948686510719
0.0202470812352076139
0.020200916722792242
0.0201453961907148253
0.0200714234105447073
0.0199744967006808896
0.0198639724287301631
0.0197588859068348055
0.0196897786884753893
0.0196858078826421326
0.0197705818474094158
0.0198756797660223743
0.019781163419098937
0.0196119583161339095
0.0196283814830928056
0.0198238344283945302
0.0201721354451408277
0.0206334108392559924
0.019018587927387396
0.0192747712922085902
0.0200850074885339548
0.0202736922236174816
0.0201417544573800553
0.0201256869895733367
0.0201339058970798901
0.0201292966970400174
0.020103074942564414
0.02005262801375296
0.0199811963416580141
0.019900136226411437
0.019828547047817096
0.0197924023730398045
0.0198166738068540384
0.0199226013969452179
0.0200151635630686497
0.0199171252373310029
0.0197724721973900931
0.0197918823219737916
0.0199689767090189471
0.0202825283342072567
0.0184587469648065314
0.0189791728576825663
0.0199392302529631318
0.0198347629608468835
0.0198716543922199985
0.0199557837674311442
0.0200268361444244196
0.0200635028954016768
0.0200664627597108187
0.0200401640710208481
0.019994035806410515
0.0199408781793774838
0.0198995522851883357
0.0198926813909285558
0.0199420213840241119
0.0200664671987106878
0.0201461318454634122
0.0200436040491892738
0.0199213395360240512
0.0199447674878754228
0.0201076478296490814
0.0203922287248894142
0.0176695734884534349
0.0185467511124386177
0.0192324837557199847
0.0193846631596609059
0.0196099354627932501
0.019801164761267042
0.0199352165985469051
0.0200116395258454309
0.0200422114357888224
0.0200392525957053917
0.0200169553323750055
0.019989073437735351