/*--------------------------------*- C++ -*----------------------------------*\
| =========                 |                                                 |
| \\      /  F ield         | OpenFOAM: The Open Source CFD Toolbox           |
|  \\    /   O peration     | Version:  2206                                  |
|   \\  /    A nd           | Website:  www.openfoam.com                      |
|    \\/     M anipulation  |                                                 |
\*---------------------------------------------------------------------------*/
FoamFile
{
    version     2.0;
    format      ascii;
    arch        "LSB;label=32;scalar=64";
    class       volVectorField;
    location    "0.119999999999999996";
    object      U;
}
// * * * * * * * * * * * * * * * * * * * * * * * * * * * * * * * * * * * * * //

dimensions      [0 1 -1 0 0 0 0];

internalField   nonuniform List<vector> 
7236
(
(0.508398407568722677 -0.0166903049589597931 0.0695204299582741908)
(0.756197053070620573 -0.0198392360382610919 0.115364748200708994)
(0.935558909899534275 -0.0197828239233367661 0.207123740142614421)
(1.08375730370622758 -0.0279443123083752687 0.317254774907141268)
(1.22157894989380411 -0.0291827096587338741 0.381345298042878311)
(1.33854985789129088 -0.0311271632779661009 0.417443648109463106)
(1.42568682918002954 -0.0323694981811969498 0.437431620640300223)
(1.50245149664263877 -0.0328595501609818957 0.451792783250537178)
(1.57413398219931899 -0.0326189092719081156 0.467567670360433396)
(1.63315807979835093 -0.0295738231781114622 0.480722189979802095)
(1.67345713413484454 -0.023753597266754245 0.491060671813674854)
(1.69321455014782818 -0.0178716633509654124 0.502358794488303784)
(1.68451458632452566 -0.0106778616635021216 0.514029838162185837)
(1.63273717545102914 0.000818775163010794851 0.525631015141824531)
(1.53779629611664537 0.0182746583963693428 0.534466522845228886)
(1.38445012113853383 0.0383393714535019414 0.54060216781695114)
(1.15876483722534984 0.0613553621081115858 0.538137323427789638)
(0.877319846532313763 0.0737345778552190301 0.52023869424641922)
(0.626282161499181922 0.0636159518809688573 0.483097768274620032)
(0.446060047303142249 0.0457416673806870025 0.424838184678989539)
(0.331199288533356839 0.0308796511419226205 0.349457973660740384)
(0.264676521585540114 0.0203568381048842943 0.269518260782723118)
(0.224007040503913429 0.013638172612152822 0.199158367341274734)
(0.194018526617929871 0.00995608321601604979 0.145674962194997343)
(0.167860678864030333 0.00776910899301441228 0.108247692758942748)
(0.145256884266813768 0.00623988552565612337 0.0822340477130108077)
(0.125995746885863735 0.00513333446440529008 0.0634919882219878717)
(0.109381343684873331 0.00433333737665083252 0.0495643708426259655)
(0.0948109961288754605 0.0037490176135835428 0.039046463445651991)
(0.0818057064174059767 0.0033172434993895706 0.0310301869275268621)
(0.0700013192674545509 0.00299390933463618541 0.0248863128529438205)
(0.0591249651528903269 0.00274904202378913791 0.0201696548137792753)
(0.0489672158232393184 0.00256279842877094738 0.0165624942012787407)
(0.0393630174842455188 0.00242196297653574436 0.0138357734339899299)
(0.0301782431283131522 0.00231757556566232394 0.0118239488804232646)
(0.0213039643569647857 0.00223445604962585346 0.0104090259973478733)
(0.0126575448970221143 0.00216675121734747136 0.00950926270884846006)
(0.00418586437214574399 0.00213846259828779327 0.00905469175449138269)
(-0.0129666616249528629 -0.0458107235360259574 -0.295405071707553091)
(0.115722310491073815 -0.102118853527981349 -0.172485764354764037)
(0.187741611015168869 -0.116813084726230948 0.0357146624566177934)
(0.200352578825202021 -0.143702321530706917 0.166207235130760744)
(0.240134569421598942 -0.132602883820796436 0.226987668475427617)
(0.282411197752775067 -0.129919088809223371 0.241829770311938058)
(0.319069481800222987 -0.116783047691013928 0.26617561787170535)
(0.356858198374236768 -0.100070434781069181 0.285238296913857159)
(0.407589150204037076 -0.082580040293212531 0.296369722980174388)
(0.487772832633164122 -0.0573810036792632011 0.307955036458373854)
(0.584155991844316325 -0.0320356200359627752 0.328052033365999918)
(0.672265711396985544 -0.00531358440079779393 0.356131648496265552)
(0.76501957754094041 0.0241171299522627558 0.388908080215775553)
(0.838994732073786498 0.0579239327187930225 0.419712072909483758)
(0.884655140264143269 0.0895080363332256407 0.444793491932218732)
(0.904354028084993655 0.124169875802980445 0.465433283576380918)
(0.890483149293937015 0.163954644448219833 0.480834775341700549)
(0.814418440495694118 0.179050312012211721 0.484664508439062225)
(0.679083998287067558 0.166992421157793058 0.466664091975681483)
(0.526879349734006075 0.137629117507994919 0.426932143164313049)
(0.395664921088114574 0.103668588645697196 0.360614815122260624)
(0.302440456295063775 0.0725511216143791132 0.282288078920891139)
(0.241508539946663076 0.0486989675144595541 0.208859081547696307)
(0.20125207692691266 0.0336341981021203926 0.151530434471296355)
(0.171488972155237424 0.0247544751379999498 0.111387656856612574)
(0.147647911751622424 0.0192551538107361767 0.0838844097457887017)
(0.127880925411240298 0.0156239236892858086 0.0644440777361182243)
(0.111026452245768834 0.0131169314359739237 0.0501913530721301293)
(0.0962898669537810836 0.0113250165708859672 0.0394965157659673133)
(0.0831364777666567106 0.0100117783884216653 0.0313669867212670178)
(0.0711914690292366203 0.00903124446654948558 0.0251443558416512836)
(0.0601795311049809073 0.00828963464152473496 0.0203708651867843746)
(0.0498908396106576418 0.00772592432445501007 0.0167215063784848655)
(0.04016041413475855 0.00729978921121244434 0.0139627251995642736)
(0.0308539993743122513 0.00698416955413919995 0.0119261883946490226)
(0.0218615741992052096 0.00676009141745755222 0.0104920388841593729)
(0.0130471370701823481 0.00661191071882062664 0.00957776694654634622)
(0.00431978582645858606 0.00651131626139694886 0.0091114528390234574)
(0.00322827589565554893 0.0240223774180412242 -0.582063906946826304)
(0.00284089942184676328 -0.110649190734739306 -0.190327423261491158)
(0.00236812438206114584 -0.112548216056964662 0.012367815306298699)
(-0.0149675656195957935 -0.102311678313072751 0.106094471710607069)
(-0.0137671795058205496 -0.0913363456358079195 0.13661846419322321)
(-0.0081272803397157839 -0.0824840068236305235 0.142957600726043632)
(-0.00340711648365575603 -0.0750468222356877879 0.166759313882663518)
(0.0103490660849689387 -0.0698989974654149193 0.191998580665563578)
(0.0255238471016395602 -0.0658573482196159604 0.207635007010131489)
(0.0444037539566742578 -0.0513716886211834298 0.220808574794651047)
(0.0866705748178260016 -0.0336368194931929987 0.241111279843725435)
(0.140464442895820579 -0.0121308836629942518 0.264555359268101808)
(0.190231820100014187 0.0176641809962350543 0.29381886411114555)
(0.227858175020963449 0.0548474015981098156 0.322757817528241064)
(0.260029030671894978 0.0943945036667221266 0.348997913735721199)
(0.295827881683889182 0.13692983746189874 0.369098723651865968)
(0.345914882303161475 0.183838864504993593 0.387450503986340344)
(0.393429195328453607 0.220023548628408061 0.398492742564412417)
(0.395063664153964711 0.220624010175856811 0.391850655549471849)
(0.359235208294788222 0.199824351277429646 0.36288285202587367)
(0.306928268338749199 0.161654039641511815 0.313494075045602505)
(0.258583087086066366 0.119206372816214115 0.252101281668203669)
(0.220604311972040334 0.0827003950727967369 0.191775766067134201)
(0.190437355459842916 0.0573325236957669473 0.142607643829016861)
(0.165238179243875294 0.0416461944574371551 0.106720178187275444)
(0.143770620884141387 0.0320823051703894718 0.0812701850310225821)
(0.125316122617760012 0.0259543959955801373 0.0628582983053542488)
(0.109231310661716499 0.0217920856642675534 0.0491728035493125132)
(0.0949786548440340606 0.0188359577692972374 0.0388175846516056675)
(0.0821460897570168158 0.0166716511929308059 0.0309015098873678604)
(0.070422745083206964 0.0150535321526916732 0.0248171727831081081)
(0.0595695919114197781 0.0138276578475322563 0.0201358369043801964)
(0.0493985644161190757 0.0128944844562694765 0.0165493994412827944)
(0.0397582541514656732 0.012188187255188181 0.0138343343096055688)
(0.0305236120266322505 0.0116647185500535384 0.0118284544331505766)
(0.0215895562317177971 0.0112957322909234166 0.0104157530595732298)
(0.012866209284869274 0.0110582967428579874 0.00951637697448185632)
(0.00426885565414217207 0.0109186405045076096 0.00905881962730827224)
(-0.0374542874075281737 0.0394204370331975168 -0.684046367110451525)
(-0.183748245549971156 -0.083563599751975956 -0.182146751303686627)
(-0.201875989675548068 -0.0841097426255959374 -0.0100798577557175834)
(-0.21338665287166847 -0.0668951802560580899 0.0488501458628730623)
(-0.191498335114421769 -0.0568435257993948201 0.0800669930731798957)
(-0.178518257443777306 -0.0515202358741469121 0.102089821476580578)
(-0.168524434902518283 -0.0438891958646005637 0.126863486939315567)
(-0.158326899878154792 -0.0346060587706389991 0.144350155339829977)
(-0.147794908813510401 -0.0247648420694063544 0.157373310991047316)
(-0.132487388221082081 -0.0147310330648984314 0.176074149446843742)
(-0.110108873640500204 -0.0014069500999813328 0.198225182278705975)
(-0.0738361069399498388 0.0199762323953993487 0.219324896869505792)
(-0.0405675730991593986 0.0460903749828276837 0.24111749905675936)
(-0.01255214065769511 0.0809823129379949047 0.263736801204085769)
(0.0136763765058190434 0.116424568507248333 0.287180597649642599)
(0.0425486653026905803 0.150333387842770561 0.305116871606682383)
(0.085728797242428878 0.187234902029580486 0.319036644331544106)
(0.142250461721755983 0.216649964801657102 0.326455121540531801)
(0.188016499039431739 0.229703914377512919 0.321621327772226184)
(0.213219183934817036 0.218791287686125463 0.300811403958509693)
(0.218395463138176954 0.185668657806022624 0.264902013567333228)
(0.210730935646004675 0.143556397410142533 0.219416948436729875)
(0.195970738149774809 0.104350311064892079 0.172948591717769495)
(0.177331494186334315 0.0750960052382222132 0.132840642216297017)
(0.157706826681058648 0.0558838919040278576 0.101707337227173844)
(0.139100274313897238 0.043666684623076088 0.0785051495240912112)
(0.122236111648159798 0.0356343899765105693 0.0611919479241239059)
(0.107099031278897222 0.0300906946038702501 0.0481039177969501547)
(0.0934464893587289847 0.0261123426539522779 0.0381037405360123704)
(0.0810149400312126788 0.0231774075513780757 0.0304101487017007094)
(0.0695721293444628713 0.0209701565765601956 0.0244701162213253332)
(0.0589233209819556777 0.0192904065492906507 0.0198849056107854062)
(0.048906918081205758 0.0180073458061818653 0.0163637389875939572)
(0.039388108018958784 0.017033595423747324 0.0136934039384522498)
(0.0302528497401985084 0.0163100570288039898 0.0117180277932061646)
(0.0214026823690872704 0.0157970520165456214 0.0103255179713601201)
(0.0127541512307851601 0.0154652850500568827 0.00943854395912370817)
(0.0042353174011074135 0.015281553504882698 0.00898749414786187417)
(-0.0824280448221168111 0.0296553095001807973 -0.730286009773182698)
(-0.312734238496697847 -0.0516285272412047511 -0.207977512433219464)
(-0.297075865415447837 -0.0490537477285881013 -0.0346168753847347355)
(-0.293763578752480603 -0.0459266352443350387 0.033700140917628213)
(-0.269909701122928725 -0.0426552170912768425 0.0660968968641580251)
(-0.252165300869726383 -0.0360640132492725876 0.0931174037821927703)
(-0.232794879954897005 -0.0269117128334761639 0.117677938930396311)
(-0.212151016714677981 -0.0180545857354775206 0.135797136177660815)
(-0.190886204103015988 -0.00831485753546420264 0.149126370914765438)
(-0.171413959230810847 0.00293997728734658736 0.163049255576202201)
(-0.155652653136653579 0.0167282553956249747 0.181126936171119524)
(-0.138601121633915664 0.0368872015465963321 0.200307384474179895)
(-0.11569996209917216 0.064681387953240646 0.218753832093842554)
(-0.0914389375787786618 0.098108228186389479 0.235831261517284591)
(-0.0639771373372977625 0.130956063842809417 0.252138051972213617)
(-0.0331153011025943217 0.159992705671877261 0.265683291799392596)
(0.00325463825297792053 0.187934461575375661 0.275638906682018792)
(0.0488325840556923657 0.211716720437670924 0.27932439260997044)
(0.0974575088858701533 0.223699855801257147 0.2734846839930139)
(0.138764135608487854 0.215944101487922147 0.256223583842087821)
(0.165866116624739546 0.188982214332001991 0.228122783584213451)
(0.177198949437577247 0.152286076060524939 0.192919452067093544)
(0.17525660658500225 0.116281709531647431 0.156294899805115295)
(0.164452500265777013 0.0876790804339477314 0.123295706453394965)
(0.149507558384659234 0.0675493830394777311 0.0963224918766401456)
(0.133701260140386219 0.0539287704934307555 0.0753266395290632107)
(0.118546302929051897 0.0445725816004855502 0.0592024858750122562)
(0.104488443017574928 0.0379381761155683783 0.0468008063829326443)
(0.0915452807214634512 0.0330963797405238735 0.0372212031826793799)
(0.0795994772938690975 0.0294835679050821919 0.0297961848161668874)
(0.0685023650433247144 0.0267442662109231427 0.0240329775573201489)
(0.0581087130958797271 0.0246472107246504604 0.0195669264046879794)
(0.0482874327152316152 0.023038403690901689 0.0161273418572858949)
(0.0389232463195702469 0.0218134541551406741 0.0135132259315514265)
(0.0299151010854943993 0.0209008737313410888 0.0115763127600999188)
(0.021172886126840311 0.0202517291865431902 0.0102093007118027948)
(0.0126179098693464768 0.0198313990182380183 0.00933789113289108623)
(0.00418921960212777049 0.0195892501159818551 0.00889425296351886198)
(-0.122335915533674261 0.0120121572469559096 -0.762685758770533129)
(-0.388964501778921834 -0.0298273876027519147 -0.227192752444039803)
(-0.345167686146065134 -0.0293369634688701066 -0.0550534508640961456)
(-0.331790489781543574 -0.0288579208738758211 0.0230016802473563958)
(-0.303081689390905296 -0.0283100458978536168 0.0654191734485399246)
(-0.277569386570219234 -0.0244570775504408047 0.0974006059394748464)
(-0.251779888267185559 -0.0163141385548495783 0.122650031908755577)
(-0.2266972947712316 -0.00645253680620717224 0.140926297506826059)
(-0.203174146893155216 0.00419300091573030637 0.153783729612310238)
(-0.18246627759395273 0.0168485317935890347 0.165546420735152605)
(-0.164101516502296485 0.0327906794916205807 0.180104458900289893)
(-0.146885698898172601 0.0536542594677429374 0.196224250378311343)
(-0.127463458008847424 0.0800398383741771913 0.210810406204936407)
(-0.104990297962956419 0.110021762618482177 0.223137368840719469)
(-0.0785834393390947156 0.139374868372597827 0.233772356888588773)
(-0.0489279773753411862 0.165353903222310167 0.242468653379031313)
(-0.0146566127274170149 0.188454237917745154 0.248069072663791745)
(0.0249087179825925875 0.206753088828660142 0.248124261815501512)
(0.0679584706101435537 0.214680269166843657 0.240469344134924989)
(0.108182994845389735 0.207523303930964131 0.224415864297953627)
(0.13860571515650999 0.185276315019621773 0.200715305978945879)
(0.155242463733472308 0.154460838740978323 0.171974682629310066)
(0.158639840294048928 0.123138579145719018 0.141970478725351457)
(0.152447118567077794 0.0968576243305279139 0.114222978131907821)
(0.141075891406590048 0.0771127968672130903 0.0907230196670827105)
(0.127801128308161871 0.0629212889125602137 0.0718130326429999299)
(0.114355912585588623 0.0527280971660627901 0.0569249278087455152)
(0.101447452431617319 0.0452841839704203192 0.0452779039968753752)
(0.0892921209683439632 0.0397451749939035856 0.0361755479793688384)
(0.0779015622704584132 0.0355562555433536695 0.02906155007430445)
(0.0672077986788509746 0.0323494430221007989 0.023506135224151313)
(0.0571164295599732655 0.0298772624872177574 0.0191816298024620191)
(0.047529019510854309 0.0279709094114283241 0.0158397232743147653)
(0.0383518219141227579 0.026513873762700594 0.0132933136887657677)
(0.0294984007607518792 0.0254252628811064176 0.0114029299467838484)
(0.020888588838112402 0.0246491238648207933 0.010066879802030592)
(0.0124509883895621339 0.024146852735654728 0.00921440900385909339)
(0.00413363268447201112 0.0238511337765620647 0.00877981366646334721)
(-0.146177956166202161 -0.0028945085985036742 -0.800792682266957656)
(-0.431939038758288318 -0.0196176914658089327 -0.250092176765795871)
(-0.372915824217153524 -0.0187096109190464065 -0.0733708119896334804)
(-0.354010272249283275 -0.0219286191687231222 0.0202021373411539751)
(-0.320365590787164589 -0.0215589591096632949 0.0710555390435947259)
(-0.291294879029781129 -0.017039039964878034 0.1053269224235618)
(-0.260887527957517462 -0.00870789350497548631 0.130603272520269792)
(-0.231617762735974508 0.00174528424212076066 0.149119986188308407)
(-0.205349638766596065 0.013563259139777295 0.162043788105887793)
(-0.182855571839570907 0.0277517117742775571 0.172928112115430466)
(-0.162788529740156673 0.0455008287763911251 0.184467743130375339)
(-0.143723778727652268 0.0674128743191467761 0.196599951873828671)
(-0.123142989135721567 0.0924086728818219044 0.207309971825679978)
(-0.100219576096471155 0.119174714492610551 0.215620601858620836)
(-0.074138702686908281 0.145074800575366702 0.222079635504810191)
(-0.0450848634904356671 0.168058133201322207 0.226623880001688732)
(-0.0126774086218002929 0.187588467073592419 0.22812233759486869)
(0.0229201245211726468 0.201585038184666165 0.22489230868871829)
(0.0603529955583232483 0.206377830119436723 0.215590061624305662)
(0.095532468954330152 0.199171389447621888 0.200076109842463573)
(0.123153330004683717 0.180292444059690193 0.179172844184740748)
(0.139642853713997955 0.154410929321508267 0.154768205701761891)
(0.14486828442890487 0.127455893070389403 0.129445513209376639)
(0.141414006144873095 0.103775487001047134 0.105701863582343181)
(0.132747868640184896 0.0849709973673942187 0.0851095299104459718)
(0.121666723806472324 0.0707393364216636067 0.0681159000661546304)
(0.109837522198752396 0.0600970131343626229 0.054450058903591711)
(0.0980831337388577973 0.0520987034115178299 0.0435870718685939934)
(0.0867537747126059244 0.046025813819834005 0.0349969403965460155)
(0.0759637178844016769 0.0413661180278017473 0.0282243932282630547)
(0.0657162431081335374 0.0377610149912341042 0.0229008588412264666)
(0.0559651309341370889 0.034960104721078647 0.0187362157271500872)
(0.0466444637417642444 0.0327877943456408236 0.0155056120560337247)
(0.0376827297185421059 0.031120367448877452 0.0130368650652425908)
(0.0290090285581752066 0.0298706196038458424 0.011200117582265235)
(0.0205542266712698228 0.0289776338843171707 0.00989989104754568881)
(0.0122555106928230427 0.0283998015396109936 0.00906937780406240172)
(0.00406913160149987522 0.02805161431572872 0.0086453234409393856)
(-0.157822165029118805 -0.0151509926640586504 -0.805241947941932823)
(-0.455334069255410423 -0.0221522812983644089 -0.262165548384382108)
(-0.391562454133283 -0.0191520355256074547 -0.0811636595363853797)
(-0.370927652384412276 -0.0206717255376415721 0.0239704770201807499)
(-0.331922477753518685 -0.0184608079289683147 0.0803863775950873355)
(-0.294603729982218621 -0.0134421822289987267 0.116612800262864302)
(-0.259493695043545025 -0.0045644059551012417 0.141663080834764282)
(-0.227614865041838116 0.0073815397842922556 0.159023230930506465)
(-0.199246218723962587 0.0212142707250020796 0.171288366935035907)
(-0.17502645102376907 0.0371532900886706596 0.180639869587067264)
(-0.153756457452621204 0.0559905127786699541 0.18927221888557183)
(-0.133246599444404257 0.0779127436388869221 0.197500982440638323)
(-0.112015126514057581 0.101741451842947014 0.204390881343119474)
(-0.0890583731116318389 0.126010690568871375 0.209194777698908929)
(-0.0638616088173480645 0.148999090637317338 0.212162322600434411)
(-0.0362961228544716463 0.169169525034069512 0.213205194620091465)
(-0.00626931911746493598 0.185554312288632617 0.211380870289816614)
(0.0257828493614315341 0.196342325416988206 0.205624029390972185)
(0.0584131316123105565 0.199010026532090406 0.195192105798637022)
(0.0885599370753448467 0.191864776423201544 0.180182578942920446)
(0.112414709298354704 0.175585758740419096 0.161358279843143965)
(0.127336272861364591 0.153626098846441045 0.140130124715679594)
(0.133055755585700181 0.130335307048438986 0.118329402529407518)
(0.131326480679595015 0.109102127236434365 0.0977554377061342905)
(0.124721964258747528 0.0914573796436918274 0.0796176851707346978)
(0.115495528822042032 0.0775168620465540303 0.0643534107266454103)
(0.105137744631065969 0.0667174317418760959 0.0518565468727117673)
(0.0944955842764615694 0.0583805157425346249 0.0417770389881495854)
(0.0839970154636749677 0.0519233402981927328 0.033715345196022567)
(0.0738305301068873654 0.0468948655043037385 0.0273034013534167348)
(0.064057818379483239 0.0429611927831215906 0.0222290401200192465)
(0.0546754468470937657 0.039879610809273075 0.0182384214103479478)
(0.045648044024962732 0.0374747472992068356 0.0151301638785866395)
(0.0369258913131816774 0.0356202418355699157 0.0127474095619281268)
(0.0284538349818397492 0.0342255334648643023 0.0109703761944751621)
(0.0201743205527098596 0.033226649178051057 0.00971019327960005903)
(0.0120336721773492434 0.0325799189390832758 0.0089042854191517147)
(0.00399614483461851848 0.0321813836113351293 0.00849210326844908846)
(-0.163798249546511926 -0.0274853470210288178 -0.788840374526774912)
(-0.465449459537918497 -0.0310035024574046789 -0.260786733592872744)
(-0.403254622017636455 -0.0238946394840773915 -0.0751275761657995977)
(-0.380199784913714589 -0.0219903706475432399 0.0359383953882343316)
(-0.334535273256101273 -0.0180008279206842862 0.0934024817364837584)
(-0.293372058163171301 -0.0113448623825667116 0.129397246913370068)
(-0.255493928504573142 -0.000910503041069724017 0.153264513492172738)
(-0.22143092479899612 0.0126893917662494263 0.169299652021735025)
(-0.191325542361337725 0.0283747020051748483 0.179834037671501662)
(-0.165506746529409915 0.0458248367720001382 0.186995202001645933)
(-0.142987232676381054 0.0653674924772679605 0.192677101239643461)
(-0.121859173790480724 0.0868121835008008325 0.197391005703985351)
(-0.100372832977038945 0.109264673138615043 0.200775941278096365)
(-0.0776609088286221438 0.131370181206585501 0.202448798292840931)
(-0.0533874411248753053 0.151828466886901436 0.202425737717769505)
(-0.0274711103405181761 0.169431602721536706 0.200572606045979346)
(8.30905177746227297e-05 0.183103856697736544 0.196225111786973466)
(0.0287971192654480623 0.191398357873650199 0.188709297272807941)
(0.0573031477368812214 0.192570786199234012 0.177650049116501563)
(0.0831945342216152961 0.185662571708936935 0.163238324677872193)
(0.103714151335819224 0.171473231588743613 0.146127981455355049)
(0.116972506200289164 0.152606411790905699 0.127394148808969543)
(0.12271613843652121 0.132319618824875029 0.108373409700688081)
(0.122127550558956841 0.113262253596469048 0.0903733632909671375)
(0.117097862982642589 0.0968353770493166344 0.0743248637021769465)
(0.109416093765182118 0.0833860325442056238 0.0606080256176833379)
(0.100367430797153059 0.0726421280953621212 0.0492067261164584879)
(0.0907684960890976084 0.0641425443781083876 0.0398900760620810729)
(0.0810816817173253684 0.0574329878380373943 0.0323584929781302322)
(0.0715439573458333949 0.0521309022570248665 0.0263166726626602732)
(0.0622618427725037255 0.0479364438973205256 0.021502571150233428)
(0.0532679199437284395 0.0446223230415587896 0.0176961625420062676)
(0.0445542052754251405 0.0420190883937768059 0.0147187441577674612)
(0.0360914402241576948 0.0400017310695672396 0.0124286747584406686)
(0.0278398004523463666 0.0384790496196347823 0.0107163826822066315)
(0.0197533939416541585 0.0373858054207090382 0.00949979913972708555)
(0.0117878604636721118 0.0366772658354616032 0.00872075366381592706)
(0.00391535296726294463 0.0362314455878176359 0.00832160652523933862)
(-0.166864314836290939 -0.0358624648009965852 -0.760387525698393074)
(-0.470125290339016844 -0.0381305673777274506 -0.244944340373898339)
(-0.412970446398739865 -0.0289037810047218201 -0.0586184281359048986)
(-0.385176018842701473 -0.0238404517878244779 0.0513391076306485422)
(-0.334561915300991608 -0.0181565393609586304 0.10825217531601726)
(-0.290450408855201792 -0.00969404386011434027 0.143117717301365521)
(-0.250239900648140834 0.00259822597746341144 0.165184332433909897)
(-0.214376405887694188 0.0181097825408137458 0.178930590394660194)
(-0.182988738304999343 0.0354092752175048653 0.186972000147457018)
(-0.156197389443300666 0.0539569145109713363 0.1914932058922309)
(-0.132777986834096501 0.0738021668093780392 0.194253052769163742)
(-0.110949768162449572 0.094644396228607805 0.195817496106218292)
(-0.0893263291620867705 0.115662814669695191 0.196145117896550925)
(-0.0671276284244431698 0.135790704785875016 0.195068490566184749)
(-0.0439799657134330932 0.153993136658488267 0.192525824878176793)
(-0.0197740303329870526 0.169273645933774003 0.188366646530879256)
(0.00540311284180029772 0.18063745044744095 0.182167385558074241)
(0.0310690422887607773 0.186951427699799416 0.173500841142592677)
(0.0560391293406199836 0.187050618108486444 0.162194083456281113)
(0.0784258499090330075 0.18045143652664275 0.148460972768487687)
(0.0961964861653892001 0.167942881348676187 0.13283972622435461)
(0.107984964908182976 0.151528294026689547 0.11615595363980169)
(-0.170421620729981932 -0.0388640807821625731 -0.721167112370938668)
(-0.477204747572863075 -0.0408345869169666059 -0.213833954491083722)
(-0.420830557790953519 -0.0332838041243589747 -0.0351508786167102488)
(-0.388220065632315148 -0.0265352151843862884 0.0702315101195592068)
(-0.334069047511903305 -0.0188926581766642177 0.124730950348153444)
(-0.286702141135264044 -0.00812885714054087383 0.157201819652237562)
(-0.243836104542352106 0.00636337018876723809 0.176634756728656139)
(-0.206117996851479857 0.0236468487175703693 0.187329203622325663)
(-0.173801976551282988 0.042258486857074555 0.192467099430056576)
(-0.146312438239572601 0.0615303161640570612 0.19419059915887002)
(-0.122384911074183159 0.0814222282916475526 0.194116712289391896)
(-0.100365327365004212 0.101537582297223705 0.192856389819589191)
(-0.0790354916487647635 0.121181783850910205 0.190530685512171227)
(-0.0576302018890810161 0.139503768490078506 0.187097363365463482)
(-0.0357499761224255308 0.155673481494373017 0.182485157306739032)
(-0.0132730965328687056 0.16886975933476428 0.176558483659637389)
(0.00967259256128824574 0.178265748981052463 0.169049874921010201)
(0.0326182319774535809 0.183003456418351418 0.159686984867115356)
(0.0545700180022755665 0.182326739177656655 0.148402000337091916)
(0.0740583376636449048 0.176047486404641323 0.135395146625756968)
(0.0895643420080518421 0.164896076418093174 0.121098856827881907)
(0.100078946862416376 0.150450279070003107 0.106145290640651105)
(-0.173793897362849614 -0.0352347634178996616 -0.669186391189091623)
(-0.48293728619665488 -0.0396250987509002423 -0.173648443913776152)
(-0.425744462472492757 -0.0366387863701421249 -0.00591510425846067389)
(-0.389345037178936704 -0.0294613109649040743 0.091873398421459182)
(-0.331520302090185737 -0.0199422512560262048 0.142456415419160987)
(-0.280650543408901387 -0.00671034031956335014 0.17152266444812686)
(-0.235185531419193961 0.0101658192312830686 0.187212329571857794)
(-0.196485307557232813 0.0291210964802094685 0.194404473213749679)
(-0.163809592569951118 0.0488207973710267709 0.196373039028924667)
(-0.136157126421911356 0.0686265435333416607 0.195271330889771028)
(-0.112159454164379196 0.0883822689391446648 0.192490764753078386)
(-0.0903518809018979546 0.107662283555709115 0.188695480360635687)
(-0.0695948644254691384 0.12595945571151021 0.184092277826566286)
(-0.0491425161383960141 0.142604043859088619 0.178694825568582627)
(-0.0285875506179035996 0.15692890839387616 0.172435438058721802)
(-0.0078080980668096267 0.168278147678778411 0.165200610760614625)
(0.0130657964398979004 0.176005669057642589 0.156809709090315968)
(0.0336012470049121686 0.179488257018975528 0.147084469152949981)
(0.0529745096126304771 0.178249063608458769 0.136005863907677271)
(0.0700416131952706633 0.172278323198565564 0.123743631440166452)
(0.083655410982805517 0.162249237892612419 0.110637922135256389)
(0.0930554651442492553 0.149410997957809266 0.0971712615465687574)
(-0.178971427264323052 -0.0244422215542929415 -0.608003905462450867)
(-0.487148772727524104 -0.0370207717601494721 -0.12739491302436573)
(-0.429938362514411976 -0.039876525840763663 0.0281281804207121899)
(-0.388174658561844577 -0.032882728059001845 0.115762218193326646)
(-0.326942471712504124 -0.0212941335842701321 0.161206244628408824)
(-0.27262234944460717 -0.0051587862892697664 0.185586801655521133)
(-0.225549886234783392 0.0140626886816374516 0.196715047756444383)
(-0.186257231054807959 0.0345970931057645523 0.200074643497922089)
(-0.153509360788381732 0.0551500796205384586 0.19877749854867216)
(-0.12601768475555164 0.0752942998266819263 0.194870236443744155)
(-0.102314120350760818 0.0946840358948061595 0.189573096675858116)
(-0.0810042565803683889 0.113079052444481284 0.183553235960133343)
(-0.0609883581336789007 0.130059137857008178 0.177035779424396411)
(-0.0415746891266208854 0.145132498987219721 0.170046516549260035)
(-0.0223588665259400743 0.157792229143050383 0.162518647041577591)
(-0.00321165130868387994 0.167527852607063626 0.154352184523637054)
(0.0157536395978812582 0.173853708730706463 0.145408700120324585)
(0.0341545509249906315 0.17633771938879253 0.135562809130838957)
(0.051312610382883872 0.174691122112066749 0.124812486267196182)
(0.0663411861767797817 0.169025318686761766 0.113291029839895918)
(0.0783570892834781763 0.159929448217701303 0.101260172494739981)
(0.086776351375883215 0.148425558419601311 0.089085166638926655)
(-0.116039594158764026 0.0815693804067132711 0.193138323529424616)
(-0.0929042203357599988 0.100387980490749096 0.185572915620012741)
(-0.0722728386604475775 0.117809517258045005 0.177646007209051437)