/*--------------------------------*- C++ -*----------------------------------*\
| =========                 |                                                 |
| \\      /  F ield         | OpenFOAM: The Open Source CFD Toolbox           |
|  \\    /   O peration     | Version:  2206                                  |
|   \\  /    A nd           | Website:  www.openfoam.com                      |
|    \\/     M anipulation  |                                                 |
\*---------------------------------------------------------------------------*/
FoamFile
{
    version     2.0;
    format      ascii;
    arch        "LSB;label=32;scalar=64";
    class       surfaceScalarField;
    location    "0.0299999999999999989";
    object      alphaPhi0.water;
}
// * * * * * * * * * * * * * * * * * * * * * * * * * * * * * * * * * * * * * //

dimensions      [0 3 -1 0 0 0 0];

oriented        oriented;

internalField   nonuniform List<scalar> 
20856
(
2.1223897785125221e-29
9.16578712139879054e-29
-1.06150278761827307e-29
1.0988513511155058e-30
5.32565237085865898e-30
1.00048602324410967e-31
-5.21097838523612205e-31
5.18116928733385357e-32
2.85358440890194448e-31
4.47054255558698182e-33
-2.34058793368150283e-32
2.21965970194801166e-33
1.40409737469481389e-32
1.83791554387573015e-34
-9.651379466859802e-34
8.58244386592323265e-35
6.31974252929582419e-34
6.90739912315679379e-36
-3.6386965181439205e-35
2.97070184852808042e-36
2.58799352362022261e-35
2.35995125126081233e-37
-1.2472436685616409e-36
9.11095872783713338e-38
9.57686455343422935e-37
7.28728218930683057e-39
-3.86264172997014266e-38
2.4434289117017219e-39
3.17486841060248176e-38
2.0181869546360764e-40
-1.07258164681924931e-39
5.63188699145107356e-41
9.32538363339505981e-40
4.9649106911548026e-42
-2.64500925349980618e-41
1.08985441552840266e-42
2.39211765801662613e-41
1.07168149746687993e-43
-5.72188415009751192e-43
1.71326055432796498e-44
5.25630792711306786e-43
1.99695805021113918e-45
-1.06837442321462707e-44
2.08263371363223393e-46
9.63114298040311355e-45
3.1404791035330185e-47
-1.68332784084472501e-46
1.80642936566567495e-48
1.41444026711666173e-46
4.02847598205155589e-49
-2.16313028471237256e-48
9.60924992314730771e-51
1.5627814296978408e-48
3.9821554821753215e-51
-2.14185791566563534e-50
3.3937185562925198e-52
1.15542263499134772e-50
2.71698761431175158e-53
-1.46359733665400444e-52
5.76930728652395122e-53
1.33144527893156309e-55
-7.40463747435963532e-55
8.41792864141078471e-30
3.94066931401478865e-29
7.94233913625112186e-31
-4.13351148022591984e-30
4.36139081710294723e-31
2.29098079209004282e-30
3.8747776734604117e-32
-2.02999472032475367e-31
2.05736620663873011e-32
1.22786166904552712e-31
1.73535691308242807e-33
-9.11625346884422212e-33
8.81619162674737152e-34
6.04152460710313585e-33
7.1580725147720005e-35
-3.76610593823603826e-34
3.40913955614490625e-35
2.71887187081383243e-34
2.69362766399580591e-36
-1.42190617635690392e-35
1.17997687116621495e-36
1.113130254140366e-35
9.21565261700116888e-38
-4.8795874992116535e-37
3.61834442464310772e-38
4.11770333332864455e-37
2.84918867949529123e-39
-1.51268413106617698e-38
9.70143961330559013e-40
1.36448041104751588e-38
7.89909142949094797e-41
-4.20397269696373432e-40
2.2353682666198942e-41
4.00576985318531646e-40
1.94499490357106023e-42
-1.03744894081589634e-41
4.32412416652192262e-43
1.02696182497765288e-41
4.2015592895553677e-44
-2.24569163239326712e-43
6.79470303405778349e-45
2.25520676125921789e-43
7.83440205467279736e-46
-4.19540718276315657e-45
8.25594183867730146e-47
4.12956889093788598e-45
1.23275009659245983e-47
-6.61330595492155527e-47
7.15775061335022316e-49
6.06074939139557173e-47
1.58201315497203585e-49
-8.50130330822424457e-49
3.80584337636386618e-51
6.69197517811038468e-49
1.56431058221080362e-51
-8.41970926524111735e-51
1.30376969286041616e-52
4.9445407743854031e-51
1.06749019703233065e-53
-5.75405070997521981e-53
2.45667675631515148e-53
5.16237983239439881e-56
-2.8803625665533329e-55
3.24419939821518337e-30
1.63740505102818336e-29
2.97635233971817725e-31
-1.5559978969008975e-30
1.68093166202600763e-31
9.52235458047067537e-31
1.45137733549567951e-32
-7.62984200780685175e-32
7.92787145464809233e-33
5.10001247364543964e-32
6.5351839656218367e-34
-3.43919876141476063e-33
3.39649611780820325e-34
2.50755848945391436e-33
2.69797296561682659e-35
-1.42291284892345214e-34
1.3129765386159205e-35
1.12767866056243876e-34
1.01662887897948201e-36
-5.37860852246960642e-36
4.54248651353425351e-37
4.61325226521254269e-36
3.48219473687275382e-38
-1.84756376259494096e-37
1.39217622488531283e-38
1.70509985800146889e-37
1.07762124377003066e-39
-5.73193373600031648e-39
3.73035944016608089e-40
5.64506650684807266e-39
2.98996808203737116e-41
-1.5939654520633784e-40
8.58949912654453256e-42
1.65566941176250641e-40
7.36696287944308699e-43
-3.93544494310297412e-42
1.66036078587632218e-43
4.24045234449633445e-42
1.59224524250221309e-44
-8.5220107437505117e-44
2.60704349781051894e-45
9.30259749083748154e-44
2.97022806709708883e-46
-1.59255399083086741e-45
3.16527929165851855e-47
1.701678610926017e-45
4.67515979533971684e-48
-2.51087825673675964e-47
2.74214052415791511e-49
2.49490701001576965e-47
6.00092699296735584e-50
-3.22799484506957699e-49
1.45694056163658414e-51
2.75196798826326002e-49
5.93416742410463754e-52
-3.19691537255642603e-51
4.83528528476660074e-53
2.03140905467879162e-51
4.04912931656848013e-54
-2.1844045535634295e-53
1.00338785829043244e-53
1.93166748600948129e-56
-1.08156981247603577e-55
1.21895398450131275e-30
6.61854653164448465e-30
1.08460984635381786e-31
-5.69008364990808423e-31
6.31048413202648447e-32
3.84335721738622428e-31
5.31265633846391341e-33
-2.79440483692327201e-32
2.97401510025780438e-33
2.05474220720584455e-32
2.39111975838646563e-34
-1.26150988257030238e-33
1.27321523345011975e-34
1.00892159327717975e-33
9.87597706015370847e-36
-5.22381102553736444e-35
4.91761253740679491e-36
4.53114863618446464e-35
3.72480763189351497e-37
-1.97607595771034338e-36
1.69969224946197258e-37
1.85106922578661548e-36
1.27683381776109666e-38
-6.79180633184738519e-38
5.20378532639412723e-39
6.83187418682523609e-38
3.95373808111783787e-40
-2.10798303765109651e-39
1.39284200595337226e-40
2.25850378644610035e-39
1.09748862465357533e-41
-5.86356265793922403e-41
3.20353340822879164e-42
6.61422354261260629e-41
2.70493072533410363e-43
-1.4479042767547315e-42
6.18535231445737525e-44
1.69148091157589321e-42
5.84741764258650142e-45
-3.1355033265299679e-44
9.70078392631398258e-46
3.70517963614025439e-44
1.09091176304620302e-46
-5.85924608411185095e-46
1.1764371061566168e-47
6.76764251530531715e-46
1.71712706789752233e-48
-9.23681427244708836e-48
1.01800913508051303e-49
9.9078217123963746e-48
2.20386081673186573e-50
-1.18724407527779869e-49
5.40289202623243489e-52
1.09130253257902716e-49
2.17882945037682487e-52
-1.17542290755632386e-51
1.73458858739264288e-53
8.04463364222873142e-52
1.48609915616384691e-54
-8.0275506917145861e-54
3.94426137005837534e-54
6.9891570137288157e-57
-3.92902294695129612e-56
1.9445036259418768e-27
8.34143758597517483e-27
2.01951926303870935e-28
-1.05437223845545099e-27
1.30200922114540357e-28
6.12942630392763006e-28
1.26253641650869605e-29
-6.6030995976440371e-29
7.96627047958735157e-30
4.1523149757428567e-29
7.26930345297254536e-31
-3.81774069170959657e-30
4.48471574809412573e-31
2.60475106719576412e-30
3.86263830255884039e-32
-2.03571913092142276e-31
2.31334595139347153e-32
1.50827102195023898e-31
1.89060483930593801e-33
-9.99839663226835194e-33
1.08921629148675846e-33
8.04787215444444392e-33
8.51317004654466156e-35
-4.51457580410439608e-34
4.65663667741128627e-35
3.9448097789410351e-34
3.51741059790663028e-36
-1.87030823626142036e-35
1.7958575172027138e-36
1.76834983857512777e-35
1.32738256905155865e-37
-7.07609669756698922e-37
6.19744531296424103e-38
7.21023751887021024e-37
4.5522413740209214e-39
-2.43213079567778099e-38
1.89439214388638152e-39
2.65594119374457149e-38
1.41001751350559761e-40
-7.54791639132837104e-40
5.06231935527363571e-41
8.76278748973245458e-40
3.91448035876486328e-42
-2.09907304610047548e-41
1.16243564160992278e-42
2.56117998318927488e-41
9.64780158035861525e-44
-5.18161919584486271e-43
2.24076388037841809e-44
6.53687316207537329e-43
2.08538378637613074e-45
-1.12164367279944565e-44
3.50861218161449295e-46
1.42909274893205682e-44
3.88973307525845171e-47
-2.09498254779324267e-46
4.24818937262790388e-48
2.60523827847968971e-46
6.12066909490002045e-49
-3.30082225020615239e-48
3.67035810643338117e-50
3.80681823151189546e-48
7.85232323760164179e-51
-4.23999642403815732e-50
1.94504533883908624e-52
4.18526491305552705e-50
7.7587717070916821e-53
-4.19463520175758369e-52
6.02545314555741729e-54
3.07972901793588033e-52
5.2880988172318584e-55
-2.86209793263676066e-54
1.49051685901809109e-54
2.45006443038501477e-57
-1.38561055673298414e-56
6.85875132552054137e-28
3.16246242062093822e-27
6.79347719070503093e-29
-3.66206330992598046e-28
4.69700421743756098e-29
2.33490861582867871e-28
4.31717196220128117e-30
-2.31240899786050284e-29
2.8593895595712168e-30
1.58036636679382484e-29
2.49482874718476931e-31
-1.33673648409911646e-30
1.60739885972362612e-31
9.89843951098101605e-31
1.32970910864298579e-32
-7.12444145896070805e-32
8.28138978798266098e-33
5.72644436934458558e-32
6.52288541088964287e-34
-3.49654158706605211e-33
3.89302827735891844e-34
3.05143204360431841e-33
2.94147664175038576e-35
-1.57920434609752796e-34
1.66144857751799844e-35
1.49321823710163935e-34
1.21653651945971708e-36
-6.5414478032565313e-36
6.39579656461511042e-37
6.68143435275145654e-36
4.59467457728815894e-38
-2.4740761659489538e-37
2.20300714180166623e-38
2.71896794809123244e-37
1.57667086117027869e-39
-8.50010787139615121e-39
6.7209383765249722e-40
9.99507774621670712e-39
4.885324132397606e-41
-2.63654325541367176e-40
1.79246749521277416e-41
3.29074876377941559e-40
1.35644275842597598e-42
-7.32748048243425901e-42
4.10775751999112361e-43
9.59750735335884572e-42
3.34296795711766409e-44
-1.80744436856148923e-43
7.9025101610432435e-45
2.44423827335737774e-43
7.22433420466803803e-46
-3.90920491726983965e-45
1.23492972086164027e-46
5.33193740288933384e-45
1.34704100539909443e-47
-7.29487003316585702e-47
1.49231026961933593e-48
9.69896237474292323e-47
2.11862042141024367e-49
-1.14824369932300114e-48
1.2868518953365953e-50
1.4141681502559407e-48
2.71635051922157727e-51
-1.4733858693255345e-50
6.80676649989979856e-53
1.55144868016126375e-50
2.68189742076397547e-53
-1.45590264091843717e-52
2.00468153982790363e-54
1.13935076297286833e-52
1.82610372636069832e-55
-9.92056386616054021e-55
5.13464195568254994e-55
8.32813925075613217e-58
-4.72350040785405029e-57
4.03568265882108913e-26
4.75395156520388648e-27
-2.77336667728139585e-26
2.32423210540734043e-25
3.47086193695303726e-27
3.3039533920072578e-28
-1.8617734654590925e-27
1.89227692983061208e-26
2.4471044040227812e-28
2.25649297720445743e-29
-1.26221890176278729e-28
1.4963814007053811e-27
1.6199024196009262e-29
1.41618836021840057e-30
-7.89230328154697798e-30
1.08706473563972462e-28
9.91075123876412773e-31
8.20221214323331371e-32
-4.55140604580673228e-31
7.33951966092612156e-30
5.57015054413321066e-32
4.38625034023674033e-33
-2.42258284167086668e-32
4.59379807417600845e-31
2.86685612008551445e-33
2.15790351314245547e-34
-1.18904970699540926e-33
2.65488136117540812e-32
1.34599535074334492e-34
9.75596026015062055e-36
-5.36849322837106189e-35
1.41346908660854425e-33
5.73581379814427899e-36
4.04290779304282007e-37
-2.22239104621198372e-36
6.91077215028619248e-35
2.20436927680253049e-37
1.5293746300042157e-38
-8.39934151005094434e-38
3.08952126316155762e-36
7.57932049740756233e-39
5.25445390035036458e-40
-2.88340400961831582e-39
1.2561216687134853e-37
2.30793322057797275e-40
1.62949314535044858e-41
-8.93550064443402241e-41
4.61323756204376947e-39
6.14310356002887948e-42
4.52680583288762903e-43
-2.48079704153150092e-42
1.51737278964350876e-40
1.40493916078613461e-43
1.1159104642692542e-44
-6.11233165413602265e-44
4.42099914852354399e-42
2.69720831906639194e-45
2.41154312269356503e-46
-1.32037217951711192e-45
1.12475312861455851e-43
4.20606307409634863e-47
4.49557697365268343e-48
-2.46069670007849766e-47
2.45097395539353512e-45
5.07190164154561928e-49
7.06772108076861682e-50
-3.86788186301903567e-49
4.45357258787156016e-47
4.36435375112945978e-51
9.05621989480741775e-52
-4.95577419078603132e-51
6.48642362037734943e-49
2.30383684902887314e-53
8.93391657724362058e-54
-4.88904221543775655e-53
7.1081530266623101e-51
4.4848577934695847e-55
6.07648145896914621e-56
-3.32583684605463242e-55
5.2148736753214367e-53
2.7429786726630738e-58
-1.42955535523460762e-57
2.11132744740572374e-55
2.0768430615149794e-31
1.01185078734241855e-30
1.4253907832061008e-32
9.79832993893054533e-33
5.41392132085645063e-32
6.36771517769024621e-34
4.18658265999611575e-34
2.65802213103351674e-33
2.6073402895785157e-35
1.61541634371130858e-35
1.19364836761406764e-34
9.76107203757306e-37
5.58104540666109945e-37
4.87799957002179977e-36
3.32491172842668578e-38
1.70864924267119293e-38
1.80161723780903403e-37
1.0239640598798199e-39
4.5747081426203098e-40
5.96178441908486944e-39
2.82903308750108166e-41
1.05275813041778197e-41
1.74812633770523935e-40
6.9446492683025023e-43
2.03415280208876083e-43
4.47694987046260349e-42
1.49607831421699284e-44
3.19302060172992314e-45
9.8221341666070782e-44
2.7827602291031757e-46
3.8758851005548489e-47
1.79702369704425788e-45
4.36893844031260776e-48
3.35713670318186403e-49
2.63530560357313913e-47
5.59549409583381496e-50
1.78343572693937687e-51
2.90755921796967753e-49
5.52288559177065948e-52
4.50295446741986227e-53
2.14697507470619968e-51
3.76312961896484887e-54
9.9063734650965899e-54
1.76551937015808913e-56
1.5972810206252985e-30
7.49903794246286724e-30
1.13733986054995334e-31
8.25481904353297983e-32
4.35357138472272321e-31
5.52778906379115295e-33
3.8846392034229713e-33
2.32676444371046247e-32
2.46932577601385952e-34
1.66104917775857787e-34
1.14209967187116851e-33
1.01283814900848039e-35
6.41059303181858931e-36
5.12877247934578594e-35
3.79833577780180821e-37
2.21479814134842024e-37
2.09558041282092748e-36
1.2957766800580469e-38
6.77990819900191098e-39
7.73751109807696442e-38
3.99579980077966506e-40
1.8148698060752962e-40
2.55947014124324357e-39
1.10522637267129688e-41
4.17531398203449038e-42
7.5014964531867202e-41
2.71573585886839377e-43
8.06487595096922825e-44
1.92013653719695912e-42
5.85547282502827065e-45
1.26546941441151478e-45
4.21027852766841259e-44
1.08995664109298997e-46
1.53548409418080538e-47
7.69840074240873724e-46
1.71231691020295057e-48
1.32942137738747782e-49
1.12826794628160846e-47
2.19414707081780518e-50
7.05949710814504701e-52
1.24406593119555343e-49
2.16647709041008476e-52
1.7101761196841502e-53
9.1809830536017736e-52
1.47649607259041851e-54
4.20634557984577712e-54
6.81409646156791876e-57
6.14493170940732181e-31
3.10986452448495353e-30
4.24913758031642408e-32
3.17596049902883099e-32
1.80393828759037858e-31
2.06879153190303703e-33
1.49464470627336917e-33
9.64165687852996746e-33
9.26042593656275608e-35
6.3904218199407306e-35
4.73065681605165684e-34
3.80526466990792761e-36
2.46572712495300665e-36
2.12326724491150048e-35
1.42931751644775327e-37
8.51577866305815033e-38
8.67010720021539345e-37
4.88258899424383551e-39
2.60562959076275411e-39
3.19897757156189372e-38
1.50737571624426565e-40
6.97101354366104642e-41
1.05734410011377783e-39
4.17337939941144931e-42
1.60277512427771759e-42
3.09630616343388246e-41
1.02629386793900723e-43
3.09380689777894866e-44
7.91840328744860239e-43
2.21430286678142713e-45
4.85115752440972446e-46
1.73464991076836198e-44
4.1240773785124718e-47
5.88206680714747033e-48
3.16875773742606528e-46
6.48176820655840298e-49
5.08905493471975602e-50
4.63965984051129384e-48
8.30827046571692848e-51
2.70051826294771002e-52
5.11100736969371117e-50
8.20484299838913788e-53
6.26166086283295548e-54
3.76843363205046002e-52
5.59176022658076644e-55
1.71281394336071147e-54
2.53743871211617751e-57
2.30306094535256927e-31
1.25227154708918109e-30
1.54146863065766674e-32
1.18949815217770364e-32
7.25715772031890549e-32
7.51951303447872477e-34
5.59477827032389362e-34
3.8726978444681612e-33
3.37095803192978672e-35
2.39074270013623742e-35
1.89806745329555364e-34
1.38712725774496471e-36
9.21798798776350591e-37
8.50951687553541417e-36
5.21668836402873581e-38
3.18090334177527827e-38
3.47057314364629662e-37
1.78386800808226989e-39
9.72385505439198521e-40
1.2789032454198907e-38
5.51186804603994182e-41
2.59892976194444181e-41
4.2215537010228305e-40
1.52706451230178023e-42
5.96931234164851269e-43
1.23456724614654992e-41
3.75724448852445926e-44
1.15102534739369779e-44
3.15292786508105376e-43
8.10975372489034036e-46
1.80289392409848519e-46
6.8974659351941321e-45
1.51085115996295638e-47
2.18367001630691625e-48
1.25825544520722007e-46
2.37501202687870422e-49
1.88725938997581723e-50
1.83981331559139696e-48
3.04444242407416517e-51
1.00044748269422616e-52
2.02401222680427449e-50
3.00624191968120197e-53
2.21439382718999601e-54
1.49043391882956767e-52
2.04822761622479481e-55
6.71336219901679055e-55
9.13253183175157391e-58
3.68377225582820926e-28
1.57880816651801359e-27
2.88336237292888013e-29
2.46080275817085236e-29
1.15821108871522323e-28
1.79452952481961074e-30
1.50257045974670687e-30
7.83360739022502582e-30
1.02927240284230609e-31
8.44204724166744914e-32
4.90456556148841786e-31
5.4523387475593455e-33
4.34648458959146521e-33
2.83551097751767509e-32
2.65862728726333012e-34
2.04293363016182243e-34
1.51064244110294897e-33
1.19339410498396794e-35
8.71976862013053991e-36
7.39341267727429557e-35
4.91615042187188332e-37
3.35768984516927626e-37
3.30941777526849023e-36
1.850544371100614e-38
1.15706040945688304e-38
1.34748535932442087e-37
6.33260342351994822e-40
3.53200903926160544e-40
4.95690381814952441e-39
1.95775288534384428e-41
9.42624741008082761e-42
1.63334116137933342e-40
5.42607357224641616e-43
2.16181852735041204e-43
4.768041440119132e-42
1.33537275299616781e-44
4.16222967033221599e-45
1.21550032161675677e-43
2.88263413209843985e-46
6.50966481841776408e-47
2.65428152917244574e-45
5.37034589784355453e-48
7.87280072275839728e-49
4.83335087467933113e-47
8.44101560904446805e-50
6.79422473985028226e-51
7.05482288845743881e-49
1.08175544804782742e-51
3.59659266940616088e-53
7.7477330320484959e-51
1.06775040982745476e-53
7.57558502723701182e-55
5.69578780913314678e-53
7.27058910023129029e-56
2.5394736709161097e-55
3.18344202478995686e-58
1.29136473841595869e-28
5.93078960619034583e-28
9.68504744346089512e-30
8.82725595409523313e-30
4.37574819113693556e-29
6.11339902492504385e-31
5.36537296597483616e-31
2.95934508942163039e-30
3.51768703277902377e-32
3.01138941000714271e-32
1.85154178349883226e-31
1.86599525124242042e-33
1.54918625088702432e-33
1.07007890294755077e-32
9.12171646578776029e-35
7.27242856554328498e-35
5.69612202636672815e-34
4.10220891715750846e-36
3.09956817758140304e-36
2.78439524369835282e-35
1.69218056055914636e-37
1.19168093469586682e-37
1.24454604087205681e-36
6.3764408785553783e-39
4.09976919522424485e-39
5.05925662981638828e-38
2.18378654706868254e-40
1.24932611854460964e-40
1.8578931700404133e-39
6.75513816024299915e-42
3.3282822530572169e-42
6.11072608982860893e-41
1.87291276401306417e-43
7.61926786159459955e-44
1.78045664489948396e-42
4.61004539442027491e-45
1.46428532854207093e-45
4.53003461921751321e-44
9.95150704040441148e-47
2.28593396686926598e-47
9.87270931112572769e-46
1.85367136647097207e-48
2.75959804355659773e-49
1.79422023498828586e-47
2.91268706790218891e-50
2.37728254076674189e-51
2.61368727663216659e-49
3.73104757068130649e-52
1.2562573557567709e-53
2.86478289881852257e-51
3.68041196888293518e-54
2.50919242512678665e-55
2.10207870212290805e-53
2.50398036818421502e-56
9.30007831424456915e-56
1.07741117923240269e-58
7.53006281435565822e-27
6.7171282854934405e-28
4.18107464546358825e-26
6.47815247516772253e-28
4.68915800604260705e-29
3.52094098657147319e-27
4.56511507932067386e-29
3.1905029915674657e-30
2.78629871221022708e-28
3.01972598173217722e-30
1.9931723585842688e-31
2.02445689476812848e-29
1.84607214345537189e-31
1.15000586902814075e-32
1.3666896192963465e-30
1.03663083911248964e-32
6.12408062913394728e-34
8.55066757770611128e-32
5.33050922799614537e-34
3.00384010999385446e-35
4.93905849858364143e-33
2.50042158562071098e-35
1.3545669838560371e-36
2.62786716252149874e-34
1.06457457374483577e-36
5.59984711956899031e-38
1.28388902513984387e-35
4.08774498375199445e-38
2.11384734135691425e-39
5.73532386632857907e-37
1.40429067071688891e-39
7.24950546251375913e-41
2.33000039281280115e-38
4.27254046438122768e-41
2.24482869234879366e-42
8.55037184412131358e-40
1.13630444553115737e-42
6.22839244170646801e-44
2.81013352067032309e-41
2.59665454051945597e-44
1.53371537404546982e-45
8.18111923531617551e-43
4.98109134277776924e-46
3.31128598465245219e-47
2.079742660753099e-44
7.7614002633962109e-48
6.16750416945762089e-49
4.52848558123121237e-46
9.35163124540861734e-50
9.68829607708070757e-51
8.22214371142103483e-48
8.04050801302352218e-52
1.24042114965997934e-52
1.19658154174193942e-49
4.24086178905166913e-54
1.22269748960665276e-54
1.31023689654103373e-51
8.23431868191436731e-56
8.30988204807207017e-57
9.60462098465069473e-54
3.65531713335882287e-59
3.88300834788551815e-56
3.04097380941224091e-32
1.48556490836426009e-31
1.52293758906085406e-33
1.43061345203447168e-33
7.92805232342433042e-33
6.78414079220373541e-35
6.10126134332648574e-35
3.8840352050433635e-34
2.76619554447603814e-36
2.34986065839468934e-36
1.7407714607304641e-35
1.03187603625075578e-37
8.10442149215521014e-38
7.10072900232182149e-37
3.50541160155050575e-39
2.47716666279239024e-39
2.61799848084714392e-38
1.07696167141373109e-40
6.62219077865641376e-41
8.649144268438941e-40
2.96900489467862208e-42
1.52172643080646417e-42
2.53220269070619387e-41
7.27397832973190592e-44
2.93622039495863592e-44
6.47545229879643526e-43
1.56424333332235564e-45
4.60283178840919664e-46
1.41867867674478259e-44
2.90483721367323077e-47
5.57991794506142631e-48
2.5920592085364225e-46
4.55379706433921949e-49
4.82690672766619632e-50
3.7962280750704008e-48
5.82414130858666793e-51
2.56107848822124228e-52
4.18303943254826566e-50
5.74101235631206321e-53
4.62605415575398214e-54
3.08522301746581948e-52
3.9071579098109617e-55
1.33327865667090313e-54
1.73291491011084714e-57
2.33672688145221236e-31
1.09920557179969079e-30
1.21396996836985068e-32
1.20486404394220926e-32
6.36560042079212002e-32
5.87686632070616031e-34
5.65908465018799608e-34
3.39585614474395234e-33
2.62187170297740103e-35
2.41534760734109923e-35
1.66375253497239394e-34
1.06985413483549883e-36
9.30579676492862617e-37
7.45815778715828055e-36
4.00064988253552049e-38
3.20992841024745687e-38
3.04229199062638779e-37
1.36153406055800386e-39
9.81142519687572548e-40
1.12154751172668412e-38
4.18950728523477616e-41
2.62262410945335378e-41
3.70444648571863776e-40
1.15653237729741896e-42
6.02547692351707742e-43
1.08420270825186816e-41
2.83675812082135759e-44
1.16234614781604887e-44
2.77148174005344942e-43
6.10655633809428237e-46
1.82155852567025855e-46
6.06920017965907227e-45
1.13502102477604381e-47
2.20751268155543284e-48
1.10835913927544665e-46
1.78069142786081017e-49
1.90894900873534145e-50
1.62242823162393937e-48
2.27886471054786884e-51
1.01251165958366306e-52
1.7868125448314761e-50
2.24741369574348795e-53
1.72800828724707688e-54
1.31722091873012473e-52
1.53000619206911266e-55
5.64238161561632063e-55
6.64774325587224726e-58
8.95909999290127081e-32
4.53856729262890346e-31
4.51180361539008048e-33
4.62093906694747122e-33
2.62760107004417125e-32
2.19486364641435702e-34
2.17084305471741268e-34
1.40190157611324159e-33
9.77738511384797447e-36
9.26606221216540654e-36
6.86686322941453895e-35
4.00114761144683797e-37
3.56973119072836146e-37
3.07719866121460486e-36
1.49892752109788363e-38
1.23106990695155373e-38
1.25467011597920015e-37
5.10923925499173584e-40
3.76162809337695407e-40
4.62282180899847846e-39
1.5742845486137878e-41
1.00506750927908199e-41
1.52593378365346499e-40
4.3509840239303192e-43
2.30798974468655474e-43
4.46287669907356176e-42
1.06827733723532851e-44
4.44976481407551216e-45
1.13994629262140391e-43
2.3015886977086881e-46
6.96926977536865663e-47
2.49433235754289677e-45
4.28105685854071547e-48
8.44073561182264002e-49
4.55137736917089686e-47
6.7204010649893484e-50
7.29459697081487522e-51
6.65675466012830688e-49
8.60445365391155011e-52
3.86673258828288704e-53
7.32507963469678831e-51
8.48824107736186687e-54
6.20917312837026749e-55
5.3956697529684285e-53
5.77940776338764653e-56
2.28899924400146052e-55
2.45987999572814991e-58
3.34382874108770014e-32
1.81780442499420189e-31
1.62824734362560841e-33
1.7238922294577348e-33
1.05181339042262919e-32
7.91006722277031504e-35
8.09581761460888271e-35
5.60463743052217267e-34
3.53598397702194348e-36
3.45440966866669672e-36
2.74305663265353705e-35
1.45051935506100911e-37
1.33009300812774307e-37
1.22814377436000737e-36
5.44241871422667192e-39
4.58393223923466045e-39
5.00262096402812046e-38
1.85747843306224124e-40
1.39958578963103614e-40
1.84125742714339887e-39
5.72961319142913219e-42
3.73641773056530828e-42
6.07092444917922349e-41
1.584994519817158e-43
8.57248374169898517e-44
1.77347448732195919e-42
3.89449696519823459e-45
1.65122288975141118e-45
4.52450005754730198e-44
8.395741900271627e-47
2.58369846786524265e-47
9.88798385070008856e-46
1.56239339118663638e-48
3.12620395588232487e-49
1.8020228728388766e-47
2.45351866945841735e-50
2.69912927815910786e-51
2.63236728812515807e-49
3.14205868278406157e-52
1.4294375683881822e-53
2.89315113345245967e-51
3.09979611011376358e-54
2.14956290224875875e-55
2.1286409271397713e-53
2.11027613406217423e-56
8.93647667586978212e-56
8.81094006712648501e-59
5.34567550403334445e-29
2.28432521595161558e-28
3.04231771601082662e-30
3.56409468316323201e-30
1.67369179532948675e-29
1.88669529529010972e-31
2.17303618131209589e-31
1.13077281861850491e-30
1.07980987485892112e-32
1.21914136045616784e-32
7.07145681507635226e-32
5.69714961521628649e-34
6.26840826737494387e-34
4.08394914126305581e-33
2.77329492217036163e-35
2.94251000646942025e-35
2.17342600901109151e-34
1.24239812858198578e-36
1.25442876761216677e-36
1.06260991443225826e-35
5.10633314082776634e-38
4.82492748045884026e-38
4.75164192481814353e-37
1.91848670432549235e-39
1.66089907816842488e-39
1.93284533580711939e-38
6.55468826509130372e-41
5.06488651083941385e-41
7.10364467287647667e-40
2.02363341074678088e-42
1.35041484034294189e-42
2.33862424617132598e-41
5.60190791633507255e-44
3.09416810947771708e-44
6.82102331933319725e-43
1.37717150712982947e-45
5.9519463333472714e-46
1.73740715746017899e-44
2.97001349289547602e-47
9.3005374750946224e-48
3.79087288053910857e-46
5.52831593402892975e-49
1.12382679804907309e-49
6.89751040214744661e-48
8.68232629441622924e-51
9.69015998017696362e-52
1.00597039841456094e-49
1.1118388325720831e-52
5.12528046733673032e-54
1.10389776449361197e-51
1.09664630494222978e-54
7.1789803952017754e-56
8.1097179580438285e-54
7.46266119372890186e-57
3.37060461025618989e-56
3.08024106155709625e-59
1.85948940023544581e-29
8.4849581375824742e-29
1.01004774917079516e-30
1.26861719779119682e-30
6.25851189731665769e-30
6.3550046891998121e-32
7.70480581521639204e-32
4.23163698549264517e-31
3.64997543152248175e-33
4.32024479715639237e-33
2.64654882101058835e-32
1.93105488423241469e-34
2.2204284993333461e-34
1.52882586409872086e-33
9.42601304849443894e-36
1.04141131324902547e-35
8.13384245659835599e-35
4.23291602768969273e-37
4.43477699242318365e-37
3.97383339029664107e-36
1.74330671331853751e-38
1.7036325068389153e-38
1.77519960911488849e-37
6.55998130960192975e-40
5.85647393170919488e-40
7.21238436202055423e-39
2.24406372489034035e-41
1.78330904917423313e-41
2.64709069648913458e-40
6.93493191042680866e-43
4.74739637191483852e-43
8.70156556164581965e-42
1.92119423558994722e-44
1.0860281189678981e-44
2.53392096267116165e-43
4.72555185589378378e-46
2.08569709265559221e-46
6.44347979386964678e-45
1.01944937906894651e-47
3.25378818122816999e-48
1.4034986519425539e-46
1.89786342373176868e-49
3.92528185306220342e-50
2.54921394276319046e-48
2.98056625027440542e-51
3.37910222240654156e-52
3.71138119163497053e-50
3.81608612495116877e-53
1.78445412153448086e-54
4.06555117385146221e-52
3.76243739587009639e-55
2.32193324948933438e-56
2.9816529581266279e-54
2.55872875441100296e-57
1.24421604809349777e-56
1.08098554905810737e-59
1.07245906450163372e-27
6.85732734885258781e-29
5.74868350057409375e-27
9.20359247585980987e-29
4.81230554444442945e-30
4.98477411682574588e-28
6.49363393872469542e-30
3.27027290958473382e-31
3.94977519670583848e-29
4.29584427468425452e-31
2.04221448575617604e-32
2.872894382956774e-30
2.62584456618428733e-32
1.17730084348241426e-33
1.94056240330050717e-31
1.4741273521091427e-33
6.25965625510014326e-35
1.21443269302637276e-32
7.57788482543509536e-35
3.06770000877436438e-36
7.01543055407616424e-34
3.55343234899689507e-36
1.38230362067802292e-37
3.73246629221786073e-35
1.51236987064580352e-37
5.70974030600030032e-39
1.82332346580992436e-36
5.80506856305431519e-39
2.15379627985357664e-40
8.14349365877468144e-38
1.99350829255965706e-40
7.38251767085474941e-42
3.30754162594272774e-39
6.06290809195574812e-42
2.28511452638812539e-43
1.21343152126616673e-40
1.61183085100712144e-43
6.33834866313966074e-45
3.98681090119611339e-42
3.6818370640301388e-45
1.56045493053551018e-46
1.16029753628141535e-43
7.05984698324036795e-47
3.36842528864316384e-48
2.94859491689850028e-45
1.09957464598074871e-48
6.27292918796260742e-50
6.41798802881011059e-47
1.32427332798978278e-50
9.85231680187579538e-52
1.16483089146346817e-48
1.13807016045686736e-52
1.26120013944949742e-53
1.69450493785129288e-50
5.99980750114922935e-55
1.24293178200764366e-55
1.85465263754088737e-52
8.15579279063069417e-57
8.44653219995344724e-58
1.35902745262140211e-54
4.22003753675365407e-60
5.46813598596135576e-57
6.76307534612974247e-32
2.94570638156092003e-31
2.48406092416728815e-33
3.4763981459274956e-33
1.69912874278134561e-32
1.19072283269215949e-34
1.629036390296362e-34
9.04422196440904538e-34
5.27923704649511946e-36