/*--------------------------------*- C++ -*----------------------------------*\
| =========                 |                                                 |
| \\      /  F ield         | OpenFOAM: The Open Source CFD Toolbox           |
|  \\    /   O peration     | Version:  2206                                  |
|   \\  /    A nd           | Website:  www.openfoam.com                      |
|    \\/     M anipulation  |                                                 |
\*---------------------------------------------------------------------------*/
FoamFile
{
    version     2.0;
    format      ascii;
    arch        "LSB;label=32;scalar=64";
    class       volScalarField;
    location    "0.0299999999999999989";
    object      p;
}
// * * * * * * * * * * * * * * * * * * * * * * * * * * * * * * * * * * * * * //

dimensions      [1 -1 -2 0 0 0 0];

internalField   nonuniform List<scalar> 
7340
(
-0.391717201810829585
-0.417199833049734958
-0.440432440103272871
-0.46160414785406878
-0.48084299581405332
-0.49823696873711143
-0.513854360776970553
-0.527756386091190244
-0.539996555476506157
-0.550619689545587154
-0.559663806391342722
-0.567159073389576385
-0.573127513915053899
-0.577586282723737909
-0.580549720155451476
-0.582027637230096762
-0.52056255125103057
-0.545650230199209663
-0.568553779754197408
-0.589447830490165248
-0.608445440425341655
-0.62562801674496904
-0.641062076467399877
-0.654805883198912086
-0.666909769856217305
-0.677416469295306967
-0.686362333923514756
-0.693776656957285631
-0.699681665373438788
-0.704094622032490292
-0.70702877582436463
-0.708492459005911845
-0.649924699997691091
-0.674587817906526888
-0.697146920068370091
-0.71775014333111431
-0.736493111000081635
-0.753451583823141258
-0.768689972273356337
-0.782263866276497133
-0.794220922114213468
-0.804601972853004832
-0.813441890535200107
-0.820769140614411863
-0.826605906082728548
-0.830969306173125033
-0.833871544538185239
-0.835319566439993277
-0.779777082169657132
-0.804001995821628568
-0.826206741071712436
-0.846506490290886648
-0.864981172125849795
-0.881702500492602237
-0.896732708678313672
-0.910124994679223476
-0.921924781140421645
-0.932171175353171844
-0.940897660391223689
-0.94813186887557388
-0.953895703094108427
-0.958205850886168164
-0.961073460861216256
-0.962504359591307646
-0.824698167523910008
-0.855738864985118863
-0.884107395957409614
-0.910062781739440885
-0.93387037510945381
-0.955719926061424307
-0.97570499219622342
-0.993899096095172463
-1.01037126785640163
-1.02518166571172342
-1.0383814430650351
-1.05001420290848868
-1.06011753583769219
-1.06872363570697115
-1.07585924143511846
-1.0815456865209474
-1.08579895898366985
-1.08862922704842235
-1.09004163937060317
-0.957190904423049216
-0.987487512392198785
-1.0152747493101999
-1.0407608301970086
-1.06417686581789539
-1.08566950930031214
-1.10533052949335442
-1.12323373784542691
-1.13944627638694396
-1.15402652747272771
-1.1670240169053725
-1.17848093612182669
-1.18843360005884646
-1.19691301191865573
-1.20394490411178401
-1.20954974340943577
-1.21374263348315603
-1.21653292019024484
-1.21792569913180593
-1.02279404500121074
-1.05782260301878805
-1.0900347508426802
-1.11962280703275896
-1.14685488709692907
-1.17189447180127537
-1.19491571135264385
-1.21604429587260343
-1.23537298217567648
-1.25297614572829397
-1.26891964729366258
-1.28326042414302677
-1.29604678899897907
-1.30731988691634182
-1.31711497340581074
-1.32546191579175154
-1.33238529568553887
-1.3379044723885305
-1.34203360871654764
-1.34478157982121727
-1.34615447281365208
-0.419145386439620404
-0.442020762937756717
-0.462896218587936614
-0.481894050682748265
-0.499093221447693525
-0.514555768554967208
-0.528334915118723658
-0.540476148058095629
-0.551020015658793549
-0.560002122019031434
-0.567449719319076062
-0.573382419786634068
-0.577816330600863681
-0.580764982820237918
-0.582236489327643159
-0.52289707162983845
-0.54756860269185359
-0.570112591350560471
-0.590716009908162198
-0.609478854445041573
-0.626471501751865167
-0.641753540637552411
-0.65537585677539445
-0.667382079462808253
-0.677810821584501788
-0.686695642315164556
-0.694063066690706165
-0.699933157300237418
-0.704321940762426157
-0.707241504822813449
-0.708698490597984176
-0.652213702604882539
-0.676459580281075223
-0.698670365589512676
-0.71899182876096468
-0.737506615824637168
-0.754280263967865849
-0.769369906846283924
-0.782824312951047152
-0.794685332592904858
-0.804989851731077066
-0.813769812578176377
-0.821051058514709498
-0.826853745209719326
-0.831193581345320842
-0.834081386780247902
-0.835522533637360398
-0.782002764472828127
-0.805821416680711611
-0.827692045090784756
-0.847719453487150276
-0.865972936650001857
-0.882514754489534647
-0.897399850619728268
-0.910675090296136247
-0.922380735732496015
-0.932552140454920186
-0.941219869141650789
-0.948409067223418334
-0.954139663083913292
-0.958426780851716176
-0.961280078949758976
-0.962703992305639966
-0.828591754360776256
-0.858939798744224658
-0.886738735836217651
-0.912222102699044468
-0.935637526733912539
-0.957165134689306418
-0.976887360390582771
-0.994867473526047763
-1.0111656537083924
-1.02583489181668397
-1.0389204263094669
-1.05046118208862715
-1.06049120964209331
-1.06903987667283573
-1.0761315405246934
-1.08178556398604298
-1.08601626880546398
-1.08883233058279316
-1.09023770800627107
-0.960966279239726329
-0.990592457733408871
-1.01782610739602841
-1.04285288213831917
-1.06589040961503967
-1.08707287006109143
-1.10648043117703088
-1.12417704749080771
-1.14022132976819912
-1.15466468318508841
-1.16755107327211127
-1.1789183866953783
-1.1887996138663719
-1.19722305151345054
-1.20421212470811367
-1.20978532201047639
-1.21395605071434942
-1.21673224376892186
-1.21811799748481508
-1.02822597412689176
-1.062273925312613
-1.09369081527224976
-1.12262676733993372
-1.14932204348535505
-1.17391775336372728
-1.19657445369705062
-1.21740426059463314
-1.23648881668808652
-1.25389287718392861
-1.26967401344808195
-1.28388241067927344
-1.29656112104082699
-1.30774727291048443
-1.31747298729387263
-1.32576553563684474
-1.33264724679299773
-1.33813551832407351
-1.34224286389526304
-1.34497687932568799
-1.34634281362513697
-0.420964155479467306
-0.443506716588437988
-0.464108480568318882
-0.482882066943125521
-0.499898485845342466
-0.515215146714015471
-0.528878542977655131
-0.54092671856058383
-0.551396073749818694
-0.56031989743439603
-0.567722905876534401
-0.573622711960308895
-0.578034374602562795
-0.580970152876823298
-0.582436026794532213
-0.525074161540700191
-0.549351859434156431
-0.571569839717368855
-0.591905825873166203
-0.610449969781067581
-0.627264555616811936
-0.642403501099080509
-0.655911425110171642
-0.667825801791486096
-0.678181264673860751
-0.687008774835277003
-0.694332458075225478
-0.700170435570907523
-0.70453735879969559
-0.707443840353025988
-0.70889468588229676
-0.65434108310038186
-0.678202038593882173
-0.700095143472128423
-0.720156407130715159
-0.738458611465016568
-0.755059149875774716
-0.770008957586672427
-0.783350923099928487
-0.795121620631503601
-0.805354206614249057
-0.814077947449527106
-0.821316368387400075
-0.827087682718740003
-0.831406007364253297
-0.834280601942026023
-0.835715312653843689
-0.784075721406743309
-0.80751947857715789
-0.82908155385423421
-0.848856567879376578
-0.86690397518431983
-0.883277849547017491
-0.898026713535601928
-0.911191902451874536
-0.922809031137180047
-0.932909988362785825
-0.941522697716430601
-0.948670040143929416
-0.95436996673162966
-0.958635878039504119
-0.961475891050801668
-0.962893205729439483
-0.832227886929701621
-0.861927634867771908
-0.889194468135680816
-0.914237213564812579
-0.937288271940997286
-0.9585169959875669
-0.977995038475151124
-0.99577584810147024
-1.0119114396300517
-1.02644834628006909
-1.0394265924199706
-1.05088092123213928
-1.060842165738062
-1.069337130281383
-1.07638794240744673
-1.08201195791903393
-1.08622173265888566
-1.08902449500649912
-1.09042321184669122
-0.964491459617421776
-0.993490424368615788
-1.02020725228306031
-1.04480614772360791
-1.06749115342255596
-1.08838491009575611
-1.10755675862497083
-1.12506103106733013
-1.14094825752801521
-1.15526346786160561
-1.16804569083642029
-1.17932897450166507
-1.18914329551225695
-1.19751446545081808
-1.20446371045395173
-1.21000752528355404
-1.21415759933329825
-1.21692055413004896
-1.21829967168429598
-1.03329980317312886
-1.06643124537734058
-1.09710400502065952
-1.12543076319620283
-1.15162468469151702
-1.17580657469372984
-1.19812318485199087
-1.21867465788739349
-1.23753208340121112
-1.25475083742891647
-1.27038058185194602
-1.28446528524024495
-1.29704329005563768
-1.30814811792075325
-1.31780901577643217
-1.32605083110277389
-1.33289374353875179
-1.33835323881569246
-1.34244023802033308
-1.34516116802649721
-1.3465205665081792
-0.398299534247807285
-0.422585210299327718
-0.4448321110226513
-0.465194010277784398
-0.48376923815033257
-0.500622065287821716
-0.515807083519049137
-0.529366018518459769
-0.541330475828604052
-0.551732904811930491
-0.560604566055492692
-0.567968130197457288
-0.57383933838415524
-0.578231898922052512
-0.581156550408119088
-0.582617321812693989
-0.527012798052556408
-0.550930563027279385
-0.572868647338030224
-0.592970897087784388
-0.611321028529408395
-0.627976474336351065
-0.642986883822683541
-0.656391933087609125
-0.668223742669380893
-0.678513351203134163
-0.687289531932690156
-0.694574430170340595
-0.700384315285407566
-0.70473225949143492
-0.707627288104804464
-0.709072596628375185
-0.656226705259619902
-0.679748102499238005
-0.701365826305162088
-0.72119833884947826
-0.73931182821810848
-0.755757879704141211
-0.770582431803452761
-0.783823499851536987
-0.795513074899079076
-0.805681041150511201
-0.814354432794464178
-0.821554814955030577
-0.82729853061223424
-0.831597987611771727
-0.834460884031308581
-0.835889782849046248
-0.785918661350680225
-0.809031377774840355
-0.83032151075980809
-0.84987347125681989
-0.867737841714959823
-0.883962012619789683
-0.898589078762439319
-0.911655678151071736
-0.923193398611072857
-0.933231135943988543
-0.941794599913817532
-0.948904709083364328
-0.954577511462277095
-0.958824651807202333
-0.96165279033587503
-0.963064133694118141
-0.835476036746512385
-0.864595714902305357
-0.891385664376370679
-0.916033560257792145
-0.938760182817300004
-0.95972370491963499
-0.978985196499652877
-0.996588904783749507
-1.01257967388533832
-1.02699842787115658
-1.03988070020156975
-1.05125761068378187
-1.06115722284773972
-1.06960416299379979
-1.07661858647834774
-1.08221593436949681
-1.08640704106286434
-1.08919783217628652
-1.09059051273622853
-0.967640533693022387
-0.996077634007942581
-1.02233213765059627
-1.04654889560446906
-1.06891937126980019
-1.08955615754269242
-1.10851853515423793
-1.12585179397997903
-1.14159916886105495
-1.15580007308657273
-1.16848924401580345
-1.17969738740967767
-1.18945186586415641
-1.19777633988386034
-1.20469006526749545
-1.21020766313712458
-1.21433921036774439
-1.21709019460577794
-1.21846329460430702
-1.03783335797427156
-1.07014692202520534
-1.10015280589022302
-1.12793466717104662
-1.15368029205226064
-1.17749256447851747
-1.19950541512039832
-1.21980876778174885
-1.23846406243035245
-1.25551793050407579
-1.27101285102805717
-1.28498728522374783
-1.29747544790125824
-1.30850768585816146
-1.31811071415326397
-1.32630724401157951
-1.33311552060625838
-1.33854926592371437
-1.34261795214502166
-1.34532702292896733
-1.34668049167907178
-0.3999736295265226
-0.423955492740977324
-0.44595433417446495
-0.466112728318886282
-0.484520812475048079
-0.501235572463268997
-0.516309240492125232
-0.529779595578779516
-0.541672670450267901
-0.552017835120199751
-0.560845188399654249
-0.568175947204442755
-0.574023917123410388
-0.578401035952252451
-0.581316441833022557
-0.582772716493465959
-0.528648974934457172
-0.552270390129893873
-0.573967633918024855
-0.593871749675355276
-0.612058727616342835
-0.628580023830050294
-0.643481759131331876
-0.656799559555815149
-0.668561081506793276
-0.678794555127619104
-0.687527236638999395
-0.694779730122766725
-0.70056649374168245
-0.704898857594808081
-0.707784307286847714
-0.709224829797565293
-0.657823705647676116
-0.681056932382027691
-0.702439635068886847
-0.722079237414059771
-0.740034139157938031
-0.756350075557806201
-0.771068798116474108
-0.784224350839126672
-0.795844983769876446
-0.805958012419573322
-0.814588798870220065
-0.821757305779147962
-0.827478098446729149
-0.831761861673445013
-0.834614873165207549
-0.836038758392254056
-0.787476110239047178
-0.810307775477511427
-0.831368508035471687
-0.850732896387733195
-0.868443503038013209
-0.884541638675661046
-0.899065861032870006
-0.912048984633076376
-0.923519338803216128
-0.933503450879346275
-0.942025297340857604
-0.949104138276345544
-0.954754244727204604
-0.958985593305233808
-0.961803597094936569
-0.963209781254099062
-0.838215838041749817
-0.866846447953006138
-0.893234159320915655
-0.917548861878689448
-0.940001896059821984
-0.96074227954412672
-0.979821818418296853
-0.997276712016190614
-1.01314555338078049
-1.02746458913237193
-1.04026569183962447
-1.0515770456539153
-1.06142449255922
-1.06983089478130733
-1.07681470229396004
-1.08238959699300219
-1.08656485413586501
-1.08934535055447967
-1.09073281302540703
-0.970298380794186732
-0.998260975666753203
-1.02412506721759344
-1.04801892291846821
-1.07012425187409788
-1.09054480305496915
-1.10933108407525527
-1.12652053289960685
-1.14215011833134961
-1.15625458001546022
-1.16886514220971005
-1.18000977699493026
-1.18971370791704789
-1.1979988021069452
-1.2048825901453446
-1.21037800409038354
-1.21449372166074809
-1.21723436919800498
-1.21860227521049502
-1.04166154231738961
-1.07328516376667649
-1.10272723056571964
-1.13004873347659229
-1.1554155357510516
-1.17891536078021542
-1.20067193236092118
-1.22076626864574589
-1.23925143119966608
-1.25616647700374595
-1.27154776509528622
-1.28542917795524536
-1.29784152508547335
-1.3088125164055624
-1.31836674722908476
-1.3265251080429592
-1.33330414661496643
-1.33871603009522921
-1.34276902049859181
-1.34546784455342361
-1.34681621087750347
-0.401275990054668408
-0.425025886546292586
-0.446830030393072564
-0.466829847328217085
-0.485108282874263996
-0.501715663013603819
-0.516702604031831547
-0.530103553974446418
-0.541940306582131215
-0.552240260327076737
-0.56103291966413571
-0.568338450450742827
-0.574168960501128534
-0.578534650111868665
-0.581443135392513466
-0.582895876378787037
-0.529923306815479722
-0.553317028019201462
-0.574825027658673937
-0.594574658626773611
-0.612635063009024483
-0.62905212799252419
-0.643869184613374501
-0.657118663740465792
-0.668824926228909655
-0.679014299266339494
-0.687713023526099532
-0.694940515919830415
-0.700709674635300428
-0.705030233443621257
-0.707908322867548789
-0.709345037641520015
-0.659067316612776843
-0.682077510044758917
-0.703276490054652093
-0.722766040468107884
-0.740598018951257098
-0.756812956816344307
-0.771449263316915435
-0.78453795410876237
-0.796104559703555203
-0.806174592769417719
-0.814772201039850485
-0.821916067428661634
-0.827619236498651212
-0.83189089211256495
-0.834736152930054653
-0.836156014122614089
-0.788686974452001088
-0.811301054065461047
-0.832183439969270355
-0.851402353383754251
-0.868993892742657148
-0.884994269194178562
-0.899438477187145646
-0.912356461911581484
-0.923774188176073041
-0.933716476504274473
-0.942205988043572806
-0.949260622723335556
-0.954893141793050404
-0.959112135801377552
-0.961922082344242591
-0.963324113485939271
-0.840339477979432758
-0.868591327829731474
-0.894667888869668859
-0.918725520767300963
-0.940966842083746702
-0.96153429346193442
-0.980472976634224724
-0.997812690675266123
-1.01358699586830703
-1.02782852848832906
-1.04056642742178473
-1.05182672565060376
-1.06163361948046875
-1.07000858639564789
-1.07696865558744936
-1.08252603674040504
-1.08668877338850089
-1.08946102631572161
-1.09084429966628083
-0.972360605424530511
-0.999954756765686348
-1.02551618253557697
-1.04916000198304693
-1.07105997809805764
-1.09131309654886555
-1.10996310699973577
-1.12704122141351837
-1.14257947998552112
-1.15660905488281429
-1.16915853757058263
-1.18025385750981648
-1.18991860305416797
-1.19817319673689937
-1.20503372949885934
-1.21051175531793986
-1.21461490386331095
-1.21734726436802898
-1.218711028347502
-1.04463871750314086
-1.07572420178723371
-1.10472692391887373
-1.13169051164451684
-1.15676291275596799
-1.18002009715346823
-1.20157788079960737
-1.22151024812001285
-1.23986363461171933
-1.25667110421298878
-1.27196425958017389
-1.28577349773578042
-1.29812704688660685
-1.30905059619703334
-1.31856707181397059
-1.32669587746480389
-1.33345216180586768
-1.33884686452473201
-1.34288738426385024
-1.34557802255627479
-1.34692235444021136
-0.402155139492119451
-0.425750920354363682
-0.447424808531776796
-0.467319007427547506
-0.485510041924155478
-0.502044461036652012
-0.516972156350121836
-0.530325249367308627
-0.542123203023096245
-0.55239232525233839
-0.561161421567720864
-0.568449805562344923
-0.574268580123055372
-0.578626795425244089
-0.581530801227996497
-0.582981105434597136
-0.530782330591958118
-0.554025287085097351
-0.575406923965552375
-0.595053150254453045
-0.613028327717339727
-0.629374849147035231
-0.644134258788196079
-0.657336886523558594
-0.669005265964776941
-0.679164608827434457
-0.687840294578775935
-0.695050825777293935
-0.700808081554248563
-0.70512069717532766
-0.707993772004385291
-0.709427758093783334
-0.659903987914924439
-0.682766741239201114
-0.703843204894133212
-0.723232342664168026
-0.740981755826379818
-0.757128568329414997
-0.771708968338226331
-0.784752055794128656
-0.796281833112704951
-0.806322708338500838
-0.814897881526156054
-0.822025060151302833
-0.827716242018273984
-0.831979586152922779
-0.834819417090099769
-0.836236360902385067
-0.789500365978053842
-0.811970263890073096
-0.83273386369542679
-0.851855612502899318
-0.869367372094834612
-0.885301990495058644
-0.899692120938470064
-0.912565923518099731
-0.923947994927842964
-0.933862069326689026
-0.942329805821282895
-0.949368067190359599
-0.954988559458738728
-0.959198965915827761
-0.962003202396510493
-0.963402235489973946
-0.841763936889508457
-0.869760873538570234
-0.895628650902095647
-0.919515315995949156
-0.941615682693750511
-0.962067978375237831
-0.980912720129606175
-0.998175381793924843
-1.01388622834539333
-1.02807556460650007
-1.0407708271338052
-1.05199674874431848
-1.06177643295242308
-1.07013030581099877
-1.07707432176805584
-1.08261967824707495
-1.08677366494412908
-1.0895400763990537
-1.0909203656711921
-0.973746665412814849
-1.00109145718395887
-1.0264493671643411
-1.04992568741514836
-1.07168844764265603
-1.09182996531782495
-1.11038907526696828
-1.12739273027913445
-1.14286976162827414
-1.1568490557463067
-1.16935753788406638
-1.18041983626069547
-1.19005840534252494
-1.19829257388014065
-1.20513736899148505
-1.21060343376106205
-1.21469780600577559
-1.21742433959436402
-1.21878520387617684
-1.04665249860121401
-1.07737135208827794
-1.10607405666903613
-1.13279463387374424
-1.15766823327714086
-1.18076200284732069
-1.2021865060682666
-1.22201059135411483
-1.24027586185665806
-1.25701128142526253
-1.2722453521304915
-1.28600622220501881
-1.29832043896492766
-1.30921233631157952
-1.31870364492497649
-1.32681265725150133
-1.33355352533568627
-1.33893641772835537
-1.34296827844557187
-1.34565322882131944
-1.3469947855776665
-0.402589215274315682
-0.426112252683397918
-0.447723073945987093
-0.467565492355623502
-0.48571300099893111
-0.502211262135953018
-0.517109302193633713
-0.530437770446409163
-0.542215842280231453
-0.55246958043304506
-0.561226904241094782
-0.568506461420364539
-0.574319109774179659
-0.578673468205318842
-0.581575070854535969
-0.583023824998983642
-0.531205709474383947
-0.554377759556062499
-0.575698277794261415
-0.595293647694169481
-0.613226574158829307
-0.629538225926529527
-0.644268752374381082
-0.657447434739817815
-0.66909660852212971
-0.679241035986117181
-0.687905217771342059
-0.695107035450617139
-0.700858034886972736
-0.705166389062418797
-0.70803660278955538
-0.709468807965895953
-0.66031457787595893
-0.683107960770773182
-0.704125403637171687
-0.723465469933088356
-0.741174256934932774
-0.757287493249269583
-0.771839997771949338
-0.784860042558291671
-0.796371368459768192
-0.80639786421243409
-0.814961913021158169
-0.822080586351375819
-0.827765459737294873
-0.832024270093878471
-0.834860968729161601
-0.836276052273880355
-0.789898424508524655
-0.812299790249030318
-0.833006322640286956
-0.85208092118077583
-0.869553654947037735
-0.885455949992759006
-0.899819254977410221
-0.912671006277112951
-0.924035435498772761
-0.933935718534070314
-0.942392746184050556
-0.949422724544053298
-0.955036899561640729
-0.959242620544438096
-0.96204361281955586
-0.963440816914484355
-0.842460807827827507
-0.870332530530383841
-0.896097575623390319
-0.919901829717895803
-0.941933859761485914
-0.962330850649192326
-0.981130214264371303
-0.998355296173037865
-1.01403501686713238
-1.02819861952489422
-1.0408728490123873
-1.05208196408109389
-1.06184846131596977
-1.0701920221513288
-1.07712795280043139
-1.08266701966680534
-1.08681628532721808
-1.08957947227426022
-1.09095803172696426
-0.974427924170111814
-1.00164810987667163
-1.0269057207396215
-1.0502997191213026
-1.07199580335704514
-1.09208370650645348
-1.11059889329937223
-1.12756625556250789
-1.1430133134248841
-1.15696796905496369
-1.1694564350566945
-1.18050275439866681
-1.19012871591706348
-1.19835292428896212
-1.20518981077859433
-1.2106496656056267
-1.21473939303132328
-1.21746282258588101
-1.21882208882158283
-1.04765185434420438
-1.078187666992243
-1.10673844709666125
-1.13333609788251222
-1.15811145600740795
-1.18112461930526447
-1.2024843806179395
-1.22225612485280388
-1.24047859549870232
-1.25717879990315828
-1.27238394218527717
-1.28612119447491891
-1.29841632948079799
-1.30929298850666953
-1.31877218613336278
-1.3268715280658272
-1.33360465689373564
-1.33898147947117141
-1.34300886143819254
-1.34569088897597133
-1.3470309852917417
-0.406018364667566689
-0.431330665137923286
-0.454196057564620448
-0.474807800952736669
-0.493309568763832029
-0.509820123739588515
-0.524437443512184909
-0.53724888720648889
-0.548328872500017384
-0.557735294176429641
-0.565512657536689778
-0.571694043445261868
-0.576303453216924333
-0.57936120388434531
-0.580884121550823807
-0.507116908746768513
-0.534686677667466026
-0.559615750248215194
-0.582165866796139797
-0.602508635122699698
-0.620777895705159066
-0.637087643103903201
-0.651533868268110328
-0.664200083366906946
-0.675156579848284144
-0.684459178092594711
-0.692151276108252
-0.698265571142722585
-0.702826253648378474
-0.705853092423850081
-0.707361456748856865
-0.636775400797123137
-0.663852090506861003
-0.688388740407354649
-0.710608756632533867
-0.730665535563733148
-0.748686448458557252
-0.764781309636348605
-0.779043418565984691
-0.791552676110736542
-0.802375798179566835
-0.811566425278195003
-0.819166743667285591
-0.825208911422590452
-0.829716915589424397
-0.83270985020418109
-0.834201847863653922
-0.766935560822842533
-0.793510559121599512
-0.817643617754952645
-0.839517885305034239
-0.859272422322197582
-0.877029642784380448
-0.892895682471576024
-0.906960849955843362
-0.91930163271647114
-0.929981571250477868
-0.939052166324477633
-0.946554280145723625
-0.952519305750739065
-0.956970731401996066
-0.959926905206553438
-0.961400948562188939
-0.802032060468668817
-0.837118813315067989
-0.868829953109511832
-0.897553219461519114
-0.923644270239785681
-0.947366513027923074
-0.96888065938763579
-0.988318343689908008
-1.0057979998099944
-1.02142229173153476
-1.03527848202667605
-1.04743993835063387
-1.05796741585672005
-1.06691036125886018
-1.07430816817887842
-1.08019122307575066
-1.08458230917813947
-1.08749901713741726
-1.08895375387131255
-0.935211840467021882
-0.969421814731124432
-1.00044504803184209
-1.02861017503521035
-1.05423507423591678
-1.07753995607127329
-1.09868156752770174
-1.11778995932692737
-1.13497996140810753
-1.1503509404577299
-1.16398723315664432
-1.17595945905660404
-1.18632595767179971
-1.19513419844627844
-1.20242197146232677
-1.20821847664134041
-1.21254567134977709
-1.21542036575402879
-1.21685468560316168
-0.991189342682708641
-1.03191576051859091
-1.06875882240341857
-1.10213737031971393
-1.13249975254528867
-1.16012497978928852
-1.18527636671770176
-1.20815311537197978
-1.22891125465228379
-1.24767923806590408
-1.26456869743639366
-1.27967584136663448
-1.29308226714041119
-1.30485619270369435
-1.3150538274640815
-1.32372072121355289
-1.33089298998213001
-1.336598561992002
-1.34085851322403871
-1.34368892840902276
-1.34510159210716518
-0.406420261798271065
-0.431654386723968386
-0.454459788340560999
-0.475023954127922865
-0.493486776667603433
-0.509964843272623702
-0.524555538806979693
-0.537345940405251077
-0.548409272924900493
-0.557802496721346297
-0.565569951242181457
-0.571744436709754389
-0.576349510085687355
-0.579404306620202592
-0.580924725171390377
-0.507605407042650336
-0.535080960223829005
-0.559936264471080358
-0.582427190742984546
-0.602722087685210406
-0.620952398232836988
-0.637230217860933701
-0.651650621963236643
-0.664296360289839738
-0.675236550227732324
-0.68452616265964461
-0.692208341362913537
-0.698315550222026404
-0.702871715016226029
-0.705895536491633058
-0.707401413692589021
-0.637253292339311939
-0.664240741236853172
-0.688705666719202414
-0.710866921616059244
-0.730875985031412934
-0.748858214487378993
-0.764921730499783514
-0.779158706792965505
-0.791647985985392766
-0.802455096582639582
-0.811632908503888251
-0.819223345841175177
-0.825258353437660963
-0.829761749159419693
-0.832751646579225624
-0.834241189428046481
-0.767404223046842526
-0.793893767888673163
-0.817956027380601247
-0.839772122504938379
-0.859479439604432072
-0.87719846432783688
-0.893033767986071148
-0.9070744028551323
-0.919395637045921421
-0.930059855367063926
-0.93911785190471575
-0.946610196305748608
-0.952568060985400145
-0.957014842003998001
-0.95996798972368369
-0.961439618487535452
-0.802871007346398935
-0.837807257356162016
-0.869392766580209253
-0.898013351031023865
-0.92402047011595656
-0.947673065161778516
-0.96913011624816825
-0.988521402927086013
-1.00596354511644992
-1.02155772798573397
-1.03538991516219703
-1.0475322214537548
-1.05804431219392603
-1.06697494583741137
-1.07436315705941965
-1.08023910027558601
-1.0846255438814576
-1.08753926340765794
-1.08899163483341255
-0.936022358663488485
-0.970091344853676762
-1.00099368191376792
-1.02905912347195416
-1.05460182025776428
-1.07783890417817729
-1.09892501391003083
-1.11798818283205481
-1.13514156454356341
-1.15048312565011424
-1.16409594945476247
-1.1760494666350092
-1.18640099065348137
-1.19519727399140474
-1.20247567490532248
-1.20826516482330537
-1.21258776008125357
-1.21545954803488399
-1.21689157641712598
-0.992333841863813237
-1.03285827829261012
-1.06953914252088955
-1.10278137347833383
-1.13302760499709665
-1.16055684565956296
-1.18562919571127079
-1.20844090232510348
-1.22914570895651964
-1.24787012184998658
-1.264724202364925
-1.27980285142203432
-1.29318652480647289
-1.30494235870001773
-1.31512557926581097
-1.32378097360098934
-1.33094417784424968
-1.33664291459345352
-1.34089838390708738
-1.34372609090709894
-1.34513753279452875
-0.379452842745557128
-0.407193115986981824
-0.432282153368871325
-0.454972849968615423
-0.475443782348096589
-0.493830328771179161
-0.510245405867772228
-0.524785305776418354
-0.537535741439642112
-0.548567065472856275
-0.557934405407820244
-0.565681833482656882
-0.571841845330113951
-0.576437061394694861
-0.579485481326882046
-0.581002523000191395
-0.508538300024802714
-0.535834401013933093
-0.560553967691953425
-0.582932472139832125
-0.603135017908153936
-0.621290117526002383
-0.637506522889845328
-0.65187754716001467
-0.664484082448231317
-0.675392773072504893
-0.684656992863793223
-0.692319404381006476
-0.698412077707287526
-0.702958179385242854
-0.705975505038981765
-0.707478056751396633
-0.638163317371987171
-0.664982932513369485
-0.689313363772623533
-0.711363429363897626
-0.731281537109494728
-0.749189905589013549
-0.765193527364060766
-0.779382416528707211
-0.791833290066076834
-0.802609443852508986
-0.811762321857168345
-0.819333266480478328
-0.825353781950653009
-0.829847056120630033
-0.832830453002758375
-0.834316738428889426
-0.768298597113162174
-0.79462439245066252
-0.818552475597460916
-0.840258992996018805
-0.859877051282815441
-0.877523768735525733
-0.893300681199190816
-0.907294459689882316
-0.919578119266415084
-0.930211989299623898
-0.939245549317022199
-0.946718721430262922
-0.952662222025031591
-0.957098924597940215
-0.96004563470706239
-0.961514086482529451
-0.804471862500848567
-0.839119992613044374
-0.870466058752199401
-0.89888975909322133
-0.924735752670635014
-0.948256658705441402
-0.969606371403679446
-0.988910425442210306
-1.00628198378681066
-1.02181928729987703
-1.03560583135239503
-1.04771145603259486
-1.05819389831578281
-1.06710065413635036
-1.0744700678230994
-1.08033185246993013
-1.08470834035794783
-1.08761572980744936
-1.08906501504416453
-0.937574328024606607
-0.97136545989605183
-1.00203707130514297
-1.02991261866798234
-1.05529896924470923
-1.0784079615869504
-1.09938961439793514
-1.11836788925955455
-1.13545257272829225
-1.15073880886995106
-1.16430723393911006
-1.17622504748618306
-1.1865477154164128
-1.19532074532572263
-1.20258078960692538
-1.20835640673371869
-1.21266923475930666
-1.21553483344285373
-1.21696389089713985
-0.994554726389730415
-1.03468388244856713
-1.07103965980958615
-1.10401352512156414
-1.13403770099528156
-1.16138414191185424
-1.18630573047940313
-1.20899370783817339
-1.22959743897190688
-1.2482395822346759
-1.26502701166492937
-1.28005196747219241
-1.29339255105381956
-1.30511374138879566
-1.31526897482260896
-1.32390181078698221
-1.33104718359113861
-1.33673241879278937
-1.34097836514185031
-1.34380005137896319
-1.34520870389737879
-0.380826858957336589
-0.408310014794020626
-0.43319128140306673
-0.455713547735067226