/*--------------------------------*- C++ -*----------------------------------*\
| =========                 |                                                 |
| \\      /  F ield         | OpenFOAM: The Open Source CFD Toolbox           |
|  \\    /   O peration     | Version:  2206                                  |
|   \\  /    A nd           | Website:  www.openfoam.com                      |
|    \\/     M anipulation  |                                                 |
\*---------------------------------------------------------------------------*/
FoamFile
{
    version     2.0;
    format      ascii;
    arch        "LSB;label=32;scalar=64";
    class       volVectorField;
    location    "0.780000000000000471";
    object      faceTraction;
}
// * * * * * * * * * * * * * * * * * * * * * * * * * * * * * * * * * * * * * //

dimensions      [1 -1 -2 0 0 0 0];

internalField   uniform (0 0 0);

boundaryField
{
    inlet
    {
        type            calculated;
        value           nonuniform List<vector> 0();
    }
    outlet
    {
        type            calculated;
        value           nonuniform List<vector> 0();
    }
    top
    {
        type            calculated;
        value           uniform (0 0 0);
    }
    bottom
    {
        type            calculated;
        value           nonuniform List<vector> 0();
    }
    left
    {
        type            calculated;
        value           uniform (0 0 0);
    }
    symmetry
    {
        type            symmetryPlane;
    }
    interface
    {
        type            calculated;
        value           nonuniform List<vector> 
67
(
(-0.000457764149115463944 -0.00715857900438691009 -52.456279325069417)
(0.00291903199289234678 -0.0130285280024892685 -74.2921716130381782)
(0.00179170968942391666 -0.0164754370095400275 -93.9870408265594222)
(0.00404345947014807337 0.000163507954169512057 5.54220754711832253)
(0.00555925656081106279 -0.00698143807546221067 -26.2693232131327044)
(0.00595951141241361001 -0.0174913547550134794 -79.0994885977217592)
(0.00471325217233411423 -0.0217468515642264409 -106.988425103353677)
(0.00386977374593828029 -0.0123934505863358881 7.3955122968769631)
(0.00496411958624072645 -0.018007688204290058 -37.2175142506735881)
(0.005818753293172425 -0.0231739110159434672 -96.8248878375122359)
(0.00670188007562014503 -0.0219656985768509512 -116.438985980756073)
(-75.7461619606044962 0.0011264126500738251 -0.00126780505124218616)
(-49.0202441635874209 -0.00907358684910626427 -0.00835419773149580908)
(-2.58174482786940596 -0.0155482685248503096 -0.0101128979839735615)
(-78.0246845393174624 0.00156556060971545078 -0.00173868804140483502)
(-49.7760882352713949 -0.0108050408423968815 -0.00605308817415028694)
(-4.2918381393214986 -0.0171487975645721567 -0.00708703564974068161)
(-82.1628066050989787 0.000723307134123588177 -0.000404239265182992295)
(-61.4539769088305405 -0.00684106887023154964 -0.0069160726889088012)
(-17.0472892922462727 -0.0156635125661790907 -0.00722320530813138056)
(-83.1366446723859696 0.00141691677723609758 -0.00044652345387607978)
(-59.1192427135756162 -0.00680335148308964122 -0.00279387866965250323)
(-15.0385013096312203 -0.016119981010439044 -0.00449088166345845349)
(-84.179396064359679 0.00198160448382915825 -0.000519004573479871114)
(-58.4697382884791352 -0.00674043486089103989 -0.00313693180238527707)
(-14.1839743121889246 -0.0165785359284157212 -0.00411340884956433363)
(-81.9043286419818486 0.00210632760910156114 0.000298849184782091386)
(-53.4543444563014631 -0.00884620388858965538 -0.0002947174409511854)
(-6.43433235200120102 -0.0177997821196311211 -0.00237368188895311152)
(-75.2384656538354051 -0.00129554661848717821 0.00150806482013867284)
(-31.7138858593235078 -0.0152455698532236155 0.000404210894881149496)
(19.3988741653433863 -0.0212704734990693638 -0.00116076654839715487)
(-69.1623499036792282 -0.00877240773461424733 0.000690767812161213182)
(-8.27713468601261404 -0.0190300910634090964 0.000361118843995827498)
(44.6908482906285727 -0.0238510066539483374 -0.000195590978577628045)
(-0.00265182283112379768 -86.875261938690528 -0.00652076056970113047)
(-0.00295081482612823912 -100.50502955284415 -0.00521699686468376275)
(-0.00338200568951587018 -105.142313582168967 -0.00479085216023257369)
(-0.00356394877205686673 -108.476012109525797 -0.00382919589967353584)
(-0.00373930436338082992 -110.694002886534562 -0.00309231666411509095)
(-0.00388346777576369269 -111.652471329157891 -0.00223794031948145291)
(-0.0040969739469878955 -112.349716890429463 -0.00153576171973496527)
(-0.0041274798011761071 -112.01921673333176 -0.000531365237136685728)
(-0.000797772907609132576 -99.7792859062865602 -0.00658921052182947879)
(-0.00257064392363148429 -108.281222654757642 -0.0066035353835148065)
(-0.00278693441813412067 -114.394396374536598 -0.00562585220803097676)
(-0.00296911767139913709 -120.07748502810577 -0.00423956205053711583)
(-0.00319245045122817407 -124.702164244621116 -0.00330740699899972164)
(-0.0034970669583357511 -127.038919850521225 -0.00255795615175073753)
(-0.00388126963901521587 -127.924972200020562 -0.00214161230704999848)
(-0.0041667504835801979 -127.7317931555813 -0.000869795681321110996)
(0.00140611827233273865 -93.4987274800416372 -0.00552546041668653103)
(0.00201530312309719691 -105.86660693783098 -0.00672717679923953617)
(0.00159503940318461604 -116.318456750208952 -0.00545995150346362083)
(0.0017618493279904922 -123.412630166722082 -0.00411956477765787737)
(0.0017985662554650388 -129.289228751778268 -0.00343449317806504084)
(0.00167985928572662651 -131.842276362248555 -0.00294970294730803346)
(0.0013667967400445367 -132.732151762064376 -0.00246985612733262782)
(0.00156791284789191063 -134.083956319214508 -0.000908463417196023692)
(0.00225726092767174029 -82.8599752820939415 -0.00478239773345305163)
(0.00347112930348204146 -96.8124493824308843 -0.00643865532078944161)
(0.00392562489613684264 -105.604510550809849 -0.00473999103156820534)
(0.00420944644473161128 -111.186264613500072 -0.00367268436292326724)
(0.00432861067517992509 -116.211018325723813 -0.00326758209003715936)
(0.00453856005072709838 -117.448104209640888 -0.00312372721978328681)
(0.00504666328545873202 -117.323941205329362 -0.00270010923866889456)
(0.00386328283369579036 -115.936550036932118 -0.000996905113607430724)
)
;
    }
    procBoundary1to0
    {
        type            processor;
        value           uniform (0 0 0);
    }
    procBoundary1to2
    {
        type            processor;
        value           uniform (0 0 0);
    }
    procBoundary1to3
    {
        type            processor;
        value           uniform (0 0 0);
    }
}


// ************************************************************************* //
