/*--------------------------------*- C++ -*----------------------------------*\
| =========                 |                                                 |
| \\      /  F ield         | OpenFOAM: The Open Source CFD Toolbox           |
|  \\    /   O peration     | Version:  2206                                  |
|   \\  /    A nd           | Website:  www.openfoam.com                      |
|    \\/     M anipulation  |                                                 |
\*---------------------------------------------------------------------------*/
FoamFile
{
    version     2.0;
    format      ascii;
    arch        "LSB;label=32;scalar=64";
    class       volScalarField;
    location    "0.780000000000000471";
    object      p_rgh;
}
// * * * * * * * * * * * * * * * * * * * * * * * * * * * * * * * * * * * * * //

dimensions      [1 -1 -2 0 0 0 0];

internalField   nonuniform List<scalar> 
7248
(
0.339655393919299609
151.788347914966891
0.114954377097255062
-0.0673624034364574964
0.171279966705423364
0.309296448299225035
0.808935949026704182
0.849356588592366069
0.0977945890479505059
0.148667387233769571
0.11958390632841219
0.0930523715350596026
0.577077334163882849
1.0649450849922355
0.188133181416652917
0.179442638684311373
0.169077165034985266
0.163174300822531537
0.171859847560741047
0.195866015885325429
0.195958931602710246
0.196570810534004464
0.197701304969813113
0.20110135596119183
0.198856488954815225
0.201274179764827199
0.203750637036479804
0.20556161219295796
0.20645575465919816
0.192719154383784563
0.195437943769395189
0.198143215842975201
0.199702438514916925
0.198976257344103791
0.179768636102676155
0.182664180046424762
0.185473978751517526
0.187180690024505741
0.186523245863161352
0.160549784130217033
0.163430449477304562
0.166466853962388639
0.168899252608264133
0.169635538212637021
0.135665986775696495
0.138388662579963573
0.141639201505408263
0.144970306825284667
0.147654541890076485
0.105661512129529067
0.107900373435046687
0.111000787634889408
0.114802931402321146
0.118966709694010131
0.0710129496255077347
0.0706883723347549175
0.071044348882971245
0.0722986332738049242
0.0745861630952285859
0.0779970470400184746
0.0825451410146910286
0.0352493775389507644
0.0336662544922822077
0.0325644157347613067
0.0322003415866883719
0.0328229834718498648
0.0347203190849889667
0.038217424979183956
-0.00316204748442851106
-0.00649146274799760042
-0.00969240431753657684
-0.0125166500420825378
-0.0146528108373748522
-0.0156831783213385312
-0.0150552742670597758
-0.0465682837760049984
-0.0524407621003828914
-0.0586958272369197259
-0.0651317928042982747
-0.0714416491029201267
-0.0771695997565517156
-0.0816641074246357984
-0.217553529311513894
166.340888681574455
-0.00766964097185061575
-0.00630686244578728458
0.770874750606927117
0.841642748059569734
0.433659987874879194
0.192783725328999317
0.00251434789447136427
0.167087659044306502
0.135917724129731549
0.119631343104712226
0.294372885553935926
0.569679965247001485
0.197689100288796188
0.188643354171050909
0.178718596468748936
0.172590684704470421
0.1758096674878038
0.202956564900091257
0.200722997417374371
0.19907514589997552
0.19828371508965198
0.199608208122232761
0.203277208572906681
0.20410164970541636
0.204740870299490674
0.204800592245608398
0.204215601908119992
0.195586138153363953
0.197399002628219661
0.198755957693318525
0.199030380702331561
0.197483291174355452
0.180744064992544917
0.18302253177546729
0.184965463751085774
0.185797994475578238
0.184519182068558024
0.160366181341325686
0.16275540007231587
0.165091081264257089
0.16670803485688071
0.166639570581547047
0.134818678529653679
0.137078729629836193
0.13964237780529537
0.14205032024904124
0.143573154194415742
0.104435829086614695
0.106221615912521369
0.108616190272188398
0.111390322408275386
0.114124729504557432
0.0696107669386619166
0.0704257903793944068
0.072020422554157193
0.0743928309828732065
0.0774568438401983389
0.0310388455320881086
0.0302387701194693249
0.0301929785714885983
0.0311085160559851671
0.0332294958426894924
-0.0112472038569696627
-0.0145173486796192752
-0.0173027258679897267
-0.0192493594929750295
-0.0198655348733393598
-0.0602601474524579392
-0.0671548915547689196
-0.0741084320210255026
-0.0807229381602036777
-0.0864104934977977523
-0.282940990362115841
180.445867542067418
-0.0844578389962679088
-0.029398626900689534
0.951195658990352189
1.09450096460361901
0.3325381195257745
0.0464471863914606917
-0.00868361394697472928
0.205457247923191616
0.15507827916679362
0.130918193311023751
0.111548759830976688
0.124294872247477914
0.207690147742472658
0.196775559840689729
0.185693247169503139
0.178339183105897164
0.177611406298869706
0.210133398576713037
0.205458407897532919
0.200956130655311038
0.197769479600018838
0.197401670603172819
0.207429226042459142
0.206862157078616216
0.205860857956909338
0.2043682647903588
0.202617049246036851
0.19915308523140049
0.19910155531982407
0.199314762651625899
0.198491689667470661
0.196198045755387906
0.181433796640973699
0.18319413712477825
0.184407729478628768
0.18449276833473871
0.182679994304661558
0.160259687128030764
0.162168669367292878
0.16385801346789336
0.164739535180748742
0.163963972996183094
0.134061701138712852
0.135887602940584939
0.137823171010659301
0.139402660377758253
0.13990479104799014
0.103319635347226046
0.104684856634136306
0.106431207512735895
0.108271109391670117
0.109721209355789884
0.0683077593594998284
0.068704815883564696
0.0696469885347456991
0.0710550550833416728
0.0727615492801500369
0.0296471905761505478
0.0284248919658121602
0.0277420619409009701
0.0277382505256333761
0.0285919474505280657
-0.0126931340499971575
-0.016385232868568668
-0.0197801816661988539
-0.0225759374122614341
-0.0243301617734256112
-0.0617423821683241239
-0.0690542993150974338
-0.076594361051937912
-0.0840136903663717127
-0.0907765600144641027
-0.339227004327258941
194.114053152956814
-0.117796174789209715
-0.0482745804707088583
0.527623819900653435
0.662370875512042323
0.399636817787704712
0.0612959474127537651
-0.0140349616004342287
0.411070592802845358
0.279336461985275564
0.142449901926278405
0.117902303596019054
0.122066258428597502
0.213211170564458125
0.199613992963330655
0.186262887778904263
0.175637379779381986
0.171897639943882935
0.212822570311531761
0.207682738297332331
0.202269090716977129
0.196900442603452602
0.19472309477664862
0.215018610977425972
0.214240638781254766
0.211630479726906268
0.205280268046205056
0.201624770072398235
0.200650730798832777
0.200775679884280661
0.199866580765665242
0.19801594717100296
0.195029468855130172
0.18209267770154336
0.183241393223745802
0.18381659280730292
0.183307417037091996
0.181077369770477531
0.16007856610777127
0.161586507151476155
0.162739081153625953
0.163010788407192631
0.161652381292130554
0.13333551018920492
0.134790479454112405
0.136189885098243757
0.137076267477628772
0.136744520489998189
0.102310498634837904
0.103306687291448304
0.104485192215635972
0.105523956581594289
0.105906122995341967
0.0671535002936590186
0.067170356779920129
0.0675256444875243639
0.0680897811750359599
0.0686363033351976709
0.0284142155526359644
0.0268054083244518987
0.0255470414438223881
0.0247349518257342707
0.0244985743213167219
-0.0139882758780162948
-0.0180580248600026513
-0.0219948933907811346
-0.0255329845956304806
-0.0282651845922339377
-0.0630800172082545546
-0.0707546783154954784
-0.0788048548964584428
-0.0869206043280853213
-0.0946012550066343549
-0.682768751132150076
211.100409438222272
-0.14850774729709279
-0.0313964379263865501
0.326960800249143924
0.237274252616036296
0.138872767317479745
0.0713976980748297491
-0.00852367853892859427
0.404942566834682049
0.283102550191797142
0.147116186463172122
0.124710624285076219
0.214889134630260714
0.216117741852641987
0.199921432362826723
0.185800219616785722
0.174337373645657878
0.167908730139796347
0.214618184635886722
0.209083347646285056
0.204246035247629409
0.198936327439872745
0.194512277338982909
0.212403370993227453
0.212206927461340705
0.209522763741127577
0.205245376373628913
0.200839682631822586
0.200621079880798026
0.20049728272015746
0.199249040400878291
0.197042982697795604
0.193828064326479171
0.182035431743982207
0.182915464298756436
0.183105564222386052
0.182208361737653535
0.17969619402451853
0.159549515661081609
0.160793819227256579
0.161582778040460368
0.16143685352654355
0.159686637274086662
0.132580996063241224
0.133759654066661959
0.134747611614216029
0.135100048422891694
0.134136625099311346
0.101391130894112377
0.102088750353451982
0.102806503298771501
0.103206301606476952
0.102746259289356365
0.0661488467951679565
0.0658462347144654625
0.0657127936450049854
0.0655898440514818271
0.0652036749878078248
0.0273532808390613037
0.0254180350213411635
0.0236783090281510698
0.0222026928855638926
0.0210834407997441131
-0.0150967859529480709
-0.0194830380975800146
-0.0238712444373674997
-0.0280204717741959486
-0.0315476955393496836
-0.0642209870434013452
-0.0721952066389411062
-0.0806658387033220847
-0.0893527145029945485
-0.0977774915177172799
-0.564220777679950714
215.641911135729714
-0.128766642673066645
0.0263449892941287518
0.222891458205050935
0.16817243165132395
0.109995621236409685
0.0699953995214526725
-0.00127985636092259954
0.247760960411332748
0.182592594798127672
0.14385374699055159
0.205174435999299076
0.219197591991633994
0.22241736005981802
0.20276231091088151
0.186098533547063183
0.175155678024724704
0.166597728182464822
0.212927880062284164
0.208533291425520712
0.204710690234440856
0.19875999744162251
0.19310749085326484
0.210294442455110392
0.210656962505343576
0.207938255416213663
0.20356621772804126
0.199034488706528373
0.199394448529953888
0.199365837949421143
0.198072049085193352
0.195809484583729293
0.192588660692297853
0.181307126780995254
0.182114960550689986
0.18212914845065642
0.181046136611820008
0.17842278045288229
0.158750633988301582
0.159884646154532517
0.160474673109469751
0.160088695341908255
0.158086426701792682
0.131815167804405997
0.13282374583570572
0.133533822737215341
0.133515433100442005
0.132093397019364761
0.100592804191891122
0.101076013334320439
0.101455529097637859
0.101388246270142035
0.100309808386308971
0.0653255851537728055
0.0647795355956587299
0.0642750668481988224
0.0636374461201886649
0.0625676583842257189
0.0265012626718391375
0.024313387777351373
0.0222042032289189693
0.0202253230893435464
0.0184454702067303952
-0.0159778488342900357
-0.0206093002836817661
-0.0253452249937885336
-0.0299627929900657987
-0.0340960882184953434
-0.0651216344640539457
-0.0733256577725404507
-0.082118519178698543
-0.0912424337509727956
-0.100234595837638968
-0.212466049772303101
213.17234794915484
-0.0670335387739744021
0.0754557754865752273
0.402067201119240492
0.191553017264770142
0.120332119472368562
0.0740702202217691924
0.0151888219541122717
0.494092658491454784
0.213833842055625112
0.148772454805021714
0.121981740674399278
0.192214019844347717
0.263821012751774053
0.196206272222718248
0.181273154797990693
0.172770344775485696
0.166253091321162144
0.207296781351811177
0.203587303375424328
0.200823250473051856
0.195983638847168101
0.191081287625046919
0.204286866783446236
0.2067082263019977
0.205157644078466012
0.201353451502123859
0.19727385787224927
0.19715992529854226
0.197601093212683931
0.196560424312843846
0.194470320268810171
0.191439318143231008
0.180111495822600637
0.180928667932085813
0.181017561514615538
0.179980016260463643
0.177406037774938408
0.157872151213236833
0.159020845114244525
0.159556160418314608
0.15906344886354043
0.156942592789458768
0.131153530986212408
0.132078880680798399
0.132630064415573456
0.132386308195077573
0.130684522275009402
0.0999837961473206277
0.100335458101983271
0.100498819900788836
0.100127318273397922
0.0986550657908076001
0.064731492775004118
0.064024723192920352
0.0632733985061953996
0.0622943814285712022
0.0607739852326922847
0.0258995099257868996
0.0235410469023102364
0.021182266418671148
0.0188622552836699951
0.0166279209450259854
-0.0165936010117093101
-0.0213920700613866518
-0.0263646952636696179
-0.0313039549441724921
-0.0358650557479937918
-0.0657465186899381521
-0.0741061397785495457
-0.0831177078687109494
-0.0925409149319141033
-0.101931200634487185
0.0755073263453304167
205.76763581759937
-0.0261657512284543883
0.110003218999351185
0.757158411003103771
0.666667862650554333
0.485184152971797289
0.117251098610207313
0.0370454707528975677
0.792952993516510163
0.704532819716433778
0.648473694093268049
0.291439494976377
0.131745394246771841
0.81514220972020246
0.741840432287749318
0.28021840287523192
0.171316378281435616
0.165371744842671003
0.654052440575328409
0.204818451961015363
0.198019243493094466
0.193209307388007734
0.189620756465138235
0.20066394455256778
0.20358359803715434
0.202336343248347483
0.199329754463506592
0.195943699054249132
0.194674757662190639
0.195568621847254071
0.195190127600030877
0.19348654949549185
0.190731527701585246
0.179014579604957091
0.180035614964706631
0.180259613799159779
0.179305065505298511
0.176832094837046011
0.157277289151265404
0.158446791044475677
0.15899121516663936
0.158488744203587162
0.156356991565497094
0.1307361573966693
0.131647976684908186
0.132140573665418121
0.131803091377437342
0.129981581569064114
0.0996516416255607967
0.0999426463626061634
0.100002114332500655
0.0994854942212954479
0.0978316814208536473
0.0644170069790357264
0.0636320257268242068
0.0627593917563742804
0.0616123665037382542
0.059866976988511858
0.0255862009094804631
0.0231425662286922872
0.0206584386927440786
0.0181636914674815596
0.0156848901139512928
-0.016913342062589265
-0.0217963056475480553
-0.0268888361265938666
-0.0319951561107950436
-0.0367916360640865719
-0.066070191388899982
-0.0745081801629268736
-0.0836304624161560428
-0.0932081407789226435
-0.102813218039575591
13.5312012242272104
23.5226302340142617
0.378046806271706726
0.388813503613361144
0.128165026472246257
0.147025218252280931
0.201631267538292636
0.263665280636803834
0.338763439243434938
0.244704809353336689
0.141287698999866623
0.190314623965110258
0.22719949913425419
0.243799466527792164
0.170622081020844835
0.188425567524502929
0.209928922515349892
0.225414050270308391
0.207021116311583209
0.182904930432226887
0.192202368350173236
0.208640813945172643
0.218350534546094432
0.20009067879280687
0.190295024365127463
0.196316750763372239
0.201689007748107524
0.203791460430279847
0.196430172844100276
0.188250443345187396
0.192284765479432601
0.195628882279448857
0.19679420242052531
0.19211977399506841
0.178936201359327557
0.182134929649837074
0.18495412656173893
0.185850522184315053
0.182497902405280743
0.163277607844566963
0.167070560705831372
0.171529799198729377
0.17584431371429779
0.177097758281836742
0.141402240080171299
0.145991288556923782
0.152146629208414985
0.158536019084653951
0.163400751310036618
0.113507193030608772
0.118059397761521925
0.124054900124102849
0.131332929772223661
0.139724095468264614
0.0771917417760096536
0.0778220254436705755
0.0796946927649837822
0.0830622025181919355
0.088256735431841607
0.0956358872663118087
0.105332012809614572
0.0414616407170755527
0.0408924484881549935
0.0413268589992199301
0.0431529196243360808
0.0468275942370435586
0.0528416557977032936
0.0616831809940394868
0.00318478714190049928
0.000921745104244095633
-0.000675326787165901978
-0.00120760009980763012
-0.000167165992458744489
0.00308988262051666102
0.00931986744906044412
-0.0398045900361824675
-0.0445397865913262497
-0.0490650703031771662
-0.0530064488863949551
-0.0558404704403798677
-0.056889118819027161
-0.055288707442705462
0.655727544914723959
4.00989182617714146
0.431331324956892359
0.412919485232752126
0.710460483103625307
0.389801735936057991
0.317514034480857854
0.307883605067077681
0.360311768632193052
0.159028959272951048
0.268962937876946029
0.283637124656780149
0.241354176310075746
0.277070744468481511
0.166870680486377376
0.187209869403533735
0.208520323205237168
0.221216770340764202
0.221571926129034091
0.182503296920330682
0.192860001612452536
0.204009606099684243
0.209615964677595801
0.206996782230946086
0.189720890667917613
0.195602476278179005
0.201299666974428859
0.204323687518032759
0.198874983298483743
0.187997609052057479
0.192182138677222891
0.196138066297970259
0.198434061308459947
0.1954292480445598
0.179188251846563978
0.182783519989498322
0.186330227703313173
0.188429893374320256
0.187008702801551019
0.163416869288491862
0.167337521921834709
0.171893605919161169
0.176131345000853784
0.178191609103433735
0.14117232645970082
0.145546780841076362
0.151272069048604296
0.157786390957974282
0.163942241263359823
0.112872030483466723
0.117123553485635273
0.123083801361970835
0.130754804021569832
0.139950463913252332
0.0767589202339918064
0.0772825142273425164
0.079045988794671701
0.0823749967048049009
0.0876140250463103981
0.095121625935944018
0.105207004505252985
0.0411063140805425428
0.0404895365085061673
0.0408675113239863261
0.0426385755031572639
0.0462735518487952871
0.052304579291359142
0.0613290390600244525
0.00281549005842282466
0.000517208455862604838
-0.00112366318136354723
-0.00170275285304094938
-0.000700770485034597854
0.00254830958859706379
0.00885660883885377483
-0.0404249016853169968
-0.0451900135153858601
-0.0497498971389226941
-0.0537255126639076749
-0.0565826428267567905
-0.0576270850945999752
-0.0559920131099264431
0.654156497831809403
0.774401160480559736
0.530583679982231438
0.527010352370487767
1.1548375104201325
1.30665883216426559
0.450389407562389932
0.399495223910948438
0.464091689859545742
0.143892982931016461
0.170082069105079753
0.263818061247647062
0.299128994144104765
0.324327608732361106
0.173461550486829569
0.19030358418935589
0.214218435017144604
0.236848122820036339
0.250649164586028872
0.186640201674320383
0.196324843396332299
0.207316693524972145
0.217948181687047549
0.224767602454665427
0.190544811159620936
0.196560838396386189
0.202942205016061944
0.208402921691779902
0.209810360511025473
0.18851208187737753
0.193193359929938857
0.197953835945864187
0.201436444415204807
0.200992217089218911
0.1794116878719898
0.183377598123827007
0.187635751194633466
0.19084907905197071
0.190994137256349616
0.163428667518939863
0.167620646224663244
0.172585643215950879
0.177376751672983168
0.180342912413505557
0.14091572717581119
0.145345862579372709
0.15113509447231685
0.157882250116800293
0.164784698009566327
0.112356084049792901
0.116527431001465981
0.122462911256656426
0.130287419955404632
0.140024650448550281
0.0762691421362527849
0.0767448666850695238
0.0784295868358221571
0.08167407749949189
0.0868570360116381057
0.0944007087611252599
0.104749036055926906
0.0406510500740298389
0.0399779959387051506
0.0402702327701272567
0.0419343009392157406
0.0454592157087511939
0.0514150609361810201
0.0604823931767440454
0.00233996194337125155
-2.11621196169663615e-05
-0.00175473794511272975
-0.0024564616280342436
-0.00159955826818459525
0.00147923216913961987
0.00763142806862137767
-0.0409931267281946413
-0.0458318436305790861
-0.0504989547811698705
-0.0546224260525268179
-0.0576753821008017947
-0.05894564506315704
-0.0575460168342222383
0.729813246709964503
16.7920812760745015
0.560803215887186846
0.53458608296767629
0.691235829269928104
1.39303688423169914
0.819264460421299634
0.45214801915746522
0.430625367529355874
0.13668492243195543
0.194433442465765882
0.360509256143852208
0.376205622687242225
0.345991099492532095
0.173909992722785872
0.188148953798502661
0.213146807847592185
0.241612707798991438
0.264457192998444779
0.188300855667578537
0.197631464846961313
0.209604094739119812
0.222576444223518077
0.232518857056493305
0.191522413188303708
0.197470937088722348
0.207409921831121918
0.213959322227966792
0.215750132789537752
0.189293764882672438
0.194545146163862648
0.199509693747087158
0.203361366737211058
0.204166644137097536
0.179478899633630395
0.183646295944756621
0.188284869080882988
0.192068351860031544
0.192996784652568976
0.163157709416236946
0.16744526921901709
0.17255720685270029
0.177612155244243536
0.181097737504367029
0.140330802409303818
0.144721526113918364
0.150482423025877249
0.157295570582450528
0.164501481203198796
0.111574024219330922
0.11563417510832058
0.121465134768525981
0.129242401983468702
0.139083928450877137
0.0755765897937154818
0.0759968859080581011
0.0775757231604962266
0.0806793102397342921
0.0857062307641757865
0.0931126061266745048
0.103409364050884744
0.039981947820616405
0.0392326052174236453
0.0394008211808253156
0.0408960407752207086
0.0442161702560264283
0.0499545325475400856
0.0588323464256058012
0.00166549959994056378
-0.000787553303278954982
-0.00266136783373388704
-0.00355794255614931554
-0.00295474274657124081
-0.00018520423356694699
0.00561185442924620748
-0.0416963944918259874
-0.0466452330008498769
-0.0514772090812221084
-0.055835489460490946
-0.0592092919430838027
-0.0608944791096068319
-0.0600245176691269408
4.39481892951820452
12.0950729074000947
0.599036799494183203
0.625577268683962351
0.640215727243060639
1.03314991305107262
1.49468592726844451
0.507139617904004081
0.4664100232842881
0.152955210185904855
0.192420381045147054
0.188657779176876844
0.306893348952824385
0.330960641393651722
0.16822202301529432
0.178826212639074777
0.206907399070101028
0.234506278194649143
0.269298725561586239
0.187871348397165794
0.196007860923571475
0.208269669809538177
0.221299514358418187
0.234574184297210109
0.192128574768057586
0.200453418823867385
0.208373795763560382
0.213764543146664515
0.217877139278574744
0.18982162971331118
0.194576006502059806
0.199557204211024131
0.203999577767064871
0.205325555232212131
0.179423022810435595
0.183658107726974662
0.188390076500447284
0.192260161997255152
0.193322987941966701
0.16270658638289176
0.166955806275517177
0.171994624086903414
0.176952037255737799
0.180390861060579111
0.139558982195737674
0.143803995805768775
0.149349832536167099
0.155891760521765621
0.162806300766623835
0.11061201172387132
0.114466461176837314
0.120017565396583037
0.127429618208402373
0.136807217441280937
0.0747771014782375454
0.0751136068296175408
0.0765333926706225492
0.0794052967851129193
0.0841229180106754654
0.0911280398703391975
0.100909237781587155
0.0391854602047168529
0.0383286890100444089
0.0383207427453358188
0.0395653356590008123
0.04255070819911283
0.0478589665088026972
0.0561940414981511246
0.000857488586186444979
-0.00172027845373368864
-0.00378657383548748963
-0.00495777405573864273
-0.00472790259278247672
-0.00244954587200526836
0.00272676766290265698
-0.0425182766153048633
-0.0476109842008010375
-0.0526612899783431981
-0.0573358225243357847
-0.0611502303927004276
-0.0634270401117318777
-0.0633139210936749103
3.84395526961511713
3.89230694108323982
2.7325837055945299
2.2950085054057463
0.222530561892835155
0.146190435523128992
0.80525122992449194
0.687932169069993216
0.711245594529947955
0.128153915854551298
0.11267816237579184
0.633287261507080479
0.457775974393042295
0.315169181673856269
0.168056408752920189
0.189005515515117101
0.302701803894579569
0.455689024417687272
0.31522699859707648
0.187331572823090653
0.194984674316642542
0.201372276076518558
0.212733833005394668
0.229597638870154191
0.192783474128897236
0.204614372600808531
0.207925128446935059
0.21127358935365248
0.216195692847301085
0.189920136446179944
0.194190661120491381
0.199428124813879504
0.203436881735645086
0.204564254178032978
0.179323900696746863
0.183446724122157068
0.187975947303026136
0.191533146087161876
0.192352501783278146
0.162123649286845778
0.166188999843754487
0.170942356487979202
0.175508177737438098
0.178511830032604568
0.138630304137738469
0.142614356422032657
0.14776302289472068
0.153746727459180194
0.15990857891167129
0.109481690343895793
0.113030752464544318
0.118132361454199142
0.124888729208991481
0.13331287213118212
0.0738919268996403311
0.0741079424626658184
0.0753122522020201746
0.0778628164712811544
0.0821197889974226991
0.0884639064456435864
0.0972967516520055198
0.0382869817841437962
0.0372886685586074143
0.0370530566946639869
0.0379681728905649149
0.0404897652520044699
0.0451512372997490349
0.0525853832317453862
-5.68036952939920706e-05
-0.00279068297551825608
-0.00509745529315173626
-0.00661625157176283334
-0.00687256537579980595
-0.00525870881723671923
-0.000984617595571347579
-0.0434442548993354966
-0.0487092344766948751
-0.0540229493300379213
-0.0590827691384168477
-0.0634408562945801974
-0.0664615383123626779
-0.0673207320089799222
3.35996133528180962
2.86743535284672513
5.0954323945911284
2.44881960925539621
0.290391667277300591
0.0572658841909879993
0.12447175774868087
1.10822750986941032
1.45421000714496085
0.135756357973116748
0.109582784105920497
0.159720527374631577
0.762245836080765127
0.6851164370475612
0.169430115488509808
0.166714503250702112
0.391955572148975473
0.559593723435098167
0.354195429050564392
0.187281241637785895
0.191914535782304913
0.221032091958958454
0.202856326508399382
0.214942740376715569
0.193603511905294234
0.205473001763611662
0.204532956937675287
0.208459444189544874
0.211835879359371038
0.189953315468509604
0.194224639009711292
0.198938918217268973
0.20211211564228751
0.202589137036826267
0.179259551819800772
0.183069062591263571
0.187178463255758432
0.190224571267518183
0.190627075781517774
0.161505883624104341
0.165257890497520293
0.169556376417228538
0.17351839082812695
0.175852588402709564
0.13761717978816887
0.141236283420152237
0.145837724443740074
0.151046913922117609
0.156161656467425664
0.108232219000136076
0.111390253265844952
0.115905694287518679
0.121790368036381616
0.128931144566214378
0.0729531131715900755
0.0730109185296228674
0.0739501652120084646
0.0761070669492844021
0.0797816034701445131
0.0852598094235501314
0.0928153728381483911
0.0373132750628037899
0.0361421222752098953
0.0356361180966451863
0.0361589968737641432
0.0381112640689086415
0.0419491068413614873
0.0482033195610651125
-0.00105130470051146489
-0.00396723213466253395
-0.00655266134005364972
-0.00847701431622396515
-0.00931098123117321021
-0.00850413215115406428
-0.00535322659211037027
-0.0444492276038558967
-0.0499078338822206355
-0.0555190609552608516
-0.061016080594617092
-0.0659949098226851327
-0.0698774505849914657
-0.0718730118836244103
2.05805125467242567
95.8941209711065596
1.07371774820529065
0.0502345472697599202
0.19692948981468425
0.528060870166435881
0.264429259598918887
1.31756159161552633
0.839756704740064031
0.138411882145332649
0.104569028926919813
0.0842709674626948985
0.648696165733256391
1.18043669715428856
0.177039575077766909
0.168069605860837162
0.227433224391500127
0.196579557423280565
0.193066258811610464
0.190865763417161327
0.191774774479675558
0.214747498266672554
0.242513952943243377
0.208394184572666757
0.195875035204692766
0.20614766447438812
0.204000933569674053
0.207206430256826918
0.209204485823799052
0.191163397746772712
0.194651179733911911
0.198480828055715597
0.200942542901658389
0.200793239706001991
0.179460889722710654
0.182822853066709784
0.186328120907205713
0.18874829045319258
0.188628484524038853
0.160966614343805353
0.16430422555782942
0.168009204154131092
0.171239345467979365
0.172821311880826473
0.136604420357945178
0.139790520072419933
0.143742054601043334
0.148038876751476145
0.151949741360262264
0.106934561270520173
0.109644585878843751
0.113477363763955147
0.118350987322114035
0.124024120609609476
0.0719866878951049699
0.071858957495583381
0.0725065995741232538
0.0742214241387159357
0.0772259202001240735
0.0817013359958721486
0.0877832699916131776
0.0362912381724076957
0.0349222770047977193
0.0341212380263549511
0.0342090932206973661
0.0355160069834243239
0.0384091759780094966
0.0433125306170555335
-0.00209716668944124121
-0.00521425706256989883
-0.00810265152075588871
-0.0104701425848075843
-0.0119432424396634443
-0.012038034067547174
-0.0101264112635307685
-0.0455012227890543158
-0.0511659192089675696
-0.0570957962640524508
-0.0630599216566783971
-0.0687017358560284702
-0.0735029523979205818
-0.0767414149608538487
1345.79051065585736
691.681077617715459
689.80037641954732
65.5130031899759757
222.324452369350695
89.7926696550425874
44.3481774718341981
56.3135038953879103
57.6568277936667144
23.2706377603682277
25.0493695550790463
591.1849201233548
254.18871034335865
425.991659239416663
146.03355297707418
136.385097457857569
82.1936686905256266
69.7575930538106945
11.8777975703339393
59.7353541039459941
30.7188666298388071
19.8811300247475629
253.58613855256587
145.103706566648043
256.180098746246813
246.078924767633794
233.834150801814502
158.485035120603271
97.6264258243232206
123.858274928893351
148.706021791763277
49.9034720111105159
11.4751311802819824
100.129709685505915
136.945483037191337
114.329111119402981
96.2919785657771143
65.589469093352605
94.3571217177166943
38.7940593122280504
90.4526453029487953
87.3329223259204355
37.1459298690063378
17.6616933254863042
40.2873548665193439
44.5134847318435476
27.8884461583543057
29.0781487609878013
19.7440419533928768
21.8437564338330539
18.0403286249677919
13.3987585774986098
13.0431492208665389
17.1492136382145901
11.597474065433973
54.9456776448655191
46.5975312362771064
35.1174358176092198
30.3764684906779188
26.1652444018825072
24.2019133576378564
20.1805150829503503
8.26397591545002541
13.1999485470478319
11.5425569133433665
9.93342734908235769
395.501153987736359
111.197907950482545
112.563250435545157
62.7799041411468366
56.3544556477016769
44.3287513804627125
56.2820581062465166
50.109545693145968
17.3388373008317558
11.3369280524275613
13.023699424279096
408.829072724874266
415.027723575498044
414.885481305444955
388.877142871353271
362.266515828300498
368.863074538331887
320.791848350306395
227.983075993106553
315.526583472906168
304.438612053915278
258.666051496816124
11.6319412284326376
1.90351400161587581
8.07488137783992421
8.65362065758897536
0.532478323533243203
0.774197534166943813
1.06410515805209149
1.60366630259661735
0.418073419265398649
0.458929968665935217
0.987532432771204727
1.08744216529929161
0.269042801604730764
0.402338866093956138
1.35835834589967663
1.47954577745144178
0.196413336642509567
0.195189264286193764
0.420618845860398827
0.697762848517772816
0.17320651600953399