/*--------------------------------*- C++ -*----------------------------------*\
| =========                 |                                                 |
| \\      /  F ield         | OpenFOAM: The Open Source CFD Toolbox           |
|  \\    /   O peration     | Version:  2206                                  |
|   \\  /    A nd           | Website:  www.openfoam.com                      |
|    \\/     M anipulation  |                                                 |
\*---------------------------------------------------------------------------*/
FoamFile
{
    version     2.0;
    format      ascii;
    arch        "LSB;label=32;scalar=64";
    class       surfaceVectorField;
    location    "0.780000000000000471";
    object      Uf;
}
// * * * * * * * * * * * * * * * * * * * * * * * * * * * * * * * * * * * * * //

dimensions      [0 1 -1 0 0 0 0];

internalField   nonuniform List<vector> 
20536
(
(-0.724630872405877646 -0.709444154823162698 -0.248609155805930931)
(-0.191914131809300226 -0.461875450126146392 0.179109236287339962)
(-0.786684398526920514 -0.811833786029717563 -0.0870725759791917825)
(-0.603794392445150541 -0.652421571288946067 0.0222584167942553937)
(-0.0430634953503353998 -1.44949068759788058 0.0632003550643448625)
(-0.444524326143678816 -0.698754175392415244 -0.328494896302865047)
(-0.466446682113782929 -0.814189422989531897 -0.48915461980008762)
(-0.467640033016576806 -0.360795206174684968 -0.479836345592643987)
(0.472730181931954818 -0.965641759341630213 0.490918747157614965)
(0.428504101762075262 -0.431202155844263302 0.286471052522668579)
(0.480820523310167613 -0.139286618341722318 0.334859835774929671)
(0.3786678179974583 -0.341501992922073727 0.487365549001872289)
(0.427258417294082815 -0.805053892176762376 0.366705179276149151)
(0.399425627382714865 -1.61642722220661628 0.380038309972506261)
(0.389471353010999166 -1.37664563543063423 0.55781324527500864)
(0.189398652130288864 -1.59313442331124611 0.426353679921554152)
(0.339858625473518305 -0.0779601320853162139 0.0891224955718611794)
(0.438371202131019433 0.00186597399588884529 0.138937166968872233)
(0.30597743330564342 -0.0289210279240557921 0.135340756131772211)
(0.270376665396768412 -0.0396334959685343199 0.102513483000166661)
(0.361993464458859715 -0.223955131531470869 0.0546909873409011232)
(0.487471250618833785 -0.0739678387624839312 0.107486670566211695)
(0.393316846365071027 -0.131324310044236753 0.0710795597916999838)
(0.321919375203378322 -0.173838139857661583 0.021898035279309707)
(0.387309323537100847 -0.413425458945242186 0.0937477454001837684)
(0.501478938448723266 -0.210431863964814253 0.114570912800418701)
(0.448404227884510564 -0.295483133589642677 0.0477176156173949734)
(0.3440565468484717 -0.330257304575614585 0.100752339817892403)
(0.482707195568246317 -0.552426399004179891 0.162257484641202654)
(0.523055961660019997 -0.383332087590981307 0.139242736719956461)
(0.50631033202497866 -0.454605149896899763 0.0829575564648936531)
(0.394625053542389692 -0.582033394807435434 0.199670159438867345)
(0.531137131795688555 -0.524219715465590208 0.160948975464000277)
(0.534395595356815245 -0.491217230214220257 0.113201020796832738)
(0.424231722118421695 -0.729858976017047523 0.275818816497292396)
(0.45502523743605261 -0.519739079695392348 0.202712968494709239)
(0.609750405734636791 -0.00488560674044935354 0.157301341963222818)
(0.52727230173506312 -0.118264844757523024 0.088076367616050602)
(0.568246335402687097 0.0232561502998875208 0.1541923158927892)
(0.589338346340354979 -0.0250000391585565827 0.125062246706593355)
(0.631222803150012446 -0.0611010412949212697 0.167366596025729258)
(0.583469331234911848 -0.122423165726323488 0.104802676054013374)
(0.620567558407899234 -0.0148268321693253401 0.16427933097734132)
(0.622007261621613905 -0.0461500805959607421 0.15106294224111419)
(0.624371441273875449 -0.186223902178979106 0.160065904120191282)
(0.618225464633229582 -0.166613870853006801 0.114662574360703956)
(0.634989015034247983 -0.0912608677544938518 0.151972887169895182)
(0.610938784442397131 -0.133942094933759859 0.175095801770239257)
(0.599805962953205429 -0.351466771778390474 0.137934227542753918)
(0.642083425889396375 -0.288883600454172385 0.107086533312252374)
(0.63012552454942905 -0.224350024237388312 0.126623078897801472)
(0.586691031574864463 -0.339951111014904606 0.167753675618069226)
(0.626883654247548439 -0.405138669641434912 0.0851195916591693247)
(0.611033095844830676 -0.381980729166860211 0.095569193060762378)
(0.547006932178830341 -0.51712226243126802 0.148812938088071695)
(0.570393788063334073 -0.480382347889518502 0.10535834302238567)
(0.507100520662554843 -0.206318579317642914 0.0355777017068413387)
(0.428376815388235077 -0.239611553027287094 0.0135175471352538563)
(0.472773392819238025 -0.182714535376639703 0.0474549233869505441)
(0.481605093129824746 -0.221120576380942013 0.0168346151247511441)
(0.576379106955741571 -0.210244872758859974 0.0520986543889882595)
(0.481603680692202385 -0.2458931357105065 0.0286385404318684061)
(0.529547173617180844 -0.201134103953939852 0.0553456032093702158)
(0.548696487391226007 -0.205548013635074217 0.0346143739515824139)
(0.643736103994789088 -0.25131880290017955 0.0616832035527652076)
(0.542706494825581309 -0.260345932744109998 0.04437290835137888)
(0.594692307651358831 -0.228178873506484359 0.0628951868148980575)
(0.613319369930246272 -0.223416566113954357 0.0602809337668099854)
(0.666672972675482534 -0.3294829287974258 0.0542718974286676425)
(0.597250632966981221 -0.311353060155349692 0.0454640610203253526)
(0.651289673738289054 -0.293471271335659978 0.0593681427390211486)
(0.643832515475543987 -0.317326702320999465 0.0647771692886793121)
(0.61280382906421238 -0.38812588816668625 0.0334330312839042909)
(0.666651313308322169 -0.373300740587594715 0.0466856768453230361)
(0.632061357784331368 -0.423076905433971528 0.0497917416982239028)
(0.657408029619797496 -0.400918074064914975 0.0370132001609768738)
(0.404247583002657729 -0.29123308829305089 0.00657838586028094367)
(0.368674877813727098 -0.30151245639659191 -0.000638910438307030339)
(0.379173543505741395 -0.262633411356436253 0.00602285206944850899)
(0.388859813693367196 -0.284412370079641375 -0.0028163272117401922)
(0.450800456852274212 -0.307907722089626856 0.0209127943942591862)
(0.403745561775497253 -0.323796500258928088 0.0132149658073351956)
(0.42143355421643508 -0.294270478611368624 0.0208660520565375172)
(0.431410648288328147 -0.287292515038565288 0.0103119833303760428)
(0.502130328464045372 -0.33496057771740273 0.0281537658189391221)
(0.44710213130591725 -0.346885406272753161 0.0250434415578951602)
(0.471311301826245033 -0.324187545486514572 0.0343090210070794432)
(0.482987475886456907 -0.300205245827149803 0.0222432697987949984)
(0.542389006916623617 -0.384979710326577906 0.0246251948755619836)
(0.490627721865467048 -0.388307055410050617 0.0272528111497807868)
(0.520165259873418329 -0.367104564403004763 0.0368599140571993916)
(0.529876230071181342 -0.350876341109424561 0.0213428615447298804)
(0.523087448602567617 -0.447564461524149304 0.0239656287357858724)
(0.555626562029643556 -0.425394065369385621 0.0313397345538874161)
(0.561080925312082424 -0.424613575880227467 0.013505263578152904)
(0.566904170578052646 -0.450790963669607969 0.0177714131783556217)
(0.367540901375816687 -0.333609219189130446 0.00599766950874726194)
(0.334134356171653657 -0.330995259956673116 0.00313280911066011938)
(0.349118259703147082 -0.29425061541132469 -0.00341216773879177843)
(0.351430926420034484 -0.320343128831314217 0.00289467118993842493)
(0.400622997444065043 -0.364899341811289413 0.0173456129709711714)
(0.361731499798789158 -0.360647168288046827 0.0122651870868817521)
(0.385254714596830972 -0.331916503109673355 0.00928779843504838262)
(0.379448337964810534 -0.345526107446192832 0.0141280083581279085)
(0.437667958993593231 -0.404333457997879453 0.0241424868887368076)
(0.392897325066152991 -0.395661598062925335 0.0211417329602401408)
(0.422789917174171304 -0.373835403918779174 0.0205721758111299148)
(0.416947060111484136 -0.3790052198878473 0.020984392156193684)
(0.471225406297519467 -0.455055176853780552 0.0265932450100047138)
(0.424685359911176175 -0.440559241186832651 0.0265435055821932574)
(0.459336656991975345 -0.422900964104270638 0.0263552628219964717)
(0.456791384665463152 -0.429240666874372789 0.0213501830007035015)
(0.451199270420119647 -0.494170240370396141 0.0311086071673217154)
(0.488822393423418433 -0.4781564506140627 0.0295523507379814969)
(0.487344125523645366 -0.488330558425334904 0.0217113927002772107)
(0.497357337643803521 -0.510241373830386591 0.0294519779217433109)
(0.327403200677469641 -0.360598449880709659 0.00940032668879462428)
(0.291819732956745237 -0.357796514474781169 0.0123537041843892609)
(0.315093845191956379 -0.337588391284044664 0.00446510422465543587)
(0.313990276054819106 -0.345284813110350364 0.00953889048480518163)
(0.35380386704464295 -0.394936469389234268 0.0160613070761507215)
(0.314548943643645607 -0.390295804492954035 0.0171870115831042891)
(0.343999904457927774 -0.371604084793474565 0.010637994759507604)
(0.338828946135331988 -0.377765546483635306 0.0143401991855172939)
(0.380102380007031226 -0.436260186101813996 0.0235427516536965697)
(0.337564240977620278 -0.428431545621146881 0.023933110996273578)
(0.371131346543145169 -0.411184576301546534 0.0189363338971047235)
(0.365454931636650326 -0.416660449175916214 0.0204673289798810304)
(0.404153132176359453 -0.484286575549670195 0.0310588677395102278)
(0.360015047722710646 -0.473073931027605088 0.0312698067543366598)
(0.396570230885849473 -0.456467830500502991 0.0270665926286375348)
(0.39073119090555497 -0.463039758782326671 0.0267701312788435342)
(0.38040502561536238 -0.523829163465617809 0.0398224268094440337)
(0.419320476102942707 -0.506972055544191447 0.0350108313365272913)
(0.412167217093224458 -0.514931670472998704 0.0344283021739752657)
(0.425740047539403921 -0.536018636071353916 0.0392576466540027966)
(0.278271882214764843 -0.38828794243935405 0.020140389078698924)
(0.246448312217921267 -0.381565085188353581 0.0199879693979497161)
(0.271010369926824368 -0.369709896107711489 0.0175709145678354939)
(0.267962532334465486 -0.372219661907378319 0.0188181401530890004)
(0.297766176879617761 -0.424668963178386094 0.0250588155032271422)
(0.263145954511399771 -0.415713636186077151 0.0240210640510947204)
(0.29113626674194848 -0.403929508432513851 0.0218789152452430607)
(0.286632287757212001 -0.406212783170739333 0.0222623116222090481)
(0.317061011276872584 -0.466145545387775362 0.0316601660969136264)
(0.279466706675769505 -0.454278373532826629 0.0301149333878118382)
(0.310919278235020469 -0.44278618339244824 0.0279071141509893254)
(0.305236314200089731 -0.445052636902159848 0.0278279289553308856)
(0.335606993910421314 -0.513273912964515633 0.040033365824270431)
(0.295253367030082481 -0.497871152402593775 0.0381218153927807835)
(0.330546086566648689 -0.486631988502006174 0.0351927792121663335)
(0.32322790518127531 -0.489978301283843509 0.0351478439800343781)
(0.310044811566703049 -0.547049532854565923 0.0487991515528571826)
(0.349540468109691305 -0.53581631615327785 0.044230752937701151)
(0.340300647292740288 -0.541022624730377766 0.0448954146020145925)
(0.353768892518954825 -0.564971024013842027 0.0506156279111958929)
(0.230798873408369659 -0.409383686684034409 0.0238686443703454848)
(0.202319439119622357 -0.399601348115431187 0.0219904919627588041)
(0.225441324235530788 -0.391405312790702453 0.0213708932260852739)
(0.222685903049446715 -0.392961857700933226 0.0218394423487597751)
(0.244302712566442315 -0.445626370579853215 0.0290771819356793956)
(0.213742699040071316 -0.432970626353960386 0.0262713011437060925)
(0.240176486822244351 -0.425508647630518599 0.0254625370582480769)
(0.235584801231015578 -0.427404112997938845 0.0259618227126482311)
(0.257037885724975657 -0.486173988661243839 0.036576582683678964)
(0.224107626318004405 -0.470128921014871581 0.0327847842420485869)
(0.254308840436647365 -0.463642625065857517 0.0315992767761636775)
(0.247713548683455437 -0.465992079881330568 0.0323529761806348806)
(0.268891034218957881 -0.53159649116769192 0.0468876011213674795)
(0.233308591897287865 -0.511649951802825798 0.0419395176451290638)
(0.267907181595806565 -0.506120978417363587 0.0399472236296398095)
(0.258815515482857694 -0.50934111811212146 0.0412978585595698902)
(0.241075807366714995 -0.558294254440575899 0.0546253589798002329)
(0.28079966792157024 -0.553556076481637627 0.0511909212489488966)
(0.268645581619829876 -0.558023500448128207 0.0537390324496979793)
(0.280190907875378314 -0.582051205704277153 0.0606014076183489098)
(0.184905485507859485 -0.423524157129336554 0.0243931487361194084)
(0.160147556691603854 -0.411721871628638603 0.0214497668961614561)
(0.182033353168190304 -0.407353456913507106 0.021845842394923428)
(0.178949529292867338 -0.407214754060230666 0.0221830205649147134)
(0.193112507921678972 -0.45764360122919634 0.0299789034500752456)
(0.167088527871295273 -0.442989101693107734 0.0259033562942193908)
(0.191909647321673954 -0.43975513936151317 0.0261240947110778395)
(0.186943587761321806 -0.439662204382672617 0.026741347035001875)
(0.19979168508892492 -0.495515127106146036 0.038147719203498652)
(0.172372806674214479 -0.477354676529116062 0.0325725418423353508)
(0.200572599475002528 -0.475595522297469375 0.032558621893202612)
(0.193280374407961475 -0.475572007655067019 0.0336789353805570374)
(0.204755434283123455 -0.537845088815236405 0.0496772755035618171)
(0.17568142024453845 -0.515294890930680927 0.0421029394464429302)
(0.207957566888722384 -0.515379538359637346 0.0416854677212873739)
(0.197632272763063083 -0.515646004197726437 0.0436679568593172709)
(0.176566542980572561 -0.557499776537823677 0.0554423799564489686)
(0.213909389772110325 -0.559879393889544441 0.0543619038195243681)
(0.199547707217057196 -0.560688823077369669 0.0577566683625116289)
(0.20797811832070684 -0.585318177265052308 0.0655568580856950994)
(0.142149006389276716 -0.431322259950885023 0.0229599744542614108)
(0.121260506851564601 -0.418547145028346723 0.0191841752312031967)
(0.14132257317564359 -0.417074697141323614 0.0203437016864718087)
(0.138039140254360093 -0.415658546883907021 0.0208260765264868808)
(0.146088401228314763 -0.46262642582810154 0.0284969946864794856)
(0.124752313252574118 -0.447061419475810573 0.0233867287831213307)
(0.147084409677170597 -0.447080707691698054 0.0246146517496293599)
(0.142080828554485394 -0.445542012491388861 0.0254026562001091159)
(0.147864516305076465 -0.496804320220239293 0.0365277620852795804)
(0.126195043124765094 -0.477803826097851214 0.0295678912557528657)
(0.151167338658460271 -0.479861933588864753 0.0309370263707677839)
(0.143915970877735111 -0.478035907475213406 0.0322171414721470414)
(0.146968246690341448 -0.534296467340008907 0.0478680438993301233)
(0.125051215762894657 -0.510977960155953537 0.0383557536496493059)
(0.15321918600223805 -0.515768721491670301 0.0399227424451955443)
(0.14297433245799307 -0.513485452007200638 0.0420049364056341371)
(0.120607294418388911 -0.546907735252926019 0.050617599651649206)
(0.152791703877772633 -0.55534794545837507 0.0524354150497469765)
(0.138400034359073665 -0.552407290915975513 0.0558137397119612133)
(0.142823308237777363 -0.575689530403198257 0.0636757358923264738)
(0.0965666921140002077 -0.384099226001443583 0.0143664717817205446)
(0.0793778409189316858 -0.374935321845688119 0.0118604667893818985)
(0.0934751273109497294 -0.371328881073827888 0.0136493307682076324)
(0.100959813754929753 -0.40843689565623309 0.0163642332915014885)
(0.0834294053996725293 -0.397548460129929726 0.0131977492082337982)
(0.098080174590881572 -0.394758347943354515 0.0151427045721180941)
(0.103849666525798343 -0.434505068057786381 0.0196109295600631166)
(0.0862654677304466322 -0.421689631857453451 0.0154917779810495836)
(0.104215444054680029 -0.422222926302666557 0.0172855620392422839)
(0.101266843074078947 -0.41984172781088025 0.0177603243212732381)
(0.104798083408713036 -0.462283131797767588 0.0244576253523947559)
(0.0874696496205992907 -0.447209542857124276 0.0189941457993686447)
(0.106966175176693476 -0.449366444759442263 0.0210683237516262438)
(0.102571438218379093 -0.446519467336484732 0.0218141379196901998)
(0.103243152523035009 -0.491792211323422768 0.031395882820122567)
(0.0865908109663010156 -0.473974351870104504 0.024051045299119906)
(0.107739251469082045 -0.478355635180322036 0.0265681624843482067)
(0.101447627736306334 -0.47476076090305086 0.0277403451890946423)
(0.0984559720643465447 -0.523106875391051163 0.0411053094019683957)
(0.0830141161252303666 -0.501854825289489548 0.031145979442513308)
(0.105991728736943222 -0.50927554113621476 0.0343169608571446821)
(0.0971812101378518173 -0.504559154966713774 0.0361452915563663726)
(0.0758990210535415571 -0.530718509170814756 0.0409232936523539689)
(0.101022301057625649 -0.542289500505647393 0.0450218624605651443)
(0.0887863859323137772 -0.535938323087589263 0.0478806311948310678)
(0.0895280154428876734 -0.556391652297374639 0.0545257849583757406)
(0.0663862374982429754 -0.388645423028645798 0.0106917442158951694)
(0.0512767437496987472 -0.379403399084055126 0.00812213213006596213)
(0.0643296992730680584 -0.376564079033471666 0.0101148853073709834)
(0.0688743996522133417 -0.410963474109770965 0.0123252938977819158)
(0.0536063340289784848 -0.400470810727779625 0.00914024836310936908)
(0.067063316401642023 -0.398139646256348234 0.0113861522189452093)
(0.0700194466493106182 -0.434413933310402289 0.0148749942203551221)
(0.0549621458859951145 -0.422612983333958192 0.0108046830890849016)
(0.070862051091058767 -0.423959576339837885 0.0130763055364702951)
(0.0685441652487202152 -0.420865933318319396 0.0134799422341766069)
(0.0694124840155079942 -0.458734084682806631 0.0185875657460937982)
(0.0550200362287762493 -0.445492626302879169 0.0132881368996380107)
(0.0717330982574406195 -0.448243325378827717 0.0160123562432142458)
(0.0683614105604020278 -0.444466461025088411 0.0166192896347272731)
(0.0665165590922714434 -0.483623201732466368 0.0238011419215106504)
(0.0534028971092748439 -0.468741372098819775 0.0168146350934336997)
(0.0707543850717280709 -0.47342469078096916 0.0201956786463569904)
(0.0660228570578287044 -0.468622688447778046 0.0211117057781058867)
(0.060595154879798982 -0.50871334129033996 0.0309639636928988327)
(0.0495926258093172187 -0.491888881459831062 0.0216898491028351403)
(0.0673690982394501287 -0.499230347125720453 0.0259896361735282265)
(0.0608679345935917854 -0.492937215283639985 0.0273715224126077072)
(0.04284652029897449 -0.514355075834195041 0.028295868874213561)
(0.0607703658549375858 -0.525337919059214564 0.0338429660809537181)
(0.051969465080115268 -0.516906667974547429 0.0359492000282004842)
(0.0506902361510664576 -0.533586269331453589 0.0406471812044455136)
(0.0386421411261603856 -0.390427709639147136 0.00657063627728018095)
(0.0251194748058908915 -0.381805945074398079 0.00411669569683781062)
(0.0374775907331774336 -0.37891049679173866 0.00621283109132988749)
(0.0398777513911217074 -0.41120445979073178 0.00761963755441237393)
(0.026181168262824718 -0.401845852057279518 0.00466219080063962153)
(0.0388846151214632674 -0.399084841392839562 0.00704814360726247011)
(0.0402011607103070004 -0.432649559050239163 0.00921782576836779367)
(0.0267105861762811335 -0.422646296639102748 0.00552780125390247429)
(0.0408885284122866358 -0.423546862036020044 0.00810754154660662217)
(0.0394353149764096328 -0.420019348168784667 0.00837434746556056132)
(0.039337124986975544 -0.45431355046963795 0.0115152062469779225)
(0.0265371918406321766 -0.443759354579324472 0.00680375361363248256)
(0.0409512115747858521 -0.445616020435090188 0.00994354860961530265)
(0.038866822643924416 -0.441277293709703644 0.0103327962767225095)
(0.0369072102636914673 -0.475640066720806054 0.0147033422747582208)
(0.0254438794045911097 -0.464644506523864631 0.00860041535251280728)
(0.0397268087694498603 -0.467832056454108414 0.0125298074033868313)
(0.0368370492397340488 -0.462326898501465577 0.0131021430591783204)
(0.0323919383902661132 -0.49591230418723814 0.0190217542841498721)
(0.0231397476586041734 -0.484593543508414493 0.0110619091252705855)
(0.036806129314004607 -0.489618307837165423 0.0160656000824320709)
(0.032894020016773988 -0.482478368402072033 0.0169163011623494966)
(0.0191993371568452489 -0.502691302997892109 0.0143615467939372573)
(0.0315755696640309322 -0.510237323242508811 0.0207816212422182039)
(0.0263899208993521456 -0.50084668288237788 0.0220667818330339202)
(0.0250890949752096831 -0.514198299222527133 0.0247516275139021864)
(0.0127451631085169145 -0.393759750285572196 0.00220825022019724296)
(0.0123576775398171433 -0.382427526920243954 0.00208698170695446276)
(0.0131588609892336669 -0.413960562890231976 0.00257035450012971234)
(0.0128154411271602011 -0.402104849532590181 0.00237602635129103082)
(0.0132574875244788181 -0.434590444647525331 0.00311372909916718876)
(0.0134745769061489148 -0.426056499681886358 0.00273733756945921183)
(0.0129844976529086848 -0.422332273136536984 0.00283023917313529995)
(0.0129487002252793235 -0.455126136954956018 0.00388896271916741847)
(0.0134706340079376197 -0.44720296506796664 0.0033626646336361826)
(0.01277161730042649 -0.442617946886508407 0.00349359868229085326)
(0.0120985082078316625 -0.474885209702454181 0.00495898220302517633)
(0.013019233374840445 -0.468132608784712523 0.00423594850973064638)
(0.0120544585260671522 -0.462326533949354579 0.00442678437785391354)
(0.0105240398378735785 -0.492972471409008739 0.00640170163505798633)
(0.0119713425497103045 -0.48811937111707443 0.00542175019372286536)
(0.0106703795613780957 -0.480632883655003895 0.0057065219539090134)
(0.0101045305996993687 -0.506195554907455603 0.00699524812128586495)
(0.00838906130959179291 -0.496449854883564246 0.00742803702160540688)
(0.00796007223135418961 -0.508191088279441594 0.00830228463354929988)
(-0.701630326577092789 -0.80114380659897011 -0.15582678508043496)
(-0.11394974340745101 -0.45827062365999921 0.0949219612085460684)
(-0.748722758419886336 -0.843575945308246422 -0.121539610892753946)
(-0.00203520341062768395 -1.37311048872768371 0.0174683227423475425)
(-0.408001491186946175 -0.697705261401022625 -0.259595475058335856)
(-0.442062372528495395 -0.384000542900753195 -0.300086242421839677)
(0.520018195966260977 -0.790072081206704024 0.268217069031328026)
(0.558626753573071233 -0.225167948435270493 0.15455288305655801)
(0.61888499486951265 0.0271997158932957631 0.163498934931349788)
(0.506562805445447184 -0.634826173251553549 0.174349726765245627)
(0.477700887639423311 -1.45371882872083868 0.213747305260299864)
(0.153380724068825885 -1.23681108165733988 0.149729577549754717)
(0.386606280741234265 -0.0822852058829763588 0.112681828234126022)
(0.435852566577311029 0.000907909325457412469 0.147358685942206247)
(0.36331156481483029 -0.0332171397366006066 0.10898227195655788)
(0.47986929483600621 -0.202852312102408117 0.0728672304199752124)
(0.526413154154136809 -0.0703434202098463662 0.128165157619887532)
(0.485249616605876843 -0.135737832571773354 0.0734956558982471225)
(0.541917408013689594 -0.336662824541299699 0.054516839158211379)
(0.581914304470035226 -0.158287299812620491 0.100995213578475337)
(0.576650616577581432 -0.269722863739047691 0.040494808311874568)
(0.632015046614546994 -0.393395981106940296 0.0606855407904758684)
(0.613379894914387713 -0.277727362489573804 0.0846729779792187581)
(0.651732962247890457 -0.393199003122478685 0.0379089072394963103)
(0.614291559405957144 -0.394702390074435361 0.073820826259682934)
(0.670358031094879903 -0.381343031118487608 0.0431770418226446601)
(0.530697560664560086 -0.315353575687163323 0.0731777499005776266)
(0.585033522728192312 0.0133149248710113521 0.162842015327967632)
(0.513747426486861891 -0.0719300452965525861 0.11359937032171237)
(0.553435550456676029 0.0487483378664688577 0.149909765963634672)
(0.629132510646834064 -0.0449866586288979672 0.156293140778387823)
(0.566645400790168119 -0.114373601896789814 0.117079450205940003)
(0.605898190815702176 -0.022707732483637548 0.154432531988053484)
(0.649574665143749175 -0.12938698981290267 0.131151352399483001)
(0.611455858052377232 -0.168568213172500148 0.110491195203813286)
(0.640487811766221937 -0.103442982341722403 0.140654880755236522)
(0.642930261419029869 -0.254863981625857217 0.0978082634484260249)
(0.63933177239832184 -0.250237473229742435 0.0906405002553698491)
(0.652085254215945431 -0.204964656987434379 0.114202068754101826)
(0.650800754905604184 -0.346775557757777131 0.068524862287884139)
(0.643997529440483385 -0.348725840905030449 0.084055443853704559)
(0.619938098980400976 -0.381834602174910331 0.0668474953028117685)
(0.497611138904512307 -0.177530060012936558 0.0678368051996847271)
(0.423570120936744288 -0.193501370705187636 0.0400755074009047779)
(0.477427134584821833 -0.128426853648126282 0.0910931532569169977)
(0.551376962636605628 -0.219068104701564126 0.0712775046313654653)
(0.46937704714141365 -0.238033385220091126 0.0491197986044807355)
(0.51924181421506499 -0.193659883771473085 0.0899922862981312466)
(0.608692351035969859 -0.270331341941964731 0.0699803430597000925)
(0.523297114652022111 -0.281020951019407772 0.0578908857601388438)
(0.568525145816620947 -0.257465919779679864 0.0869160658029910077)
(0.651206656725101474 -0.337289083125829059 0.0613570990948279701)
(0.574204300644726273 -0.333760998994346247 0.0573193111022830479)
(0.615496280675992047 -0.327848249588963192 0.0772601558539662281)
(0.609474046273753234 -0.39913648527436546 0.0499952822864869958)
(0.649683990513230447 -0.39693233954123941 0.0655366066112835904)
(0.669270699680583836 -0.401270782991803576 0.0518816289823745072)
(0.396297863761788161 -0.265670801674754042 0.0213585008057008557)
(0.359616925395161269 -0.256663746893229849 0.00438974698371482827)
(0.380366535623097413 -0.224110641695751123 0.00997497098586799628)
(0.442656737584379845 -0.310550302008256451 0.0357331797332540516)
(0.402942707037768744 -0.302036311417144765 0.0179571215122162828)
(0.425077714456551958 -0.276088122031814098 0.0223254387048804244)
(0.492131117606546042 -0.356331532172116605 0.0452298538027217784)
(0.446999087694499309 -0.348533298170623618 0.0308587855658930543)
(0.471850276813324032 -0.328758962081242223 0.0353392202167132768)
(0.534149869935000798 -0.407518919445812478 0.0459574942939420597)
(0.488874194999926404 -0.397914829669072212 0.0371220967084972334)
(0.517272992329194103 -0.381624215383056575 0.0422786101873630638)
(0.521361506850494316 -0.452579458372160404 0.0377737071693267021)
(0.552272936535600278 -0.437552556121409142 0.0422969937084924572)
(0.561904424005937209 -0.463946362446674754 0.0420370950603751806)
(0.365937337294250764 -0.292557899331867488 0.000988367690230365463)
(0.33007774872344986 -0.299473964369560586 -0.000864250496081803675)
(0.352402248386896599 -0.258544049342025406 -0.0157009865310230694)
(0.407483134127688607 -0.340852565217163117 0.0130827273448553272)
(0.367523119255969422 -0.340558932116264812 0.00854628742758643985)
(0.394900775658041159 -0.306060847842706985 -0.00196159787162244938)
(0.445032157710140708 -0.392402910025170137 0.0227510284716684781)
(0.401023938651163536 -0.3863316309920376 0.0186989071400344882)
(0.433200144519665487 -0.359228824505936073 0.0123923620727087961)
(0.476668082753535394 -0.44600223786455262 0.0289383095838818896)
(0.43122152796664881 -0.435189752295346566 0.0267615001671066)
(0.466865775523402304 -0.414114736657052951 0.0230823790533056204)
(0.456943599106241161 -0.487543659704661847 0.0332138522410954096)
(0.494373472721354124 -0.469794307697759428 0.0303626424754910168)
(0.501977175499180306 -0.499680001427071252 0.0338836299712524172)
(0.331054524351621859 -0.348594026196809514 0.00669366924127424382)
(0.294284482162035399 -0.348499506502994272 0.0106877885652767804)
(0.318746311287024853 -0.329868730481765349 0.00691878875304312302)
(0.360923087573919332 -0.387852191705786831 0.0141624672227655818)
(0.320587227556230703 -0.384348798168492545 0.0160518141833114331)
(0.350090203281742451 -0.366889453694904666 0.0132798191832621867)
(0.387379462588027246 -0.431392220700235418 0.0227093788354725927)
(0.344486383800545415 -0.424643427260081308 0.0232571876853995101)
(0.377736951528523823 -0.408605828066235244 0.0209584804612456092)
(0.41124687408299998 -0.479153310495023743 0.0310370428243200609)
(0.367101269729787516 -0.469191338698349392 0.0310409147810165459)
(0.402847543705597555 -0.45399827589319719 0.028516471692166024)
(0.388455918597271577 -0.51839712602592658 0.0393715340546134523)
(0.425977448105276657 -0.503193753770423191 0.0358122266730260749)
(0.433483207100596901 -0.52968513552266383 0.039260567310316824)
(0.283367592823550174 -0.385351462100871345 0.0200459335073139497)
(0.250003381944433722 -0.379125009792027068 0.0195256735583104156)
(0.27459696629132313 -0.365931484626133841 0.0192120488222762911)
(0.303781938309660549 -0.422046728646575997 0.0251465346459453822)
(0.268166799052792948 -0.413351673877221881 0.0236748698012466396)
(0.295932673670156132 -0.400853373217152753 0.0230668387157514886)
(0.323862276274475891 -0.463272626506678886 0.0315887236309434841)
(0.285761411995898329 -0.451857204961286008 0.0295330180291444207)
(0.31664293809813937 -0.440068605520106571 0.0281989652110188928)
(0.343750171956139716 -0.509174391690768502 0.039375406011309913)
(0.303199901132372662 -0.494732920135486309 0.0370036207851020052)
(0.337331543659612709 -0.483394425834322905 0.0345411648379581604)
(0.320295324464558662 -0.542427756148598839 0.0465456178908382617)
(0.357923302200924942 -0.531121770258735193 0.0423813558435706811)
(0.363853250550834229 -0.558701805154883324 0.0488416976579613693)
(0.234403874855708794 -0.407530273737186532 0.023154609852243109)
(0.205155238284098873 -0.398820317126300838 0.0213685008571055553)
(0.228213362512407147 -0.390067424943042806 0.0206187937545007187)
(0.249699240001348882 -0.443524902116522679 0.0280613531844456573)