/*--------------------------------*- C++ -*----------------------------------*\
| =========                 |                                                 |
| \\      /  F ield         | OpenFOAM: The Open Source CFD Toolbox           |
|  \\    /   O peration     | Version:  2206                                  |
|   \\  /    A nd           | Website:  www.openfoam.com                      |
|    \\/     M anipulation  |                                                 |
\*---------------------------------------------------------------------------*/
FoamFile
{
    version     2.0;
    format      ascii;
    arch        "LSB;label=32;scalar=64";
    class       surfaceScalarField;
    location    "0.0899999999999999967";
    object      alphaPhi0.water;
}
// * * * * * * * * * * * * * * * * * * * * * * * * * * * * * * * * * * * * * //

dimensions      [0 3 -1 0 0 0 0];

oriented        oriented;

internalField   nonuniform List<scalar> 
20856
(
7.87483845840433379e-17
2.04517633079776478e-16
-1.74732702226511329e-16
9.67631060651043418e-18
2.74546913241877713e-17
4.65527655214445088e-18
-2.12016204249597171e-17
1.05492238042442899e-18
3.31249873396458338e-18
4.88259558869912711e-19
-2.28404180455154117e-18
1.02098666444549965e-19
3.60038872694495218e-19
4.57913660100605976e-20
-2.19643500992874585e-19
8.75316335490166918e-21
3.52412079292241693e-20
3.84198800647015987e-21
-1.88737532035356083e-20
6.6170754506824128e-22
3.09930618599519067e-21
2.87997132096980599e-22
-1.44745225749942563e-21
4.3787498619693441e-23
2.4384841220150447e-22
1.92293827422609928e-23
-9.87764223824350667e-23
2.5095138178939019e-24
1.7053148322111901e-23
1.13796135022073587e-24
-5.96862575780838718e-24
1.22692792180156217e-25
1.05036255865143066e-24
5.9253795298311037e-26
-3.17064262709019197e-25
5.0085181924143963e-27
5.62590471756739056e-26
2.6871321648187578e-27
-1.4657922423598168e-26
1.65455002156466401e-28
2.57414926497951303e-27
1.04611273481917384e-28
-5.81336824876931327e-28
4.21692795160394559e-30
9.80822711152340918e-29
3.42328705040848346e-30
-1.93695776499954818e-29
7.66222267353322777e-32
2.99535071875465227e-30
9.11400114062116458e-32
-5.2483661697126861e-31
8.54129128719642809e-34
6.8904318505138063e-32
1.86755742222538941e-33
-1.09417698195818705e-32
1.92019815403196551e-35
1.06315976853982431e-33
2.64119234013852421e-35
-1.57371449410075257e-34
9.66618498999194897e-36
2.32435012177579913e-37
-1.49967777376274578e-36
2.90588047042583797e-17
8.1607336786963907e-17
1.42001863836558268e-17
-6.33207604336926615e-17
3.5966573416663613e-18
1.10365318523540192e-17
1.68511106114340238e-18
-7.72579341715133812e-18
3.94884834212828087e-19
1.34185054844447595e-18
1.78256738896107358e-19
-8.38383329100159171e-19
3.84653650758581115e-20
1.46869795371389419e-19
1.68535385904163672e-20
-8.12110492155686854e-20
3.3174009917572751e-21
1.44674227818966288e-20
1.42465569897806048e-21
-7.026571700779107e-21
2.52175708947859455e-22
1.27972902179130761e-21
1.07543445090946455e-22
-5.42371677040256071e-22
1.67741145603167362e-23
1.01223870756522576e-22
7.22814831661611344e-24
-3.72389679995873252e-23
9.66054492931318647e-25
7.11395226668095763e-24
4.30427529461835549e-25
-2.26326888658595044e-24
4.74508406315832552e-26
4.4020280639236191e-25
2.25458972796335464e-26
-1.20896194214417637e-25
1.94560772036074126e-27
2.36810890286543528e-26
1.02827025175157342e-27
-5.61881763430442067e-27
6.45463432987355016e-29
1.08804811104754386e-27
4.02501043977424271e-29
-2.23987957557670078e-28
1.65185872499356475e-30
4.16233657306480182e-29
1.32408089875701145e-30
-7.50007730679670023e-30
3.01348640889690728e-32
1.27605656964379979e-30
3.54304226261913505e-32
-2.04193613912441565e-31
3.37248977349213331e-34
2.94647477841976122e-32
7.29529159281590098e-34
-4.27654088996166355e-33
6.99154180656806741e-36
4.56340484571571234e-34
1.03653374279107958e-35
-6.17791365897938588e-35
4.09762536846641812e-36
8.91086397289922329e-38
-5.77900247529491234e-37
1.04677778605370716e-17
3.16000169623395562e-17
4.96923119819624032e-18
-2.23536783441826783e-17
1.30389089420620298e-18
4.30451979541578127e-18
5.94337379188228118e-19
-2.74380822236234082e-18
1.44032708189857137e-19
5.26911303186349573e-19
6.33665703392815204e-20
-2.99777182137085522e-19
1.41107081011643433e-20
5.8030655044356704e-20
6.03511894889230297e-21
-2.92303419490688839e-20
1.22351535157529569e-21
5.7489517141047278e-21
5.13686932477405314e-22
-2.544954795355661e-21
9.3476417007566828e-23
5.11191993227210085e-22
3.90308138578933892e-23
-1.9761287982760988e-22
6.24736324216032736e-24
4.06297152613120789e-23
2.63958571895965653e-24
-1.36449619939567355e-23
3.6141382846037959e-25
2.86828363381919202e-24
1.58110499908655474e-25
-8.33789115158997567e-25
1.78277576565122603e-26
1.78235490550611356e-25
8.32846868777887598e-27
-4.47695185520936152e-26
7.3396730544965343e-28
9.62662871905943634e-27
3.8189409222955551e-28
-2.0911374450353064e-27
2.44452723186799916e-29
4.43987750806799377e-28
1.50263785581187288e-29
-8.37642052315992084e-29
6.27978132781759742e-31
1.70469074322426547e-29
4.9679102360804411e-31
-2.81791941388019876e-30
1.14987112132310522e-32
5.24461646916013803e-31
1.33575265533907763e-32
-7.70661391736152463e-32
1.29158564340204976e-34
1.21519689511474834e-32
2.76306345583235985e-34
-1.62102798782942527e-33
2.4516925284464435e-36
1.88860447999457446e-34
3.94316408082039568e-36
-2.35147951032260767e-35
1.67296536408757624e-36
3.30886351911066674e-38
-2.15736488133045165e-37
3.68894863328533061e-18
1.19222619301732237e-17
1.70019598761313085e-18
-7.71422353806446329e-18
4.61967486906371143e-19
1.63429517958426864e-18
2.04797277583302376e-19
-9.52247089133257902e-19
5.12994016625222322e-20
2.0121078703334019e-19
2.19835690678166944e-20
-1.04657996808238807e-19
5.05117566773476362e-21
2.22807251951393103e-20
2.1074566588858293e-21
-1.02643024359910326e-20
4.4007950099651395e-22
2.2184501796421721e-21
1.80513745258192959e-22
-8.98701620841544819e-22
3.37742546996857244e-23
1.98182025799813269e-22
1.37985760159695275e-23
-7.01610734529739599e-23
2.26692717059623345e-24
1.58197079494315831e-23
9.38545633450728391e-25
-4.86972679014691741e-24
1.31676707928118498e-25
1.12131799631168517e-24
5.65279599488839501e-26
-2.99056437120243883e-25
6.52052142808113082e-27
6.99438791811003337e-26
2.99332251955430758e-27
-1.61349373777183238e-26
2.69447394047227523e-28
3.79133951207420685e-27
1.37953352136550372e-28
-7.57161310604349818e-28
9.00629687376386504e-30
1.75461534161483295e-28
5.4546843312221553e-30
-3.04667200228380302e-29
2.32169243851455167e-31
6.75915796273966555e-30
1.81194148665831872e-31
-1.02943686168433011e-30
4.26566114233438952e-33
2.08618944346769362e-31
4.89414088326434184e-33
-2.82732239755585437e-32
4.80766148025700593e-35
4.84899035449181843e-33
1.01679430578975537e-34
-5.97124879974590398e-34
8.28987495906180866e-37
7.56010846780287248e-35
1.45712517572519552e-36
-8.6957524319179452e-36
6.60080676587050484e-37
1.19333775056535077e-38
-7.8187035183869811e-38
3.00032263417800075e-16
8.40292730326763438e-16
1.52562408002359856e-16
-6.44361065052317736e-16
5.5476513649972329e-17
1.65021710603232029e-16
2.69873312561886587e-17
-1.17575501232999481e-16
8.9600468399531696e-18
2.8552998083564994e-17
4.17543230034590897e-18
-1.86585523297733411e-17
1.27406786540008424e-18
4.39514909995541569e-18
5.69979661014089139e-19
-2.60891240052364386e-18
1.60269922377504372e-19
6.05627711144136892e-19
6.90673397625067961e-20
-3.23596327271674842e-19
1.7876267050624189e-20
7.49287871436721506e-20
7.45766022874597079e-21
-3.57439693351360262e-20
1.76781976191972184e-21
8.33597958760892882e-21
7.19108275247387018e-22
-3.52332856729248505e-21
1.54662382266104354e-22
8.33624066105665615e-22
6.19462798049823841e-23
-3.10025409116568597e-22
1.19169797311982837e-23
7.47732421908149341e-23
4.76124675344335939e-24
-2.43208165684680574e-23
8.02908441078046442e-25
5.99138912242456771e-24
3.25561188826782656e-25
-1.69599235887869599e-24
4.68070890716960431e-26
4.26192109485398333e-25
1.97081158825348065e-26
-1.04628031075434974e-25
2.32591029173929303e-27
2.66740357636320337e-26
1.04872466814357951e-27
-5.66997134809809157e-27
9.643510348788506e-29
1.45051585196087091e-27
4.85620261118359586e-29
-2.6722042703865239e-28
3.23377753600824516e-30
6.73353809559233048e-29
1.92897975869887669e-30
-1.07976092665798818e-29
8.36246444762890465e-32
2.60158505854725447e-30
6.43626373768638998e-32
-3.66331677162320143e-31
1.54119887559364793e-33
8.05280821839090739e-32
1.74593917366198826e-33
-1.0101057811692812e-32
1.74244851778347894e-35
1.8770317604267625e-33
3.64221432943306743e-35
-2.14141724342884283e-34
2.70393155010056517e-37
2.93494928868330154e-35
5.24001980771053255e-37
-3.12984382194236762e-36
2.52338710845392979e-37
4.19645274175996188e-39
-2.75648589289995165e-38
1.01207048130042212e-16
2.99059446714346527e-16
4.97633704878821731e-17
-2.14393454320721748e-16
1.87062432673920048e-17
5.86897310406418597e-17
8.80923983351772048e-18
-3.8884184201131779e-17
3.02831023400589936e-18
1.01861486726002719e-17
1.36750677905694883e-18
-6.17592057669837934e-18
4.3199241959406388e-19
1.57497239414539061e-18
1.87521411219069063e-19
-8.66164302936231675e-19
5.45357753276489157e-20
2.18007777850957605e-19
2.28350408123032543e-20
-1.07846239220944376e-19
6.10473033194343854e-21
2.70915339418530355e-20
2.47824791303248686e-21
-1.19623285442752689e-20
6.05884682830764011e-22
3.02671327900519219e-21
2.40190990381563288e-22
-1.18421783413204002e-21
5.31951176417217285e-23
3.03882041280700428e-22
2.07954561102530761e-23
-1.04651333022557161e-22
4.11284385995701918e-24
2.73586670946908403e-23
1.60625853462355983e-24
-8.24473008957266225e-24
2.78020776636977857e-25
2.19983662502195335e-24
1.10359189822808804e-25
-5.77352554925798135e-25
1.62593926056288339e-26
1.56997319822108794e-25
6.71180868185489552e-27
-3.57640562339320125e-26
8.10432741784442392e-28
9.85644553016061261e-27
3.58769421142174006e-28
-1.94591573412435973e-27
3.37012409052677228e-29
5.37564497585895777e-28
1.66861549511702893e-29
-9.20709190068080159e-29
1.13336552290464917e-30
2.50247677553681621e-29
6.65644197462989768e-31
-3.7347041934823123e-30
2.93910190126538367e-32
9.69472650925488379e-31
2.23023712429461099e-32
-1.27186592969046595e-31
5.4318119843289218e-34
3.00869638539547937e-32
6.0741751971601599e-34
-3.5198450212393741e-33
6.15844088886040597e-36
7.03094452102970853e-34
1.27199791394783293e-35
-7.48826278251035718e-35
8.4325278207058942e-38
1.10232132695669559e-35
1.83670730622148849e-37
-1.09815560485891669e-36
9.30239525966318674e-38
1.44414923722180263e-39
-9.45973663346345624e-39
6.25353769643935508e-16
3.25462129105163253e-16
-1.35450526062223185e-15
2.25988049297299258e-15
1.54600654576072158e-16
7.67639783129457163e-17
-3.28526406429792634e-16
5.87741732930732199e-16
3.28612221828158313e-17
1.56135011773065607e-17
-6.82980313928386792e-17
1.31892146113396672e-16
6.0783722082290424e-18
2.7679699881682422e-18
-1.23647182855920275e-17
2.59504129360293572e-17
9.86380142812396118e-19
4.31146728727626674e-19
-1.96720901440591136e-18
4.52003435906134409e-18
1.41171084190446398e-19
5.93892906540936245e-20
-2.76813027449429009e-19
7.01638966580370085e-19
1.7886243754757831e-20
7.26848030924439899e-21
-3.46057958224752448e-20
9.74810695394517456e-20
2.0096325321302957e-21
7.9298579709857684e-22
-3.85528672692195762e-21
1.21558704517902938e-20
2.00190908896882103e-22
7.72614649100162458e-23
-3.83363814698860386e-22
1.36238667408162102e-21
1.76396535412785409e-23
6.72398708001943207e-24
-3.40298564156727191e-23
1.37176862337469604e-22
1.3685647081847201e-24
5.21996507236033008e-25
-2.69275989469400676e-24
1.23821054579317264e-23
9.2819208498164035e-26
3.60397264570200642e-26
-1.89374376669049148e-25
9.97934770426903486e-25
5.44545066312945108e-27
2.20219932221640686e-27
-1.17796502856708617e-26
7.13703126281924748e-26
2.72238204102889195e-28
1.18250223559737418e-28
-6.43518950159752233e-28
4.48924257519335798e-27
1.1353208671135792e-29
5.52385059489142134e-30
-3.05674560781137871e-29
2.45264824475624718e-28
3.82848893512779309e-31
2.21288524838680203e-31
-1.24463073826270926e-30
1.14356431201372906e-29
9.9542593148803148e-33
7.44436662514870201e-33
-4.25418513898890099e-32
4.43663693237182237e-31
1.84435093820904908e-34
2.03536178317128039e-34
-1.18146254918836851e-33
1.37871190033245225e-32
2.09663735335473107e-36
4.27778190475252256e-36
-2.5217975080230477e-35
3.22584007627680311e-34
2.09906813773499288e-38
6.19768496877388631e-38
-3.71012222514781741e-37
5.0639513157259901e-36
4.99927391637964125e-40
-3.07311200404240952e-39
4.07646587159520479e-38
1.9319910097965138e-18
5.68909121778668011e-18
7.81087301702851507e-19
2.06625078734818979e-19
6.7359452789997452e-19
7.987807870620257e-20
1.96288099451391464e-20
7.18756344383806223e-20
7.31181397688346547e-21
1.65254089860224443e-21
6.90737566483325173e-21
5.99331773433878797e-22
1.22738780709882709e-22
5.96573105328658685e-22
4.39358952532693455e-23
7.98358252538802224e-24
4.61098954076269817e-23
2.87173468598394236e-24
4.49937580391844676e-25
3.16887535499022722e-24
1.66513812940257377e-25
2.16398903711176088e-26
1.91876516321922629e-25
8.50249715793960233e-27
8.6925427218474897e-28
1.01066060189378201e-26
3.78400137647138151e-28
2.82626771906412806e-29
4.5489284082074356e-28
1.44661397324274851e-29
7.09059506325258388e-31
1.70544258241089603e-29
4.65116867238722185e-31
1.26827146531823671e-32
5.12561014080477219e-31
1.21718373335702569e-32
1.39176426445920217e-34
1.16049350942590748e-32
2.45235352763455864e-34
2.14149448392185443e-36
1.76278448328831467e-34
3.41134284451497271e-36
1.47443375720222619e-36
2.75266061175948261e-38
5.89648409338215488e-18
1.7155416520666679e-17
2.43718827440911052e-18
7.15815435386838995e-19
2.27671226539880925e-18
2.81847862918842761e-19
7.71193840523105348e-20
2.71796604659838994e-19
2.90880840437656214e-20
7.37546493129360287e-21
2.92124137800841012e-20
2.68518644644777327e-21
6.24838767885593064e-22
2.82614638949117592e-21
2.21846614569601175e-22
4.66804220752697712e-23
2.45586988452221847e-22
1.63843237256121115e-23
3.05301317146762203e-24
1.90892523998351011e-23
1.07840261498819572e-24
1.7295224227981461e-25
1.31881550610614788e-24
6.29427525730006432e-26
8.35904937589366519e-27
8.02497880165738016e-26
3.2341193337138741e-27
3.37349076345040206e-28
4.24671650487614786e-27
1.44794140967265016e-28
1.10178384375258559e-29
1.91993309416147875e-28
5.5671809040040512e-30
2.77620144186399789e-31
7.22876852681240379e-30
1.79982859910393235e-31
4.98671550771041886e-33
2.18152699420743184e-31
4.73497131526297372e-33
5.49506557264529762e-35
4.95905439906555604e-33
9.58815714497987927e-35
7.55849089177511117e-37
7.56292382583501034e-35
1.34021419796683041e-36
6.23882100839000074e-37
1.05206029607594376e-38
2.11504296895375711e-18
6.60610343277647885e-18
8.48953612597723058e-19
2.58498550939810659e-19
8.8366576118216027e-19
9.9035467662136804e-20
2.80315153483761246e-20
1.06251502565236084e-19
1.03059217819778693e-20
2.69721588794932425e-21
1.1494884218792475e-20
9.58853419289341691e-22
2.29814071449825496e-22
1.11882696036073628e-21
7.98080930148833438e-23
1.72614020855168231e-23
9.77683739398138072e-23
5.93543986120896104e-24
1.13466661079515504e-24
7.63892100113012565e-24
3.93249963987637387e-25
6.45869775340607457e-26
5.30309199291073879e-25
2.30966515519113493e-26
3.13582320208570438e-27
3.24164260131204158e-26
1.19383830323397616e-27
1.27105002345693414e-28
1.72283989780102833e-27
5.37544892285827674e-29
4.16864881865920381e-30
7.82096801607954897e-29
2.07814308721970969e-30
1.05464694608023887e-31
2.9563106443027727e-30
6.75394725764621771e-32
1.90188141085123389e-33
8.95573806771584652e-32
1.78582956395951015e-33
2.1039442330595237e-35
2.04340208643920717e-33
3.63374442567350535e-35
2.55224345940722784e-37
3.12794769675135079e-35
5.10266276425298185e-37
2.54390641242360357e-37
3.91157663797815906e-39
7.4178067186643919e-19
2.47794986413949138e-18
2.88971865797988021e-19
9.11874226763430336e-20
3.33749623890882074e-19
3.39715607177297938e-20
9.94478420327023057e-21
4.03773414163285899e-20
3.56154465282341956e-21
9.62137888380257481e-22
4.39374839395061578e-21
3.33746389126436629e-22
8.24033320668366282e-23
4.29985559413208029e-22
2.79694434506622765e-23
6.21964969188155233e-24
3.77640342057349054e-23
2.09369538433388182e-24
4.10739883875160897e-25
2.96451142204707621e-24
1.39577047634633343e-25
2.34828157302337704e-26
2.06710845354071148e-25
8.24617299415057035e-27
1.14491554093824633e-27
1.26882594299140459e-26
4.28641754459215573e-28
4.65933807134659781e-29
6.77004084260764261e-28
1.94048707973010278e-29
1.53402551207234062e-30
3.08488148296361094e-29
7.5410403881650982e-31
3.89555271881840461e-32
1.17029728422965323e-30
2.46315320316069534e-32
7.05072050390332783e-34
3.55767367413259887e-32
6.544354341190597e-34
7.82823570431984902e-36
8.14522125217781403e-34
1.33775837866810343e-35
8.24104225730835793e-38
1.25113104465963668e-35
1.88680067432323453e-37
1.00488074063818402e-37
1.4120835710895226e-39
6.35564484674471837e-17
1.83323486737334554e-16
2.77945469426287668e-17
1.15154286453003783e-17
3.52888555979670053e-17
4.78927695280795641e-18
1.82523124202362312e-18
6.00031724160406943e-18
7.22867334854569688e-19
2.54821514623394326e-19
9.07911426420425187e-19
9.63215512176237889e-20
3.14840260339998694e-20
1.22984037967551621e-19
1.13994748828228382e-20
3.45059712982511969e-21
1.49578230534649605e-20
1.20303777412693979e-21
3.3544438732163881e-22
1.63600904445939881e-21
1.13468103743111775e-22
2.88617313565888086e-23
1.60874126595639684e-22
9.56884550838118106e-24
2.1879812519207171e-24
1.41924072144952651e-23
7.20601956348083665e-25
1.45095752377334907e-25
1.1188077362101822e-24
4.83160183962159216e-26
8.32845191899322622e-27
7.83218459907204301e-26
2.87025189882582299e-27
4.07604092454473316e-28
4.82553553596881248e-27
1.49988327556995511e-28
1.66484872916792581e-29
2.58391697354081279e-28
6.82471707752087754e-30
5.50064635102403049e-31
1.18141445431879248e-29
2.66526125233182194e-31
1.40164394401309804e-32
4.49657068561084788e-31
8.74703848348263427e-33
2.54543170972745751e-34
1.37129223690381169e-32
2.33463334493784757e-34
2.83567866851501243e-36
3.14932733170096487e-34
4.79313706858347456e-36
2.5447848566762085e-38
4.85271652827044702e-36
6.78845209631934157e-38
3.86195372588194945e-38
4.99986202291199502e-40
2.12339568465190811e-17
6.44887316756361584e-17
8.96936672679383057e-18
3.85416182560507209e-18
1.24473374663883342e-17
1.55042322856220383e-18
6.12932781074308062e-19
2.12548032931574622e-18
2.35085712070388266e-19
8.59060058542575523e-20
3.232618701877665e-19
3.14940775451111911e-20
1.0658414419696631e-20
4.40091168424099958e-20
3.74870436419052432e-21
1.17299151023930913e-21
5.37877245470717243e-21
3.97933534026192373e-22
1.14498753468754305e-22
5.91060814953242265e-22
3.77499026798450162e-23
9.89092746716470449e-24
5.8378159658771549e-23
3.2015046218514281e-24
7.52716408133977313e-25
5.17160784905850341e-24
2.42419883237512296e-25
5.01012808048793949e-26
4.09282320812121136e-25
1.63402956797733215e-26
2.88602132829835646e-27
2.87574032010507577e-26
9.75669240077629774e-28
1.41727693179995231e-28
1.7779660962523874e-27
5.12362167957024957e-29
5.80789131208177266e-30
9.55192197834917073e-29
2.34245592734441717e-30
1.92503975853750875e-31
4.38109472497280794e-30
9.19029015355143948e-32
4.92051760482780175e-33
1.67253205592726453e-31
3.02962338134318818e-33
8.96316371682351229e-35
5.11553874147170545e-33
8.12104823201405342e-35
1.00160373370936152e-36
1.17819948968908192e-34
1.67413965013446894e-36
7.61073194158698825e-39
1.82073085072981786e-36
2.3802740017768535e-38
1.46055574938929183e-38
1.75126317955507482e-40
1.34605057713601011e-16
6.07250303699104224e-17
5.05065926666557098e-16
3.26969688172731062e-17
1.40072639739620835e-17
1.2855167905701947e-16
6.83498863378727011e-18
2.78723859605534283e-18
2.83620975069109992e-17
1.24317544309733599e-18
4.83207234303588892e-19
5.49138296690884477e-18
1.98345950806846203e-19
7.35912862178982736e-20
9.4111997047807374e-19
2.790999097222348e-20
9.91234412494500295e-21
1.43702669054554102e-19
3.47741057538665009e-21
1.18674920202502278e-21
1.96366557156469829e-20
3.8432930428367686e-22
1.26728095194015498e-22
2.4084147294809846e-21
3.76728194541931495e-23
1.20932654478652685e-23
2.65516328795997687e-22
3.2675873141401626e-24
1.03155027383099555e-24
2.63028139446037763e-23
2.496384586968897e-25
7.85476064984317975e-26
2.33644476532946729e-24
1.66778206695564891e-26
5.32305302719082746e-27
1.85363846308418759e-25
9.64097627589924248e-28
3.19480884426728207e-28
1.30535477170808475e-26
4.75041398780981144e-29
1.68604596808661463e-29
8.08713284611521618e-28
1.95290144542925835e-30
7.74512319857077145e-31
4.35290433808237524e-29
6.4926735458459758e-32
3.05259541066745125e-32
1.99996273730344666e-30
1.66441943016418377e-33
1.01071552555152683e-33
7.64725875118243509e-32
3.04049295054648152e-35
2.72057111525015312e-35
2.34240919413237678e-33
3.40743977615088249e-37
5.63039816171575489e-37
5.40239553674889161e-35
3.05313532800801113e-39
8.033901700083443e-39
8.35940651892593029e-37
6.01813041623761173e-41
6.62677933997049519e-39
3.09722457506859939e-19
9.47956795405173175e-19
9.98524172368438243e-20
3.25071287589287996e-20
1.10178026895941154e-19
9.96818589895469563e-21
3.03175061137656435e-21
1.15411550242953394e-20
8.91476409687011795e-22
2.50716105231660295e-22
1.08899591906171677e-21
7.1459487981486672e-23
1.83006112078050064e-23
9.23739521769703412e-23
5.12823736287222995e-24
1.17042158052407717e-24
7.01467388783115199e-24
3.28448813285559123e-25
6.48849109440514088e-26
4.73821029448157315e-25
1.8678364380153495e-26
3.07081765132916493e-27
2.82095411896001401e-26
9.36179784149274299e-28
1.21418123274555596e-28
1.46151706346287851e-27
4.09268229871192904e-29
3.88672338972140879e-30
6.47251408730400128e-29
1.53790361008763047e-30
9.60163548514592351e-32
2.38826352049865972e-30
4.86280698598402773e-32
1.69116232868345357e-33
7.06573453055534212e-32
1.25201423870567744e-33
1.82748237379098107e-35
1.57496738698938056e-33
2.48252135957994453e-35
1.84208788385147273e-37
2.35575027741636866e-35
3.39957181928442796e-37
1.83523859005188089e-37
2.50927198862939747e-39
9.62707451324414329e-19
2.90709171606886561e-18
3.19049390027085932e-19
1.14639685333803536e-19
3.78688407111387896e-19
3.59879056660955697e-20
1.21216531205276805e-20
4.43807342229789083e-20
3.62682641313973107e-21
1.13835138952450962e-21
4.68324891318322151e-21
3.27185391591217713e-22
9.47497657323248785e-23
4.44946362352214104e-22
2.64439031931700699e-23
6.95812466220006348e-24
3.79832065926665623e-23
1.91245817775828106e-24
4.4754734513926865e-25
2.90140826747084994e-24
1.2337926207118016e-25
2.4944417785933303e-26
1.97063886842687231e-25
7.064588206833919e-27
1.18658399538270152e-27
1.17933532316601288e-26
3.56391054615683236e-28
4.71457359172009128e-29
6.14006499624191793e-28
1.56769735147964924e-29
1.51625862972054275e-30
2.73192553398237744e-29
5.92590593379807032e-31
3.76268086865675534e-32
1.0125619885788138e-30
1.884432085920245e-32
6.65650375000102445e-34
3.00866277576888346e-32
4.87831812829752687e-34
7.22421336360457708e-36
6.73463260069230625e-34
9.72331629218065244e-36
6.17523261224768412e-38
1.01154603283832589e-35
1.33815335818740223e-37
7.81259734509795585e-38
9.59911830251679259e-40
3.44678328497896529e-19
1.11652413126554946e-18
1.10879917943251624e-19
4.13317400596306077e-20
1.46625123057612254e-19
1.26243154476554765e-20
4.39981949388607019e-21
1.73104052238164395e-20
1.28313649312080303e-21
4.15815778061797984e-22
1.83907617593455058e-21
1.16708356719912431e-22
3.48173548120318958e-23
1.75833115721658032e-22
9.50636222012281378e-24
2.57128793512113199e-24
1.50982366287780077e-23
6.92563778661870835e-25
1.66265081365574038e-25
1.15961335098457567e-24
4.49895743065002789e-26
9.31356608941082034e-27
7.91648280313888025e-26
2.59298608572597017e-27
4.45157957557805593e-28
4.76051874733790206e-27
1.31626542670018982e-28
1.77680333323215837e-29
2.48984037341114116e-28
5.82451958858717135e-30
5.73951029492026216e-31
1.11264417391103453e-29
2.2142506678261415e-31
1.43034664747770304e-32
4.14115458654862446e-31
7.07992600678082704e-33
2.54088351869493654e-34
1.23544821772896651e-32
1.84245663792882295e-34
2.76885564106685654e-36
2.77632804488528385e-34
3.69075134106600525e-36
1.95430294345948625e-38
4.18642335728551999e-36
5.10354318728052965e-38
3.20428492338978695e-38
3.66221591234019752e-40
1.20584854272567073e-19
4.17468426164185305e-19
3.76342469961259296e-20
1.45485721878617872e-20
5.52145729315031868e-20
4.31963830082464621e-21
1.55804362742073046e-21
6.56035299132569112e-21
4.42532808450873377e-22
1.48099648876975285e-22
7.01246166425640455e-22
4.05605263387160039e-23
1.2468780689588776e-23
6.74314434960409498e-23
3.32790062490877888e-24
9.25600287377223269e-25
5.82117389235415761e-24
2.44121070695653856e-25
6.01450700490104662e-26
4.49336466308920898e-25
1.59623083322491386e-26
3.38480342852378941e-27
3.08200631397028142e-26
9.25726544905077933e-28
1.62500466882069547e-28
1.8615870836191887e-27
4.72715512918064045e-29
6.51359395038908775e-30
9.77753682848725774e-29
2.10368458217691417e-30
2.11265325316683254e-31
4.38691740535044306e-30
8.04107360059128643e-32
5.28580896356866304e-33
1.63908173566056115e-31
2.58459028837246594e-33
9.42608432856845664e-35
4.90822792344126266e-33
6.75994353912176756e-35
1.03112438239158477e-36
1.10701298339318798e-34
1.36063001641134659e-36
5.75734181346363714e-39
1.67535891364365463e-36
1.89003974079467406e-38
1.27411517553192531e-38
1.35590573485910729e-40
1.09175459749231578e-17
3.25055889609256006e-17
3.88478659854714586e-18
1.93893726980563228e-18
6.14108973618347681e-18
6.52575128197256724e-19
3.01445653598594629e-19
1.02544553892133499e-18
9.60917432037633375e-20
4.12998232228472266e-20
1.52392937944522575e-19
1.2499084292634189e-20
5.01004561001855869e-21
2.02766888562502606e-20
1.44510684411251563e-21
5.39398649157630921e-22
2.42273773178287838e-21
1.49117001840551871e-22
5.15376378378464637e-23
2.60384003020807221e-22
1.37634367830861288e-23
4.36047761556983148e-24
2.51672769867291995e-23
1.13686948510106505e-24
3.25214675316542528e-25
2.18311954964014609e-24
8.39331172402824697e-26
2.12268470884476308e-26
1.69280872781608934e-25
5.52185979385699223e-27
1.19968297460158302e-27
1.16607512246575175e-26
3.22117757511173859e-28
5.78299954166470436e-29
7.07185597669487661e-28
1.65411420589851683e-29
2.32708948366887125e-30
3.72863514651540973e-29
7.40087464759236893e-31
7.57624655089071372e-32
1.67909925929135136e-30
2.84358247406926651e-32
1.90249210181944039e-33
6.29582371373982824e-32
9.18564028177033942e-34
3.4048343272122477e-35
1.891746961872394e-33
2.41401087605619633e-35
3.73790419184402852e-37
4.2809920838093571e-35
4.88107265951165021e-37
1.72910517510710315e-39
6.500532402090671e-37
6.80953336708288034e-39
4.94829913281783575e-39
4.89520540576287904e-41
3.62707314792146445e-18
1.13646577344472231e-17
1.24530080963063316e-18
6.45973682494759611e-19
2.15539929607186125e-18
2.10091414465824477e-19
1.00829782106435963e-19
3.61632966430121232e-19
3.11028894871116346e-20
1.38753773129829726e-20
5.40392819328387903e-20
4.07035335270312829e-21
1.69104331345574561e-21
7.22888808877706717e-21
4.73620787248291085e-22
1.82896652875102619e-22
8.68268860051116355e-22
4.91865127944080196e-23
1.75538025479731443e-23
9.37887921375149069e-23
4.56866330002878474e-24
1.4916748582633472e-24
9.10854067671680508e-24
3.79697700281063975e-25
1.11720155464482746e-25
7.93691503147065621e-25
2.81989322241219072e-26
7.32135679703454036e-27
6.18061955109925429e-26
1.86576804673006552e-27
4.15377745425535307e-28
4.27460252308363337e-27
1.09436483640472805e-28
2.00970571548865618e-29
2.60227274957534376e-28
5.6493271938171035e-30
8.11586069518824484e-31
1.37700484033952575e-29
2.54047495810685666e-31
2.65134597061293082e-32
6.22235953049025148e-31
9.80893500864116704e-33
6.68013820635791838e-34
2.34078970450697474e-32
3.18357121774957307e-34
1.19945532043453796e-35
7.05591927422772498e-34
8.40450027947829183e-36
1.3211219067556452e-37
1.60170172390848462e-35
1.70671221438303777e-37
6.1275498373410293e-40
2.43969652764525013e-37
2.39064434994502998e-39
1.86609293012984359e-39
1.72898393972267151e-41
2.36975887250322795e-17
8.7674172649522049e-18
9.21328034603113363e-17
5.65533774005864923e-18
1.97726401203289571e-18
2.30308032947304081e-17
1.16108216480637848e-18
3.84439968233056655e-19
4.99352105353845525e-18
2.07383265157871286e-19
6.51131965409235686e-20
9.50045366517318931e-19
3.24954398600175416e-20
9.68988552043277952e-21
1.59966988560908204e-19
4.49189618399664415e-21
1.27585161567484013e-21
2.39971400495637258e-20
5.50005706150403897e-22
1.49414728101021649e-22
3.22191782569833143e-21
5.97650877378580468e-23
1.56183339728161538e-23
3.88345980607588044e-22
5.76239867555833151e-24
1.46006212899624624e-24
4.20864566489242915e-23
4.91846433474837101e-25
1.22106732505958543e-25
4.09980035081810899e-24
3.69936451720046151e-26
9.12340393554577748e-27
3.5824785192606004e-25
2.43410122660996441e-27
6.07151312006229912e-28
2.79693632391012842e-26
1.38628998526191346e-28
3.58102332632163444e-29
1.93898246370838334e-27
6.73168766453017923e-30
1.85841380907453933e-30
1.18297662367722687e-28
2.72790957876831578e-31
8.39968447658325264e-32
6.27234689236827208e-30
8.94122060146744811e-33
3.25896158746890825e-33
2.83958424639200297e-31
2.25991431326138647e-34
1.06264472331767153e-34
1.07005935715511842e-32
4.07028853940030351e-36
2.81773393503111945e-36
3.2306665723991731e-34
4.49719563149895262e-38
5.74575534011134915e-38
7.34460772109545245e-36
2.09554146891600309e-40
8.07980082711994417e-40
1.12035215453733251e-37
5.8525303219038917e-42
8.58817933378915491e-40
3.43934119187100903e-19
1.00088104528515233e-18
8.7265689649810819e-20
3.98627196313491296e-20
1.26829705844376983e-19
9.51229736660822797e-21
4.10735147033875527e-21
1.44717368562814057e-20