/*--------------------------------*- C++ -*----------------------------------*\
| =========                 |                                                 |
| \\      /  F ield         | OpenFOAM: The Open Source CFD Toolbox           |
|  \\    /   O peration     | Version:  2206                                  |
|   \\  /    A nd           | Website:  www.openfoam.com                      |
|    \\/     M anipulation  |                                                 |
\*---------------------------------------------------------------------------*/
FoamFile
{
    version     2.0;
    format      ascii;
    arch        "LSB;label=32;scalar=64";
    class       volScalarField;
    location    "0.0899999999999999967";
    object      p_rgh;
}
// * * * * * * * * * * * * * * * * * * * * * * * * * * * * * * * * * * * * * //

dimensions      [1 -1 -2 0 0 0 0];

internalField   nonuniform List<scalar> 
7340
(
0.577025217560100168
0.55657912210602456
0.537461525072849611
0.519837257163474953
0.503766319217490044
0.489246467793127082
0.476245316091401416
0.464716889686193235
0.454614213701215353
0.445892737744106538
0.438508683536086075
0.432421880761940158
0.427599318871040524
0.424013935776618833
0.421642589266470968
0.420466939468065182
0.565753663540420337
0.546868872209941181
0.529017384225536791
0.512418959829266996
0.497178906147299371
0.483333303412437021
0.470880607440330889
0.459799208867124443
0.450060092997370709
0.441632045949261032
0.434482504546949755
0.428580177769838755
0.423897853231796296
0.420412390372136846
0.418104428576296483
0.416959301725686626
0.554065012703068183
0.53670170592457922
0.520106894864137304
0.504540552480202464
0.490145638099373615
0.476992394638209694
0.465107216092228826
0.45449089780076446
0.44513171026277959
0.437011810462367978
0.430109574043188891
0.424402197234341194
0.41986833224753245
0.416489096829259331
0.414248973624574801
0.41313675128977434
0.542059653099290273
0.526163098115009387
0.510799260859268855
0.496257264003293397
0.482710817722649843
0.470259290831395449
0.45895376387190584
0.448815399901037027
0.439848724241667322
0.432048757973242714
0.425404264832585088
0.419900504886789816
0.415522006837064417
0.412254359686459515
0.410085868110210194
0.409008464571123609
0.569589425154890971
0.557747618269341161
0.544183211692757851
0.529823682633055459
0.515326758209052049
0.501156355826916089
0.487620378146277844
0.474916581209791133
0.463168509021375852
0.452448622054083982
0.442796330612116429
0.43423109869460752
0.426759937135721135
0.420381282349412744
0.41508803326321897
0.410870561420784208
0.407719006792305327
0.405625347281501125
0.40458417193084667
0.552237843366420011
0.542172066592908508
0.530277271021384111
0.517424662690680659
0.504255515020956224
0.491233158224577748
0.478676505632195659
0.466802052178380389
0.455752743197408494
0.445619157742360328
0.436456771793152343
0.428298471524971081
0.42116217507888698
0.415055210780646944
0.409977694079502186
0.40592573435511331
0.402893963556861856
0.40087780678742041
0.399873923224261796
0.542319525246461653
0.54084436404002334
0.535255776655939597
0.526762545813791228
0.516384782647272389
0.504929756254803297
0.493011192101270423
0.481083591300197455
0.46947251945534435
0.458407550933715435
0.448046435683428501
0.438494791055673072
0.429821923875953638
0.422072512975784409
0.415274216614890335
0.409442465072134221
0.404584152186976576
0.400700923451764057
0.397791702671410952
0.395854785242452878
0.394885078212123375
0.540557763867471452
0.524400709020194644
0.509199527769514049
0.495102278881369151
0.482184328842890808
0.470478347216844894
0.459993137966423771
0.450727135917060429
0.442672427798011192
0.435814223859858296
0.430134767020410869
0.42561793759101868
0.422249494612530085
0.4200162967791638
0.41890736983687088
0.547235574341986886
0.531660168626277962
0.516562061992996924
0.502233770258001422
0.488855339315301451
0.476528650898321471
0.465309557323637546
0.455225623303550542
0.446288960497445542
0.438501968225932015
0.431858965187085164
0.426349584231724033
0.421962549528807573
0.41868696079224027
0.416512978287258639
0.415432805845401376
0.536626359083626325
0.52230711475626812
0.50826399171472425
0.494818134099870965
0.482172966935320191
0.470454756148637077
0.459740362569105832
0.450074402762594528
0.441482275493369491
0.43397681685226569
0.427561105226122118
0.422231716740294638
0.417982277783121303
0.414805544397451542
0.412695000787803801
0.411645775524667135
0.525676669371087812
0.512572909062384285
0.499569421211395415
0.487002579197671037
0.475095356467428509
0.463995214180086324
0.453797232463831135
0.444561428266824488
0.43632569901708157
0.429112895277326489
0.422934339671741544
0.417793167826185807
0.413687925726673456
0.410615193482926799
0.408571707647760018
0.407555204258025272
0.544149869435303857
0.536050244499891693
0.525858143305137804
0.514463797852613869
0.502526431250340799
0.490534962748404579
0.478833593225147069
0.467661105132993415
0.457181897051743669
0.447506590060271658
0.438708909468541686
0.43083815672275122
0.423926445142350727
0.417992729797309004
0.413046356450976815
0.409090759715520558
0.40612637223742809
0.404152995747789956
0.403170502635855244
0.528760399923640323
0.522056414683953252
0.513208384992779654
0.503051804903269728
0.492225605647156006
0.481210390026407031
0.470353868041966716
0.459906294205971178
0.450045150412681394
0.440894038115899611
0.4325386048666926
0.425038275208900584
0.418433508787190989
0.412750248638714234
0.408003708683872257
0.404202108199489762
0.401349634037429626
0.399448909668201069
0.398501386463908647
0.514095306628384874
0.515956095202114495
0.51359892714024058
0.508131579524096044
0.500507846984171501
0.491503363348310796
0.48172702052927191
0.471645472787672937
0.461606858811277054
0.451868452510074237
0.442617227162072469
0.433987303317928674
0.426074404796865591
0.418946709217909719
0.41265204855695331
0.407222707747102064
0.402679405082977337
0.399034948886556273
0.396297062871655392
0.394470621815876166
0.393554886465526998
0.525715387788383559
0.512261815335520398
0.499287384224719355
0.487012563780403918
0.475578877141683509
0.465076767800726931
0.455564286579662636
0.447080379424159402
0.43964982471720071
0.43328418489667514
0.427986281548403014
0.42375542693038476
0.420589264538490715
0.41848441388824581
0.417437471802817595
0.530127793689142424
0.517558133033684031
0.504978384820695236
0.492739338327219722
0.481081183649014865
0.470162720626310926
0.460090759140014904
0.450936965595368722
0.442750349648649177
0.435563473912486121
0.429395005368005789
0.424253723157178964
0.420143042057814387
0.417063517118626381
0.41501447499635391
0.413994923658889402
0.520498253084720197
0.508948495429855541
0.497243945066432824
0.485751446807711651
0.474724230602169783
0.464337256553804423
0.454712019207853202
0.445932448456452413
0.438057339986800132
0.431127113389985717
0.425167207508658995
0.420191953866120071
0.416208862182462946
0.41322160269959185
0.411232215242410493
0.410241936971505294
0.51050986355350958
0.499952527090032517
0.489114774799609298
0.478368626947167253
0.46797820357453801
0.458132386305368844
0.448965140477574409
0.440571355602787929
0.433018966649134196
0.426355871850591039
0.420613840985726684
0.415812432489544026
0.41196322861262813
0.409073097881579806
0.407146700307008946
0.406187252311819125
0.520875361865763553
0.516100987693935864
0.508938909143313523
0.500232606961435788
0.490632429806993398
0.480641880908302233
0.470633016846686181
0.460878411722571157
0.451577550205044864
0.442874779958345344
0.434874598455359529
0.42765316432712408
0.421265218254740059
0.415748359965045888
0.411127083730569387
0.407416981902502917
0.404628090184313116
0.40276749926239086
0.401840006668496008
0.50724855441551675
0.503538782424423959
0.497433543000327993
0.489724999708643138
0.481040681454522057
0.471870462977221405
0.46258362621550958
0.453458068176689155
0.444700916316024597
0.43646490281519823
0.428862690962068083
0.42197759938786944
0.415870454678065549
0.410584163986579764
0.406147866915344602
0.402581041307634224
0.399896760668421336
0.398104322359490059
0.397209619539869052
0.488493659805303904
0.493239344599072538
0.493728268536628878
0.490961363919451999
0.485821301496853208
0.47904513470283655
0.471229485316991326
0.462846413420249458
0.454260651551909977
0.445752082651014403
0.437532681789665256
0.429761634246690616
0.422558275044707388
0.41601195765716803
0.410188800018395638
0.405136488730133526
0.40088849134793697
0.397467971323314184
0.394890820449154911
0.393168009950104425
0.392302839312972718
0.523385210993505323
0.512587706579926472
0.501487497612767674
0.490465709798778848
0.479797413717494958
0.469677194677994403
0.460244050081010547
0.451597830447123316
0.443811896573735709
0.436939038028071935
0.431013754461198551
0.426056998617670213
0.422081793699016494
0.419096427525451731
0.41710631510359103
0.41611490436903914
0.515040051752239436
0.50507161689331237
0.494689139715023096
0.48428523620828523
0.474144823856371966
0.464473372690378083
0.455420476081796977
0.447095230755139739
0.43957813350234809
0.432927643425923936
0.427183580946126351
0.422371572681631058
0.418508093091202904
0.415603948215775454
0.413666693065910585
0.412701462190392776
0.506255280986560696
0.49710843938720839
0.48744919043609175
0.477674302877797108
0.468075672148527022
0.458868345388856347
0.450211138720675919
0.442221395468578027
0.434986475498905401
0.428570511815599298
0.423018375359791365
0.418360031224269346
0.414615335513145
0.411797703537575943
0.409916814197364476
0.408979373652129885
0.49710020631443752
0.488758238050903737
0.479817121964292603
0.47067329268599073
0.461623286455622228
0.452889689128158857
0.44463899176908156
0.436995752023593254
0.430053619105229934
0.423882056866879464
0.418530631460190095
0.414033377203809283
0.41041346408754148
0.407686920865040492
0.405865447949538105
0.404957147367034809
0.500535004619805823
0.498582476637073502
0.494018819622956629
0.487638056870355052
0.48007483283049579
0.471838449278060401
0.463320636112248274
0.454820058709851427
0.446564689841556506
0.43872712577746581
0.431438038612660113
0.424796595216764383
0.418877053631052598
0.413733270410262366
0.409403101289635474
0.405912934133752568
0.403281333729445857
0.401521847193848425
0.400643655641981511
0.488414580593533654
0.487253250998769705
0.483506273311940238
0.477920146142725155
0.471105335104908873
0.463554649570500299
0.455652051218211007
0.447696618238502597
0.439919572816137361
0.432498034786315488
0.425567640897977884
0.419232199862985877
0.41357013931960368
0.408639179318065371
0.404480742654048042
0.401124292822219009
0.398590785319163476
0.396895424290601651
0.396048061893202352
0.466275570784879523
0.473414908051479122
0.476303047655929956
0.475840747746754111
0.472841048531210062
0.468000302410280566
0.461898566159399282
0.455008166706841244
0.447704766869739645
0.440285520041697576
0.432982678234314744
0.425976387645849774
0.419406062797685275
0.413379237327768323
0.407977857313257586
0.403263068755610465
0.399279580223682706
0.396059732407037512
0.393626661770423936
0.391996743560043825
0.39117689216226037
0.510107038215949826
0.501605338653649424
0.492445319360127587
0.483043241367491605
0.473714066574284332
0.46469307581515068
0.456157416471938304
0.448240444176749686
0.441043213819666935
0.434641235947822724
0.429087912584824982
0.424419357572329847
0.420660175683416071
0.417827667082015575
0.415934667107030476
0.414990368699038825
0.502452413030075484
0.494616525698532705
0.486048601413506531
0.477168236562435788
0.468294069623396647
0.459666950874671298
0.451470086570997908
0.443842621381363489
0.436890438577869133
0.430693023948857556
0.425307615049828225
0.420773919671613039
0.417119442423588505
0.414363663349670341
0.412521067826501331
0.411601913690860077
0.494358707027921285
0.487186728115459766
0.47921826058085959
0.470871095744375079
0.462465450246048071
0.454246674503445524
0.446403048468458241
0.439078743470359412
0.432384170017321379
0.426402735969877988
0.421195320308155707
0.416804959264151342
0.413261930815413736
0.410587880991225285
0.408798905490322662
0.40790627438463678
0.485887656586702688
0.47936929816451096
0.471998623367749781
0.464188530794161613
0.456258827522747823
0.4484578713453784
0.440977878047923988
0.433967220920358054
0.427540318721641666
0.421784187840871239
0.41676307139113361
0.41252311159522953
0.40909725084909615
0.406509238956858754
0.404776676548718628
0.403911739894642186
0.483705056737575856
0.484023503549297573
0.481571182765762107
0.477095713868157523
0.471212402255279661
0.464431042148132966
0.457155760418817503
0.449704138804951636
0.442326017585684461
0.435216336789862934
0.428526788816332993
0.422375143852191159
0.416851569615773576
0.412023345851536271
0.407939505615110554
0.404635531564028206
0.402137165952996145
0.40046336028120938
0.399626955576873999
0.472802091875254404
0.473698312385948894
0.47187277715691639
0.468029187926697288
0.462759094778247615
0.456553602929950619
0.449805714107504917
0.442829842112714755
0.4358756828456683
0.429139657471532543
0.422775862930417801
0.416904694743744253
0.411618951097432018
0.406988595517167706
0.403065324872977693
0.399887006949808443
0.397481224094234142
0.395868126405645671
0.395060882014771575
0.447993382797863715
0.457024597129998211
0.461834574214682103
0.46323832718272151
0.461986768279661564
0.45873816250621835
0.454054779224086547
0.448405725078774076
0.442173107922511632
0.435666472538894622
0.42913360637511494
0.422771250286978872
0.416734962278731746
0.411147012707390902
0.406102291387407444
0.401673078208012069
0.397913481088548737
0.394863558293024719
0.392552536811865971
0.391001325785240661
0.390219882943908858
0.499859978555876994
0.493100567650895771
0.485423057425085014
0.477265485345602369
0.468970104050860537
0.460800751897558036
0.452962455366070826
0.44561350909908809
0.438875590282217953
0.432841251298822061
0.427578312048012665
0.423134681262640311
0.419544120619509187
0.41683105992758096
0.415014118085202555
0.414106891240516806
0.492726987497525692
0.486513350733326189
0.479334010834583713
0.471625633729833071
0.463729801947179499
0.455912263759527703
0.448380858648702141
0.441297086717622578
0.434785769451814907
0.428942198675893005
0.423836912583207048
0.419520571620447591
0.416029371884410915
0.413389621142139563
0.411621187638300301
0.410738257881409052
0.485157297403243482
0.479490558752336371
0.472817967410605278
0.465570461027702609
0.458087279068123021
0.450635279929455956
0.443424398747824522
0.436618761477121864
0.430345992607319427
0.424704011760977607
0.419765936685761398
0.415584970580070379
0.412199584760453597
0.409637881404559479
0.407920927221916252
0.407063496839922823
0.477206275213143183
0.472080531039986595
0.465915490790108189
0.459133832415603238
0.452071048079709992
0.444993919235357138
0.43811358868887379
0.43159614798720547
0.42557154170937167
0.420140019870173576
0.415377059407492977
0.411338220115937014
0.408064113370628756
0.40558452951859697
0.403921632797437924
0.403090737488453033
0.470789749315045525
0.472809264069214141
0.471951505451003339
0.46892540947421224
0.464327401428396347
0.458664666195229775
0.452348450226978394
0.445709144689451331
0.439012247472669259
0.432469148396600167
0.426247188303802926
0.42047805921019582
0.415263941714737683
0.410682401090481153
0.406791162970533027
0.403632835902850096
0.401238766522506785
0.399632085259336134
0.398828465871723159
0.46080114656548915
0.463243216454374662
0.462872545516100242
0.460357155344334912
0.456270849054869365
0.451100821533309548
0.445245063738327784
0.439028324136784054
0.432713526114537561
0.426511309831085872
0.420589524401984882
0.415080995372305639
0.41008939070745698
0.405694065657192793
0.40195470421117413
0.398915748617007071
0.396609949089106961
0.395061284985405103
0.394285507465352403
0.434022546469615467
0.444451469276183564
0.450696504769460493
0.453506036583657901
0.453581134965424682
0.451548263158370766
0.447953381618648894
0.443260963872036451
0.437856396164671535
0.432057509468838474
0.426123211741002483
0.42026247073234807
0.41464288016590195
0.40939777438681918
0.404631854320100404
0.400425948842947965
0.396841467677687076
0.393924496752816267
0.391709010440473238
0.39021943784931995
0.389468125085270789
0.492899504531966237
0.487307982222286828
0.4806294969262348
0.473314313546267906
0.465721236498430446
0.458132162406020838
0.450770247421841352
0.443810092904863396
0.437386889255640898
0.43160447568134569
0.426540406904011016
0.422250743908193282
0.418775679471161177
0.416144610136968573
0.414380065442325085
0.413498567560870944
0.486114836601960087
0.480990628530918174
0.474748302488284535
0.467833989411310047
0.460603203154241247
0.453337515592062701
0.44626079881340236
0.439549202906251213
0.43333999796012318
0.427738960959619108
0.422825609729420404
0.418658156799259829
0.415278870200303796
0.412718793149387142
0.411001429588242373
0.410143586682872263
0.478895960895836192
0.474241856889055291
0.468444891494343374
0.46194312508305202
0.455087399128598635
0.448158296092256381
0.441379870073609015
0.43492934209238604
0.42894566761057018
0.423536402137624834
0.418782930434864309
0.414745460537213673
0.411468171019955531
0.40898362694254986
0.407316246663033288
0.406483155683211028
0.471293979520009565
0.467106681042214311
0.461757284340577889
0.455673677909478714
0.449200932024507893
0.442617622758264884
0.436147256622088919
0.42996756426474636
0.424218718886332335
0.419009766160408359
0.414423777952138805
0.410522800754585415
0.407352776173803277
0.404947658496085661
0.403332686465611934
0.402525296990169923
0.462053455792773571
0.46520194181009622
0.465409287951821016
0.463357075264554052
0.45962645222617271
0.454721345360119988
0.449056642314590415
0.442970545647586811
0.436738602286903532
0.430582961901644856
0.424681253748492193
0.419174351469717321
0.414172431127474538
0.409760019458295488
0.40600082689800121
0.40294240363032735
0.400619950872624531
0.399059417165560204
0.398278412789192959
0.452672813522700723
0.456143279832190607
0.456746465155157155
0.455124903237757783
0.451838490412160676
0.447370492885209803
0.442121258946944762
0.436421816925915251
0.43054358713176627
0.424706516494333497
0.419087504752072959
0.413827589113296479
0.409037687026723107
0.404803517340330488
0.401190257922049875
0.398246898919638881
0.396009739717993248
0.394505349617582324
0.393751265773447934
0.424600442007847134
0.435948208677070626
0.443143747926102172
0.446890550407939735
0.447855369870398701
0.446641766138447693
0.443783242200025685
0.439740029722852366
0.434898847009780876
0.429582529026397542
0.424057120633401674
0.418539592604635247
0.413205469717381535
0.408195414002921697
0.4036206869880129
0.399567915248271621
0.396103523098533139
0.393277755463136647
0.391127845463106083
0.389680613674557974
0.38895007680922955
0.48938292231420838
0.484376445014589485
0.478200090121246812
0.471309384224045946
0.464071017539412489
0.456775686105262257
0.449655386134953483
0.442892667528913653
0.43662936969568833
0.430974929321372713
0.426011794322914361
0.421800232338145953
0.418383821840884074
0.415794548907735984
0.414056882880715016
0.413188701014450044
0.482772478679722117
0.47819478175839214
0.47242378433980331
0.46590976170928089
0.45901495344308535
0.452028653738609953
0.445182552565375256
0.438659959292067414
0.432604262899446756
0.427126420802622975
0.42231046578117537
0.418218523691371191
0.414896071624429097
0.412376621004882871
0.410685456814606886
0.409840569702000779
0.475729262742459635
0.471583760378628147
0.466227605026031555
0.46010199691187853
0.453563377902607867
0.446899046201312489
0.440339972942095814
0.434069791442803998
0.428233012112796685
0.422941939788083643
0.418282122618921726
0.414317411176945372
0.411095004630467553
0.408649787222468475
0.407007805472627826
0.406187234353199256
0.468302207129468628
0.464586770841538599
0.459648357251337791
0.453917105145785871
0.447742688376064568
0.441409481444250351
0.435147079854958652
0.429138923138849271
0.423530189604504115
0.418434257106031882
0.413938031220926705
0.410106938544545219
0.40698973833463864
0.404622540221236171
0.403032072153218512
0.402236718206633093
0.457651604858679562
0.461361863781772741
0.462101406371922707
0.460537999642540996
0.45724392182965129
0.452720874748459789
0.447385261563717607
0.44157899995891764
0.435582595931417016
0.429623519991728875
0.423884455440670882
0.418510768114693732
0.413616576991732599
0.409289931122300166
0.405597660235798074
0.402589918572852479
0.400303895927457909
0.398766909137749592
0.39799743836895568
0.448574015824778571
0.452556903322108683
0.453647349911940057
0.452474848013564357
0.449591291394571824
0.445477598364658445
0.440534931264604801
0.435097278221049433
0.429440266048298158
0.423788453081069882
0.418323193252687353
0.413189549735393513
0.408502025928874246
0.40434956681242562
0.40080020890633461
0.397905328683123116
0.39570305300441061
0.394221216974289634
0.393478167756396324
0.419861912895436229
0.431664322555659341
0.439332329881066797
0.443546694405198116
0.444957285038393546
0.444155607534839125
0.441668246792399577
0.437952934797764981
0.433396687064959429
0.428324699533672471
0.423006545452233262
0.417663162421305856
0.412473988381648338
0.407583292876053105
0.403105596565322299
0.399130468535466854
0.395726933778120071
0.392947409250003599
0.390830805103280166
0.389405120954180839
0.388685137857394891
0.650367615001929522
0.613668966858303744
0.581716435870356152
0.554018260691700459
0.530095557999924694
0.50951482214129129
0.491902805155841782
0.476941405057066559
0.464363034199137048
0.453949367466860487
0.445523765622420076
0.438944949286273534
0.434104918647981175
0.430922653487067597
0.429346225495849054
0.674756905843297727
0.635989407606698531
0.601731815451752583
0.571677401206036162
0.545458708093666256
0.522692526354143872
0.503020439278103804
0.486122536023275487
0.471722534270580807
0.459585352042262862
0.449515804439709954
0.441354638228980189
0.434974085005381261
0.430275904357249217
0.427185338683498061
0.425653864806833759
0.656848970633499896
0.621122907616063813
0.589269048015166885
0.561112809973891236
0.536389814361465822
0.514804131293669198
0.496066336739460045
0.479908731682566814
0.466094067812330204
0.454418723320114182
0.444710811007204221
0.43682861069328216
0.430657740558930191
0.426109628222971382
0.423115935517634378
0.42163186291496163
0.638715923574496691
0.605902934413461436
0.576391783727631557
0.550108627754089308
0.526878183801055444
0.506482456424292904
0.48869394975056335
0.473293943653022575
0.460082236666744526
0.448884749808393935
0.43955256432971046
0.431961219483766312
0.426009447141471986
0.421618208200974398
0.418725686338403902
0.417291002739337114
0.724297117854691308
0.688018493095332584
0.653156563092759934
0.62049412426319106
0.590449532096481655
0.563197657011224928
0.53874274157505686
0.51698622370783287
0.497777279030583997
0.480943439295947295
0.466310311425015334
0.453713175438362537
0.443005202600302128
0.43405949066676025
0.426768316369926182
0.421043118190524368
0.41681420349909315
0.414026341527095942
0.412642579016286482
0.69515875845901165
0.663047149035345784
0.631837904493585567
0.602293638645919005
0.574862058443655566
0.549770460583805298
0.5270851756063899
0.506771392694479905
0.48873537420989116
0.472852945920410939
0.458989380659990176
0.447012892241136051
0.43680190988380363
0.428250135885454131
0.421265924060687358
0.415772909442931438
0.411710505419957185
0.40903013190381643
0.40769828924578011
0.721130582908966922
0.695009969288091556
0.667137969587613067
0.638750260567191086
0.610867067361582028
0.584206483983804703
0.559224975004732783
0.536184220113545384
0.515199265222128222
0.496286760873928534
0.4794004239303708
0.464457370917558288
0.451358823173429236
0.440003006853205536
0.430292280553339956
0.42213895276571517
0.415466282898421635
0.410209475069751917
0.406316745067980767
0.403746001324282011
0.402467147431250338
0.64710184223043099
0.611002543401796716
0.579543443673527947
0.552249870888230299
0.528656384106506283
0.508342731547972493
0.490946009755585389
0.476156237860649201
0.463713833192034131
0.4534066396390104
0.445062695072755421
0.438544532855282054
0.433746513571152847
0.430592232050316881
0.42903306082322179
0.670964565395648527
0.632875869191602103
0.599182085737195336
0.569594066258517162
0.54375898459601224
0.521305887853323879
0.501887831788082717
0.485195725644927578
0.470960568041611127
0.458954118913235842
0.448987123667619448
0.440904869204549799
0.434583124415442834
0.429925666774272242
0.426862114679624982
0.42534728638580882
0.653256245060993668
0.618164256330252737
0.586839260499906645
0.559122185340134692
0.534761386750294831
0.513472280863040309
0.494975735244972459
0.47901379807811223
0.465356720407039293
0.453806663584482017
0.444197246187174544
0.436391064782078175
0.430276990694430816
0.425768182732798262
0.422800455466795178
0.421332391925160921
0.635324075128942733
0.603101216029604426
0.574084592419270012
0.548213238225077948
0.525323364640191581
0.505207444878734591
0.487647319926655498
0.472432582854247385
0.459370759634874337
0.448292978087339533
0.439055138390217814
0.431536801996481867
0.425639661212757814
0.421286163752724652
0.418418451672965319
0.416999095167565448
0.718820304959408962
0.683423569909980544
0.649319522188469889
0.617303830012459476
0.587806595415260702
0.561015102253450082
0.536944711535124353
0.515507194105590316
0.496561100074198958
0.479942369850710815
0.46548416069900489
0.453028856197722818
0.442434835002997295
0.433579241213265687
0.426357960266593672
0.420685091766880181
0.416492220267238145
0.413727893431709681
0.412358692297425833
0.69007190814943109
0.658766841873254849
0.628252351547295196
0.599303479801817862
0.572377963932169997
0.547713429698694965
0.525385989692175093
0.505369948474682751
0.487579694050602863
0.471898692157137867
0.458199503852353029
0.446356558015698901
0.436253622688865028
0.427787733464087494
0.420870263249888354
0.415427208023382732
0.411399074126651554
0.408740844291740346
0.407422962822397039
0.714586700285550602
0.689450231884775055
0.662430320860827759
0.634778860548892432
0.607532114122892208
0.58141909887162524
0.556904008925301897
0.534257789478425282
0.513604415692755611
0.494968360835330468
0.478310651216430571
0.463555849649500806
0.450611627155785954
0.43938150363922629
0.429772649632010506
0.421700535787967956
0.415091045430974803
0.409881478233338092
0.406020953536273155
0.403470521842570262
0.40220105527791794
0.68034612642602954
0.640623824124201935
0.605728793462452675
0.575256639613754395
0.54876794915727467
0.525826779554668056
0.506039545042763383
0.489065789890327063
0.474613908227987547
0.46243944274151344
0.452341975074436353
0.444159022956233052
0.437761310238818147
0.433049576684390702
0.429951876484696349
0.428421311535336913
0.66342311325591885
0.626702477517574685
0.594140561658018096
0.56548500963410242
0.540411935621631812
0.518578657878760119
0.499662551362124896
0.483374997778471815
0.469463953893166974
0.457715067101971185
0.447950215618656333
0.44002370119000489
0.433818768453543946
0.429244886778481882
0.426235878980613603
0.424748467507666982
0.646118812581747859
0.612301198072384811
0.582037560820548028
0.555196477030657221
0.531554171438006318
0.510851909882418465
0.492832255742591818
0.477255794240980968
0.463908484464227222
0.452605237485771139
0.443190066798949234
0.435534007845643334
0.429532755579756398
0.425104597804889239
0.422189315332326287
0.420747498981682178
0.628591809891052455
0.597553755843142298
0.569526288614626952
0.544474213765608117
0.522259580841258786
0.502697304656165023
0.485588641863058057
0.470739957550246835
0.457973163754614387
0.447131152667917531
0.438079400827267318
0.430705273226109686
0.424916679120112883
0.420640717417792687
0.417823277980067131
0.416428998757539304
0.707867095375704913
0.674264408995821629
0.64169153548535518
0.610974952174634267
0.582573724987985986
0.556700221335651335
0.53339405030676712
0.512589051530554229
0.494163492796726112
0.47797071477006825
0.463859012398956938
0.451683797904866013
0.441314303654707918
0.432636424580485068
0.425553193372192939
0.419984366159049105
0.415865766686430327
0.413149478883995724
0.411804162910754556
0.679912249769886956
0.650240367017234977
0.621125813316093067
0.593369852252926377
0.567454553465200018
0.543640174465797599
0.522023588722835941
0.502598195431555039
0.485295864694925749
0.47001554509980481
0.456643392359355749
0.445065580539341532
0.435175796959991201
0.426879076733527318
0.420093297215077321
0.414749600945945596
0.410792371289493641
0.408179901159169634
0.406884648000864768
0.70151137150453835
0.678338100019931556
0.653028322505878056
0.626860166013306408
0.600889941285962847
0.575869251663121307
0.552283316158752591
0.530422424486783006
0.510428386087805275
0.492342363321996768
0.476140675007190817
0.461761734111086508
0.449125380176337019
0.43814563398180828
0.428738599874780357
0.420827049698981492
0.414342788014221475
0.409227810300325789
0.40543478787567655
0.402927825646890447
0.40167950949942105
0.668806818091395416
0.631218494661821783
0.598079075645112979
0.569042724863652705
0.543721960104150415
0.521726582221316515
0.502702334052470001
0.486341141533801702
0.47237838610404842
0.460591740547444672
0.450798073881727657
0.442848866687598541
0.436626622283333155
0.432041031024065658
0.42902558229829818
0.427535648196107509
0.652475006191968854
0.617746768618949837
0.586832172393779716
0.559529628062052753
0.535561605382340877
0.514626840988739231
0.496438133903262524
0.480736484300264999
0.467294657439163708
0.455918709295655478
0.446446793149574583
0.438746360465941454
0.432711418136307591
0.428259536947768749
0.425329739929672046
0.423881267507589365
0.635767629275681978
0.603803107819244844
0.575078612031399206
0.549507176284703913
0.526906476427030257
0.507054629615115382
0.489725925464960243
0.474707864883716746
0.461809112758065687
0.450863349484874609
0.441729749721002984
0.434291597596170809