/*--------------------------------*- C++ -*----------------------------------*\
| =========                 |                                                 |
| \\      /  F ield         | OpenFOAM: The Open Source CFD Toolbox           |
|  \\    /   O peration     | Version:  2206                                  |
|   \\  /    A nd           | Website:  www.openfoam.com                      |
|    \\/     M anipulation  |                                                 |
\*---------------------------------------------------------------------------*/
FoamFile
{
    version     2.0;
    format      ascii;
    arch        "LSB;label=32;scalar=64";
    class       volVectorField;
    location    "0.510000000000000231";
    object      U;
}
// * * * * * * * * * * * * * * * * * * * * * * * * * * * * * * * * * * * * * //

dimensions      [0 1 -1 0 0 0 0];

internalField   nonuniform List<vector> 
7248
(
(0.0102031607730375118 -0.420849249920763335 -0.507548596356034665)
(0.209090983359651067 0.0745711102926561176 -0.521570376844141759)
(-0.0879686639114156399 -0.860846550240212838 -0.224009636503317816)
(0.261700853587718552 -0.434562886200792309 -0.319211691066655534)
(-0.0103799507410052075 -0.451393025887031119 0.0168532724768319236)
(0.401042470493584435 -0.70588136921749578 -0.41422989465072757)
(0.143586819610136834 -0.325018333696136197 -0.192997423117722111)
(0.235287174713587593 -0.279583675899466644 -0.1816573918935874)
(0.0792671950074656656 -1.01593035044296731 -0.353805189090814154)
(0.21880381237086835 -0.158380383512329442 0.263164267342325897)
(0.243453932961399055 -0.204832660924214233 0.031335394552405485)
(-0.00629519877275660361 -0.0611367500836115865 -0.0239883936085683383)
(0.340677681811112743 -0.573365864746349763 -0.0377021437298586948)
(0.395967025146303109 -0.843185636802971761 -0.257038444246832976)
(0.50191390935605229 0.0108158404785661383 0.38691179717859836)
(0.502723431608505855 -0.201677643040497179 0.311376669770555947)
(0.575487652062405264 -0.522273799144831297 0.226143395368982092)
(0.667567255838904305 -0.729608875763689491 0.0904780731909945041)
(0.65598046610774019 -0.586592462777306034 -0.0407943081808208735)
(0.433433382425035985 -0.0389979245988844939 0.413913397821706386)
(0.545089205267843657 -0.144410911843038919 0.382271079323440399)
(0.631282033158558908 -0.27039563104923009 0.242683177896579422)
(0.66051321290072762 -0.39996206755560082 0.0825432974797926378)
(0.622176931867756244 -0.502957897181995017 -0.040262751933531564)
(0.356172752756734878 -0.190024531177104106 0.290326171130956601)
(0.498960429563336805 -0.237912177203110059 0.2447578076684572)
(0.587687899487478127 -0.352360276118459159 0.160475035019573553)
(0.633665366815230113 -0.465561504812842752 0.104175268994612394)
(0.660825852371112687 -0.526782884287568032 0.0759076006609979564)
(0.338450941302071318 -0.29046673641688503 0.151598851570521664)
(0.427141313391089572 -0.346767723885413381 0.142089414717501417)
(0.490997133412415743 -0.429461049900814629 0.118090405026952769)
(0.530791979155239679 -0.512294728571144775 0.0963414704014322609)
(0.56028988698048432 -0.58603516026467295 0.0712092152242667781)
(0.293937689562403126 -0.351213763553704761 0.0891854960253112283)
(0.349800639873462549 -0.395294637101642032 0.0917425113219351718)
(0.395342427464201007 -0.459874963303747109 0.0885554843866478841)
(0.432277632600543138 -0.536114677768562586 0.0844527711224200839)
(0.452012608293259621 -0.614990086074216347 0.0767829194097222612)
(0.245825302475031815 -0.400845977025440448 0.0652127153792652209)
(0.284667116705622503 -0.440959411127545442 0.0708159187752921138)
(0.316917823906519291 -0.493625512982289461 0.0744483056065167598)
(0.344936154575502196 -0.555717909430321289 0.0768192944964027485)
(0.348261583221930404 -0.628222286308666167 0.0753824706227878838)
(0.202489988534703208 -0.436617019579209009 0.0504350976758262612)
(0.229742951779137061 -0.470562058845177433 0.0556849618843111849)
(0.252630788130427164 -0.512383962091187972 0.060907228445839845)
(0.269850722877918892 -0.560513545670833002 0.0659056215688500896)
(0.270082930894169237 -0.617758112430330075 0.0709876291290863215)
(0.162149562280800713 -0.463272012096445307 0.0396388391964923661)
(0.181881983198109304 -0.493100298641180046 0.0445625761359842235)
(0.199568609683803549 -0.527277209642653677 0.0497855689359783249)
(0.213005331769625994 -0.564906110868373723 0.0553676445176504786)
(0.218296830142912762 -0.605575479946684481 0.0609415632829107129)
(0.0949493706259088022 -0.436895997760154975 0.0233879655146158501)
(0.109320151416352554 -0.457867115237185318 0.0267168901036430387)
(0.124170518978513222 -0.48237864367779143 0.0306412099731572275)
(0.139088585126281278 -0.510350012937265229 0.0351907524636691227)
(0.153581548757719982 -0.541216118225494425 0.0404184846284574226)
(0.167275867235820552 -0.574065579518032831 0.0463483233851222989)
(0.180118135029014137 -0.607780177660447007 0.0526167453614392877)
(0.0675607756346644356 -0.450640958960128568 0.0166202241892071147)
(0.0774651408429480048 -0.471987850868393954 0.0190693113725295613)
(0.087813879302419906 -0.496383683526435915 0.0220968326901310359)
(0.0985747064591605826 -0.523884902306548939 0.0259176831180298016)
(0.109764257347255825 -0.55429825340310579 0.0307856347034916773)
(0.1217851871189468 -0.587197587674095467 0.0370463713935773528)
(0.135973127589756271 -0.622077084506770572 0.0454541191770834879)
(0.0404722766895783403 -0.459872347620752187 0.00979811784161126881)
(0.0462660437462734733 -0.481394791906115616 0.0113261687514685724)
(0.0523824741876416783 -0.505943598966815844 0.0132953725723370091)
(0.0588911930887550394 -0.533615166361929738 0.0158640658116700299)
(0.0659119528771025115 -0.564499174725225816 0.0192767351319154852)
(0.073851627910126616 -0.598712241699751901 0.0238982969182496771)
(0.0836106951151625172 -0.636355344959868341 0.0302578578422138256)
(0.0135039712567384708 -0.464996574916348493 0.00325538744391970156)
(0.0154356672938380478 -0.48656938735388211 0.00377145675777349615)
(0.0174686871243098993 -0.511147136594332085 0.00444603933062225065)
(0.0196267077430954048 -0.538861782894500818 0.00533721280891518227)
(0.0219558707734025318 -0.56990770359516052 0.00652859803787291144)
(0.0245830176500726125 -0.604586584434613661 0.00814880766315553666)
(0.0277135121998365597 -0.643510816122443541 0.010436725234329083)
(0.0810487485045831429 -0.124931928140221277 -0.428381472002741459)
(0.202894613992233769 0.186893423294491184 -0.429232860128573424)
(-0.279559726356791882 -1.23917705223036423 -0.12369317909316796)
(0.274667338963705432 -0.32245399118028073 -0.305069410793883944)
(0.423158106657486599 -0.734651591491045641 -0.100493592365646423)
(0.477939939706403083 -0.951223160196810635 -0.25384983728323629)
(-0.134725841668694918 -0.261941751166445913 -0.30263832758815451)
(0.0296154234302392801 -0.364021386372994193 -0.205255970753143252)
(0.129301713534426682 -0.728568821448250747 -0.351485871279571094)
(0.299558729497697185 -0.508316690988901754 0.139221598851168749)
(0.166938885606011389 -0.524282225164538263 -0.00770790597327478122)
(0.158118029848326236 -0.107553055093797451 0.0123994563288706283)
(0.596883576522707515 -0.791418746232919856 0.00553276239404924819)
(0.242159634514452271 -1.15022187383292263 -0.168539721895378136)
(0.492496797157667365 -0.23427324767898855 0.318417901630586031)
(0.510982816903689741 -0.31320661261523608 0.249689668031038925)
(0.585580706008795415 -0.457340123560836087 0.113195574362227658)
(0.726558757209210815 -0.610451034772881207 0.00667357113749061232)
(0.751975044961602168 -0.534571564434553337 -0.0443106090358378751)
(0.401662130647407078 -0.30311564603475305 0.327029756740755961)
(0.532864815823761773 -0.339268859684643653 0.270035297354308146)
(0.610952471720293766 -0.3781475940446547 0.161446694452215489)
(0.667625609529712838 -0.477951275299750955 0.0498524709715808048)
(0.590910700894865526 -0.565683255277754427 -0.0579569343809660104)
(0.360393355258408266 -0.29919658071676547 0.224562234559190582)
(0.474620627803752138 -0.342560087399728153 0.195957737489982853)
(0.561163972237690767 -0.406382191255234226 0.139518528648655382)
(0.614730280496537329 -0.475871523903798332 0.0954719447378840347)
(0.663927126200308582 -0.508654616349987765 0.0649495538561040142)
(0.336493622837183759 -0.319785846094872706 0.116046193027732059)
(0.412389649083757248 -0.373190494081231117 0.113088820077770144)
(0.472223858344645309 -0.438335216746192691 0.0966902353830208922)
(0.51448743111446904 -0.514538441894566323 0.0801598496720141857)
(0.550464092807091299 -0.590717962622301473 0.0600573885834265048)
(0.300300944605951248 -0.371494485844262534 0.0742853155216797595)
(0.350380259877000999 -0.415878291112253162 0.0781057381112851279)
(0.393778375239019429 -0.472375692328972085 0.0762208512730911253)
(0.430067945760166659 -0.541708772639429514 0.0733453075756024392)
(0.451550847250691334 -0.612989104390695094 0.0645735262543616351)
(0.253400910051189032 -0.412822464244378351 0.057198188803303171)
(0.288752282561999363 -0.45113597404635708 0.0624286642357889665)
(0.319500877010709672 -0.500682506382828851 0.0656722590191458899)
(0.347294368244821572 -0.560262622692354051 0.0679466684407631777)
(0.353838623589881385 -0.628612024923078216 0.0658272968875162484)
(0.206838967750295699 -0.444429047096497498 0.0458165006906801967)
(0.233716843261745494 -0.478314251666390633 0.0503053875744543452)
(0.256718737302789157 -0.519425549709678247 0.0547445027974849327)
(0.275122410636511994 -0.566806258978542532 0.0594037751208859252)
(0.278354148270438195 -0.622992067809554295 0.0640781410725868167)
(0.165900351997639195 -0.469250461268932828 0.0362948326563544837)
(0.185921285269435632 -0.499443048921827837 0.0405616969524812895)
(0.203871670443623726 -0.533489955381175052 0.0451554402785721357)
(0.217938140579168299 -0.570926452932480677 0.0501660682608421615)
(0.224123114219144964 -0.612338295984999004 0.0555668039751134532)
(0.127667818317218296 -0.487877519304002916 0.0281607328495375661)
(0.143051571996520854 -0.516041008145873947 0.0321418671075247575)
(0.158144401205847385 -0.546922110077778356 0.0367329925136405527)
(0.17236030182382947 -0.579444885332576431 0.0419962157372683678)
(0.184474809957206665 -0.612818619028830724 0.047973556529141391)
(0.0906318890618090928 -0.501701110666296968 0.0203398884660564577)
(0.102167697589565717 -0.529798170046509531 0.0237315982817191268)
(0.114430668678571157 -0.560741115167620152 0.0280421425768057654)
(0.127902010760401363 -0.593976542635001659 0.0336854998006808556)
(0.143919590346822918 -0.628695772093696426 0.0412597218740096625)
(0.0543008457372580675 -0.511500851940623336 0.0122294788460752847)
(0.0614111868932759042 -0.540079324454333043 0.0145104103948015487)
(0.0693228130813582782 -0.572098769494342241 0.0175391857445552773)
(0.07858464946667372 -0.60774176136688729 0.0217172828615737924)
(0.0905778253765885527 -0.647127214044415644 0.027561592739410265)
(0.018130911079861485 -0.51681243536974808 0.0040808007328502682)
(0.0205043635204370384 -0.545614281227280951 0.00486516998197180847)
(0.0231516763968199236 -0.578086157245651933 0.00591794041098523023)
(0.0262381706631364085 -0.614697781588930736 0.00736936114744465159)
(0.030091474658552074 -0.65627515332425912 0.00945158791346523142)
(0.10907877097003657 0.00553546572789252733 -0.343593656308690931)
(0.192127703115788168 0.258081087934239284 -0.3570435557481898)
(-0.255614044122417727 -0.951510666153821072 -0.151054819416174185)
(0.279663619754580872 -0.249462200529486783 -0.260864902012317157)
(0.705062687888259099 -0.92759420964691186 0.0486758928828050219)
(0.707759235521725594 -1.04075553826986633 -0.0419880910628338544)
(-0.110741963251475492 -0.319956816656345955 -0.193746515515607065)
(-0.0958750791057728646 -0.335841367135156332 -0.194851789236674705)
(0.146824983787645719 -0.446419194589321333 -0.168899518918487174)
(0.373244747968651369 -0.80487068299772635 -0.00835233906972339402)
(0.419119473763202022 -0.712917527012158159 -0.210466174028849567)
(0.632860992264625999 -0.180888146092053947 -0.286553293012048516)
(0.596708533468133129 -0.67493334897167534 -0.259001918979440804)
(0.0823654536721413477 -1.35531389286314274 -0.087097617879578329)
(0.437101568751436798 -0.370997819286341624 0.207595887507518784)
(0.490453739112274578 -0.418349404878806286 0.100124688840624199)
(0.628719521651926794 -0.453355687720816525 -0.0369690333863434278)
(0.806599311555830867 -0.566677828423435725 -0.0440948429858042321)
(1.01197486074419474 -0.514724993208309334 -0.0774259890267459394)
(0.366567823594511122 -0.391973819169670112 0.189349488433865454)
(0.487342785015593694 -0.426517403321529875 0.160967996122861001)
(0.580990249047093732 -0.43371476332194292 0.103368018373355297)
(0.62986314134165311 -0.482688696727292921 0.045985120349754674)
(0.625248774517956907 -0.560397699307287334 -0.0379252361274654073)
(0.364969465248156988 -0.302789031452545709 0.10800749554561144)
(0.45296383167940002 -0.362257291771420631 0.108828816310415244)
(0.526623711896595292 -0.415301826426064891 0.0851828058179335823)
(0.593067726819953678 -0.476173631405422071 0.0645903766710727301)
(0.631170314796764553 -0.507054656475434351 0.0374147356401865819)
(0.346166823471635243 -0.332522883992590002 0.0637852901427572588)
(0.409432766087639233 -0.388135801421348015 0.074118647248452782)
(0.465261269442062808 -0.446214590023745472 0.0700761446710965047)
(0.50607352788921367 -0.51569630597421745 0.0626648579675274653)
(0.545197406338940649 -0.586672127416478895 0.0492393337756357186)
(0.306753839684206886 -0.383469297468200077 0.0614849071551494125)
(0.351625251910859526 -0.426988913553829397 0.0641398900303701835)
(0.392702373605472943 -0.478527747103418111 0.0631666881391117901)
(0.427923326396323189 -0.54236730714032344 0.0622759525610969214)
(0.450229073793149304 -0.610616045145003672 0.0552989641440132518)
(0.257340434703449694 -0.421918122098868642 0.0501432261007169894)
(0.291390873835158215 -0.459178655088251508 0.0533346885450520641)
(0.322044185415357731 -0.505636767834521828 0.0559035956766792755)
(0.349268515224832321 -0.562677773390305336 0.0591641228187312074)
(0.359044736431413158 -0.62833824292368845 0.0583861332134186645)
(0.210618043520461262 -0.451113325753492223 0.0397440837382276937)
(0.237247984523178496 -0.484833466039111205 0.0437272727230295713)
(0.260558223852165038 -0.524903816531141487 0.0477858197589636352)
(0.279839757809573153 -0.571478864440119638 0.0524127121089401279)
(0.28608944581197826 -0.625937862543726631 0.0566586173769114063)
(0.169242834819371329 -0.474537769052169489 0.0320728524346422655)
(0.189479203919509315 -0.504823504761923503 0.0357623708431880627)
(0.207750588258290958 -0.538784731423360586 0.0398569030721844936)
(0.222751557128506916 -0.575643063471221517 0.0444327579683095261)
(0.22983288606636354 -0.616608393656824738 0.0498907361645430439)
(0.130670847602214008 -0.492623123893417281 0.0250448297366591549)
(0.146567295447818713 -0.520974594879947239 0.0284649270834336637)
(0.162279168116528566 -0.551861810310787515 0.0325147294739791398)
(0.177264342476747022 -0.58418806746342733 0.0373371600553937602)
(0.18944801863672775 -0.617180721417117217 0.0432791340155053231)
(0.0931562392170905834 -0.506469392085568848 0.0180584098022813951)
(0.105391636737337369 -0.535022801629458256 0.0210267829710830655)
(0.11864055350389198 -0.566382293452899921 0.0248288741442386947)
(0.133504040689697456 -0.599909748046188906 0.0298831543534092969)
(0.151530175020901603 -0.634738822479984921 0.0368335590828399451)
(0.0559861983960819251 -0.516487728267380208 0.0108707385198758676)
(0.0636490462259511336 -0.545848535755760089 0.012848365014912223)
(0.0723807563604186993 -0.578849937684996929 0.0155051318575223276)
(0.0829188123162684781 -0.615734730404754016 0.0192235709700615126)
(0.0970641003978493511 -0.656615053280694361 0.0245697581831749515)
(0.0187117951987550296 -0.52193189786245564 0.00361616838399387956)
(0.0212838478017843349 -0.551665468522761993 0.00429156288765231327)
(0.0242235284618790812 -0.585385943144935528 0.00520985563432178715)
(0.0277565537041305835 -0.623707406606590298 0.006499641642246143)
(0.0323340619618046471 -0.667688247722902362 0.00840304626367563423)
(0.138097892442019921 0.0980197371141678375 -0.272977852421158795)
(0.192110261286423528 0.292196721041376284 -0.270471136455704086)
(-0.0228977705367863285 -0.814386692315965277 -0.00165653727055967842)
(0.269584163387560638 -0.175388926806562068 -0.195405974955946526)
(1.08445092455409942 -0.555883759552977863 0.0488979751564323425)
(1.29331381509567156 -0.763271893526657697 -0.00539539294777194312)
(1.21939529851626927 -0.714759382012332578 0.0987933290835734806)
(-0.0351412721209531168 -0.0777327902315132491 -0.0427467545419485256)
(0.205176238674034117 -0.310421453453011309 -0.0854242783579111792)
(0.451554551769358881 -0.524515511264395329 -0.230933780550720197)
(0.523586332415803657 -0.245322030467581303 -0.397210924961546641)
(0.425971933164987382 0.2062454450674302 -0.262563177676160164)
(0.217730800799993685 0.346972783431995668 -0.184555281185381947)
(0.0554306828080391445 -0.737036565273369915 -0.0243766596766971481)
(0.348213227808664261 -0.293048106135837372 -0.0679792071210754828)
(0.428884578653783488 -0.375962611209139486 -0.14915553601367168)
(0.558301244023782339 -0.332842314206916123 -0.162074353772474616)
(0.641388079392308241 -0.324852976707051266 -0.0774570393688359393)
(1.06280220768359634 -0.564997676893026046 0.0215467026994465641)
(0.363550037152783556 -0.28174807871910218 0.0406973652482039983)
(0.457648640523754535 -0.341816164227501385 0.0445033218722847568)
(0.559709207262609754 -0.352248175670517083 0.0326688316621796121)
(0.575140375047617169 -0.414449957000327163 -0.011601026804216593)
(0.659868287344260396 -0.485981727055261103 -0.00234874347185878981)
(0.385186524532150465 -0.260367755788812605 0.0292933584578884167)
(0.457294016761597644 -0.337465532670109647 0.0423112685054734747)
(0.528490915425886443 -0.387221893778250781 0.0422078051585701997)
(0.580811138667040927 -0.461330428776177359 0.0542336368535599467)
(0.657494402621040419 -0.480548299284902336 0.0469329914518252164)
(0.361585489886364242 -0.345323561561677317 0.0470057967451706152)
(0.413520789360261376 -0.39320749552708617 0.0506489010179882113)
(0.463679090501622815 -0.444805939740384071 0.0500413111902607566)
(0.504096308826558981 -0.512985739382805117 0.0477685886808782434)
(0.534287104331459095 -0.578110362105693665 0.0369903915061753838)
(0.309811038142746464 -0.391146038276291241 0.0495603841937974077)
(0.3511766586718581 -0.431824619391798781 0.0508726637470684334)
(0.392250079892377534 -0.479668329225268419 0.0504521267800645684)
(0.425070423528437824 -0.542126733379439951 0.052440156633936294)
(0.451871779365204451 -0.602126155150257802 0.0492746794968284899)
(0.259431670670065506 -0.426526834376350694 0.0410692920240113488)
(0.293365899178497536 -0.464162376736544702 0.0436121942921600877)
(0.324905885787700632 -0.509148974543936039 0.0460503430997010257)
(0.35164510410743921 -0.5646960473485515 0.050803283088207897)
(0.366999714224135298 -0.624444348466438814 0.0519641138538764202)
(0.213780338525507901 -0.45608296472307347 0.0332188840536464802)
(0.240610394342012562 -0.489794817579603636 0.0365625010675137696)
(0.264311851545635745 -0.529286058865591214 0.0402410345538776332)
(0.284310347485437709 -0.575582920163627221 0.0447199596225629284)
(0.29474845391029697 -0.627015547103633053 0.0489737279029907879)
(0.172151673989285381 -0.479021266255262756 0.0271734301876106546)
(0.192610750745156489 -0.509179334754374269 0.0302501497668361888)
(0.211298128368359039 -0.543055413375511442 0.0337713113422184741)
(0.227344731696445174 -0.579960011627253191 0.0377893782528632705)
(0.23597996972313165 -0.620417887495208542 0.0430012601251323484)
(0.133112877228540954 -0.496539518731492324 0.0213456524119881308)
(0.149576244137875014 -0.525094280492642507 0.0241916526613875082)
(0.165978400311405594 -0.556008057540207212 0.0276235345849312787)
(0.181936329330226132 -0.588187925765520592 0.0318612765216651911)
(0.194886549292082156 -0.620984744109430831 0.0371921765430255832)
(0.0953292297060851501 -0.510595282026462982 0.0153985964219829265)
(0.108182207660203727 -0.539487391955011608 0.0178769998350517025)
(0.122345942505090038 -0.571169952560723226 0.021114063945019107)
(0.138610299902804185 -0.604934820876656398 0.0254982772930865478)
(0.158401003422918935 -0.639802940497594674 0.0316556148474063312)
(0.0574120308622318512 -0.520801226091106573 0.00926477037871110444)
(0.0655796595007921146 -0.55081548846275119 0.0109171583803946651)
(0.0750725909837479666 -0.584647326631810738 0.0131756884309879741)
(0.0868058459125783388 -0.622570066953166856 0.0164160203830398151)
(0.102991468607831205 -0.664801955232612207 0.0212013676807778877)
(0.01920552461687694 -0.526377038813837461 0.00307208255568528887)
(0.0219537853060589802 -0.556900001735303296 0.00363411255784345209)
(0.0251586415222398996 -0.59169688897381667 0.00440542145508468486)
(0.029124465181797593 -0.631510170602183396 0.00551380610427544028)
(0.0344730099356425623 -0.677529211919966401 0.00720383794318179074)
(0.145438980939461893 0.135313824103518443 -0.207726045489984829)
(0.190603636380205416 0.308938355483692695 -0.208683085690875986)
(-0.0088128375912904771 -0.786197382448310611 0.238247436608819252)
(0.246027749494591247 -0.0952328501907574732 -0.112367841098056934)
(0.687657686763172737 -0.223168630402431123 -0.0640742006116317153)
(0.840511226870155892 -0.55046906991394684 -0.23215274245260209)
(1.06677065732567433 -0.64733922086568163 0.0509814096316931198)
(0.0627760426874077321 -0.151414344984113158 -0.036238545068357525)
(0.21039758129996286 -0.332127175310569955 -0.0964382090244263745)
(0.547991781062671546 -0.0911448352083444741 -0.231949378354828151)
(0.539127172004758459 -0.187530246760958808 -0.358349800895125303)
(0.0940385464284179268 0.139674460511423126 -0.271192515324664596)
(0.173883945484117952 0.250361442770840992 -0.129824716612973512)
(0.116475294877135621 -0.551671652979086602 0.0468054664808513904)
(0.3971284679365783 -0.103299751569900122 -0.132803944611171953)
(0.53976926858249441 -0.215817699930978213 -0.0926287194636120637)
(0.437119652365516032 -0.124906417144278636 -0.137812098095269897)
(0.741340404688620169 -0.372521764280435264 -0.133978077556679148)
(1.05498848849556714 -0.703067460051643001 -0.0809023513651606074)
(0.40359036920294511 -0.18466360058951925 -0.0108883685898627583)
(0.474691968246626794 -0.252697038614038694 0.00324934653312989978)
(0.566441706460994898 -0.35677490844316051 0.0447166102696350612)
(0.514141049857116172 -0.509507685876938288 0.0280975760852874602)
(0.594674758288121996 -0.650019927880657877 0.0421423265602551139)
(0.405693519002274239 -0.280288959368584001 0.0321181267491572192)
(0.467019021719309757 -0.328928630110771836 0.0333147655886082278)
(0.541473360427354278 -0.361600498272400595 0.0408746615546476191)
(0.602959195127339198 -0.429902616510776991 0.048181624420056253)
(0.705242813296514615 -0.468053649353467716 0.0516560382944533658)
(0.360785253756765623 -0.35418653131218264 0.0449362121444690649)
(0.408667328436819244 -0.394451595675501643 0.0414729163818208513)
(0.458306539574931893 -0.442815260475023564 0.0399805073263342567)
(0.497551467334574893 -0.517950560032736318 0.0438761024081595064)
(0.531104570728895387 -0.577697352255838514 0.0378564159392911492)
(0.309922292320918391 -0.394722361571266833 0.0384165439267222728)
(0.350431582570471523 -0.434320357587991646 0.0388213555319522896)
(0.393550931437984031 -0.480606055640971919 0.0396731064104295025)
(0.424399177852748444 -0.543489150207659422 0.0430887066443694303)
(0.456589838832329065 -0.59298681594305902 0.0436660201102238854)
(0.261359098685697289 -0.43036648428571167 0.0317398534194305165)
(0.295546924137126354 -0.467753919210100177 0.0341577099700737588)
(0.328420221813196411 -0.511670735760428763 0.0369771461380747624)
(0.353647890103169549 -0.567681144981117436 0.0423899746762350232)
(0.375961520999073096 -0.620386189193802506 0.0476280191596842178)
(0.216408676290220814 -0.459921171348139313 0.0265331285622446775)
(0.243448571284883647 -0.493515680391767797 0.0291307946961765415)
(0.267578885891929075 -0.532835798933486982 0.0324608114130779668)
(0.287808847524366251 -0.579457438898530519 0.0369308229333222132)
(0.301443766533865232 -0.629269594746448058 0.0432414871576450449)
(0.174399059957976416 -0.482318714963104689 0.0217487902514956338)
(0.195224340555327169 -0.512482056126174923 0.0242030532514470771)
(0.214232930865582261 -0.546438675253228756 0.0271099199323297929)
(0.230736339200787038 -0.583603039662751177 0.0306132580110994243)
(0.239794026552278244 -0.625277448870792951 0.0354368468351879823)
(0.135126410691614796 -0.499737756937734701 0.0171055561270341307)
(0.152067031857622714 -0.528392114320621831 0.0193601212286302962)
(0.169070383007512953 -0.559282191952672258 0.0220869253288969274)
(0.185727029442452257 -0.59137743350337546 0.0254503018653843976)
(0.198899957994304877 -0.623879921989426545 0.0293771848608411941)
(0.0970859668525281827 -0.513916420479136216 0.0123909910671101998)
(0.110488670811250966 -0.543099158603744359 0.0143461406882467672)
(0.125495403180798826 -0.575046757787788354 0.0169221900928420259)
(0.142985331516867015 -0.608886395481588849 0.0204012079822569331)
(0.164101696632147714 -0.643417915475369195 0.0252297700570382998)
(0.0585733810722837561 -0.524359582902896526 0.00743806743970845327)
(0.0671789602572069044 -0.554896762984588232 0.00874782071321995348)
(0.0773656857282125077 -0.589377675085687502 0.0105618542588450312)
(0.0901695463751300552 -0.628132824682851809 0.0132279749777084524)
(0.108366469816701463 -0.671468761153007354 0.0172006848736365944)
(0.0196047342137997231 -0.530043346623389255 0.00246095093974924928)
(0.0225014133558387106 -0.561217335426013153 0.00290329347286160744)
(0.025939825580773325 -0.596910803712122351 0.00351289462530560061)
(0.0302893664278557906 -0.637974103658186409 0.00439680733988546263)
(0.0363664382430739369 -0.685613636895818002 0.00576769114381737308)
(0.167395994086679267 0.144910022403375333 -0.140068411708726109)
(0.19430717792266225 0.320166557567350241 -0.14281757540437573)
(-0.350405448467251857 -0.64150973435963965 0.436799418272968087)
(0.237233010644598369 -0.0511610915327038868 -0.0724138911149611458)
(0.379293854006388043 -0.404816687515560547 -0.257913827170090204)
(0.478237973821540097 -0.547994149894538096 -0.285374371558853257)
(-0.431372347529662969 0.0293138159891356623 0.156391548324552959)
(-0.237212741876216993 -0.162663510496199898 0.0786352358343490737)
(0.163491914306420849 -0.451625380445729641 -0.0439569140317537244)
(0.478459405644986069 -0.0824528285242057402 -0.183143493006965447)
(0.394049826471225606 -0.0756754827767670279 -0.269760965859550284)
(-0.0512350231713495086 0.107727885342506352 -0.0214150591681470832)
(-0.614203882538189805 -0.15949357122996935 0.128821919709698418)
(-0.00564232236075173921 -1.45485806276844687 0.244112654671496204)
(0.425961781526478345 -0.131562623067483814 -0.0641776129840043036)
(0.518233007584112504 -0.121455205028704882 -0.0874306006425761839)
(0.592496430273790953 -0.067221188284706232 -0.134076588581042572)
(1.01921826790699277 -0.25315462773627101 -0.0504477413467711369)
(0.974610808811950613 -1.17337244141390906 0.0194434861164033135)
(0.416719605708056828 -0.232558685309015356 0.0100645744763896705)
(0.49022294823963275 -0.261277185225735065 0.00244754361814277649)
(0.571887753415027511 -0.362163855895573317 0.0466709718152089614)
(0.698079233170526781 -0.520260175256787472 0.0665123246441616384)
(0.567714883966481842 -0.628715295158026377 0.0399778246306230142)
(0.398558927815965469 -0.305524740915546822 0.0318659188219428957)
(0.467339143410629543 -0.332879383293980147 0.0227411739749062772)
(0.537632963512762796 -0.387125416683609391 0.0244185985927365887)
(0.620685213802930513 -0.450837662037055276 0.00283215364467971588)
(0.67599126534797882 -0.466041535774848525 -0.0071171446892092146)
(0.356241560907791355 -0.354543138470327701 0.0321458848566555308)
(0.404668835182307396 -0.393471268614948688 0.0289863658973208115)
(0.461944614208506188 -0.444678878604999495 0.0277474283259751472)
(0.497068453057994908 -0.520014061809519812 0.0332548028854425803)
(0.560309813043075144 -0.583862507644320461 0.0296595874299721077)
(0.309702083912506365 -0.396275041071580847 0.0267339093539471773)
(0.351590999204830501 -0.43574023877984247 0.0271511717485658256)
(0.39479430367049545 -0.482923545729992243 0.0294227653610562266)
(0.430293219542630168 -0.54490851223991521 0.032428988884086761)
(0.459632590504050531 -0.592928353310605338 0.0344805266361030219)
(0.26320921813573922 -0.433837831711506083 0.0229350023329499969)
(0.298021016208989131 -0.470332806672532633 0.0246796355217956988)
(0.332346805559182223 -0.51407793073243413 0.0277200260297323885)
(0.359616082273062077 -0.56846081800388415 0.0318017825183553801)
(0.386751920624058165 -0.621485604974545636 0.041076223655703889)
(0.218269873367304357 -0.462712681355060662 0.0194311235076405076)
(0.245846817914869564 -0.49629032891962771 0.0213783110533968118)
(0.270788232925224026 -0.535869018763631799 0.024273724089941974)
(0.293538579651966391 -0.582724518982856932 0.0279685238604099815)
(0.308854707303360398 -0.635939734662343548 0.0369723979919581169)
(0.176041627666943368 -0.484810988527765496 0.0159395157538424828)
(0.197281256666905019 -0.51506323900314599 0.0177615014114577557)
(0.216689427173522797 -0.549348394249265293 0.0199139261700916094)
(0.234040029818126716 -0.587261338971520108 0.0228716903322991535)
(0.243175040781112295 -0.631785643295964316 0.0265782252387822444)
(0.136664713737426946 -0.502151877205543773 0.0125227564997521662)
(0.153956224377910927 -0.530865955152429292 0.0141602149284184176)