/*--------------------------------*- C++ -*----------------------------------*\
| =========                 |                                                 |
| \\      /  F ield         | OpenFOAM: The Open Source CFD Toolbox           |
|  \\    /   O peration     | Version:  2206                                  |
|   \\  /    A nd           | Website:  www.openfoam.com                      |
|    \\/     M anipulation  |                                                 |
\*---------------------------------------------------------------------------*/
FoamFile
{
    version     2.0;
    format      ascii;
    arch        "LSB;label=32;scalar=64";
    class       volVectorField;
    location    "0.660000000000000364";
    object      U;
}
// * * * * * * * * * * * * * * * * * * * * * * * * * * * * * * * * * * * * * //

dimensions      [0 1 -1 0 0 0 0];

internalField   nonuniform List<vector> 
7236
(
(0.501585907078322957 -0.144544033728317728 0.436930888338078416)
(0.887008019572901096 -0.139263142577829069 0.749440167069591934)
(1.09093104505670002 -0.0940448046365378598 0.795490899907149718)
(1.26957992697181909 -0.0574579657730279122 0.81757812459950141)
(1.40580382788060754 -0.0374517137574399694 0.832740799304573676)
(1.50057356386285146 -0.0286523730108106216 0.846011766430906476)
(1.5732866815326163 -0.0250689600331736595 0.859829617473324204)
(1.63342847688492565 -0.0236636521632569083 0.874557251628706345)
(1.68393195479464652 -0.0237314488394175897 0.889122088945802247)
(1.72706555751284352 -0.0242240106277008191 0.90201876506601375)
(1.7651029680934549 -0.0252285699105970658 0.912573185595820346)
(1.80025662997609692 -0.0264405134433303365 0.919615040849569132)
(1.83437613548292022 -0.0275858754973668553 0.922615143220862799)
(1.86859401446173545 -0.0285198928512783619 0.921265969808381602)
(1.90364952502047857 -0.0292531623325469337 0.915270577549949005)
(1.93957343343987887 -0.0293574641945819753 0.905635378600598839)
(1.97571966343571992 -0.0293016278970994644 0.893028215644875223)
(2.01149762379294517 -0.0289829780637851052 0.878862680717118594)
(2.04755707799530429 -0.0292582422951898416 0.863712748126460927)
(2.08327315106065036 -0.0281664169590132955 0.848016868760755549)
(2.11721068162662496 -0.027499155233717501 0.832081338234190171)
(2.14962731209698621 -0.0270706504860307139 0.816984997596169937)
(2.18263051667810792 -0.0281914142540802375 0.803395771535027503)
(2.21560589293111221 -0.0264572046970665622 0.789960376253662)
(2.24671063756035361 -0.0256849735795138118 0.775165739223956485)
(2.27667205125547945 -0.0248664344858985677 0.760483392035360306)
(2.30783812453530679 -0.0260086083831216446 0.748137851567371559)
(2.338609628399694 -0.0240428200186829366 0.737532722588305156)
(2.36676429282153755 -0.022620013539786734 0.724463162253998649)
(2.393410719259351 -0.0233801790200137798 0.711483883231010639)
(2.42165588828879841 -0.0259715130934887427 0.700425188450958913)
(2.44990722208129119 -0.0250491368684901301 0.689817775900937846)
(2.46963709506141083 -0.0194619296556797251 0.678149609750000382)
(2.46176233237785436 -0.00579769510490081921 0.664855925679152304)
(2.36527842519029941 0.0378168587728984762 0.653810072384885865)
(2.06346796531598375 0.165481753122607544 0.642135294910985532)
(1.27578232793314639 0.285071138875076735 0.615156927872755332)
(0.241418795088589155 0.164704779859033951 0.401846423714704692)
(0.653519662379175692 -0.372427978084049427 0.580376943055927352)
(1.01927502592849151 -0.385679482120101669 0.822096861946066793)
(1.18384494537096363 -0.327985049498991599 0.901152275583661178)
(1.33529742381722927 -0.259595098438152982 0.911472627908462174)
(1.46481965086906341 -0.204207913605441327 0.899150517610387667)
(1.56182708415504168 -0.163951426540526052 0.886213038586792901)
(1.63575174042923699 -0.134559554657413871 0.879524793374428571)
(1.69417536098840626 -0.112567522570006837 0.87995756409892123)
(1.74108442408596864 -0.0974439085525339588 0.885259887058767347)
(1.78183344296575918 -0.0863369612748107473 0.891725892985034352)
(1.81723740202367678 -0.0796661137213754283 0.89839164371550162)
(1.8483827937770243 -0.0757240686698093662 0.902466473726918794)
(1.87721379019456669 -0.0743028835127700626 0.903272625887766467)
(1.90557829107055565 -0.0747198135502092631 0.899998057285526176)
(1.93510658778769096 -0.0766122577439515423 0.891263358564755248)
(1.96663620971633657 -0.0776020269906403659 0.878656478471214086)
(1.99954801234152768 -0.0786256352914912193 0.862424877177979665)
(2.03245976326262223 -0.0785407500905253991 0.845118461974172397)
(2.06629521038974007 -0.0805196227037090762 0.827772312725967407)
(2.10089773671022773 -0.0776038475942989608 0.810292747008140246)
(2.13339652979838768 -0.0757880113691278556 0.792899954736036916)
(2.16321825857813588 -0.0736750718682548794 0.776700573925007021)
(2.19495510461139531 -0.0779263788138407631 0.764633023868205419)
(2.22717824684592536 -0.0736920286511199146 0.753218005032198157)
(2.25429834948323649 -0.0734976760594761441 0.740451579726032372)
(2.2807784789721901 -0.0717509461745534649 0.727379748634593759)
(2.3084675391069176 -0.076316038474967221 0.718602485835321159)
(2.33984266995860368 -0.0719600647105208546 0.715253293351496344)
(2.36090892083410164 -0.0691353666917958742 0.708856981979869016)
(2.3790820570736928 -0.0698999342896953479 0.704426473078501925)
(2.4000294889953584 -0.075630188137058324 0.703971381515995365)
(2.42872099106037753 -0.0748237333174494035 0.702949809536141945)
(2.45410691432630834 -0.0677488939968824005 0.701030387047684389)
(2.47131537943699797 -0.049879007430090043 0.690233480633681395)
(2.43318939131314149 0.0170881712206406369 0.680740552659281573)
(2.28259554465111503 0.238558303358618412 0.681087045048329953)
(1.87427613482665101 0.595896713587141691 0.673548748129380925)
(0.715980769514632853 0.574537314808298838 0.670693039830296378)
(0.819351906320695433 -0.478112654370000389 0.652320869807098802)
(1.12769607136720862 -0.595182019929798134 0.975932075926685405)
(1.22024583283859389 -0.561849875373535701 1.07129574450792164)
(1.318461491358774 -0.475583497536638977 1.07728269735776561)
(1.42633043030364237 -0.395310004094303891 1.04482649986846843)
(1.5286138598283594 -0.326310258603029424 0.998728359471003135)
(1.61912934279537013 -0.269370967350616941 0.953119479231908984)
(1.6925860190367894 -0.224840636527064264 0.920278168073923153)
(1.74650004167332162 -0.195803286068777449 0.898650902600044321)
(1.78374804108265073 -0.175081671156460533 0.885564467216878648)
(1.80669571375738958 -0.161279008890822834 0.880319650305527945)
(1.82690757012924809 -0.151209695842144387 0.879160520635529519)
(1.84819447883209542 -0.145346596050517918 0.879636590679726105)
(1.87126653889313332 -0.143941548779990602 0.879294646780747535)
(1.89680788494090247 -0.145590398958181655 0.875240799123681579)
(1.92550167039804188 -0.146014731572407408 0.868724581707776)
(1.95625220423505297 -0.146718520364099991 0.858913320955705606)
(1.98508447899845919 -0.144855833647325932 0.850485696117882273)
(2.01459812894181312 -0.14761939171833291 0.844731625545741549)
(2.04473211211301642 -0.14234004046480131 0.839008223973935485)
(2.07248089942346603 -0.139979877647199102 0.833196197397325977)
(2.09474012836030798 -0.134056929326388907 0.824879956117979707)
(2.11682687258986135 -0.142772153392078743 0.823893924330895699)
(2.13821874034314652 -0.131665238005213014 0.824474076515069987)
(2.14639654794317547 -0.13251674635679106 0.823447371666244599)
(2.15126071445151501 -0.123958019588576385 0.815201926748637562)
(2.15725201108890108 -0.135417196136413898 0.815692218759630605)
(2.16125477436808655 -0.118975681032466668 0.838170852990703596)
(2.14330066943924624 -0.113566141198487472 0.850091842660840369)
(2.12630843646050449 -0.111109566196608889 0.850096235843651571)
(2.10974068268424642 -0.126373754548903705 0.847601965600747853)
(2.10511758977043684 -0.122077310968104161 0.825290712090412826)
(2.07836963384471307 -0.104274555094755722 0.815778983927639922)
(2.02617932404603396 -0.0712747526107674889 0.770532697310987724)
(2.02651809488709489 0.0608565001622933116 0.739609668682356225)
(1.91388061215248406 0.462851400234512378 0.713361652192786355)
(1.68679558114786965 0.998434050019739949 0.700657156891426602)
(0.807106321268575844 1.04324266364793594 0.699519586259293558)
(0.902865523858753516 -0.554330374643357215 0.803984293883704959)
(1.10912502316582806 -0.77324492981488957 1.13158004111100463)
(1.09614496578122478 -0.744552034901410975 1.213390376978978)
(1.12982462356490343 -0.649776679583002337 1.19009228153893232)
(1.23582548052627117 -0.567748370576383832 1.09067686952876053)
(1.40434724215554541 -0.482631216393718199 0.952228129288146707)
(1.61040836639590457 -0.389324519326576191 0.807828667314237636)
(1.81320755008822054 -0.296674625635027556 0.694935808198461902)
(1.97007991991414277 -0.228767871064540468 0.623274207654480494)
(2.06277522530719137 -0.183042541743944714 0.594339002861675181)
(2.10779714298792253 -0.162395250337989766 0.600350124563165055)
(2.10842966611248839 -0.155214777323901404 0.630743398093805419)
(2.08675167174849729 -0.151560710627987566 0.668594762082089011)
(2.06275763819693836 -0.150127873288131708 0.709625402469751809)
(2.05211876958912365 -0.154253886089528336 0.746149560401333511)
(2.060965658043731 -0.158191865845738133 0.770820147785473031)
(2.07804590849043613 -0.162091120684969892 0.785561325631363827)
(2.09756152928455109 -0.159513641993550864 0.802670311690780958)
(2.12374532121773196 -0.166997950994971833 0.81455073779844267)
(2.14870999346770031 -0.160654437665287725 0.822552414666591014)
(2.16965702291745766 -0.157785336719726776 0.82976506431789665)
(2.18509908686479459 -0.146525561729983045 0.83537448516044277)
(2.18963100199306693 -0.174866899370292678 0.834899295233778926)
(2.17542897730536167 -0.148433681443803117 0.835845564999279311)
(2.14939210002779157 -0.145757179718068536 0.837561742579580271)
(2.10985178331284429 -0.120609279966085239 0.838145686645971333)
(2.05221528815785526 -0.168666644232285834 0.831937235150813748)
(1.98405169109665258 -0.115808182541598997 0.819557103210742821)
(1.91920591078229785 -0.103979315795707558 0.802287061138853952)
(1.84752278864558406 -0.0950450598336970154 0.760058567871811586)
(1.75314403854705314 -0.149373964121412933 0.684001435175570327)
(1.61381138922370115 -0.125827976916841305 0.579569675324028366)
(1.46695972923413098 -0.0523482435945674812 0.455034493602439361)
(1.17092548140308339 -0.0752872047489081681 0.166292543936431891)
(1.26674839122899829 0.117594569443290942 0.483242130725108299)
(1.27743658579467301 0.656269677712327137 0.689157785796066125)
(1.30870915123410403 1.29544180677838616 0.713924974739095219)
(0.754672994565002142 1.59932076678998558 0.711392331697135671)
(0.926920718332447602 -0.699865163027144521 0.962674317194412765)
(1.00324895468404018 -0.853257867757170274 1.23738516026647205)
(0.869262543368557572 -0.820051378047468638 1.24699334163170783)
(0.811028909169979051 -0.754733205234253135 1.10766940479881271)
(0.935105636603237089 -0.709893847194948635 0.860419126440495896)
(1.24530985851260123 -0.637683133898108157 0.564357244738448283)
(1.66489087725717444 -0.50568241270964287 0.268287697211575971)
(2.10161946724924276 -0.323301249247881561 0.00698362740111547683)
(2.50129738770123744 -0.14503140796981609 -0.189952311068893154)
(2.80790226259403131 -0.00606685587598838894 -0.299624001560196918)
(3.05909297692221172 0.0873203788280416948 -0.31545718927936528)
(3.11858564739857957 0.145596119331888513 -0.259904844772715971)
(3.07327306292677349 0.138157344162384843 -0.137752327336047975)
(2.92529072460314499 0.100304779081274581 0.0334093790709255115)
(2.77123148817624854 0.0417138862401523758 0.203114854089921332)
(2.65904321510199981 -0.0090560362826935057 0.332161323291741861)
(2.57075010917613778 -0.050942526646482543 0.443880097616668523)
(2.51456718913830679 -0.0735737656511597921 0.526476777534224505)
(2.47830539076981804 -0.0946543592732896621 0.590102656726327224)
(2.44722928488534075 -0.101915183029623921 0.640251351761403464)
(2.4106480524235443 -0.106225833951430745 0.681452415384523835)
(2.36624863411313369 -0.104114795419069261 0.71573647580024724)
(2.3113760739270095 -0.112890653723653145 0.734443024808282163)
(2.24555060405595253 -0.0869150013001862287 0.743286066641708043)
(2.17459567902487905 -0.0797188519505242499 0.746810536205421371)
(2.10585755745388115 -0.0629731472859357683 0.744819519027750121)
(2.03891777152336084 -0.0813427606679029136 0.72460880251096671)
(1.97811162068494606 -0.0415391121778999478 0.680552291936836085)
(1.92789760002172073 -0.0416492804001220851 0.61411904341266188)
(1.87057823412145319 -0.0410573940757717748 0.508214233896325918)
(1.77359277448722907 -0.0450720523836512788 0.35711950830177952)
(1.61439822240079422 0.00784624563256538371 0.188460327806283356)
(1.3791327605550352 0.115110455345146676 0.0321804912639047369)
(1.05854601083791788 0.118014602539500829 -0.285540420525238148)
(0.583761665897211346 0.23417745364133169 -0.173701637703997269)
(0.64764002210785554 0.651779072690394923 0.561367877480826505)
(0.815981033705728609 1.38813636456760303 0.702638332057111792)
(0.640870112936222758 1.93068902723767066 0.715704368444280203)
(0.867340908922643261 -0.631470016091321029 1.05920614667271829)
(0.900997424814006465 -0.798071630226872553 1.15931329399820249)
(0.647274779556747393 -0.804920216005420852 1.05001001268786998)
(0.558076137242559334 -0.7925049292480012 0.753303912770164397)
(0.885024619189168416 -0.873877107919766472 0.347689522312396582)
(1.39759277235945056 -0.905285195417797839 0.00852434414801370166)
(1.87562958146107261 -0.798981177463820802 -0.229499699830033654)
(2.26955148741045853 -0.590929610914314729 -0.379556119390222768)
(2.57563209388808589 -0.363643480125794061 -0.468210114607095107)
(2.80805695957085488 -0.166694992414390425 -0.492732632056958331)
(2.97372204696479825 0.00294251518604601858 -0.472521807844664521)
(3.09894152655850741 0.132000460431368621 -0.420957449848981313)
(3.11921990184947351 0.214941580616054173 -0.331163038334452209)
(3.10332233066637064 0.251923077841585685 -0.203340770418452693)
(2.98753338143971892 0.215625391093581281 0.0117347723743668128)
(2.87223725091293991 0.1561850038158904 0.186787877682947717)
(2.7749049165062627 0.0890657431259754689 0.323396324858198636)
(2.67570522400364785 0.0297443134338992755 0.43846499293654978)
(2.57828086231655629 -0.0159582515279307752 0.526918982600457331)
(2.48602060528909119 -0.0425254040687646426 0.587795002912097297)
(2.39721762579772513 -0.0499459120866272907 0.623045467016474896)
(2.30517526013843321 -0.0479262054390455772 0.639436356449598842)
(2.21299427508662472 -0.0478552183063323602 0.639983488142995882)
(2.12454456630889243 -0.0340423484124488251 0.633154749224358993)
(2.0441940030714747 -0.0275820964744861591 0.623456606896277132)
(1.9744740305910764 -0.030897904859907073 0.6047905052240935)
(1.91077612395577701 -0.0508582865760173752 0.554341855773194503)
(1.84522620402742232 -0.0588395834698526438 0.450834878865599753)
(1.76602959882887101 -0.0669414106594962977 0.295594172712040915)
(1.65476269699566458 -0.0565006700219828836 0.0998793394703719195)
(1.49289605492455335 -0.0178187068373638277 -0.109167851744595812)
(1.28612516530051657 0.093589978432862847 -0.279480053071663792)
(0.948922974732809954 0.282798519361939893 -0.371985499052141899)
(0.691429841853030025 0.403440212560452371 -0.658779792666943642)
(0.361748228304420605 0.554786361262909922 -0.755102652737532409)
(0.139069057209940311 0.614555630547440446 0.365700420382362834)
(0.300370338465249964 1.37178686897103042 0.679292396826384093)
(0.567134803493234974 2.10290516682149864 0.713055084582987275)
(0.868429299054819137 -0.350687973551591592 1.06694782993163262)
(0.803360995676869916 -0.654357701205698805 1.01423759810290126)
(0.538239116951868102 -0.720390660350392786 0.741822523881655149)
(0.694345302415088739 -0.858771749397187589 0.253326581238325355)
(1.2205004035629321 -1.11421580627240124 -0.134108211035164682)
(1.65111565978908281 -1.16271018639864554 -0.315020533676979297)
(1.9586913043448837 -1.02510491030448692 -0.39389656980985438)
(2.18643129265919001 -0.783876282411114955 -0.427381218385369854)
(2.36308924374058105 -0.520250524065325903 -0.430911672449821315)
(2.51295362444026305 -0.271865298345616457 -0.410108687207282996)
(2.64340894388846648 -0.0557513468786933752 -0.371255055756742613)
(2.76713272102190144 0.127139665018611958 -0.326913585695657372)
(2.85923927055828564 0.258751204331275964 -0.257250183412339795)
(2.91949294328254139 0.339443837993194053 -0.169154976818370217)
(2.89636031834880203 0.348302760157348457 -0.00173519461124822111)
(2.83245607303869384 0.294036696831087185 0.166256934785831367)
(2.74816050955222302 0.207415097468811316 0.310110836451561123)
(2.66816656515307038 0.129404114502478546 0.411004728324239843)
(2.5782370143395843 0.0679844548924237596 0.480778553264524011)
(2.47201239596180811 0.0254283445469508235 0.522199482095991874)
(2.32008980944578047 0.0194092077779203544 0.534982223257538858)
(2.1465870581314701 0.0133932808191868681 0.529687453512082351)
(2.01939469579680875 0.00490196375570278731 0.513076090332149515)
(1.94429806964791219 0.0155552343726288941 0.485717434293390427)
(1.87153349784528023 0.0225351945767487544 0.450465376763625913)
(1.79658282616966458 0.0111643295172282921 0.394059543095179765)
(1.71398277995159165 -0.0179527411083784984 0.285995255052491404)
(1.60798367983134116 -0.042986659972505073 0.114455758741894162)
(1.4782210683017758 -0.0505196122844284584 -0.106559283275972208)
(1.34478438437406256 -0.0291715649045357489 -0.334271873295726274)
(1.20307920785313227 0.0546454632658249784 -0.521061206511921116)
(1.02060375469361952 0.260274559934034255 -0.624846614179661364)
(0.628116941749420787 0.539223717167118366 -0.646950144164663121)
(0.517358567497018917 0.661034708667889936 -0.866202638141760017)
(0.200186451223127643 0.792565527122808255 -1.12540116047357563)
(0.0739185056595753481 0.638478166692212579 0.138798646599815806)
(-0.106660541388936214 1.33075259997289619 0.651929576479925776)
(0.538813835777880445 2.16733163641770377 0.708110174627179512)
(0.743487652986047687 -0.272546950492971118 0.916831970708276933)
(0.696275880021768434 -0.497854697532100376 0.794985069421411339)
(0.546296729894201638 -0.581967376172710771 0.307331737094487578)
(1.0188432021758711 -1.02442070673974372 -0.221865354439619078)
(1.46667582695178789 -1.33036545755683333 -0.395029784700627218)
(1.73908042760317416 -1.32430561264032343 -0.43107979237550037)
(1.91625448561642808 -1.13915720847392943 -0.429710525438274427)
(2.04569359452637123 -0.863705937917989441 -0.407369690151990316)
(2.14569392520489322 -0.57361117953734897 -0.348751872366174664)
(2.22681648867939597 -0.323592281707951124 -0.274191339813941115)
(2.31634620537662794 -0.0974511482652737904 -0.194740615363814207)
(2.4171662915974661 0.104979283668769158 -0.125345556256366036)
(2.51241728875011061 0.257963908674257558 -0.0492713399498890883)
(2.60043806317616299 0.384126198993762158 0.0248348574733643773)
(2.64873634349931297 0.404702310114356034 0.131758271391685444)
(2.65940883197544986 0.366601540490452404 0.23975123047411484)
(2.63660076771649088 0.294062016539305637 0.330344000020863837)
(2.58148778844850346 0.213192136448634162 0.399305869497877441)
(2.52066189033765919 0.149722929880718253 0.439016198343518682)
(2.42009659352465345 0.108793864560691206 0.452467827187013727)
(2.24825513964659329 0.11674767098345426 0.436993285993887093)
(2.02990021426511413 0.113398771490598668 0.409547015699381178)
(1.81089426073907322 0.0789434198022196942 0.378835290213577092)
(1.66815063251236184 0.0586513892101234099 0.327022924835160267)
(1.56406901899373096 0.0480213415259077778 0.249169415207624451)
(1.46689755729519944 0.0207786818919447336 0.137332349470364157)
(1.35757592446185082 -0.0217701297432262367 -0.0323276488222712377)
(1.23573800704185532 -0.0599863053076338179 -0.25742989960380408)
(1.1087926196191471 -0.0634338713838652202 -0.502105102560273853)
(0.998067125598603666 -0.0153393657751276294 -0.721734129762342858)
(0.911642852454622066 0.131979969019566878 -0.894054220688565215)
(0.788431190004763693 0.460784003762217453 -0.912559700568596255)
(0.385447277210674344 0.8041057734267677 -0.838148451814642259)
(0.393917444730710942 0.841791170354603047 -1.01754119910174357)
(0.0629363908346349532 0.967938433136082632 -1.14857527114278746)
(0.122723939163861734 0.681143491489603736 -0.00633910983438690148)
(-0.369196449236830093 1.29955719342766796 0.636394152893034359)
(0.535568331388674879 2.16392637669580701 0.699866779002604855)
(0.468952444504031951 -0.172802176581916961 0.621103077061659681)
(0.523843864942102555 -0.313665250005020269 0.466848132134354166)
(0.705907890588729381 -0.559988100425419577 -0.248105463960075545)
(1.26255609107777267 -1.26565350098215457 -0.454795089135632546)
(1.56712925958927407 -1.49047242118825962 -0.476587286466570226)
(1.71100437683026207 -1.41383207926860521 -0.459714987595089608)
(1.80987824960182619 -1.18973027363725037 -0.416120793717289328)
(1.88844834603622069 -0.873748033914430677 -0.333041894392255566)
(1.95589981788798184 -0.556591221117314294 -0.21406120448231597)
(2.02612501284049218 -0.291325213709653474 -0.0810152055951095934)
(2.10751529744957633 -0.0729864742758621482 0.0377622383971236847)
(2.19541109268945389 0.111150868710548995 0.132743800921464206)
(2.27192274672190342 0.253254554535682297 0.209619273733870959)
(2.35738917849850527 0.365358325752413948 0.272621352071489909)
(2.4271936574363262 0.404692466281760421 0.325715388367204484)
(2.47539195278576818 0.379936713401801796 0.365373889284752951)
(2.48712994627085759 0.325413567851237095 0.397043791599270612)
(2.46177333057931458 0.258323159151080561 0.417445863750806001)
(2.41403109908940783 0.201524286261582863 0.422658268534176873)
(2.31279367093914834 0.172217141598586115 0.400769023793913437)
(2.15418166921737253 0.198444383821809955 0.347339928443885504)
(1.94195000266057027 0.222724318461347826 0.282730137423140682)
(1.68496412227538772 0.17932576651514015 0.214662026010970369)
(1.41671696360952781 0.122851869182513465 0.12906969421801498)
(1.21468382741095149 0.078815096109765892 0.00712064288366504039)
(1.05380373552140938 0.0235748032914632304 -0.164489836314041182)
(0.920207325361510509 -0.034387228694552012 -0.37888201278946354)
(0.810655956604799277 -0.0690389181270768815 -0.594713772092616777)
(0.767074284190042532 -0.065565079856901437 -0.778896345149968194)
(0.804690483554362568 -0.0133298894438539789 -0.96358003799186609)
(0.78558207086857923 0.199211404819939486 -1.14552070200224532)
(0.596177526338401154 0.706474663305031392 -1.12047245094557391)
(0.244852875844046164 1.02655469526427678 -0.965542301496855604)
(0.300530361015606262 1.00445702544185456 -1.09827197156090595)
(-0.0189904393667574799 1.09212564320993555 -1.12995989451697154)
(0.277424510494711452 0.72413614765515355 -0.101554567590930234)
(-0.483585988773150621 1.30068878996910908 0.626000956908099537)
(0.537230823596293705 2.13066008499620718 0.687948946438771025)
(0.328996372575913298 -0.0988118727266100449 0.427528915149569699)
(0.310694438324870315 -0.108097883802871636 -0.0768820727524626435)
(0.950968837501511399 -0.865718643750569283 -0.482109435906191319)
(1.38895840092218625 -1.47697089543820947 -0.518078677943669241)
(1.54429419959763115 -1.57389920429369323 -0.495091917100097589)
(1.61322475550676359 -1.45740759145831422 -0.436321405731526224)
(1.68583628422832099 -1.19030670200003197 -0.342503001510765237)
(1.75354810117547411 -0.833278037958065654 -0.215300045903948467)
(1.82894197407096115 -0.498872861271128343 -0.0637264828694576874)
(1.93127545695432601 -0.237242844378495632 0.106513221709393049)
(2.04600631306948433 -0.0268465791789419539 0.257434203534858352)
(2.15224733144142633 0.138439520800098109 0.380410887809794152)
(2.23239743849768235 0.273511790215505368 0.465508584720016327)
(2.29804107264948065 0.353833237010540258 0.510800422499791518)
(2.35178672342705442 0.383117297077864905 0.522311271690491186)
(2.38416195773208184 0.36633671439477733 0.507811366873557435)
(2.39425605040245548 0.326338460880136461 0.489006339597441053)
(2.35775880905438795 0.276749529989053444 0.46015204676747995)
(2.29782113933385679 0.237299156762999397 0.427182880965495337)
(2.16792677765243536 0.226166661382244949 0.367480651357232457)
(1.97171317278670322 0.27237967153309095 0.274718521446724484)
(1.73923447475533122 0.315991011662505816 0.167391352603124932)
(0.124669939289030238 -0.139649571938719352 0.0935958061552088494)
(0.451155697795431576 -0.116166912136821926 -0.384944042832508382)
(1.11923955681683918 -1.18426626163983095 -0.550596670830454271)
(1.39586822647722375 -1.61445019577945215 -0.534081461618282072)
(1.44553402768424366 -1.61070306527814489 -0.472632573839508852)
(1.50297051672673021 -1.46479192647165868 -0.366865113150269706)
(1.58107780667968489 -1.1654513271123268 -0.237679190142305624)
(1.65144892191084791 -0.786251910138970889 -0.0910510202800258739)
(1.7345031283303769 -0.436436811718440454 0.0834323376885907353)
(1.86474099649902314 -0.174268735056475804 0.266916363666209633)
(2.00592110507524524 0.0124573128733934564 0.4291698337105192)
(2.12675006309866799 0.180873319394565496 0.559370454908438175)
(2.22577406971245262 0.297203738325413025 0.635382349941847613)
(2.29788574948126234 0.350239994700655033 0.670853943558012089)
(2.33716516881389946 0.361423989703503645 0.664233909065062855)
(2.3476174215629575 0.346600015197307654 0.627916550361265702)
(2.3195350745791834 0.316761475767311562 0.575672935823953513)
(2.27270160269981947 0.281295660074763199 0.518206920231189527)
(2.16635359556488272 0.266790845385206199 0.444387471179974236)
(1.97344460788885923 0.282307533194389892 0.344230768570277179)
(1.71184271504271068 0.345758646407906434 0.207490870221172435)
(1.45048848306322054 0.408309159881660055 0.0528369027175390818)
(-0.0679563628575095419 0.113911511057632114 -0.131354298342104048)
(0.764253711701416205 -0.537721931184838575 -0.545474888151372128)
(1.195645597540969 -1.44842993545598508 -0.570225886899562107)
(1.29596829138196967 -1.68493055361757471 -0.518061089788160567)
(1.33319451706126069 -1.63241533640462877 -0.411438634446356921)
(1.41246739401888144 -1.45010407361342764 -0.277371761852007626)
(1.48899467537197117 -1.11194621607503308 -0.127241454762156814)
(1.52400559273680458 -0.71281084129055694 0.0271478570602085856)
(1.59249391771709847 -0.363687515268614092 0.194204750049304237)
(1.73415511799744615 -0.113509998458770717 0.365597422273185035)
(1.89487647174236207 0.0589483899607994924 0.51238161023672868)
(2.02581118066605903 0.195287137120095267 0.62271842445025205)
(2.13150412975127823 0.285756464800288379 0.688543606730426805)
(2.19965063406961692 0.326454418976197147 0.708699801526980755)
(2.23585536618841818 0.33103073845795461 0.695410494293841608)
(2.23297645545724999 0.319706412882757363 0.662169441086868149)
(2.18504398857317428 0.303430912816605391 0.605186502239080326)
(2.07270662112286796 0.28796459347440978 0.525460449182061473)
(1.87811420381045724 0.305996747912190503 0.414071299316274455)
(1.60695250319986993 0.360847161034960895 0.263221687173581798)
(1.3420124655075627 0.4381971129764205 0.0953788542325643696)
(1.09785705414588319 0.483222803711997051 -0.0622545218202222514)
(-0.100020713504550052 0.344821090356635718 -0.821352737541874656)
(0.935370082099798772 -0.99106451192662548 -0.608941640978394316)
(1.13637066227389782 -1.61428249212418584 -0.560422324219822521)
(1.17610979370701374 -1.70672939851564798 -0.471195463482259991)
(1.23048736898755351 -1.63523726256253932 -0.341715179401372082)
(1.33912139989969581 -1.42541921624450674 -0.194909789083824919)
(1.38215901941151187 -1.05983279788922347 -0.0491976874241008)
(1.34699067364688374 -0.639433954256678483 0.0855463202059365269)
(1.38004408725050709 -0.301424158958437272 0.229586281699947825)
(1.51875002432333339 -0.0753908022382794168 0.382896357648299934)
(1.68778954798144132 0.0744504244324646347 0.515945576350917645)
(1.83278008963770556 0.188833357060938567 0.615988688579965027)
(1.93803577502637281 0.258877283082345255 0.676574005368221876)
(1.99376072764241896 0.293066631376295794 0.682884218439302026)
(1.99906766138717851 0.299279705288464315 0.6661666546650854)
(1.93915656081503829 0.304560533970821889 0.618122818800679541)
(1.82151499893320001 0.312018935944932241 0.544401622385137673)
(1.63605506764773789 0.326871314785772138 0.439383486288950298)
(1.39841316348811939 0.374489695543800571 0.300880941944656477)
(1.15760848193048238 0.445599996937758536 0.140638079769729363)
(0.927190361150786457 0.511992205960771107 -0.0217631462211057489)
(0.690565314704630007 0.53948482852103874 -0.214733691926600107)
(1.24554936179235676 -0.0437252164216271957 0.369474293448840474)
(1.42629281118964846 0.076858430554573226 0.491432949458561474)
(1.57130128891405607 0.167508227811149074 0.575858495122151592)
(1.65963272673966267 0.238291453212134241 0.62051331800341214)
(1.68508655979804045 0.282127232473094902 0.625773699758376822)
(1.63546280306885516 0.308429924970354707 0.592105489136825924)
(1.51989301781450181 0.335100975298694925 0.522078532935411177)
(1.35180340057111059 0.360190138068323229 0.422378217508368736)
(1.14758126376435343 0.390539949841693546 0.297713044069433552)
(0.929320626005687767 0.447812165444863242 0.151441354163018876)
(1.26967240500117295 0.151402601806471582 0.525404805640818151)
(1.33704478325148557 0.227672607324614001 0.55886482272133331)
(1.33399407961837535 0.28755487690410797 0.550372597510599415)
(1.26078151866892485 0.329804737215583565 0.500074524884640659)
(1.126521376504102 0.369300294412445718 0.411773531686490668)
(0.946452208366418857 0.404891915371873967 0.293388522757745518)
(0.740235385577620364 0.45137889976004647 0.156549428763159942)