/*--------------------------------*- C++ -*----------------------------------*\
| =========                 |                                                 |
| \\      /  F ield         | OpenFOAM: The Open Source CFD Toolbox           |
|  \\    /   O peration     | Version:  2206                                  |
|   \\  /    A nd           | Website:  www.openfoam.com                      |
|    \\/     M anipulation  |                                                 |
\*---------------------------------------------------------------------------*/
FoamFile
{
    version     2.0;
    format      ascii;
    arch        "LSB;label=32;scalar=64";
    class       volScalarField;
    location    "0.600000000000000311";
    object      alpha.water;
}
// * * * * * * * * * * * * * * * * * * * * * * * * * * * * * * * * * * * * * //

dimensions      [0 0 0 0 0 0 0];

internalField   nonuniform List<scalar> 
7248
(
0.106076234571424982
0.470902946618011464
0.000125726465569399976
9.38238851199088033e-05
0.000375685479179161525
0.000188374132681550394
0.00036529326299589767
9.38678390459180586e-05
5.45555058364040628e-05
8.4647578170501619e-05
0.000606774917586908828
0.000838487874326347389
0.000276912049298396997
1.23277455356193567e-05
2.88428444015892027e-06
7.46718900485770194e-06
3.05719342579015128e-05
4.69461794432322501e-06
2.132543719450983e-06
9.19420265345664026e-08
2.20741389755206224e-07
9.42369835561028485e-08
8.91946436678606777e-08
9.16767261960898805e-08
4.81400167979082875e-07
-1.35231710393523447e-08
-3.47760222668971703e-08
2.90028927247972491e-09
3.70660813849249629e-08
1.46892891563961703e-10
5.20556171949482526e-10
2.16175834804926294e-09
1.0126256913287611e-08
2.30312015193652669e-08
-5.8097864220669209e-10
-1.27162300212252232e-10
2.21955098380959114e-09
1.02207474108598275e-08
1.73156418668271071e-08
9.70809182094725194e-13
1.97222586000163108e-10
6.04845074098201034e-09
7.93772759913117633e-09
1.00303637299593366e-08
2.40900870035965679e-11
3.21699892180126747e-10
2.17930323687925425e-11
6.37076686135091879e-11
3.6331436735550411e-08
1.2751874642682388e-11
1.95375285798545455e-11
1.63534631699542503e-11
1.73628127214960754e-11
6.37475428291697924e-08
-4.86105075426313072e-18
4.60193694682979954e-14
2.65636103740350572e-13
3.41087415920594763e-14
1.66391938458460396e-11
7.03798898772097272e-10
2.16846788573311437e-15
-4.70603790756607216e-19
5.10587039439228909e-18
2.05203482649218311e-15
1.9776515681364371e-14
5.90573619943529026e-14
4.95949594569330919e-14
-1.48351173732907534e-29
-7.94162683040568119e-20
-1.24363531237353882e-20
-1.4114546663878747e-21
-1.36762902358296682e-22
1.7632415262334312e-40
-1.33236161132974385e-19
-5.73778717570398008e-16
-1.27647808716112866e-20
-9.27166857238316567e-22
-4.21867019637910226e-23
-1.56425504209089986e-24
-5.21418216665433513e-26
-2.71993710850173499e-23
-4.76580665600282629e-20
0.161668052605107609
0.567179338766468311
6.73512475111730013e-05
9.93248750455470351e-05
0.000281454513085965634
4.03559197774178399e-05
9.30027149524980442e-05
6.38925588210506899e-05
2.61518010178047531e-05
0.000102387442503397132
5.65707040022870512e-05
0.00029871352286378551
0.000124088763832621511
2.38962002187677233e-06
3.32954683675285285e-07
1.30391130361949972e-06
9.58332289989160759e-07
6.68544269156536034e-07
3.00165332927529534e-07
2.04445469900881991e-07
1.32948991424636121e-07
-2.62963344560143683e-08
-1.77272593479441117e-08
1.53416464719023973e-07
6.50584235893518515e-08
2.17751780367872086e-08
1.17732038389441176e-08
4.13209099470769325e-08
2.31932114648434987e-07
1.71051788590005306e-08
6.22064348883036555e-09
6.02182698716415159e-09
3.7880334207088749e-08
1.56903229937587144e-07
5.15020288553590322e-09
1.0611305362725043e-09
6.12780014600034467e-09
1.20167278518750144e-08
1.03612502307973251e-08
-2.55916516565913766e-11
4.56461982156838369e-11
7.63651006874538935e-09
3.89214687904557606e-09
1.69575995793208653e-08
6.95745711129443724e-12
6.37155732511655584e-11
4.01442429878648177e-11
2.13103901710248515e-10
8.46929055035951295e-08
1.74953869698882707e-11
9.8019180712039155e-12
1.48628079232736342e-11
2.86794122050086898e-11
7.283115129589986e-08
5.99488111907898245e-13
4.26538544196544281e-13
1.23685162692675178e-10
5.69219093195348485e-11
9.70592961228723874e-17
1.67176102260464317e-15
2.11145063504869188e-14
-7.23663657167311729e-28
-8.65107167704232551e-30
-4.08157760702182773e-40
-5.10531926020581979e-22
-5.50023298737411002e-23
-4.39966877264286757e-24
-2.01427678581178406e-20
-9.56809068622099818e-17
-2.18540589192859734e-24
-9.21832717672514039e-26
-3.51730180489022734e-27
-1.2068101740440692e-24
-2.17573444835445479e-21
0.207545824245207372
0.644652944395699867
3.24695703848460479e-05
7.45355038491351065e-05
0.000176323316668077813
1.68763444959947689e-05
1.76408241331912261e-05
3.59372841523837363e-05
3.68445612866414478e-05
6.71380361244219555e-05
1.52066169143544731e-06
1.21964137971297856e-06
7.92502223656398283e-07
2.88203271831439607e-07
3.46426840722854619e-07
3.62393695067275394e-07
2.86834346020816811e-07
7.76066896168831352e-08
-3.14123956939955802e-09
2.5283064451475545e-07
8.86194495984124406e-08
4.43127972993534403e-08
8.31144689465505861e-08
2.69984571109857292e-08
8.48634419514243137e-08
3.44765343041950369e-08
1.8607303421509988e-08
1.87012342929637086e-07
9.19517450356817743e-07
1.40173536522804544e-08
3.80288465268192452e-09
9.03687089884864102e-09
7.96697335167542959e-08
3.78653468783530675e-07
5.22933295449766604e-10
4.44825043358787075e-10
1.17770382814205713e-08
4.75071225801366696e-09
4.52805750422118642e-09
-5.16957929934563239e-11
3.08941301291258995e-10
1.89259338047674238e-09
2.41602674725520119e-10
8.1622511434357039e-10
1.14713202927088906e-11
1.96041714347700611e-10
4.84227749755381288e-11
7.78382891508974674e-11
6.44546752201302735e-08
2.69618598275496678e-11
1.01046495063965504e-11
2.52404411355346525e-11
3.70869808232559244e-11
6.90874816702950888e-08
8.7875942208913078e-13
7.08779938361149139e-13
1.50931929699242795e-10
9.40703842514639828e-10
2.2387568136657036e-16
2.67490270053782876e-35
2.81079279612619443e-14
2.8299272215280498e-31
1.4612868702304384e-15
0
-3.60287027229695761e-18
-4.21901688162876476e-19
-4.39457861171878184e-20
-5.79829395608632967e-21
-9.61480550962062893e-18
-8.0745268371361179e-23
-3.29698998807869346e-24
-1.21594602967709144e-25
-3.9225995225449499e-26
-6.91902777021480213e-23
0.237635321563908181
0.684574216562390481
2.2767291860982987e-05
0.00870452620054182682
8.40432573965405998e-05
5.1634303878932731e-06
2.81070664226754573e-06
1.24829390887101658e-05
0.00024675075692822616
9.90891107434318201e-07
5.78839726425010612e-07
3.63963962387269562e-07
9.33773984294469436e-05
4.2831887502694786e-05
5.23871422325067596e-07
2.85566149289948472e-07
1.51881719285764031e-07
1.00899825040249375e-07
1.22401111711182988e-07
6.06671240487270543e-07
8.14039412682723709e-08
3.92280160263078151e-08
5.74189596114068205e-08
4.90114056273680298e-07
3.20639993280373652e-06
2.45994712960575213e-07
6.74274368679584054e-09
3.70350018871269912e-08
9.55632581062975557e-07
4.44850578429958535e-09
1.89113917278428329e-09
3.41697821423179895e-09
7.37051245255900024e-08
3.68912079408333471e-07
2.75128113620838322e-11
3.26804129927058326e-10
3.60233281393625373e-09
4.29365026733702184e-08
7.52460827337275706e-09
1.34406174266523574e-11
2.72132820532331959e-09
1.48806368020536109e-08
6.23644187315798479e-10
2.09226517398299588e-09
1.66056001493940962e-11
1.11158439227449185e-10
6.58614663716501234e-10
1.36389554642519179e-10
4.98310059696140752e-10
3.10767981211069164e-11
6.09579571857899181e-12
5.564066601544035e-12
9.3489846366010367e-11
7.18085967910990421e-08
8.94292591187843194e-13
2.56069561283513464e-13
9.0455045603604155e-11
5.18592667495995937e-10
1.84990766424777165e-12
1.76704005502492493e-14
1.62833254548121111e-13
-1.52272067510578153e-30
-9.46350616540037922e-32
1.01671218984280471e-20
-4.08623888956984864e-19
-5.41369948370712531e-20
-6.44957303860224803e-21
-7.97376854212554503e-22
-6.62326268467211955e-19
-3.92838481010146829e-24
-1.78930631648394994e-25
-7.43383306792915164e-27
-1.0061866069284949e-27
-1.60685820738938551e-24
0.297327646692518932
0.719020522192122202
3.11541203094457489e-05
0.0218440777376788485
1.22667456903695911e-05
3.70874477625047015e-06
1.24826571049457159e-05
2.53687071228057089e-05
6.03593908828498602e-05
7.10595603937423494e-07
3.08350417548329381e-07
2.84034984359822317e-06
0.000636499978588969846
0.000436022373393202907
2.05180184226342418e-07
1.38914724679705084e-07
5.58052216117481024e-06
2.73741525591479879e-08
3.67635827801345282e-24
1.04966481398152866e-07
5.52807590022182765e-08
4.80408703393083538e-08
3.34560286354986391e-08
4.5954478475168197e-25
2.53265438769952061e-07
8.21791583766680094e-08
3.426139142745234e-09
3.13915153080583341e-08
3.52154310129999868e-07
5.52072743270030086e-10
4.15134001427172374e-10
2.34331540920786305e-09
3.98890923449916592e-08
2.2848788743346489e-07
7.76305498807579745e-11
1.89188119009736512e-10
4.37631167651935322e-09
2.2100377255378912e-08
7.1967339266699683e-09
6.61354270582786164e-11
1.02633320822687796e-10
1.53278149692990003e-08
3.52736119336279756e-09
2.75682008581365359e-09
1.43281962957677638e-10
6.60928544376443381e-10
1.78194755837335682e-11
1.02986747967578922e-10
2.50012708668841943e-10
1.7497387350767837e-11
1.71695230600324066e-12
5.08205542824959523e-12
1.86291728697563885e-11
6.81640850947187758e-08
3.20710954484845798e-13
2.72675737379893787e-13
9.58270393166339563e-11
2.61713522475255724e-09
1.64996444610540009e-13
5.12299389240789518e-14
6.41929702418486179e-13
1.53485605207765346e-12
1.05563111312774471e-12
0
-6.00892313350899117e-20
-1.27342937176607214e-20
-1.96354765209873968e-21
-2.6532665943498388e-22
-3.20098073815457988e-20
-1.61695609294708083e-20
-1.73546166727798875e-21
-1.16658766017851537e-22
-6.43261945205755703e-24
-3.53404199001204163e-25
0.341994259199715822
0.738753885092089835
6.77614158328182427e-05
0.0390433732480681486
2.14647052276738106e-06
1.04173185212649933e-06
1.72420705742461561e-05
2.80962222862081882e-05
5.48210276003306132e-05
2.63359248353728287e-07
3.68193737323685773e-07
0.000178627562435460777
0.000673580099338633468
0.00012319201296239656
1.18362809120296156e-07
2.66225150858046498e-07
5.52998520215577264e-06
5.61499645282720207e-06
2.58237356923403498e-06
6.41154662951677268e-08
4.46556949835426419e-07
1.18523193680692287e-08
3.68510544075551246e-08
7.5993009669186843e-08
2.00666460190682932e-08
9.86021483073520187e-09
2.31115821487780859e-09
2.19104741217425247e-08
1.7847793471379717e-07
8.32291977048869882e-11
1.87925543294092496e-10
7.30638194180942503e-10
4.57795785871229866e-08
1.73417162657735009e-07
4.2548694752889499e-11
9.22744427163280452e-11
8.62115366750524619e-09
2.13733944768244644e-08
5.21036981631352411e-08
5.36637883284913102e-11
8.80314250699115417e-11
1.61258387055155624e-08
1.21062955922899381e-08
1.25957779914738932e-08
1.74799537135390432e-10
2.75415615701432072e-09
6.73793507429630575e-11
1.32320808700462245e-09
1.6358327134547889e-09
1.08396845931264493e-11
1.51493225443503889e-12
3.20677351180341304e-12
3.78443661288889624e-09
1.75512990094276265e-09
4.53652134753599982e-13
2.20949250340813714e-12
2.37531880179661583e-12
1.77760594946462428e-09
2.85690983466973935e-10
8.91793992431233394e-14
2.39373002788082829e-12
6.2370499796308761e-12
5.32143841752544067e-19
-1.21169035041947409e-29
-2.45349752191408281e-21
-6.55874252182325587e-22
-1.59543550575804847e-22
-1.56290949401295925e-20
-8.8206583235160281e-18
-4.48603800571657108e-22
-5.44732229312916608e-23
-1.91918184559130437e-23
-6.39750734501010937e-21
-4.06030451928106014e-18
0.341587267234141845
0.745388019386151068
3.08284641745433492e-05
0.0481233042200469169
1.20754939666270002e-05
5.27603278748403232e-06
1.68570766264124005e-05
2.60344783664467032e-05
3.08287307249747073e-05
2.13322599875811719e-06
1.04558437580070444e-06
5.76880160381741327e-05
8.26035942105067761e-05
2.05409029660590984e-05
2.4533518718116781e-07
4.02864041351616919e-07
1.93974158589614948e-05
5.87054354661203177e-05
3.50851295729649067e-05
9.24663917026669723e-08
3.59215865944147797e-06
5.23975020455996268e-07
2.43973231392598402e-08
8.06974857912300167e-08
1.5658118207083576e-08
2.93753328020191977e-08
6.3427130135761188e-09
1.18269614133918836e-08
5.52212973086445593e-08
-1.34849146999965517e-09
2.78632025174658848e-10
3.08355989234088699e-09
6.34411450650833121e-09
4.54557462963770453e-08
5.70029727463463842e-11
1.67754665545330309e-10
1.19204762965427621e-08
1.2205110017303885e-08
9.47764514673695093e-08
1.13777783051546678e-10
4.04190197554902798e-10
1.66837454392322639e-08
8.71226440674643257e-09
4.63835698999303387e-08
4.94441023727204904e-10
2.78323293029171821e-09
1.36215894085395584e-10
3.2970041790329358e-09
4.30971865147887472e-09
1.26405647465753551e-11
3.65506445976633146e-11
4.53345283446207283e-12
4.98497560428945108e-09
1.08296264008589084e-09
2.47060277300597913e-13
4.30504017149099594e-13
7.9758289706305051e-11
7.71910098931052078e-10
9.80318617643435058e-11
6.05188333423727066e-14
1.69789097683121784e-12
4.2720742039275638e-12
0
2.1566511629678076e-10
-4.42616565090314908e-23
-1.4767944516363936e-23
-1.30247379876123035e-23
-2.40822183663237205e-21
-3.30046082078759149e-18
-4.61628919475454312e-24
-8.13949851445144639e-25
-3.70913731779027532e-24
-8.87535956869857334e-22
-1.42100282112972236e-18
0.351388185003894848
0.760097571852831555
5.09473919382271248e-05
0.0544911586168504714
3.63780529093810692e-05
1.68356808824514748e-05
2.60321761845157046e-05
3.41535969148045956e-05
5.09510490602950997e-05
1.19983967370443037e-05
5.27345795598750451e-06
3.08896634410811202e-05
8.56145607979132177e-05
5.41112298412793884e-05
1.26281730433948751e-05
1.68411298921622898e-06
6.38086748734913292e-05
0.000115634867576281633
7.55589377551846048e-05
1.32741141402468433e-06
1.18907393929103479e-06
3.40271146829357001e-07
5.50808601089464733e-07
7.60223561594136902e-08
2.75901604336914367e-07
6.89436689944786047e-08
2.37061765748269094e-08
1.4085997672386862e-08
3.61216875100242731e-08
-2.71955259368682607e-08
-7.96737398696943911e-10
3.45981676139130227e-09
6.59562467287455183e-09
1.72701563383276059e-08
-7.76511268414506329e-10
1.47064250498169903e-10
1.43829238228344434e-09
3.65280434909844694e-09
6.65683815162737778e-08
2.22701991419067272e-11
1.40753278240377469e-10
1.26660405765982354e-08
7.12057366937084639e-09
6.9760106165296016e-08
4.56092481817172764e-11
2.20490524218108118e-09
2.74682239890013183e-10
9.25654988190913175e-09
2.76190897838418832e-09
3.00247105215391356e-11
1.69285834463703546e-12
1.73839425924032465e-10
1.02793673750095207e-08
4.26930000317607208e-10
1.0867914089561491e-12
1.35916137602317478e-12
7.1560032111072157e-12
6.12618326158946506e-10
3.58068890337493028e-11
3.40078282980741836e-14
2.85478864348316662e-13
2.29995955794439888e-12
0
1.18125696408809099e-11
-3.65244637852454521e-25
-1.3936323251243668e-25
-8.23689545353694465e-25
-6.48051400905553297e-23
-2.41085839572909177e-19
-1.94184893335781525e-26
-6.30571901158258073e-27
-2.77686345791524467e-25
-1.60358033472998801e-23
-9.26309161862038059e-20
0.0546254193661251525
0.138352423017991
0.000889572299605177297
0.00132862782017376157
1.75037351040850473e-05
5.42015029434089301e-05
0.000261308640123976204
0.000394122302664249137
0.000599375683248580949
5.11689611230322293e-06
1.75189678862745396e-05
6.53885606508414175e-05
0.000261914369229237056
0.000348857437851036729
4.21403100756620145e-07
4.72087870890299785e-05
7.01675318496728577e-05
8.20440725986622732e-05
9.47828670117544252e-05
1.81074624931074058e-07
2.28731325998974481e-05
5.36223369364758674e-05
1.96701740881474551e-05
5.07963488656370144e-05
2.85839267388896555e-07
4.06739635029319159e-09
1.5808402157975469e-07
8.45111962349173312e-06
2.4649697685124843e-05
1.21018763227531824e-10
8.45639819585167281e-10
8.05224314533719165e-09
4.0101272928368307e-06
1.25150296751165253e-05
7.1395933331317761e-13
1.28537635532495199e-08
1.87165998434818404e-08
5.3239335297735712e-07
6.6478674896821379e-07
1.16748606933638271e-09
7.77475687041071958e-11
1.68902502272777181e-08
1.09906028168688941e-08
6.58658017551166062e-08
7.19419828450528847e-14
-1.09646642005924993e-13
-2.02699706002084334e-14
6.97682404988503301e-10
3.46825529996562106e-10
-5.7729472972307423e-13
-3.32564205409909184e-13
-1.83100467362789754e-14
3.87605618683846126e-12
2.20136923095446842e-11
-3.149400697971169e-15
-3.94156517712712047e-14
-6.50912831953947684e-13
-2.92250950237999295e-13
-5.35979421690804436e-14
1.40710250480509073e-12
8.34728802209806759e-12
-6.9797365592709037e-18
-1.93901169860812733e-16
-4.73579971932255881e-15
-2.644561941903658e-14
-6.70924844015580022e-15
5.5281563026590641e-15
3.57566432987599538e-14
-1.98104178549868216e-21
-9.36334035321228149e-20
-4.28969166448924604e-18
-1.03947064759212625e-16
-1.53697482633390608e-17
-1.03017656869002522e-18
-4.24232152191113918e-20
-5.28539345828270774e-28
-1.24887399180863252e-25
-1.92992881644923857e-23
-1.83554516654836138e-21
-4.01421079754654838e-20
-1.60685620505949418e-21
-2.9260967144497314e-23
0.00161677532104584094
0.0343839408663930979
0.00143147518324172082
0.00062683254999395979
0.000260637307141577883
0.000813827079303806075
0.00153482511512006373
0.0012625759664981577
0.000318580584632864041
0.00051233307947274806
0.000650877083328143874
0.000572409784125471003
0.00056314573572646871
0.000305317268359088251
2.55710932837182216e-07
1.34607953810107328e-06
2.3630595135310769e-05
0.000105622137709484359
4.71951038557622788e-05
2.16351066488863958e-07
5.03039827474781493e-07
5.0880249502751107e-06
2.76283999493905086e-06
5.43600432894637305e-05
1.04506812294401419e-07
1.17942200306961176e-07
1.63507879742741111e-07
3.91063957352403045e-07
8.14221312302114653e-05
1.08365306796940178e-09
1.10211582495343721e-09
3.41022716411662054e-09
4.32504237313015123e-06
1.94057326397006444e-05
3.97201796100280203e-10
7.06820744478626462e-10
6.1646067339744809e-08
8.30939265916261991e-07
5.22822084413135603e-09
4.96533267156755643e-12
3.37972616619021245e-09
5.02389958732362117e-09
8.60807298131423001e-11
3.13485331213196466e-11
2.54300449731617617e-16
6.8645949316766772e-16
3.78241793023176798e-11
2.09996895676454258e-13
8.72402889308885843e-12
-3.98909574176040801e-14
-2.23118432909714943e-14
6.40126528849742023e-14
9.81589432994820459e-14
1.4733740489866441e-11
-6.02867369950167117e-16
-8.74937842303225558e-15
-4.08944957070311659e-14
-1.76436486394549165e-14
3.16947730931935037e-14
2.11338194080240958e-13
7.75746251298389842e-12
-2.34485879943973395e-18
-5.72154328233080894e-17
-8.04932608555758947e-16
-1.63261948271649044e-15
-2.13953722340439719e-16
6.99006910853026592e-15
3.51359712219796293e-14
-6.22346517218004775e-22
-1.76417601210281028e-20
-4.56558860467591972e-19
-3.79566210758957092e-18
-6.49874611985722697e-19
-5.28767148642946985e-20
-2.2778646488071404e-21
-6.82428819851147223e-26
-1.1440111141447146e-26
-7.39325693420681108e-25
-2.69140051783592084e-23
-5.90049175580320712e-22
-2.41966828209803329e-23
3.31558377817935876e-22
0.00533349315342304328
0.00263685896841789249
0.00112094928858175917
0.000811278874439321212
0.000856158148778673935
0.00106189402650833315
0.00154385784494249752
0.00158253489043782896
0.000907795758231364066
0.00121851189805724644
0.00137484062206155093
0.00110654306058059152
0.00051491500509867887
0.000416169201641968401
4.63259140885872119e-08
2.79156350026717621e-05
3.67210908226281823e-05
6.97652617174007153e-05
6.62681444601661971e-05
7.51291962950157689e-09
4.62066891905777957e-08
1.97566842374084525e-07
8.64331103746257826e-07
3.13415523649622137e-06
1.07585524486667215e-07
1.81356416491872085e-07
1.41703003198693646e-07
2.8126994554192034e-07
1.06381583051188361e-05
2.52123426815955941e-07
5.49891510097606393e-07
1.34065446927660432e-07
9.6003663471754684e-07
6.33204964374316244e-06
1.60959552018645322e-17
1.3218071377154167e-11
2.04321069254834924e-08
6.35931185315172239e-07
4.19704990607059224e-07
2.81769770534301917e-12
1.90432658738370138e-10
4.28789006596342558e-10
2.36808966459633885e-10
1.85748357567684374e-08
2.28310795754269648e-12
4.33530979605343042e-11
1.79002622430874481e-10
8.57360285522636081e-11
1.4539310844945717e-09
-1.90773093472650532e-14
2.19515755314185984e-14
6.82975375649240694e-13
2.06601108984826428e-11
3.39026641003027879e-10
-9.58082120435120655e-17
-1.26928249853400075e-15
-3.61175472763273916e-15
-1.49145071981560502e-15
1.36204658837312562e-14
8.15701800662875201e-14
1.45693485100024766e-12
-1.9841796986058067e-19
-3.51313454702518447e-18
-5.44556348108770182e-17
-9.14508321160631329e-17
1.36055913082339134e-17
2.93579147327831705e-15
4.22085170398077163e-15
-3.21243292196843712e-23
-1.22709838543913699e-21
-2.73214343944858523e-20
-1.14567065114758721e-19
-9.54770041966421448e-21
4.26784325652983173e-20
1.37149099884107011e-21
-3.33307761729029582e-24
-1.62492661812616131e-22
-4.63929105508963781e-21
-4.36517640932693217e-20
-2.44072936278518516e-21
-7.42027862660368949e-23
7.21528721300890737e-24
0.00542120960076677635
0.0011719698838688192
0.000993299047666639304
0.000812694956717404824
0.000595951821511978399
0.000870441254378177603
0.0013234269118319493
0.00158253489043782896
0.00127715517651503596
0.00118230865536366261
0.00143188589120993521
0.00137501816115971165
0.00141296653774584382
0.00110417103984086773
3.64605890263416246e-05
0.000357045692955225815
0.000345045404457198081
0.000153121539200850053
9.07219015987152156e-05
2.14973159486837239e-07
3.09672247756745579e-07
4.71635982778696807e-07
4.4011081713039478e-07
1.19205078636408227e-06
3.71835540509289089e-07
9.53552200222140001e-07
2.81161931956126689e-07
1.67078018513125937e-07
3.00586592664659282e-07
1.71728693680440781e-06
1.68735588097686677e-06
4.86348804230605051e-07
2.0597756043098858e-08
2.56680966406241564e-08
-2.25590566460771774e-12
-1.2031481139086048e-14
-1.10988980612896336e-12
-4.53361895527829572e-10
1.80659165681594196e-09
1.10116654589482552e-11
6.78542898091685652e-11
1.7098476432067507e-10
3.11504395524564852e-10
8.54463563365300882e-10
1.72048950001253674e-11
1.49343885419149075e-10
1.1344075566830805e-09
6.17741704529354006e-10
1.13570885656190742e-09
6.82506877436260768e-13
1.24654321947466928e-12
5.74003197822391226e-12
2.21811026461605496e-10
7.3046807663635409e-10
-4.84631968762600097e-18
3.38261697385395952e-16
6.73865913046642573e-15
1.48199903858579253e-14
1.19181656008441539e-14
5.46270321292319963e-16
1.09658045674299061e-15
-1.43504874707387446e-20
2.2843405634909726e-19
7.5683915945713116e-18
1.29534914488193907e-16
5.26311527208003519e-16
4.18570263057947284e-16
5.61686112902852948e-20
-1.40568214082338864e-21
-9.4890232289995875e-22
-2.92478372101716774e-20
-5.6535225559662078e-19
-3.14149037386231693e-20
1.58328955221089884e-18
3.3174996531907123e-20
-6.66039573218268939e-24
-4.18256743482309599e-22
-1.65948073507350982e-20
-3.24426622578406982e-19
-2.00928568465821951e-20
-6.94701881912305677e-22
-2.19635059970383048e-22
0.00106855255676259172
0.000817103665237323574
0.000813953002362110905
0.000540727014747502985
0.000364767942241053843
0.000537236872049968658
0.000683459903145194675
0.000859750571567454878
0.000622926010527676812
0.000697678467128160775
0.00112545008784853883
0.00139509413291903986
0.00136867220203870914
0.00127646219407416247
0.000573556544535047176
0.00112343443712966686
0.00117047548188239882
0.00109114376024982136
0.000786603319078252729
5.12565602830678155e-08
4.64027239528790703e-05
0.000137732022698598808
2.07724542800497927e-05
2.92271010876089268e-07
2.39491904321111309e-06
8.57860113076269217e-06
1.46432914320172635e-07
4.83053400861358828e-08
5.97934551697951601e-08
3.1303062792437074e-06
7.71541821124786509e-07
-3.49971025336255121e-10
1.24970538875409183e-09
1.46275526640742738e-08
1.06149102576949578e-15
3.43461859908062122e-12
2.05919053047627199e-11
1.65516250301395697e-10
1.6439090323999967e-08
3.85200567678984197e-11
1.17281087740931778e-10
8.44815821714603937e-10
1.02501518353470104e-09
3.02235881398370606e-08
4.28266338093579179e-11
1.43100580974210106e-10
2.4595256825933666e-09
2.24634859606310519e-09
3.54657824111664953e-11
1.61135986254357686e-12
1.01130102673310289e-11
6.23313652104437531e-14
8.69941425994694523e-13
4.79953712884785753e-12
1.93037002027561914e-17
4.82208993497169472e-16
1.99043806510045868e-14
8.28070827981235684e-17
5.36709774892525629e-16
9.67358586869021764e-13
7.15004019166393338e-11
3.08825614604997823e-21
6.62664113069431598e-19
5.50181666321908832e-17
6.72357433557981801e-17
7.81559011514232514e-16
4.27529531505884974e-15
3.54410391640540484e-16
-1.07321600872883133e-22
-1.0293029982360768e-22
-2.54626382018546044e-21
-4.32839255032251166e-20
4.99024904044462524e-20
1.1558550765823915e-18
-5.48471361952637961e-29
-6.28856422343094511e-25
-3.79728252647972615e-23
-1.01164721551910554e-21
-1.62503779815258047e-20
-1.23539088565778539e-21
-5.3557864173439134e-23
-1.33078165844335579e-23
0.00094618190753904298
0.0109557136653197808
0.000590146079397776166
0.000381589984236896406
0.000224765756054672949
0.000601239992660253198
0.00101863299374282089
0.000696348977536423073
0.000232644433756486326
8.8861810843995654e-05
0.000313025969195604935
0.000702731474151424128
0.00127600915606433099
0.000843397172045417479
0.00061673344850117235
0.00114635686476701523
0.00112349507518071188
0.00119768948291547198
0.000629550489788912541
3.3048378367277269e-07
0.000256598585144144752
0.000962049525191806362
0.000417476692271609624
1.46672556944755164e-05
7.64953153995863837e-06
3.79746305572779678e-05
8.44648797290644387e-08
2.22375067363518055e-08
1.43481043689028123e-08
2.15008768831287384e-06
-8.24838314532527105e-10
1.09170672835477941e-10
1.31586072421307048e-09
4.76546590925231999e-09
2.10830968655239529e-12
1.80229012374317069e-11
5.45483304683093641e-11
1.42304862475003314e-10
1.32821237728622075e-09
1.15222375408264425e-10
2.19948674388333171e-10
3.83471227354018141e-10
4.28842275388243922e-09
3.83614113468228917e-09
1.2987614016471936e-10
1.04774168489204494e-10
1.18960524677331559e-10
3.01999416669816982e-08
2.36913385785632924e-08
2.86208529035919713e-12
2.89255464061596683e-12
1.67183414887609107e-10
3.34892359943278784e-14
1.33019794087697126e-12
3.66506773005251756e-16
6.46539849375724507e-15
2.79409240086854435e-14
1.08719535598174119e-13
3.05451883532532367e-16
3.67734057503008776e-15
9.41106280342737681e-16
2.69126111339392417e-19
1.04279710626591668e-17
2.03974371885058559e-16
1.13895009640188164e-15
3.29963616708101296e-17
4.43334911495753434e-15
3.21618957738501917e-16
-3.99280307411982104e-23
-3.7030407999763799e-22
-1.85667632010963037e-22
-1.05236662564396222e-21
9.65642825768831944e-21
2.65129600440499075e-18
1.99970118996693367e-19
-1.6412196390962966e-23
-1.93678454903966071e-22
-4.44565094167343027e-23
-4.94782367484626549e-22
-4.54322875992219087e-23
-2.42819424073893063e-24
-5.35989079913015836e-25
0.000720833608378444344
0.134827020742385312
0.000366752002023849053
0.00025126133410212977
0.000360671047988709702
0.00131283554464085806
0.0012537512192732146
0.00051973227918989469
0.000128196879075690812
3.04135579769063292e-05
0.000666238171473816252
0.000519173387634211023
0.000467155241198146873
7.9501216117426035e-05
4.29333145384901875e-05
0.000678505152834044394
0.00108644468352588302
0.000763750911888236685
0.000111593876956953494
2.70287513875933974e-07
0.000417765729587261708
0.00085245451607537351
0.0003495676339614684
2.12624265736544402e-07
1.42584048447467493e-05
5.80955350715346992e-05
-3.88546189240583484e-08
-1.09465545204456415e-07
-6.80475688417756482e-08
-1.04872751947112448e-12
3.10187925112032671e-11
1.37562436223707609e-10
1.3704539302692966e-09
3.36194709491367363e-08
2.71525613846526331e-11
4.02786724339320972e-11
8.92890563424393906e-11
1.5936020492434835e-10
2.74480276336166627e-07
1.93869816637839457e-10
3.21197276594161861e-10
2.10129456410184518e-10
4.01238368476252382e-10
3.24978376301555456e-07
1.66379661411196319e-10
1.92150756941425474e-10
8.11728801776310682e-10
3.36015248152974674e-08
2.55349673669955028e-11
2.37946702776180022e-12
4.12936967402114061e-13
8.00596513021931353e-11
6.76952437883838481e-11
1.74428221692033402e-12
2.22080707222485165e-16
1.8872016947521223e-14
1.24367082049468659e-13
2.92037415408687886e-13
1.52670014071107854e-15
4.40082192704038561e-15
7.26280567869919535e-15
-3.43702783606707162e-20
1.18993608365051282e-17
7.14536096963996313e-16
5.19536726534317929e-15
1.49875914396902534e-15
3.98432073846588552e-15
6.84452590538287597e-15
-2.69778875261536458e-24
-2.95372235209256326e-23
-1.06762022720305133e-23
-2.27635403763269946e-23
3.98897539077693071e-20
3.85627731212203668e-19
-7.06386796798332678e-18
-5.78462419290314994e-25
-8.06475539114883068e-24
-1.32853553858587976e-24
-1.14586099728529052e-23
-1.24980855579458764e-24
-2.77749545014021408e-21
-4.07155141973028804e-18
0.000149692749790807122
0.302580279370399996
0.000257938256611769034
0.000128064785959689068
0.000407268644492945575
0.000561853223254273103
0.000715241672053514325
0.000150641289961819878
7.00398235516997748e-05
0.000180124494240824467
0.000838558088510361682
0.000835557809991288461
0.000234721847655095872
3.62507552768516267e-05
7.37419580680821585e-06
6.89204593889481169e-05
0.00017935345540031803
0.00011658854037217412
7.17391364112449084e-06
1.64570248705883242e-07
0.000135447883331715925
0.000210449311031583278
0.00014798567904423485
3.05874068777814644e-07
1.09109515722619071e-05
2.23583174947829244e-05
-2.68471273146469778e-08
-1.02913384727202858e-07
1.1382566949559725e-09
3.15158504596220673e-11
1.20075918839601475e-10
8.79138214951566854e-10
2.39391190497603385e-09
-8.60874315096611424e-10
3.59801987624996052e-11
1.12599804807421744e-10
3.16573458513124062e-10
8.877222944390485e-10
2.51188854190399441e-07
1.26116065484372277e-10
5.39597205441950851e-10