/*--------------------------------*- C++ -*----------------------------------*\
| =========                 |                                                 |
| \\      /  F ield         | OpenFOAM: The Open Source CFD Toolbox           |
|  \\    /   O peration     | Version:  2206                                  |
|   \\  /    A nd           | Website:  www.openfoam.com                      |
|    \\/     M anipulation  |                                                 |
\*---------------------------------------------------------------------------*/
FoamFile
{
    version     2.0;
    format      ascii;
    arch        "LSB;label=32;scalar=64";
    class       volScalarField;
    location    "0.600000000000000311";
    object      rAU;
}
// * * * * * * * * * * * * * * * * * * * * * * * * * * * * * * * * * * * * * //

dimensions      [-1 3 1 0 0 0 0];

internalField   nonuniform List<scalar> 
7248
(
9.79522535006113174e-05
3.16422179116828181e-05
0.00661139146944071145
0.000522893840587242359
0.0133150648505077976
0.0156053933112049459
0.0133377489487273102
0.0134390285416946913
0.0132083073992530515
0.0123693153655685308
0.0104181353356435063
0.00917907785370518023
0.0122295375911926109
0.0133939241622343663
0.0139098640547494282
0.0130147366322581875
0.012346239618169377
0.0125882950171754392
0.0128334991777760178
0.0159000215419926282
0.0144416376383215746
0.0136363559204244009
0.0134596772722030932
0.0132458951534253876
0.0165997596146284544
0.0155233919961398469
0.0146929164773381884
0.0140862962443601084
0.0135077297725499385
0.0169030115180167639
0.0159896531301892235
0.0151650256172238904
0.0144953397219027471
0.0139726850940368793
0.0172327083859598468
0.0164419736494851171
0.0157038425525157788
0.0150684450081838943
0.0145181655836656189
0.0175036788221556196
0.0168166419453787477
0.0161586856036498999
0.0155680259824676377
0.015034315157531895
0.017821689396539532
0.0172107010282962873
0.0166151694790104588
0.0160557773200346518
0.0155271490178108765
0.0181950645407744152
0.0176351691427460017
0.0170751831739316337
0.0165215823809556454
0.0159730132775973317
0.0196124326922961847
0.0191296298105426317
0.0186269942916129048
0.0181088518124368249
0.0175786487634282951
0.0170357979102869449
0.0164744889679291698
0.0200148140853326287
0.0195785497979298027
0.0191218845516250846
0.0186473867555195967
0.018156652233528206
0.0176490350250915612
0.0171204639035961274
0.0204843335479890122
0.0200955442899597332
0.019685966959089557
0.0192584187281685561
0.0188153950977256144
0.018358812160288708
0.0178896109598975887
0.0142886746457865435
0.0139010108173675297
0.0134977027239561679
0.0130842602555255837
0.0126660467405218073
0.0122482952279845125
0.0118356009869886921
7.78821432840185856e-05
2.96847109086586951e-05
0.0122297612792350453
0.000527130864182203123
0.0133729328633664293
0.0148374804116591878
0.0138465942316774813
0.0134001912000939749
0.0123859409655875281
0.0128569909026068439
0.0136337510136200248
0.0120025874008324596
0.013095987054588169
0.0129237204079186187
0.0139864536575771536
0.0132169843379626641
0.0128390162100944123
0.0127238971284540196
0.0125891279489591824
0.0153692322622741295
0.0141472870403419881
0.0135027816070275777
0.0132708509659156208
0.0130902690582810882
0.0162926009652909695
0.0151846602073076962
0.0144855447097508947
0.0139709414684609651
0.0134594506347685064
0.0169321905242911797
0.0159032627779978862
0.0151337762684981645
0.0145274903906598939
0.0140168863065329649
0.0171451634071211681
0.0163555859345794335
0.015664501630934774
0.0150586914678430793
0.0145178037490667801
0.0174315440006627582
0.0167607877079447853
0.0161257428353402364
0.0155475665372356749
0.0150197886501068183
0.0177784120665483748
0.0171693362857567658
0.0165787229102519716
0.0160223150855626703
0.0154928352698289595
0.0181490422612162229
0.0175867905565386465
0.0170265073092104001
0.0164742430890652304
0.0159253762698043921
0.018575556304973654
0.0180514661378183006
0.017514487505804234
0.016964192187439768
0.0163951004569819619
0.0190669399587703771
0.0185825068487535938
0.0180791871156215818
0.0175550750807642701
0.0170056464327228464
0.0196302257308642349
0.0191919719547983328
0.018734955422693822
0.0182597919227282246
0.0177661523356851675
0.0134390288691951573
0.0130169618340621636
0.0125871846920721266
0.0121541201825656007
0.0117215083147075953
6.93970860870384715e-05
2.82499349670872213e-05
0.014826827017521348
0.000322366125152887927
0.0128430636362554026
0.013135472487363662
0.0128734981687314773
0.0126864370784427888
0.0102648909479000836
0.0132170081939987482
0.0137265431884994703
0.0136114190328337006
0.0130758254942416399
0.0125602869812311141
0.0140273084434464623
0.0134523256995937295
0.0132840974218549381
0.0131012045974185642
0.0126007739304663819
0.0154958489653683126
0.0143703678457300678
0.0137061231407047592
0.01338600866546928
0.0131213168920700611
0.0166276804132161442
0.0153700278330072895
0.014588793193129012
0.0140354858218201123
0.0134974204125476692
0.0169723533236072269
0.0159412578958411863
0.0151704547256109584
0.0145632844799144911
0.0140320980396900254
0.0170679903287267558
0.0163088791536747657
0.0156475211109366151
0.0150563982542817193
0.0145145061500084951
0.0173923510748808727
0.0167346787304520142
0.0161137458148143051
0.015539410117000255
0.0150104169869028151
0.0177489784462813022
0.0171420276471216694
0.0165553915786561048
0.0160004790463025952
0.0154735407134486951
0.0181174044332884192
0.0175548369124679804
0.0169942281965396735
0.0164420632338423342
0.0158918342412183479
0.0185392969167108186
0.0180104934535142008
0.0174681762541445997
0.0169115724946766327
0.0163335073357444224
0.0190251910579746879
0.0185329875075747157
0.0180198376239804094
0.0174827014260135055
0.0169163802975771244
0.0195849631660555516
0.0191381108987072474
0.0186696792446862138
0.0181793031239441336
0.0176653937154787298
0.0133862749524382065
0.012957034050641027
0.0125175075773457985
0.0120714941514354548
0.0116219186607561357
6.76528925742829262e-05
2.7967595903501323e-05
0.0117676004355100582
0.000282066139026481441
0.0128933959310328135
0.0129435636335185969
0.0122347688418361512
0.0132953057293027001
0.00542973003768340481
0.0144349681690359184
0.0147328122130563968
0.0138310573089631753
0.013063193373268684
0.0130670360111214846
0.0152992815111410163
0.0149115142193123797
0.0146373198310201687
0.0141928840538327484
0.0132522820412390701
0.0165534342099770346
0.0152718080473797733
0.0144044241140795608
0.0138300274324615162
0.0133130275919739558
0.0169223012081586958
0.0156956047078338629
0.0148336977100955343
0.0141738849190571285
0.0135498577532545909
0.0168118922367078982
0.0159151911023956358
0.0152062091312724634
0.0146059566386736277
0.0140577046187433351
0.0170160312753625774
0.016305763925252386
0.0156673205453218868
0.0150706958572534005
0.0145135905485279607
0.0173869660827035213
0.0167326229416776377
0.0161160715648584127
0.0155365126203327059
0.014999538728831488
0.0177349846173055423
0.0171314970792645002
0.0165477901379665442
0.0159913546743177537
0.0154632323796100226
0.0181022799618496093
0.0175405485188891395
0.0169799525387334255
0.0164269503726672227
0.0158743231808157158
0.018519230192006058
0.0179870233138839132
0.0174406984558514548
0.0168796454946545105
0.0162950830074064593
0.0189972250026201536
0.0184995120464202488
0.0179792046257891205
0.0174326445930747462
0.0168532219215511668
0.0195511805477054934
0.0190977779050472626
0.0186205618136708051
0.0181183271756122748
0.0175887942237913375
0.0133408396625727173
0.0129058243916280076
0.0124583539949124286
0.0120017270328565025
0.0115385188712851389
6.07127460256112861e-05
2.79090870972338271e-05
0.00144577793994082708
0.000221782005192403377
0.0143591091227278193
0.0138158843772664599
0.0132979684833557845
0.0142262432736797347
0.0126824963164420355
0.0153323142645903215
0.0153002668717948931
0.0146175490400048836
0.009766045407474791
0.010725701484707164
0.0168377191464783721
0.0161683391978976604
0.0154134740258090423
0.0142741182419813296
0.0129050864550363346
0.0169466029030619844
0.0157623440236548014
0.0148500332548104075
0.0140236154267420476
0.0132079260548214599
0.0165951298807455946
0.0156545808829096737
0.014901623794019575
0.014203233548598055
0.0135049933444460254
0.0166233404575554591
0.0158977035442738474
0.0152656032477103652
0.0146634626529609964
0.0140948636034690083
0.0170252171377775832
0.0163368976413473116
0.0157008641551491072
0.0150900846707701982
0.0145155174786408252
0.0173916226358637113
0.0167441506336410591
0.0161314746402210739
0.0155480157492480318
0.0149978838143392055
0.0177376618983191049
0.0171396927613147766
0.0165591199098572353
0.0160015548625764316
0.0154684322839904985
0.0181060911448891713
0.0175449453376599375
0.0169848233884201498
0.0164321318812095385
0.0158825131641749245
0.0185155711984516524
0.0179814541761348957
0.017432970475803871
0.0168701463811035471
0.016284919085737478
0.0189841263192641677
0.0184828557224600461
0.0179579949481918182
0.0174057565584008131
0.0168180565157987558
0.019529701838556339
0.0190717047625492686
0.0185884543520720459
0.0180780731340370489
0.0175379539696765563
0.013303953879351833
0.0128645001814901815
0.0124108655181948101
0.0119460316248068219
0.0114726891671073621
5.64627517381020405e-05
2.83263567796310967e-05
0.00136199385694570313
0.000179800991743374956
0.0140545662530936113
0.0145240363447527252
0.0165822016831230386
0.0157419928686965832
0.0134570800108569071
0.0156074903354384391
0.0162127868691103426
0.0151934465329837034
0.0103794804846470932
0.0121935936210451606
0.0161028099906892347
0.0156937407780455389
0.0150308651172137292
0.013457399216366921
0.0122373433502885008
0.0159913231541377147
0.0153349674086341922
0.014720050209361013
0.0139272316535321294
0.0131590628417908809
0.0161557816950489083
0.0155030014210758415
0.0148924558362482883
0.0142314204442775885
0.0135566070394800686
0.0166256437762901874
0.0159545740688223497
0.0153280769675018073
0.0146972210819258809
0.0140872535188036017
0.0170731821824920936
0.0163893656677128671
0.0157428898163867736
0.0151227189070661672
0.0145223074363398912
0.0174173294737999008
0.0167765539229048979
0.0161617219478784636
0.0155749041735354921
0.0149910383626063667
0.017764161329940218
0.0171693127000848988
0.0165888590640809533
0.016029239760387972
0.0154778745713132788
0.018129171564304946
0.0175686723563978145
0.0170097195469992093
0.0164574113416625749
0.0159112943072150306
0.0185285589311104393
0.0179943662340512414
0.0174464483030674876
0.0168851828281458317
0.0163047060876268593
0.0189862756343993702
0.018483498947417798
0.0179571066868275363
0.0174038321706493949
0.0168147361719183097
0.0195208611446274667
0.0190603348406445071
0.018573943086124485
0.0180596449180953356
0.0175153022493051008
0.0132765629389165057
0.0128339967762656614
0.0123760357794021388
0.011905459060168681
0.0114253294129922269
5.90855782168799693e-05
2.94945527103123521e-05
0.00151479227597060687
0.000170894001285589955
0.0125436339103593853
0.0137752235849541802
0.0158041381436426417
0.0157206781385199092
0.0130157399965332918
0.0144140449741533543
0.0151253294639281215
0.0148530279582106024
0.0138471675720681746
0.0130274875927364319
0.0154001906167942418
0.0153909935033531599
0.0148574260077458768
0.0136181254457647082
0.0129594688930062731
0.0158238111354530239
0.015338944345483772
0.0148585283856469755
0.0140194697414055668
0.0132397438921510492
0.0162922285805582635
0.0156613589774222406
0.015065049832618034
0.01438021130823295
0.0137286762020390994
0.0167733272728899444
0.0160828441624771418
0.01543249617887185
0.0147758636649319049
0.0141420598623078191
0.0171540102650646273
0.0164682468882486298
0.0158152568199459408
0.0151892439982589007
0.0145708224811973881
0.0174794255876619328
0.0168394454337677385
0.0162204866569784015
0.0156295337846363326
0.0150261160232664261
0.0178172795531600925
0.017222375039606358
0.0166415957013901737
0.0160823931347168804
0.0155241756052604575
0.0181711846269181215
0.0176113763138707087
0.0170551784943093997
0.0165081045321488692
0.0159701442842029931
0.0185584945700080495
0.018025108884720243
0.0174799830152153821
0.0169240747683412109
0.0163552246764470423
0.019003344676861246
0.0185008924175173034
0.0179755999560141724
0.0174243621326438461
0.0168402088536470616
0.019524728323414918
0.0190637236494042919
0.0185769634899453952
0.0180625122076754664
0.0175182723850397341
0.0132593823729666715
0.012814994982053303
0.0123544741976877783
0.0118805225747487028
0.0113960353730912824
6.16648119093895304e-05
3.05473073791570165e-05
0.00119360727574463542
0.000167205798645356956
0.011576267795109646
0.0130798604549289248
0.0149574064750863378
0.0158674918217435908
0.00355679353015715986
0.0122937003092369098
0.0137169693762999676
0.0148285523013895228
0.0139393949269056381
0.0127980174419492203
0.0136623681823102583
0.0148296813529791831
0.0147413467813042355
0.0134415736664533839
0.012552425246118137
0.0152616513641879205
0.0155388375693608985
0.0152607217954259539
0.0142110678093794515
0.0131643855231452171
0.0164984775310319486
0.0160428786361924147
0.0153904869202395166
0.0145606208169677814
0.0138608970268200207
0.0170779291851930783
0.0162949956375564274
0.0155733456016259597
0.014877582976464512
0.0142577665016794409
0.0172896157683789069
0.0165646452429471618
0.0159019452361235103
0.015271665015023226
0.0146481149464686572
0.0175572007928344875
0.0169146310946966666
0.016293081294946752
0.0156979349143854009
0.015088043376786443
0.0178811029958275414
0.0172834557565830563
0.0167004756414536222
0.0161387401942522692
0.0155695497557082792
0.0182176337290384759
0.0176584836594762054
0.0171043471941023546
0.0165584580360792141
0.0160125334350230235
0.018590415017724158
0.0180598917855080039
0.0175190802015467439
0.0169683993660831381
0.0164036001752832228
0.0190207097820015957
0.0185211585466259973
0.0180005049279442046
0.0174561910133326538
0.0168816420016755127
0.0195260530756811053
0.0190672157885012385
0.0185835937117083891
0.0180738160395790097
0.0175361282269251295
0.0132459384164744908
0.0128013813285940414
0.0123404555309937457
0.0118659134177712677
0.0113807121798651725
0.000178020865358551912
0.0001102107693522511
0.0021547968785254586
0.00105765462220974607
0.0139017294289636266
0.0114284625134681225
0.00777722853885996941
0.00538503563979116518
0.00363551407263242986
0.0261181515187227688
0.018508099844517855
0.0119292314955268975
0.00792333046936587702
0.00601674611040549801
0.0175190584388762137
0.0165459758603681804
0.0153451572675642866
0.0113864138903737831
0.00858517979246175081
0.0179082484202312819
0.0165703806960876172
0.0173846582057320016
0.0150014573621800873
0.0106420325451878194
0.0183656958684147234
0.0174411752641003975
0.0184792366424388309
0.0174455100128599536
0.0132080210668302257
0.0185425328920340859
0.0181934150987564519
0.0187041391065056149
0.0192313515521042623
0.0163248535849592619
0.0185819601260111024
0.0181303068397121979
0.0180497788799316161
0.0182259932847206041
0.0184477118187390508
0.0186686853803984878
0.0181858579524205588
0.0178557944951461926
0.0176957803906039046
0.0176424374400176859
0.0188670399134517469
0.0184161735015845283
0.0180207082406919142
0.017693389359771626
0.0174612162135909972
0.0191109510743144341
0.0187111928370103202
0.0183673800458422354
0.0181011919595115665
0.0179174074816305512
0.0202331190123659112
0.0198443575907584248
0.0194776391955404429
0.0191465329476410324
0.0188688401849193034
0.0186665275621826429
0.0185636818385028872
0.0206021354878320635
0.0202623466451274901
0.0199380539587394427
0.0196421910389049693
0.0193918133895261136
0.0192119407268757994
0.0191403099771246567
0.0209661357335337549
0.0206538823427718267
0.0203511132955812198
0.0200698861332260746
0.0198273216211082813
0.0196475992704265336
0.0195646024491872815
0.0146720220160396486
0.014324935484930813
0.0139807595809222085
0.0136502266248114904
0.0133463693009411924
0.0130861548787286897
0.0128921450832808308
0.000650058712331676625
0.000308177990944236689
0.00429809263777002938
0.00422508542261591097
0.0117834188182362135
0.00871291940374212086
0.00489047437554209711
0.00438890307857710184
0.00732403926347105234
0.0140077082187649946
0.00955895701963893445
0.00688480522878537598
0.00644355022289913246
0.00767655904703028538
0.0141933825207992883
0.013283605334339612
0.0125365288201550983
0.0107478973477784269
0.0114014813984265953
0.0153638034206409601
0.0141394846606643487
0.013579814672026869
0.0132535315649081279
0.0126948063887225588
0.0169601863025768095
0.0159402929698708243
0.0152199169100641629
0.014238465453319837
0.0130013715008623007
0.0177476702536453583
0.0169161265881454595
0.0160370545137734286
0.0148942179426874762
0.0138232867565738961
0.0180219322717742846
0.0172970675701501556
0.0164923010626292117
0.0155102952734372732
0.0147219504448566248
0.0182708011355678414
0.0176444509024641025
0.0169838375231919983
0.0162208994132141925
0.0154024472411636408
0.0185510204953113593
0.0180174411140309326
0.0174737820459024903
0.0168986665627605254
0.0162475851519382278
0.0188918598187054268
0.0184342300313396421
0.0179838007837505066
0.017546758008112489
0.0171286425632075079
0.0201023796961651326
0.0196929760505474526
0.0192910326589856157
0.0189051693528295463
0.0185468670603906663
0.01823068422508883
0.01798012749573423
0.0204461869123551028
0.0200871257501688757
0.0197376544823221201
0.0194086858177431668
0.019115099354858299
0.0188776640160467635
0.0187261078554100124
0.0208487678859750024
0.0205279766204054803
0.0202136269148824183
0.0199167813407466407
0.0196521996731276391
0.0194397601335476178
0.0193073154047542286
0.0146035345583112944
0.0142555802691721866
0.0139096467495513909
0.0135761579425144503
0.0132677400175758037
0.0130004959581538019
0.0127958353593287631
0.00109489912211157116
0.00119485374991069285
0.00677585572812460304
0.00829202060760971839
0.0103347378763832699
0.00964914241632186358
0.00618691867759038183
0.00587589588715537077
0.00858511903101445185
0.00927635851309198747
0.00728065990879561264
0.00623683182408356178
0.00618396710103240582
0.0088028556647602018
0.0142828899727916094
0.0119143223877466852
0.0102327318239283267
0.0101275832738333092
0.011831697888038192
0.0144398966370735248
0.0130078467711852701
0.0120575411708483127
0.0113682720414040438
0.0116572268269040536
0.0167465068050187335
0.0155499116370987536
0.0142271889693721572
0.012915081750807628
0.0123806384384173868
0.0177801082083464089
0.0167597549304659109
0.0154593172673208878
0.0140865169336542792
0.0132483835821322581
0.0178590046029213322
0.0170164885089500936
0.016062694486856436
0.0150258919330501992
0.0141896041761724583
0.0181019140799664746
0.017414414797146123
0.016681975243726499
0.0158914378212612201
0.0150808788132487902
0.0184083816433610187
0.0178326926719119053
0.0172350362205637361
0.0166109504826463181
0.0159420174156630519
0.0187716036889116616
0.0182832171889567643
0.0177930729310573632
0.0173041238858795791
0.0168140234369774204
0.0200344148483385109
0.0196140274446284998
0.0191938947813964124
0.0187798152555347202
0.0183792384696420813
0.0180018088218971521
0.0176604387944800205
0.0203925447867573557
0.0200219929707745672
0.0196546384707153854
0.0192988383692550489
0.018965367829980876
0.0186683388071944463
0.0184264761429086647
0.0208073766516744807
0.0204768431781726691
0.0201479823123083095
0.0198301171708830243
0.0195352634442107695
0.0192789831417265259
0.0190813967954955484
0.0145751995686716276
0.0142227214611029551
0.013870180760409757
0.0135271981354374606
0.0132051857024978597
0.0129182727443617265
0.0126845588936271309
0.00192541732821243099
0.0028321183157898216
0.00848659358823297509
0.00775778794124386446
0.0123226615157837234
0.0116028365148639102
0.00883807568830407599
0.00686435018561571027
0.00752084521152135161
0.0103749945265593242
0.00772300437036672026
0.00649445237101752438
0.00573984604261518899
0.00685170955285276367
0.0139597096413855183
0.00889225171847945681
0.00800321487358536185
0.00843087394087944399
0.0097716194363906099
0.0144468521596191266
0.0129813635094819437
0.0119949536312386872
0.0113025050832477447
0.0113159026206787767
0.01704134554406515
0.0155246943725991515
0.0140081404625580688
0.0127788973207233723
0.0122692239516608483
0.0180263309461838744
0.0168614066709087754
0.0154334388059406535
0.014140767353329935
0.0133977984445267616
0.0178209360448384098
0.0169200377827304661
0.0159122214831834523
0.0149947222525932608
0.0143181963946352065
0.0179769227878997274
0.0172538152818280457
0.0165047098998935549
0.0157707532637844129
0.0150878169325394541
0.0182758158722837911
0.0176722180555807969
0.0170487133675781069
0.0164232089290650175
0.0157994418088128474
0.0186437250432458165
0.0181280704022413024
0.0176067322355193678
0.0170842161879718388
0.0165611490247385973
0.0199533626940055601
0.0195188971330484302
0.0190786328608742416
0.0186367291434822308
0.0181990219125231223
0.0177732748736178781
0.0173639772321263972
0.0203254157467098635
0.0199414700251155097
0.0195547526649382242
0.0191719427668508233
0.018801196616666592
0.0184525805950817752
0.0181381006790078438
0.0207554675573521086
0.0204138179729056388
0.0200691203282277707
0.019729022337447305
0.0194030687369508466
0.0191033708981711084
0.0188446418513538022
0.0145368402115723053
0.0141786322372630409
0.0138178571040006495
0.0134632167572453602
0.0131248968926240654
0.0128150468249579388
0.0125485301187532802
0.00514203573175281512
0.000951672715915279836
0.00842482960986481663
0.00676765273794741398
0.0149618948066939563
0.0131670820048541259
0.00979312750273128585
0.0085510287697926346
0.00810372772740756107
0.0135887011770535679
0.00941698218724231623
0.00716718480827736957
0.00615238836910289143
0.00636995568533541608
0.0101411797535488138
0.00730109035711391016
0.006457372627392567
0.00636752144689189947
0.00713949317789181522
0.0151684813514134133
0.0124649853762130707
0.00970308504778853199
0.00995262263355073916
0.0110826652145924517
0.0175982562936358618
0.0154380767007097925
0.0138613259671496718
0.0128940134348042249
0.0125220640750207477
0.0181967568451776134
0.0168094055056780337
0.0152664807212702803
0.0141075320814412607
0.0135081816032237862
0.017783090340522955
0.0168120986261922449
0.015784514336694512
0.014957999737997581
0.0144014331879601595
0.0178849887840142711
0.0171432422347877964
0.0163875416114296797
0.0156897495512628403
0.0150876745561580837
0.0181615579070110549
0.0175423036364190481
0.0169095160110163331
0.0162905509714115077
0.0156979647062417647
0.0185277014977248827
0.0179932827900849968
0.0174516560932573214
0.0169082694493750962
0.0163606681914041478
0.0198722919183373301
0.0194247083118867202
0.018966449949073174
0.0185012152281799208
0.0180336716978177908
0.0175689509618434485
0.0171064694638639776
0.0202556842849781205
0.0198584994227725027
0.0194535406948225555
0.0190460770569701246
0.018642141487972351
0.0182486934887689731
0.0178730255490283027
0.0206991456663153973
0.0203462838890256827
0.0199858667643274986
0.0196241794928911292
0.019268660311952332
0.0189283887739795202
0.0186139308203808578
0.0144921711086704649
0.0141276325994011791
0.0137577826970900572
0.0133904947434015532
0.013034674321053567
0.0127006711056822184
0.0124006027790216859
0.00178127122342671253
0.000177577855432761245
0.00698017137569501445
0.00680382193918483823
0.0174120831580464527
0.00996373407524756526
0.00649793267630122996
0.0078662827299741684
0.00864371693435700937
0.015696202746785369
0.0110032005412386957
0.00811982083643524033
0.0065598978186255678
0.00793883247522332407
0.0110819790546662963
0.00744389852856746671
0.00654414944455356841
0.00623617263128051387
0.00823530509984072082
0.0167371875626953007
0.0101987527410903438
0.00719565784506366862
0.00882838987785309649
0.0113572843890117313
0.0180182767357580619
0.0147484955230869214
0.0135831424507089505
0.0129336895835068036
0.0127430700363398881
0.0180939170799122723
0.0164929512727618466
0.01496359772692696
0.0140069883510211754
0.0135699537804259297
0.0176738466336384091
0.016664489677636115
0.0156796104476717921
0.014942489724539534
0.0144484108069778128
0.0177945117860787878
0.0170517864180710771
0.0163046509031779391
0.0156382784345178751
0.015091428251025352
0.0180587722252314557
0.0174332622630450317
0.0168032859328761698
0.0161999320669177493
0.0156406760508076038
0.0184253995127227101
0.017878695746028999
0.0173250478132791451
0.016770526322034688
0.0162129883658333682
0.0197955863022638394
0.0193368078077053376
0.0188635735653569572
0.0183795092545316341
0.0178886531629846302
0.0173934642208752738
0.0168890586716418691
0.0201875090422907223
0.0197783404173590693
0.0193572111100711493
0.018928311609337823
0.0184960795245671557
0.018064838193802165
0.0176380532724335973
0.0206416552173613287
0.0202781495392610721
0.0199030814721396429
0.0195215232073100292
0.0191392066318447386
0.0187627408397476325
0.0183990534078514664
0.0144432209488613676
0.0140722281670796635
0.013693160119092905
0.0133131046962626422
0.0129398381348453245
0.0125821092996711188
0.0122496436985226071
0.000449976493319050909
6.86478442983791978e-05
0.00736045729247728365
0.00770603603757476132
0.0164011370093661325
0.00770188961956133102
0.00699029050797086299
0.00825775131718354399
0.00950650305440666962
0.0140249382769048123
0.00832337811021748725
0.00881786768311629277
0.00914116183008076982
0.0110949972271057809
0.0132500810850729352
0.00900855416476938065
0.00726263424106014452
0.00822754085336094461
0.0117951794354773255
0.0162468884345979801
0.0101784804050345269
0.0078823112512934352
0.00970401254228753229
0.0127010267552720157
0.0176630693382539769
0.0146680952812103717
0.0137860105374352539
0.0132948352656849095
0.0130930745998633496
0.0177972827066725237
0.0163364826669036255
0.0149959679086843836
0.0141598996425773404
0.0137157499640598295
0.0175272568910286447
0.0165772876511788084
0.015678343736596094
0.0149850965823384204
0.0144698367993595575
0.0176943475605902192
0.0169685817289307699
0.0162492858079526133
0.0156134567715350697
0.0150771658938501137
0.0179662834012444782
0.0173426931613375537
0.0167240836708608502
0.0161404121964033309
0.0156116091452358462
0.0183357481047876116
0.0177815871474924295
0.0172222320606262545
0.0166647521721515444
0.0161113406150999207
0.0197256383693578535
0.0192571872430551197
0.018771826609616498
0.0182731023566106293
0.0177646816476364593
0.0172475783669545496
0.0167136662109103606
0.0201233385398515013
0.0197035495392621288
0.0192684732026703331
0.0188214390863094515
0.0183655700849443236
0.0179032084928477768
0.017434543738224749
0.020585441272589388
0.0202122302158999623
0.0198239427576319821
0.0194246257715132604
0.0190186780367514463
0.0186106871650216325
0.0182052400085075707
0.0143918105274955035
0.0140146449648671356
0.0136267087092270429
0.0132344412761416074
0.0128446435055576593
0.0124646351371785931
0.0121021234983177163
0.000175928958724229102
4.01712887958075116e-05
0.0123743604545801991
0.00345499212424601196
0.014171482166078983
0.0146158708273878939
0.011467243931553352
0.0122199641104737255
0.0114980750959825535
0.0125603040809936263
0.00880999265205288651
0.00823680377480382094
0.0109402058149403441
0.012237647474376034
0.0132949501948745313
0.0125476624101167437
0.0110545143760515888
0.0118482528175753686
0.0130306614005769195
0.0159389607440285838
0.0131758840697011534
0.0117198862345541856
0.0124411615128343488
0.0133490606135994311
0.0174136827215003696
0.0156439594097637254
0.0145917175014581724
0.0138903581287332899
0.0133756977601750364
0.0173396313883813664
0.0162375030302080101
0.0151810943975894241
0.0144111089331131169
0.0138895228618394311
0.0173773796424840088
0.0165244661952501717
0.0157135490873805579
0.0150424789382370642
0.0144983872275405903
0.0175937006612130013
0.0168890808439791963
0.0162042965136878561
0.015593309518133645
0.0150597720438998359
0.0178871712443451659
0.0172697166361003573
0.0166643157974676673
0.0160954612500952415
0.0155765155329253679
0.0182582669460569051
0.0177003725905300544
0.0171399889867994877
0.016583858828172246
0.0160372679387423556
0.0196643223096015889
0.0191876810479238644
0.0186924542021351635
0.0181826716870384826
0.0176616427969580117
0.0171294283380205442
0.0165784052032603782
0.0200652129592473853
0.0196364296920522076
0.0191894919865581229
0.0187273208625109606
0.0182521272778823386
0.0177647812966588714
0.0172624970583658589
0.0205324516042995307
0.0201507968867230235
0.0197509763964970504
0.0193363954864079167
0.0189103623332722327
0.018475894856110113
0.0180354179426976922
0.0143397270685957298
0.0139569347348554914
0.0135608604254688278
0.0131573848818239414
0.012752531050552917
0.012352399824845749
0.0119629327982555093
9.25828229077993594e-05
7.89739480328921706e-05
0.000103954724660362954
8.19463761774268866e-05
7.16871902858753066e-05
9.26679078428906513e-05
7.24095978651296542e-05
5.63238168929737796e-05
6.27802051793442233e-05
5.99032853217168202e-05
5.61469597792285739e-05
2.78468200297647789e-05
2.89549672415854919e-05
2.60722694077867868e-05
2.57299446133259009e-05
3.85568721216135958e-05
2.91015541126261189e-05
2.63705491474910435e-05
6.61280933129057297e-05
6.62482782134518356e-05
3.57094795396793751e-05
2.86707575639004268e-05
1.24939255180902526e-05
2.29391628055933764e-05
1.56513066667778276e-05
3.71911769953553331e-05
2.87055871046649673e-05
2.03204091759756458e-05
3.55971605061750131e-05
0.000270162296391215559
0.000102490062874974192
2.98589634737128001e-05
3.38516340089039961e-05
1.22961964737456629e-05
3.17668697093158772e-05
2.00015927708980649e-05
6.21056659880414103e-05
1.7879605681065255e-05
2.46565517332278058e-05
7.62168661293338527e-05
0.000102489939469734714
3.81653048050823357e-05
2.52417021407620135e-05
6.12130757337223244e-05
1.81675371718779738e-05
4.63734437044551674e-05
2.88260490366797984e-05
6.43327553348782555e-05
1.26372581672841674e-05
2.99344838562864938e-05
6.8153584077526778e-05
3.15246457431519282e-05
1.75195370655425236e-05
2.43027257264440365e-05
4.95295335199961463e-05
2.30802238535503094e-05
5.22281122486521748e-05
2.22502114432912804e-05