/*--------------------------------*- C++ -*----------------------------------*\
| =========                 |                                                 |
| \\      /  F ield         | OpenFOAM: The Open Source CFD Toolbox           |
|  \\    /   O peration     | Version:  2206                                  |
|   \\  /    A nd           | Website:  www.openfoam.com                      |
|    \\/     M anipulation  |                                                 |
\*---------------------------------------------------------------------------*/
FoamFile
{
    version     2.0;
    format      ascii;
    arch        "LSB;label=32;scalar=64";
    class       volScalarField;
    location    "0.0899999999999999967";
    object      p;
}
// * * * * * * * * * * * * * * * * * * * * * * * * * * * * * * * * * * * * * //

dimensions      [1 -1 -2 0 0 0 0];

internalField   nonuniform List<scalar> 
29184
(
2655.326318923484
2640.95551131900947
2609.65669939567624
2562.13840981067324
2497.25450059909781
2412.8477104565809
2306.45573309821384
2175.63020378241117
2014.82725243118398
1823.24627152372204
1593.86229463588688
1304.62877891202993
1006.03124369126738
743.414729650606205
585.070247033920282
581.915035770176587
2534.59618331661068
2520.07340110112136
2488.96550696778968
2441.56930348442347
2376.75382188686262
2292.49592252787261
2186.28654469808816
2055.50695681236766
1894.80548940486892
1702.58588753502772
1470.80678454444478
1178.3002285049688
869.606092087547381
626.121785487800707
513.356309089031356
526.450623703462838
2415.6677816918118
2400.94084306576542
2370.09921721471164
2322.9483337869101
2258.34752586955528
2174.36863762627127
2068.43261845526422
1937.81661986490553
1776.96010393000779
1583.81221473877599
1348.6198801951482
1049.12111031230324
734.786293239124234
514.395239924310431
439.74035305072789
449.469698455189075
2298.48573135794368
2283.66110072684251
2253.1160245216056
2206.3096504284681
2142.06310034598573
2058.50385549007387
1952.98177507326773
1822.67876465184645
1661.62316960561793
1467.53051068235891
1228.58789007941141
922.044977366500575
606.691114720019641
420.179131364542911
369.056267824614565
375.543745552438963
2183.07830615315379
2168.27101600545029
2138.04099171663438
2091.66833865684384
2027.91948365973121
1944.9417754434146
1840.01231817603889
1710.22091598856832
1549.13117989615921
1354.28974214633172
1111.91433079370699
799.162716623166602
488.233762700648469
340.575873677175309
305.894858508559707
311.976308781741864
2069.47259671251641
2054.7596642439953
2024.89042028427457
1979.04669607835467
1915.94513387052621
1833.73233655172726
1729.61740941675589
1600.59238805418681
1439.74416613134963
1244.77664045079314
999.58434598936833
681.296008128374297
386.091643064560401
277.298972078455449
251.837210188581764
254.664838214867927
1957.68756739332548
1943.12773543163439
1913.67986349434091
1868.46686783362111
1806.17054617007489
1724.92836823531343
1621.89325811785852
1493.97991787003139
1333.82978051138093
1139.38340381400053
892.297164328994882
569.95885026719543
304.854329413959306
224.958878434802614
204.80491688982039
203.887468107907722
1847.73755407520775
1833.37910842754991
1804.42185723435455
1759.94898916948841
1698.62562068975672
1618.58007395266873
1516.93409428458358
1390.54396603262012
1231.7128519825701
1038.62277505479096
790.56537057560638
467.28031858061604
239.761088532389067
178.728794473099185
162.837620573250263
160.215305471194398
1739.63350458666173
1725.51777685679644
1697.12533680375714
1653.50803234226305
1593.3345777153811
1514.72829751508357
1414.81762013848788
1290.42765849748503
1133.63354573758056
942.885950961606113
695.165931766412768
373.619736209723669
186.719785338218855
138.694769732436384
125.325304697109758
123.96778203334334
1633.38042901627682
1619.54252137155572
1591.79189940655601
1549.14948199556989
1490.31042585224941
1413.39681420563352
1315.59651397233051
1193.73180600871342
1039.76918352890152
852.541391543613827
606.912973656149461
289.590599779628178
140.553934223305816
104.259042801928899
92.2930431444973465
93.0466725405902082
1528.97249085013709
1515.44757054088882
1488.42050911944557
1446.87470972765686
1389.56021390325782
1314.59894193799778
1219.30608968782599
1100.52261379396396
950.245398901543695
767.887366047428031
525.92480559017622
216.024828891903326
98.7787094815200817
74.4817486992313746
63.7401424787543078
65.4553028452513104
1426.40755339743646
1413.23675883618148
1387.02022765224456
1346.69345947392912
1291.09564980491564
1218.34864994258373
1125.97642954470234
1010.84449512933088
865.148128270750021
688.991853796220084
452.018153156617927
158.784173902858129
64.4100694440640495
49.3966199203818803
40.7915393636890187
43.1130185115344489
1325.73311567135465
1312.90937161772899
1287.57131607722408
1248.57854430902012
1194.8838446024406
1124.59426519983936
1035.55456543076639
924.625752622993332
784.426710347155449
615.762086863602917
385.935567145231516
111.258410300457854
41.9754021760746383
30.2219444771261934
22.9988798044797065
25.2675427915826134
1226.98078309879679
1214.38859920509367
1189.94599777140297
1152.40291047781852
1100.78551053080332
1033.15478407720229
947.805144229383814
841.531722627507634
707.714635891431499
548.139366784665299
329.378472180506606
72.4710428456721729
25.522624594808704
16.2158580850850242
10.0387177216615271
11.5877049793598772
1129.81079587536397
1117.6179867433143
1094.06245021802215
1058.16453906643596
1008.73405383442196
944.05946958491927
862.661193333452502
761.418082183788101
634.628237857582008
485.744792126951097
280.24081236582424
47.1014173200412642
14.0305971063027997
7.19256367532552332
1.90264425278396843
2.62130268442184189
1033.57310605389739
1022.82899203512852
1000.38678094584634
966.393665249120431
919.149857390095349
857.917253469502612
780.666167946667883
684.871992188485365
565.638099488625357
427.565426247478626
234.427487549261514
23.9770049104588452
7.01204033686610018
2.83886858837699485
-0.712429906949834546
-0.859113161176701112
2655.87635364481821
2641.56259751694779
2610.39664375334041
2563.10209207182834
2498.56765106044031
2414.69673051201653
2309.12227059028919
2179.53440894111736
2020.67138493752668
1832.02856028154497
1607.424246884181
1326.28087792602719
1041.84555826351016
807.348508577664688
688.300277474504469
758.417372091765401
2535.14388424568324
2520.67842347776468
2489.7015293046361
2442.5265708220727
2378.057386269782
2294.33009691888265
2188.92889446880099
2059.3744619115173
1900.57972349255215
1711.26204074747875
1484.13904204286155
1199.69600342080525
904.129425614749266
689.23899441369872
617.144575814672521
687.467133107380391
2416.21110495570929
2401.54160871672093
2370.82805570882419
2323.89399336840779
2259.63316929292978
2176.17505280123578
2071.03154647276915
1941.61602048049758
1782.61997890031489
1592.32361629922275
1361.64247441149814
1070.19503036578703
769.625918868633562
576.628034228500383
537.758602378583646
595.975765682952442
2299.02295881099008
2284.25532460610521
2253.83439569618349
2207.23864873818547
2143.32276327490172
2060.27018581521634
1955.51831884421472
1826.38047698366677
1667.13225798632971
1475.80036676640771
1241.27167801336259
942.495443784149529
642.057750602134661
480.950985041973183
460.432462022360369
510.160410216499713
2183.60779804254071
2168.85649240431121
2138.74570761364339
2092.57595967348016
2029.14554265493462
1946.65653917540294
1842.46810335135524
1713.79801255613938
1554.44582372176342
1362.24290450090461
1124.15673928077399
818.498337703519951
521.590509507268507
399.372172515755096
388.377961493698422
431.869878248720113
2069.99258962034855
2055.33440358918779
2025.57829800233026
1979.9285360962067
1917.13032594450624
1835.38498035741532
1731.97517390092116
1604.02209094917566
1444.8338898953707
1252.34113260671143
1011.20979710125607
699.135284500867215
417.892115246207425
332.121963763268752
323.786255024367222
359.586742662373069
1958.19601242797035
1943.68988143948218
1914.34747352011709
1869.31887842390597
1807.30789638925989
1726.50963807073958
1624.13713705748387
1497.2389340328923
1338.64658782016295
1146.56410005556472
903.040222562182635
586.197686671471956
334.549987731814099
273.985460425599797
265.802762098016899
294.082020251514905
1848.23194604218111
1833.92698044827512
1805.06521660130329
1760.76769101001764
1699.70830303317416
1620.08280140324359
1519.05041962296309
1393.61518624826022
1236.22458729512118
1045.46635655221598
800.325836616857941
482.285090564359734
268.937929549055355
220.702310141707102
213.149400743440111
235.246810839612806
1740.1106642674838
1726.05010023315913
1697.73945023070542
1654.29088549217067
1594.35555967221967
1516.14836492040195
1416.79514867343551
1293.29622706618761
1137.84867220575666
949.439731795310536
704.03211666771017
390.972933117995581
213.932158962160543
173.186337739269391
165.295198379614959
184.036472169994994
1633.83653799497097
1620.05857726468253
1592.37024091714761
1549.89529120395605
1491.26210728480896
1414.73452738707215
1317.42399136001995
1196.39148928482496
1043.7388363743737
858.708311307310396
615.199589958955357
309.755012205082835
167.992789517637249
132.212238089421248
123.038301070852626
139.898209499013376
1529.40314176416564
1515.94715096668415
1488.95467150416789
1447.58427934559199
1390.43440428493022
1315.86009337484097
1220.9705497853995
1102.9832194743567
954.008973716552646
773.56486683775961
535.555830070761431
235.734274664807117
126.413758116027225
97.5532862064397932
87.5653725173384032
101.775288550488384
1426.81004451456852
1413.72013417208996
1387.50105203947487
1347.37064352904349
1291.88313827151296
1219.54339131754432
1127.46353780958134
1013.12585688397076
868.652124236638201
694.282526463754721
465.153198818211422
175.587603249651693
83.2909506722593846
67.8044707621938585
59.4214878994934566
70.1571480723155361
1326.11194524037364
1313.38092593827014
1287.98919321374728
1249.23300755797868
1195.57087587546835
1125.74021961536278
1036.84474202075171
926.750787195924204
787.560745653667936
620.629211097925463
399.709683710532317
130.339954259557544
51.0658596224717485
43.2984819330504678
37.5044545821825182
44.7329974973932423
1227.34944103427006
1214.85702375070741
1190.28875854637181
1153.03456279188117
1101.35308692937065
1034.27496390538772
948.876048053768045
843.551840645007587
710.487246753737054
552.49258904289195
337.834431839088438
94.9973815650592996
29.9377206603433876
24.6690104426833159
20.6002485193616351
25.3287059859206494
1130.19645871508101
1118.05162361735711
1094.37361780877404
1058.7149018494099
1009.23802391760273
945.097693261495806
863.57613242250045
763.370118722250709
637.191381307903157
489.428619350030203
284.805528670055082
62.1730239604617054
16.4460634725513017
11.5861034712324908
8.99906321997773517
11.5844054681779696
1033.94923322276509
1023.13251629731485
1000.68706756883103
966.805991669717059
919.792529737511131
858.688971861719892
781.656128153816326
686.759696305489342
568.21060477860533
430.092350418124397
238.686604144336798
37.0723542086836915
8.68350934939050489
4.49880176722765768
3.32315900352958593
4.46713446144345028
2656.41904380251844
2642.16455903147153
2611.13377304147616
2564.06687438003246
2499.88794055150311
2416.5612207619979
2311.81374934650603
2183.47370013000045
2026.54895838787525
1840.95841947889858
1620.60150213427869
1349.85805383926277
1081.30683320843377
858.570160017714556
757.865674215630975
839.192986249779096
2535.68438694036877
2521.27855455348208
2490.43504534816293
2443.48539157928508
2379.36894125146682
2296.18122377597592
2191.59889803351416
2063.27777550168867
1906.39331184398998
1720.02487559592691
1497.10507824658225
1222.78423905115369
940.557299089144863
738.083928610465136
681.905474578756525
767.491937711524656
2416.74770496890778
2402.13790631965458
2371.55506629976526
2324.84219952546437
2260.92859963135788
2178.00147403230767
2073.66411500441609
1945.45722891245168
1788.34114407953984
1600.84091195927886
1374.39530898881185
1092.04376963116306
802.074824416319188
623.646982305467418
596.265617504008446
672.738861725515335
2299.55447426491037
2284.84576542050672
2254.5521423161731
2208.1717012433528
2144.5948575200805
2062.06103987680581
1958.0968927176109
1830.13673616138158
1672.72661996671604
1484.04120026426222
1253.55061796614359
962.592102239047904
672.985872137607203
524.841448784246722
516.553995524024231
582.968084933424166
2184.13337574611251
2169.43927571842141
2139.45176535986457
2093.48954035596535
2030.38748341173959
1948.40168305483508
1844.97619029989914
1717.45608907402902
1559.84339252419522
1370.23402537113498
1135.91527356900747
837.11024184379221
550.70612046055453
439.628961181746433
441.137607618830998
502.014130159146305
2070.51179580220287
2055.90809994153778
2026.27069196290859
1980.81844767045823
1918.33587834078548
1837.07462126877294
1734.39966951938641
1607.57209210662313
1450.05544305089393
1260.06494308217111
1022.32978631961907
716.627728796685119
445.698181296168684
370.06529198657654
372.40755841701565
424.046565343974805
1958.70909111908259
1944.25338478193203
1915.02490987977808
1870.18102247119941
1808.47170398500543
1728.13452068764718
1626.46744808985159
1500.65431810352334
1343.64112894550476
1154.09524335716264
913.587995150505094
602.346787966699708
362.449410771830117
310.329794332516656
309.20982395704516
350.655225891962914
1848.74017790485459
1834.47948847876023
1805.72751965194266
1761.59796601163907
1700.82631695795681
1621.63459108496454
1521.27752577275533
1396.88446240470148
1240.97861412811721
1052.73110438066124
810.324962873372101
497.541882105510126
294.736696693843896
254.140479238761827
251.367091597272122
285.544611978701425
1740.61672331531599
1726.59108950845143
1698.38804903193204
1655.08465338585552
1595.42562641641484
1517.61895062049871
1418.9136992966628
1296.40400333609341
1142.37548987194555
956.381961039379803
713.635076657776153
406.016713239587602
235.903684184577628
202.921506739293363
199.637004600460273
228.946749084652822
1634.34466583385915
1620.58778054509617
1593.00865629218947
1550.64642496250008
1492.28458485619694
1416.11577595567996
1319.43194185116636
1199.32621763151815
1048.02538369992681
865.287684507722133
624.870224912843241
323.76109864119303
186.342298842745834
157.841943228600712
153.894960781194982
179.529800596790636
1529.91768416581317
1516.46389691104014
1489.58935925481887
1448.28450447335149
1391.41317066271631
1317.1438039884199
1222.87044714297917
1105.73210707649014
958.023872463261796
779.756621937352747
544.955612499559265
247.800000364403331
142.962304689795701
119.181426361154536
113.657601873532172
134.854664507266989
1427.33346665658837
1414.221437444515
1388.14121480154904
1348.009687343319
1292.82685551259465
1220.72110745617488
1129.25951946875352
1015.67096258413835
872.395605529762406
700.074283354349518
473.932604385281365
187.799651121112447
100.727903441914918
86.061114018828448
80.2607160835242155
95.7182256789604082
1326.65219021113262
1313.86173395484798
1288.64583959276638
1249.7932107744839
1196.49611156536002
1126.79783238386676
1038.54990403848228
929.068577038992771
791.015052093501254
626.079678922000539
408.834470585188228
140.702237131555194
64.3790279792396518
57.7820190628875849
53.2332104153862886
64.1557734272212485
1227.93382902274857
1215.3124766163919
1190.97106669851155
1153.47732861930012
1102.27399464347423
1035.19784564693032
950.53544358426916
845.644344503671391
713.590961216937558
557.49319776393304
347.790557038083534
105.491022607292621
39.2717131337029741
35.2143156942141573
32.7519055495376463
41.0710403389755925
1130.81943745409831
1118.51877638801943
1095.04453452286975
1059.04438327962794
1010.1141994566724
945.973406210647454
865.140282600296132
765.238970301934842
639.830791555059477
493.977577695785612
294.581526155079018
75.2099744257247949
24.0860925898823126
19.2350823863020253
18.2679295672542139
24.3170286803157865
1034.4405760688785
1023.6315132775328
1001.3150367108592
967.061846355288935
920.492018345528777
859.761584477191036
782.901581033117736
688.365597654674502
570.184740605622892
434.730620792078525
247.852040106093909
48.1017930139822738
14.6060876449276265
9.74210156822586271
9.47187240124103802
12.4510735540788069
2656.92758690791743
2642.72981490662551
2611.82811513355864
2564.97848939839241
2501.13822694453756
2418.3287706360934
2314.36405780507539
2187.19556680050164
2032.071145377211
1849.29955928749268
1633.34222233502692
1370.53837979218201
1114.14427224236238
896.577408322690758
799.328982596304172
879.20260215146277
2536.19096279356336
2521.84205519693751
2491.12603105168182
2444.39158963337923
2380.61136561159128
2297.93682934428125
2194.13038972198592
2066.97358759084636
1911.87096694411616
1728.31732841418579
1509.68469063428483
1243.84503618964618
972.225654290100692
775.25440533818346
722.542249584113392
808.978009001926466
2417.25064853164258
2402.6977633959732
2372.24007826882507
2325.73884311228448
2262.15633048003156
2179.73450879560687
2076.16185781293916
1949.10170098001436
1793.75352759063799
1609.01112662134756
1386.83026156972892
1112.41853812463887
829.048425549205945
657.784437532865127
634.99334643188422
713.46513059507879
2300.05252011048287
2285.40012342192631
2255.22863176907276
2209.05472829704604
2145.80112080946401
2063.76126453918096
1960.54581813634763
1833.70854962996395
1678.05068631695781
1492.04647126918053
1265.96010204133336
982.143761794756756
698.332184332837642
555.910624671134656
552.915284761166163
621.690713648157953
2184.62535401725427
2169.98651013851577
2140.11737398961759
2094.35519279122127
2031.56579026117151
1950.05963870075243
1847.36204708474656
1720.93984982045004
1565.04969842528453
1378.10765371912066
1148.19844966907863
856.436954013930631
577.270156342817472
467.668979914242186
474.810473916166984
538.845769413022367
2070.99656311084618
2056.44702805790121
2026.9232726234236
1981.66342073514465
1919.48007569121364
1838.68174963833189
1736.70974434222717
1610.95418805060945
1455.14501177854845
1267.82881907372166
1034.66397672947141
736.956761937477268
472.518208327956586
397.222872322768353
403.334375151910024
459.389117810739549
1959.18550203592372
1944.78338220858404
1915.66253366056981
1871.00274113644218
1809.57582073840058
1729.68324141072549
1628.68906789428547
1503.91842259924283
1348.59810603185929
1161.74805848269125
926.643476231666568
624.975901167404913
388.911383536710161
336.46846722350449
337.567990877273189
383.343924214908554
1849.20697953048466
1835.00077143134831
1806.34843952378628
1762.39493944625383
1701.88419438179608
1623.11846587422087
1523.39692703782111
1400.01912921448002
1245.76752742864392
1060.17560039915907
824.478669891035111
520.912289365799211
317.31360938484255
278.42755368254609
277.603357573072799
315.705980778988874
1741.0726490926254
1727.10515078630715
1698.99054861766581
1655.85705610758509
1596.4302780645437
1519.03280646020289
1420.9165708705234
1299.39764483634872
1146.92380321115752
963.583544274835504
728.464549765187257
426.534517043160463
252.503363346938443
225.040699611333594
224.378496808784803
256.527797612114114
1634.78927142661587
1621.09838194097165
1593.59119644855195
1551.3972842502958
1493.22725420772599
1417.45585053696823
1321.30377921579429
1202.15992261492488
1052.2268137533199
872.265362910287877
639.124787212104593
342.587867123282422
195.865836393025688
176.962359291373218
176.866346212210601
204.197482782301449
1530.35324103623202
1516.9779572839202
1490.15068154624396
1449.02124410527176
1392.28261681488016
1318.40732585882506
1224.59660684337859
1108.37613099123746
961.788770297278234
786.377536957072152
556.909669846198085
269.987538318460793
147.829340318049333
133.80265952864471
133.774761005024089
156.515068472808309
1427.7642357577879
1414.74847495138442
1388.67957877193567
1348.74382179206373
1293.60931696222747
1221.90579878881749
1130.8243483154979
1018.10409604239726
875.750645666043738
705.949152136630573
482.025064167695291
207.050555974154122
106.954754714674294
97.0593325365884141
96.2917242103839754
113.675101201677307
1327.08206236192973
1314.4187619001857
1289.15780338435479
1250.54286079842495
1197.1690615898051
1127.90925390258099
1039.93241904603087
931.286446049912456
793.993119787723344
631.131625705936131
415.015595273529925
151.836813137317677
74.8615372112306829
67.4767059600473402
65.7384074098724227
78.0349739843546502
1228.36546241816882
1215.9317300446985
1191.45503178545459
1154.27771483785591
1102.787599981114
1036.25384019348166
951.717451468957734
847.630592086168463
716.16077472108168
561.74026157225012
355.317627800147193
111.850197838346276
50.1290522722310925
43.8950974668346987
42.7587498494629443
51.8350903544628494
1131.30182295191844
1119.18644462515908
1095.56754315930721
1059.90579594534256
1010.46026056454275
946.860335416383577
866.131125690539875
767.017153288962618
642.068606295329573
497.303140151096386
301.998055217027968
79.6095051582015003
31.9124557811403804
26.115486775585893
25.7374574892121188
32.9607017651993601
1035.0319468209359
1024.26375612386209
1001.91126180354195
967.892551475976916
920.855533511178692
860.168700989371928
783.818667609291651
690.227817048928728
572.536545177074686
437.067149844515825
253.255639801571533
49.6441599078550553
18.6583048629700272
14.6227100985026865
14.7193388653273836
18.3335155305206641
2657.37611198767991
2643.2271886308049
2612.43979522272684
2565.78252862832733
2502.24160737060265
2419.88769979651079
2316.60734478579479
2190.45406791844016
2036.82125983072478
1856.16098449448373
1643.26571727344572
1381.68081119599083
1124.72500742908255
916.173891863413473
821.520176584478463
905.199370765825734
2536.63786191834924
2522.33783652201328
2491.7349138862005
2445.19108997332523
2381.70789828765783
2299.48504965366283
2196.35700626433618
2070.21028645754404
1916.58911242806244
1735.17539949148704
1519.69580332684677
1255.26886808707945
986.926712751441983
797.978101314280025
748.25988612882702
837.430261163017008
2417.694498574916
2403.19039247719002
2372.84388180929318
2326.52995310109145
2263.23955311438158
2181.26166571337353
2078.35502557446125
1952.29240214811534
1798.3930754433286
1615.84298343597266
1396.76215683425767
1125.16519447531232
849.198047204735872
680.487662363229674
662.732201271718168
743.433640917406933
2300.49228932595133
2285.88811723602703
2255.82524298875023
2209.83376304210651
2146.86495484380475
2065.25757968541939
1962.69072027086304
1836.83116825903562
1682.58070653227765
1498.82563173353674
1275.59520489338229
997.007914331354414
719.212285932122086
577.268970872587715
577.908538596396852
650.337151495472881
2185.06017442724351
2170.46849017681325
2140.70500841821331
2095.11883171672434
2032.60482600826163
1951.51609674261499
1849.44683886024745
1723.96817037707774
1569.4885191474018
1384.74267867192748
1157.90322278819758
872.941498902820854
597.251025261283075
488.407072940650892
497.190683837521874
563.960971414909864
2071.42560466122995
2056.92182378826101
2027.50061866710553
1982.40870629919687
1920.48964961064462
1840.09056363883269
1738.72268573926249
1613.86551463233945
1459.45410546263861
1274.25382758585329
1044.92879339486035
752.874738206814641
489.933384734147864
416.794555778710787
423.560827533219992
481.039468851157437
1959.6079100756856
1945.25000363724666
1916.22900666316059
1871.72705618978762
1810.55219694260359
1731.03772179089901
1630.61946614015642
1506.70793412602143
1352.76824445169404
1167.87278169049841
937.33406012477792
639.700336600741252
400.217708051407385
353.836613120673746
356.508781718242687
404.093836821440391
1849.62174860800951
1835.45846674633412
1806.90459635045863
1763.09589247636404
1702.82500573044445
1624.41269763581295
1525.23715743938283
1402.6750105681881
1249.76872488676418
1066.06410374931352
834.976691597937588
535.736081223135443
326.347341820302177
294.444451236573457
295.477490009548774
335.48088513056689
1741.47816769135693
1727.55340628455247
1699.5387984041995
1656.53234008641357
1597.33530972959466
1520.26192700583488
1422.66118574164943
1301.90742198835233
1150.72928163908796
969.231078640217902
738.341358485222145
442.246995723331111
265.610662355446379
240.037072456530353
240.354434193660381
275.228421733690652
1635.18258583121587
1621.53727315688138
1594.13683192692838
1552.04457118813934
1494.09952709330469
1418.61621105383892
1322.95002519830973
1204.50353355639459
1055.83752309186207
877.59870979113407
649.147248893508959
359.936384052147105
211.891368721692118
190.245935433580001
190.817975583290149
221.908273014288909
1530.73077620276376
1517.40943881861108
1490.70181366826387
1449.63718089981853
1393.12830613316737
1319.49713172103338
1226.14440525229952
1110.52933415925213
965.19631301089089
791.290908684520446
567.761774062062841
286.2690218660764
160.964047439888247
144.71893612150177
145.655479227055935
171.83786141338939
1428.12236238106698
1415.1773925025891
1389.2447899307349
1349.32168415073534
1294.43599587215704
1222.92601111837212
1132.27775828676909
1020.03682758479681
878.857781324593816
710.377081745864189
492.891463047363914
219.924487220621813
115.501388437884543
104.955131058925531
106.083729634523309
125.813285813563866
1327.39673943332059
1314.84574362337298
1289.75349375078667
1251.07138732007616
1197.99144758325383
1128.86027714961369
1041.3011199432724
932.958103298333072
796.759366665180323
634.942822097400722
423.704851861485395
160.96394743218616
77.8721687820656143
72.4419485867806543
73.3980208261018845
86.9573916700238954
1228.54919803831194
1216.35075054006802
1192.11596743153973
1154.74648298592729
1103.64698079427376
1037.14313518121253
953.005682377498943
848.969574650978984
718.571770588215259
564.832961464097934
360.925192217291396
117.578219690636388
50.6204835368896795
46.9043719769885286
48.4123635157327286
57.3803046507866412
1131.28448516919138
1119.6819545438982
1096.27628251146712
1060.35325956685915
1011.33890350257366
947.764852598669677
867.307826163367508
767.977737749326025
644.071694584723218
499.768909540882305
305.084059897368661
82.9552471240119758
31.9991147211121501
27.1186895845567619
30.0042844660678654
35.9321905178353376
1034.91924573166852
1024.86514657173643
1002.49797480715893
968.344511884465646
921.512441585086208
861.313229040362103
784.810973059217304
690.730085971151539
573.920370492894335
439.340194276404418
254.646831607023159
48.4058007734463445
17.9418781386638386
14.6742475504606169
17.6139212916773609
20.2957017173121486
2657.74023626604048
2643.62861255114558
2612.93345293548418
2566.43111789572367
2503.13011744542382
2421.13941099959948
2318.39799536738474
2193.03637278514998
2040.51427645863805
1861.41489693795143
1650.96776929737257
1390.87515956793231
1135.28829734058354
931.454759617260606
836.634008361541646
916.218094876753753
2537.00074587158861
2522.73801273822937
2492.22623919891612
2445.83582535373171
2382.59037864133506
2300.72675874622428
2198.13142582629234
2072.76575998779026
1920.24185057302748
1740.38692507861333
1527.32691169709506
1264.55416948272
997.373756380887016
812.121578517789089
763.991517269984115
848.909491473585035
2418.05523849221299
2403.58831482627193
2373.33106553776224
2327.16761009371476
2264.11031433295193
2182.48380130736905
2080.09668570762369
1954.79573980484861
1801.95738546914799
1620.94315035034811
1404.1481283053854
1134.76482701465511
860.823772684092773
693.990259109730005
677.783343074715731
756.670485567039805
2300.85032260311755
2286.28281401281856
2256.30654227700416
2210.46131259414642
2147.7186488999032
2066.45095811317378
1964.38444179746193
1839.25445450823349
1686.00567249971709
1503.70745067290954
1282.66372011385693
1006.41558040458358
729.141833136231639
589.484874106672351
591.966463614685949
664.257163291985876
2185.41508636936214
2170.85907125572294
2141.17877190880836
2095.7335949382209
2033.43655001323259
1952.67218259596757
1851.0790640043283
1726.28448225379725
1572.73760487065238
1389.28533216059532
1164.31856948766699
881.325450505435128
604.873728107120996
500.238642842693935
510.216108072691441
577.398607313385355
2071.77706127254442
2057.30758616768662
2027.96526333419342
1983.00846545465197
1921.29492060949838
1841.20168667248572
1740.28085933582747
1616.05135781616855
1462.47902045450974
1278.39551984884793
1050.40102525011775
759.541514475292502
497.938295187531594
428.372292852482644
435.832953201839587
494.207222379994391
1959.95568670508965
1945.63050606615343
1916.68309292521917
1872.31037094543331
1811.32703685028878
1732.09739979960455
1632.09303167939197
1508.75127322652565
1355.57236640500423
1171.55214682514338
941.840098612470001
644.561681949031254
410.884732057326346
365.027674862314143
368.338507778748749
417.548777127048027
1849.96598090027396
1835.83366043479327
1807.34678284198753
1763.66253195831041
1703.56599656696426
1625.41590849040131
1526.61741524887771
1404.56439283082887
1252.3535217238707
1069.28757433036367
838.832894588964109
539.09606551784816
337.516844808401288
304.991865685692801
306.282410243839479
348.73326554211269
1741.81970278804965
1727.92361226041953
1699.96749898941471
1657.08387700615117
1598.03935412112855
1521.20507533123396
1423.93942919840856
1303.63840938782732
1153.08465326336204
972.057048526799463
741.828896299322423
444.283014360781635
275.078585286348584
249.617944949182458
250.354216703022445
288.064052489424967
1635.5228354845226
1621.90301000818749
1594.550304667207
1552.58534809988691
1494.76363828710373
1419.49664812130686
1324.1168598146844
1206.07468548132192
1057.95212458830679
880.118488447387563
651.931356380392572
362.247725775874642
219.587389514878396
198.942522222974617
200.374415734665007
233.482870555927178
1531.0713522901849
1517.77078387258643
1491.09868129431379
1450.17416931027697
1393.74899197532841
1320.31312205326685
1227.18947150298914
1111.94472591698673
967.066235079057833
793.518048649837738
569.621021644112489
289.293013378952764
168.738057139547152
152.59018783161423
154.047429430073976
181.06111331651158
1428.46794096179337
1415.53129723588768
1389.62089065820487
1349.86216845168519
1295.00694885440157