/*--------------------------------*- C++ -*----------------------------------*\
| =========                 |                                                 |
| \\      /  F ield         | OpenFOAM: The Open Source CFD Toolbox           |
|  \\    /   O peration     | Version:  2206                                  |
|   \\  /    A nd           | Website:  www.openfoam.com                      |
|    \\/     M anipulation  |                                                 |
\*---------------------------------------------------------------------------*/
FoamFile
{
    version     2.0;
    format      ascii;
    arch        "LSB;label=32;scalar=64";
    class       volScalarField;
    location    "0.0899999999999999967";
    object      rAU;
}
// * * * * * * * * * * * * * * * * * * * * * * * * * * * * * * * * * * * * * //

dimensions      [-1 3 1 0 0 0 0];

internalField   nonuniform List<scalar> 
29184
(
2.82675765773639771e-05
2.66807712341581834e-05
2.52371291444232192e-05
2.38760556378979649e-05
2.25715429516176542e-05
2.1295110795690231e-05
2.00246204972224916e-05
1.87554277885736374e-05
1.74666445030699776e-05
1.61265734092197791e-05
1.48823074841215563e-05
1.3867122117187574e-05
1.39997597880247194e-05
2.05310441380030538e-05
3.45116605743351699e-05
4.06544368147646648e-05
2.67978467054546109e-05
2.52913347648600373e-05
2.40018435816932515e-05
2.27385497634470651e-05
2.14973572932589585e-05
2.02604087244834296e-05
1.90207943901238932e-05
1.7770588823026942e-05
1.65087080171488819e-05
1.51623793923623019e-05
1.39787303462921809e-05
1.31819557646772539e-05
1.38166258373320492e-05
2.17724420720792173e-05
4.10696631276457811e-05
3.76949502430977518e-05
2.54691846096895886e-05
2.40617155860720553e-05
2.28865756187445443e-05
2.16902448100739163e-05
2.0495882415150494e-05
1.92973593850572311e-05
1.80893719926715692e-05
1.68601216315106744e-05
1.56286617057261862e-05
1.42942674466029133e-05
1.31634934772916082e-05
1.25059993194610908e-05
1.41951136920641322e-05
2.55789924486153186e-05
4.92507229291112524e-05
4.0454697828916616e-05
2.42733854584483286e-05
2.29730861825806965e-05
2.18876201336439081e-05
2.07556728149122266e-05
1.96097325493425205e-05
1.84514688200942301e-05
1.72776721085167001e-05
1.60781652335516209e-05
1.48766467512577884e-05
1.35675017194911928e-05
1.24857686802745783e-05
1.18515600093227503e-05
1.42598122828947418e-05
3.0902243144699297e-05
5.66988948760809093e-05
4.57133581437455436e-05
2.31978444750953561e-05
2.20027873247986765e-05
2.09918606554234646e-05
1.99207968145036496e-05
1.88233772734199523e-05
1.77063889675007149e-05
1.656872331119781e-05
1.54038809898364192e-05
1.42289049042968396e-05
1.29588885490067436e-05
1.19296725635361414e-05
1.13155833411505094e-05
1.47931790176364814e-05
3.76037018241354273e-05
6.59163111208687974e-05
5.20221723160867782e-05
2.22298507708846093e-05
2.11335064125421656e-05
2.01881849688677139e-05
1.91743055929057877e-05
1.81246907811408063e-05
1.70493838646399839e-05
1.59492679722269169e-05
1.48208943936709671e-05
1.36801285723405873e-05
1.24612029930875268e-05
1.14653304050362583e-05
1.09577096839016926e-05
1.6560576256020038e-05
4.58081107063347981e-05
7.62078277802737537e-05
5.84810161240967457e-05
2.13577109837185298e-05
2.03523614273985935e-05
1.94664701574848704e-05
1.85063588703772308e-05
1.75033527789313775e-05
1.64697473103705692e-05
1.54078392769289163e-05
1.43174506983427436e-05
1.32120533510489509e-05
1.20414266293360073e-05
1.10684037424595526e-05
1.07569547509341334e-05
1.9429417540789175e-05
5.13133365638965185e-05
9.08953481464955357e-05
6.58400106134611934e-05
2.05709599121004e-05
1.9649063972732264e-05
1.88177876991249611e-05
1.790841632502704e-05
1.69505336627623323e-05
1.59583814733145207e-05
1.49348613448201891e-05
1.38830215128937655e-05
1.28140479587593034e-05
1.16909473493364371e-05
1.07444033142421065e-05
1.06102446241211559e-05
2.31765151240057439e-05
5.77893307372856339e-05
0.00010877948865802871
7.23164954766336565e-05
1.98602958382985772e-05
1.9015097807521251e-05
1.82343235639322615e-05
1.73730421575731794e-05
1.64585966801579743e-05
1.55075680390955167e-05
1.45221979276041067e-05
1.35091320423328483e-05
1.24773699692125764e-05
1.13996300444035987e-05
1.04859892057944752e-05
1.06281151768463866e-05
2.77851477890514325e-05
6.72566532461990851e-05
0.000130714769909251162
8.12957198394738086e-05
1.92174543083286201e-05
1.84432953259100852e-05
1.77092388778335695e-05
1.68937691049236374e-05
1.60208839382106209e-05
1.51107725952947463e-05
1.41629305962040536e-05
1.3188838926458907e-05
1.21944499167219684e-05
1.11601133169928197e-05
1.02880212467273597e-05
1.06878781113981204e-05
3.24053087970623484e-05
8.01743780121845918e-05
0.000155436015155003074
9.13666780700580345e-05
1.86350872846396536e-05
1.79276536647850462e-05
1.72365176571720841e-05
1.64649728255784556e-05
1.56315433969153348e-05
1.47625090469504325e-05
1.38511558300700815e-05
1.29164241503045747e-05
1.19586737457660205e-05
1.09670172263946816e-05
1.01410895507893066e-05
1.06278682577998167e-05
3.71996527952677392e-05
9.92912460976449297e-05
0.00019089802434135814
0.000108828123896420178
1.81067623090079769e-05
1.74632123213148998e-05
1.6810794578728121e-05
1.6081728689155051e-05
1.52853515484880742e-05
1.4458226910649556e-05
1.35818204704263685e-05
1.26871383669578847e-05
1.17643658863708002e-05
1.08154578095887775e-05
1.00334363965919251e-05
1.15276488550109736e-05
4.53572276593933169e-05
0.000127122683219845086
0.000238824865816962832
0.000128584734663673674
1.76271445817255346e-05
1.70461611193445938e-05
1.64272584228744256e-05
1.57396903054495985e-05
1.49775365596176805e-05
1.41942746696496075e-05
1.33506504427069103e-05
1.24972671141020697e-05
1.16064881686554697e-05
1.07006092748493556e-05
9.95027058641726036e-06
1.25851066432713526e-05
6.27695180559875482e-05
0.000169760526484139191
0.000312236374174640514
0.000150681782084731452
1.7193122427946029e-05
1.66745581465943351e-05
1.60816731565969221e-05
1.54350495158290866e-05
1.47038768017043883e-05
1.39679897757083082e-05
1.31542045451260403e-05
1.2344198927016653e-05
1.14817617931607784e-05
1.06258110567544627e-05
9.91196166389367956e-06
1.33573699009651024e-05
7.81851310124286188e-05
0.000239603159151495547
0.000433097523194689304
0.000173935187668169098
1.68061925000003672e-05
1.63468794555198858e-05
1.57701147267793595e-05
1.51637084577497951e-05
1.44617463209384814e-05
1.37771494410801419e-05
1.29905026715183499e-05
1.22262791370850059e-05
1.13906186520831407e-05
1.05949403058366602e-05
9.90389739528079495e-06
1.38337366471927363e-05
0.000104404598510934239
0.000372101785748360806
0.000620068738247220503
0.000173614356892959923
1.64714136807314028e-05
1.60566217288730629e-05
1.54903580009342486e-05
1.49208484771221624e-05
1.42529315430941953e-05
1.36189466241417907e-05
1.28611532018989236e-05
1.21434722121948873e-05
1.13346466118458069e-05
1.06072718807184276e-05
9.91907076650367763e-06
1.55638252127145404e-05
0.000150392333013598664
0.000756464892179098923
0.000901962935166346347
0.000166868244782596891
2.82730391278711212e-05
2.66898163355856211e-05
2.52496299992911639e-05
2.38921698327895223e-05
2.25916722824300912e-05
2.13199851571921895e-05
2.00553507449464402e-05
1.87938130441968156e-05
1.75131338517023082e-05
1.61894227814275703e-05
1.49386301544903697e-05
1.39840668352686887e-05
1.40179280230923357e-05
2.08821348898618376e-05
3.80835532453106964e-05
5.15787937660366032e-05
2.68042062758897538e-05
2.53010402130260858e-05
2.40147097989657183e-05
2.27547838666498724e-05
2.15174590269527745e-05
2.02851879391257858e-05
1.9051343000613241e-05
1.7808575433187075e-05
1.65546036820717533e-05
1.52245991119098563e-05
1.4028136552162854e-05
1.33321253700377736e-05
1.39106191684211655e-05
2.25121112204484909e-05
4.48477936057861616e-05
4.55509590707474978e-05
2.54762374710843427e-05
2.40718588741351598e-05
2.28996346713667333e-05
2.17065125531318192e-05
2.05159155695599078e-05
1.93219391015890579e-05
1.81195399300028889e-05
1.68975220437922765e-05
1.56733709750128825e-05
1.43554519356069684e-05
1.32059320386354861e-05
1.26905840785076516e-05
1.45365126428263124e-05
2.77046679497233853e-05
5.13134033228121206e-05
4.74945999843022002e-05
2.42810152094893552e-05
2.29835166172750518e-05
2.19007726491333236e-05
2.07718659186379254e-05
1.96295478982904456e-05
1.84756076453064017e-05
1.7307180061253653e-05
1.61143607344259376e-05
1.49199350767723033e-05
1.36253120625050524e-05
1.25271994475613587e-05
1.19894826240219761e-05
1.48494012580518382e-05
3.50787742269121873e-05
5.74975184740662807e-05
5.12636757851166685e-05
2.32059878924832365e-05
2.20134161104066133e-05
2.10050541264204914e-05
1.99368356080833648e-05
1.88428732210752451e-05
1.77299213307872319e-05
1.6597353516529632e-05
1.54384730864198349e-05
1.4271167717903616e-05
1.30125115391335228e-05
1.19701560575652881e-05
1.14483883267504684e-05
1.54604032092932694e-05
4.32088240775868943e-05
6.47287094818544317e-05
5.32384740555690586e-05
2.22385080154490466e-05
2.11442764746653793e-05
2.02014107142477664e-05
1.91901263737253924e-05
1.81438102562722217e-05
1.70721960223865909e-05
1.59768845297193575e-05
1.48539400005082583e-05
1.37203008588002675e-05
1.25090868971394712e-05
1.15083685427662144e-05
1.1074250352644949e-05
1.72881032247398701e-05
5.20175572400150024e-05
7.25747506056463094e-05
5.70252264048507696e-05
2.13669690929793275e-05
2.03632316225177945e-05
1.94797811029978926e-05
1.85219052221175819e-05
1.75220951664353834e-05
1.64917314579994744e-05
1.54344331491414476e-05
1.43491710266862901e-05
1.32501567470961955e-05
1.20868745089984643e-05
1.1116783163176847e-05
1.08788505956875059e-05
2.03853364552766698e-05
5.67969284210097862e-05
8.29007874145690226e-05
5.94458243576820287e-05
2.05810538172587091e-05
1.9659993403840707e-05
1.88313440917838947e-05
1.79236308240420042e-05
1.69689771994987089e-05
1.59793893131841724e-05
1.4960547234529788e-05
1.39135652190779577e-05
1.28504299024154774e-05
1.17375872920161573e-05
1.07946917796057676e-05
1.07935805943594749e-05
2.50585976214956251e-05
6.30426714670053671e-05
9.56272988369294294e-05
6.4039027587781724e-05
1.9871689226827588e-05
1.90260273134167774e-05
1.82484761382604401e-05
1.73878484341642447e-05
1.64769411071516298e-05
1.55273382628172983e-05
1.45471789890488037e-05
1.3538339340755265e-05
1.25131181531438039e-05
1.14503327624074037e-05
1.05409854405004348e-05
1.10083044499456924e-05
2.92990380106026426e-05
7.13473551986925681e-05
0.000111168623617471617
6.95570638154592493e-05
1.92309630063164651e-05
1.84540974991325467e-05
1.77246569163253173e-05
1.69080315723419103e-05
1.60395279681392193e-05
1.51288283219706299e-05
1.41874246653238087e-05
1.32162238905347419e-05
1.22313886686019604e-05
1.12125132844850739e-05
1.03425045816042793e-05
1.12529534466798299e-05
3.60939871139082468e-05
8.31785609814456723e-05
0.000129057883782969816
7.67017512363073293e-05
1.86520556658769579e-05
1.79380534703907433e-05
1.7254361711771149e-05
1.64784220808548258e-05
1.56512005467005566e-05
1.4777998858205201e-05
1.38753917071813987e-05
1.29414612807718874e-05
1.19975659321954552e-05
1.10146979247109404e-05
1.02019589683690803e-05
1.11340454612003937e-05
3.78896670907722863e-05
9.92870249940508692e-05
0.000154660034836640855
8.64098742654467321e-05
1.81292490169693393e-05
1.74726593525386506e-05
1.68329427026283455e-05
1.60938394759676455e-05
1.53072095756868771e-05
1.44696770198849863e-05
1.36062666542128975e-05
1.27092098513287577e-05
1.18030191493160037e-05
1.08550585278305248e-05
1.01160319931356452e-05
1.04980497287102804e-05
3.58126139704391074e-05
0.000120510865347684524
0.00019280559164070604
0.000102895924748964005
1.76580999928646651e-05
1.70535834337380495e-05
1.64565689790797663e-05
1.57494633204263783e-05
1.50034882392718643e-05
1.41991811206313128e-05
1.33763727509357393e-05
1.25149480790005631e-05
1.16409862701642985e-05
1.07353906156130343e-05
1.00704904582932956e-05
9.9648256275845948e-06
4.00323683006184835e-05
0.000150297204249464755
0.000253934511294790779
0.000122934210146009425
1.72362650410861943e-05
1.6678141529813475e-05
1.61221465358681792e-05
1.54407179338618297e-05
1.47366958223431468e-05
1.39623703263070694e-05
1.31831307097837718e-05
1.23546148742240824e-05
1.15101350639414779e-05
1.06520602743461465e-05
1.0006387375094872e-05
1.3193491314907675e-05
5.21534351096858846e-05
0.000197452874330393628
0.000356361689390332715
0.000146303681556793369
1.68643748002715273e-05
1.63450366901709618e-05
1.582536543900068e-05
1.51631367797769446e-05
1.45036353672225846e-05
1.37566460852625962e-05
1.30246354967270285e-05
1.22251924698426241e-05
1.14117984864088793e-05
1.06111328733888941e-05
9.95085043165610427e-06
1.53987624276937946e-05
9.01348624349327559e-05
0.000292038838726715194
0.000537801057427279698
0.000164872274428674815
1.65452545807620414e-05
1.60515287392380033e-05
1.55606472614255857e-05
1.49149194896894848e-05
1.43012377663525668e-05
1.35836370177975304e-05
1.28987708051985462e-05
1.21276220554732574e-05
1.13469111238304281e-05
1.0618660559028126e-05
9.96138798473748074e-06
1.71403023517710225e-05
0.000119839445739117385
0.000544280287827545286
0.000922757877896084456
0.000181166149574917495
2.82807465264697311e-05
2.67008617396621805e-05
2.5264140508857283e-05
2.39104628543622084e-05
2.26142901632954473e-05
2.13478894499046053e-05
2.00903040816718289e-05
1.8838332145417271e-05
1.75731389070848491e-05
1.62716483424852902e-05
1.5076678623481014e-05
1.41343712336432545e-05
1.39926820715087709e-05
2.10128210428625037e-05
4.21649320774151396e-05
6.11197858246612514e-05
2.68126525669297805e-05
2.53126029439871888e-05
2.40294656571577441e-05
2.27730557077518274e-05
2.15398222699778981e-05
2.03126450860530984e-05
1.90854892370914053e-05
1.78519869918452434e-05
1.66124638448058632e-05
1.52978679739632038e-05
1.41808697980704689e-05
1.33396260820440344e-05
1.34338980478612814e-05
2.15182763736377337e-05
4.50122461556944287e-05
5.37490039003268353e-05
2.54852165037857491e-05
2.40837396159311388e-05
2.29144347740648282e-05
2.17246285347146492e-05
2.05379489304127462e-05
1.93488284923413701e-05
1.81528909991966289e-05
1.69392783469788022e-05
1.5729597996116595e-05
1.44226999577726022e-05
1.33744127760858468e-05
1.25347981377784522e-05
1.43883752741711778e-05
2.71245938711059441e-05
5.67201832688154126e-05
5.47501025157696186e-05
2.42903891875049971e-05
2.2995552188754627e-05
2.19154809657402906e-05
2.078971038629588e-05
1.96511052121235004e-05
1.85017336003876287e-05
1.73395224539761299e-05
1.61538352771006421e-05
1.49752195396492889e-05
1.36901569903690123e-05
1.2683596412236933e-05
1.19404497017750138e-05
1.45891673864449694e-05
3.48688278455056803e-05
6.19040235524137176e-05
5.70917617171166545e-05
2.32156458074453834e-05
2.20255129021719365e-05
2.10195734089292896e-05
1.99543423523646062e-05
1.88638509319384802e-05
1.7755191990264258e-05
1.66282710949147702e-05
1.5475739692633066e-05
1.43247892217479625e-05
1.30702729471029571e-05
1.20974964784340171e-05
1.1459013510672578e-05
1.53030886240677596e-05
4.36877617795369832e-05
6.85732419097633889e-05
5.79839962991380285e-05
2.224835371995398e-05
2.11563927171471814e-05
2.02156607203330856e-05
1.92072759351502013e-05
1.81641417360563472e-05
1.70965608338894037e-05
1.60061759941055591e-05
1.48896013967201086e-05
1.37650542410240931e-05
1.25549602034307881e-05
1.16052737960100559e-05
1.1180875195594944e-05
1.76315142989833253e-05
5.61782327043800877e-05
7.50843595298388038e-05
5.96687980426659049e-05
2.13768898890715805e-05
2.03753669302999537e-05
1.94936669451750394e-05
1.85387302316762755e-05
1.75417296144569389e-05
1.65151557861471629e-05
1.54621079859335788e-05
1.43825519414672964e-05
1.32905025561838269e-05
1.21327670770447835e-05
1.11900641981191256e-05
1.10869182957947876e-05
2.15392450421179223e-05
6.30618205499698881e-05
8.3327844126013592e-05
6.432142913278513e-05
2.05908707126226498e-05
1.96721889751785645e-05
1.88447110517365686e-05
1.79402390231334403e-05
1.69878511559026682e-05
1.6001938821093045e-05
1.49865350407724242e-05
1.39447390297011363e-05
1.2886673200908813e-05
1.17794739819629282e-05
1.08459395540875569e-05
1.10730016438063311e-05
2.61422036125276576e-05
7.01933175158875349e-05
9.38110887032230303e-05
6.86824736573317851e-05
1.98810963020926481e-05
1.90383827785545801e-05
1.82610442037890092e-05
1.74044753390085902e-05
1.64949444512709928e-05
1.55491919667201686e-05
1.45713106936455851e-05
1.35672584623519837e-05
1.25462861480482934e-05
1.14885853618473685e-05
1.05789377400679707e-05
1.13215722620293562e-05
3.05829226712775088e-05
7.93255852145783387e-05
0.000105811242108536704
7.29579907237665475e-05
1.92394245914403927e-05
1.84668173397986685e-05
1.77359282613563228e-05
1.69251352566496895e-05
1.60564363932406288e-05
1.51503490956514178e-05
1.42092891100121525e-05
1.32428294455943491e-05
1.22617087150030758e-05
1.12465793602840556e-05
1.03782039069882109e-05
1.14628949313947084e-05
3.61656524048902466e-05
9.03748072461878899e-05
0.000118588730725667133
7.74094529109051269e-05
1.86586945449847947e-05
1.79514997889030105e-05
1.7263508181909399e-05
1.64968294847290074e-05
1.56665703671338827e-05
1.47998183045593048e-05
1.38942648670387694e-05
1.29655892300543754e-05
1.20233690398953494e-05
1.10455495915640684e-05
1.02335925852784174e-05
1.12197660263177313e-05
3.97005111839553567e-05
0.000103429158916790075
0.00013648631941756562
8.20811245994045133e-05
1.81326634497730505e-05
1.74874133284605696e-05
1.68386809962348199e-05
1.61149604860480656e-05
1.53202236667983687e-05
1.44928090654536214e-05
1.36209614725083059e-05
1.27307134467833172e-05
1.18231393877879687e-05
1.08831997619561635e-05
1.01186694322098053e-05
1.07196305742854653e-05
3.87033341870785213e-05
0.000120253922379796852
0.00016728811018141613
9.4209755110829881e-05
1.7656220655954976e-05
1.70705153729861129e-05
1.64570121512752915e-05
1.57756449488562302e-05
1.501270407840683e-05
1.42252293532599034e-05
1.33848740333233418e-05
1.2533899316919672e-05
1.16563155779100494e-05
1.07625295439126949e-05
1.00467759367739671e-05
1.02111321234966147e-05
4.23814425559351218e-05
0.000143719725830943604
0.000213469713621730568
0.000113739833196623935
1.72265486059133126e-05
1.6698409914588135e-05
1.61146693642917794e-05
1.54757984731645404e-05
1.4739702017167121e-05
1.39937394315868608e-05
1.31822749603979833e-05
1.23716390951573316e-05
1.15207999236740931e-05
1.06768099650066005e-05
9.9819051158890459e-06
1.29087639136473566e-05
5.50751751025857958e-05
0.000181414764521429286
0.000292921862660659239
0.000144475739954759549
1.68432721901019712e-05
1.63687907678566315e-05
1.58076643019315985e-05
1.52121634536808706e-05
1.44978315790728565e-05
1.37952666830956091e-05
1.301111907894713e-05
1.2241741079296994e-05
1.14175471699159347e-05
1.06288235774879783e-05
9.94444875539930569e-06
1.49227754463329193e-05
8.66569505953490235e-05
0.000247385534730290731
0.000424804199856844813
0.000168495386153361571
1.65140397881597306e-05
1.60730334440484103e-05
1.55338011003592618e-05
1.49804879091345851e-05
1.42886735019182112e-05
1.3627126736646458e-05
1.28736941003664657e-05
1.2145556978707069e-05
1.1348409821493702e-05
1.06220888189819028e-05
9.96159161708847262e-06
1.66039626186851754e-05
0.000109732099452215396
0.000367267947555892534
0.000710304128046232832
0.000186497262237207386
2.82903185648922306e-05
2.67133084189897694e-05
2.52798441043283486e-05
2.39298235609921389e-05
2.26379134121008931e-05
2.13767033862986655e-05
2.01259767763668497e-05
1.88830489868614104e-05
1.76334237431296374e-05
1.63527214160603417e-05
1.5213103877832268e-05
1.43446008479533399e-05
1.44309088727691213e-05
2.22311220146784997e-05
4.59395671258043211e-05
6.84447916835337767e-05
2.68227360537345555e-05
2.53253655686503996e-05
2.40452513376464326e-05
2.27922195828046213e-05
2.15629559372128727e-05
2.03406798497772654e-05
1.91198519122553979e-05
1.78949911787123163e-05
1.66686349402672542e-05
1.53684445450536301e-05
1.43175784903739935e-05
1.34347962880753357e-05
1.32295004751165359e-05
2.16926052549409827e-05
4.78682778322545474e-05
5.99744964776524251e-05
2.54956721384138646e-05
2.40966825503606739e-05
2.29301323980127284e-05
2.17434650936236295e-05
2.05605394091168499e-05
1.93760274915276282e-05
1.8186047388550327e-05
1.69803517914362561e-05
1.57830337362535821e-05
1.44873988758423173e-05
1.35217819713070729e-05
1.25219892837247645e-05
1.37153246056414504e-05
2.61739574543349639e-05
6.05692338265194556e-05
6.07008593190357877e-05
2.43011497221016091e-05
2.30085586709922436e-05
2.19309925595846988e-05
2.0808119732879503e-05
1.96730489240142399e-05
1.85279616738870083e-05
1.73713670432274294e-05
1.61928117804085868e-05
1.5026622693011686e-05
1.37530318214035752e-05
1.28241668591796795e-05
1.18545299719337074e-05
1.41384314269554137e-05
3.30941652080572415e-05
6.57851925619566495e-05
6.33880429957543604e-05
2.32267056014744191e-05
2.2038527521496342e-05
2.10348602776812404e-05
1.9972267663519046e-05
1.88850983503543867e-05
1.77803715571731777e-05
1.6658668361519167e-05
1.55126694110426158e-05
1.43734712898834613e-05
1.31306360431487234e-05
1.22146780410844657e-05
1.14051731181304335e-05
1.48315792574093262e-05
4.25843662849634239e-05
7.26504131147478181e-05
6.12072232708788075e-05
2.22597734734564717e-05
2.11694033365434889e-05
2.02307348655945755e-05
1.92246815149757951e-05
1.81846871890306081e-05
1.71206242516387018e-05
1.60350966590043223e-05
1.49243394024274916e-05
1.38097760672480062e-05
1.26113081992444847e-05
1.16947486441779869e-05
1.12286950123413067e-05
1.73076698186525448e-05
5.79194892542345097e-05
7.734651459990292e-05
6.25837459094896991e-05
2.13888151256200398e-05
2.03883838828211054e-05
1.95085930756340578e-05
1.85555777017021879e-05
1.75616120400671259e-05
1.6538032740629479e-05
1.54895188798000142e-05
1.44146442062056152e-05
1.33338440653169582e-05
1.21843530347079843e-05
1.12651809235325572e-05
1.10913536002319189e-05
2.08264069770876878e-05
6.59709312956118562e-05
8.49119943995465252e-05
6.62103030749942645e-05
2.06035588103078607e-05
1.96852249718851546e-05
1.88596248514784003e-05
1.79564562411396545e-05
1.7007181717780507e-05
1.60235515057478851e-05
1.50122895323456436e-05
1.3974307151851842e-05
1.29281175364505097e-05
1.18213127088589301e-05
1.09233195236578785e-05
1.09132935391953484e-05
2.34099492092161469e-05
7.46671866820692529e-05
9.48350855557780477e-05
7.05937876084820887e-05
1.98949851290667274e-05
1.90514137687648032e-05
1.82761903127219135e-05
1.74199076683575895e-05
1.65139714115041933e-05
1.55693885665935564e-05
1.45953228075757089e-05
1.35945610857703888e-05
1.25837426636088496e-05
1.1520194143765871e-05
1.06609086339854518e-05
1.07040734880357144e-05
2.58698388211461481e-05
8.5139968051489568e-05
0.000105259830870459554
7.39251763978628908e-05
1.92552282576511204e-05
1.84797332469716044e-05
1.7751725513904684e-05
1.69394730979312343e-05
1.60756506810012073e-05
1.51688177959126634e-05
1.4231694416036788e-05
1.32680812017138175e-05
1.22926329072481052e-05
1.1272535724572566e-05
1.04534948457050581e-05
1.06169234827112199e-05
3.03856238808304619e-05
9.70572462383269995e-05
0.000116371671224868331
7.83751356217350143e-05
1.86775889777940915e-05
1.79640514141377172e-05
1.72806421942086155e-05
1.65095286898897974e-05
1.56868491215002433e-05
1.48159892850756384e-05
1.3915571779774762e-05
1.29885015400319225e-05
1.20469182871616441e-05
1.10705753014009503e-05
1.0280785713411996e-05
1.09745173366151415e-05
3.62337588229004809e-05
0.000111258931592636188
0.000130818573608119547
8.26149725084373925e-05
1.81564357553979146e-05
1.74991670763048341e-05
1.6858198927567578e-05
1.61251694490765377e-05
1.53429832665461935e-05
1.45057277487098604e-05
1.36421237641071247e-05
1.27507413699496614e-05
1.18427233150433563e-05
1.09084831486419621e-05
1.01263217930494427e-05
1.1792484632404052e-05
4.56050499529063553e-05
0.000134821018724276201
0.000157531365479183897
9.48375498744698643e-05
1.76869557556800835e-05
1.70806939921291471e-05
1.6480404957413656e-05
1.57820472853421413e-05
1.50400931472165093e-05
1.42333711828109509e-05
1.34075103811704173e-05
1.25508138939232927e-05
1.16752416061723305e-05
1.07832279056821955e-05
1.00151825717265898e-05
1.239531925705196e-05
5.73969569227197855e-05
0.000167760902013272919
0.000196754070162338173
0.000114217532135555029
1.72626440710537417e-05
1.67040389765734655e-05
1.61439861083083767e-05
1.547623996205667e-05
1.47748188405844571e-05
1.39949733759580844e-05
1.3209033125582357e-05
1.23850273419432533e-05
1.15422962137765998e-05
1.06965329603771051e-05
9.95845788701212003e-06
1.3257310763415957e-05
6.85492891326652896e-05
0.000211444187103528773
0.000260410377846609614
0.000148237325477560252
1.68828899716319822e-05
1.63648718249176527e-05
1.58439164709400726e-05
1.52048293254970636e-05
1.45429320531268045e-05
1.37885320795382465e-05
1.30450681775676373e-05
1.22501952494638624e-05
1.14418213261118981e-05
1.06481892967363707e-05
9.94515877361625579e-06
1.35798927468157884e-05
8.63385076804256519e-05
0.000269304014191811133
0.000352753262098348805
0.000174525521567217828
1.65568141722249514e-05
1.6062813095127943e-05
1.5571433343810099e-05
1.49666517134206737e-05
1.43402576324652203e-05
1.36168480186835862e-05
1.29145938146518441e-05
1.21461965829121312e-05
1.13718717943429521e-05
1.06434509217997075e-05
9.97527760128862603e-06
1.46167803234347154e-05
0.000107665112976395973
0.000401372113606113007
0.000553321553560614295
0.00019815343745198166
2.83012705990605156e-05
2.67265641492409245e-05
2.52959914840821433e-05
2.39492957960081747e-05
2.26612337438253295e-05
2.1404498195394183e-05
2.0159087225864367e-05
1.89219021595589079e-05
1.7677900008361095e-05
1.63974230092403327e-05
1.52399106228322389e-05
1.44363176182514311e-05
1.4840872697874188e-05
2.34866048853794237e-05
4.77711895120835846e-05
7.43053332641078936e-05
2.68338578363121797e-05
2.5338662866576865e-05
2.40612500249042825e-05
2.28112752828671995e-05
2.15855308696481211e-05
2.03673364446592147e-05
1.91513246416534409e-05
1.79314132585266711e-05
1.67101390157697624e-05
1.54118474669657154e-05
1.43277778772370095e-05
1.36156465752888024e-05
1.41193923647705938e-05
2.40541542034990303e-05
5.25379561200986031e-05
6.48680654715633951e-05
2.55068863280806613e-05
2.41099553199759639e-05
2.29458803977819545e-05
2.1762047711718578e-05
2.05823818529098814e-05
1.9401646412568305e-05
1.82160002560223657e-05
1.70147086491093234e-05
1.58221922123996581e-05
1.45280052456660728e-05
1.35245863148454644e-05
1.2741747246696937e-05
1.44336351935448915e-05
2.85400000268793212e-05
5.96095613559227694e-05
6.40264576406566528e-05
2.43124150392784921e-05
2.30217341293067079e-05
2.19464013125259958e-05
2.08261510842960378e-05
1.96940853757213358e-05
1.85525093970618426e-05
1.73996961871253713e-05
1.62256647953171349e-05
1.50617418381313279e-05
1.3790219398548386e-05
1.28288124991046039e-05
1.21245926227976904e-05
1.43513377127881054e-05
3.49387597573155896e-05
6.50040016736107566e-05
6.64598756885816468e-05
2.32380191307312705e-05
2.20515944308016661e-05
2.10498913507656492e-05
1.99897257008840981e-05
1.8905304217322238e-05
1.78038237423290635e-05
1.66855564925582863e-05
1.55439288996020704e-05
1.44047418739459182e-05
1.31673320325988958e-05
1.22315105308204526e-05
1.1590830096263124e-05
1.53437943024105935e-05
4.5954030687342818e-05
7.23159670247090487e-05
6.4990837982542663e-05
2.22711740753664336e-05
2.1182408981850483e-05
2.02453751151652551e-05
1.92415863207413826e-05
1.82040502406363452e-05
1.71429839427828308e-05
1.60606295978842157e-05
1.49534544203320491e-05
1.38425966064590402e-05
1.26501634278232161e-05
1.17297574885065044e-05
1.11436383304795793e-05
1.70069268141534144e-05
5.98235431093357566e-05
7.84443654340576037e-05
6.64711404773852253e-05
2.1400387636731245e-05
2.04014424577415945e-05
1.95228322268258549e-05
1.85719925408570617e-05
1.75801124916939395e-05
1.65593538789441893e-05
1.55135893887448427e-05
1.44421197287951053e-05
1.33649785764197389e-05
1.22181948678619427e-05
1.13118674666682527e-05
1.08410341575343873e-05
1.89346838511197223e-05
6.77318024712825586e-05
8.64384247293117675e-05
7.0584451841536016e-05
2.06154402752546813e-05
1.96985424990346509e-05
1.88734275684722967e-05
1.79725046922707735e-05
1.70247713038003782e-05
1.60438970547914061e-05
1.50348222159091326e-05
1.40002750572023935e-05
1.29559592157709915e-05
1.18533530882417753e-05
1.09678197441119853e-05
1.06599815472669074e-05
2.17595991931008434e-05
7.59822327636789963e-05
9.55271476142686228e-05
7.48338043532484831e-05
1.99073788310310837e-05
1.90653362591801797e-05
1.82894502317089983e-05
1.74358082246176083e-05
1.65305255751773828e-05
1.558887427476248e-05
1.46162582580375093e-05
1.36189845375465282e-05
1.26073533737836071e-05
1.15512571393384374e-05
1.06840714646600781e-05
1.0713976653727715e-05
2.65770179761799384e-05
8.57069185120118741e-05
0.000105470096562703571
7.91250578367008137e-05
1.92684234145162501e-05
1.84948239417249635e-05
1.77641915978348348e-05
1.69555919319239439e-05
1.60908937535947163e-05
1.51876915840510543e-05
1.42509635333992542e-05
1.32907659283990533e-05
1.23122279223168588e-05
1.13012140969700643e-05
1.04526038949992952e-05
1.09355861766429097e-05
3.15349059397577954e-05
9.8229547697433885e-05
0.000116991315920926292
8.28270948171493018e-05
1.86919703600008182e-05
1.79811957684574374e-05
1.7291837341383379e-05
1.65264422779596009e-05
1.57002806053034912e-05
1.48347683598074544e-05
1.39330005884280306e-05
1.30095675542996377e-05
1.20641086188510301e-05
1.10942853733172647e-05
1.02710788507181966e-05
1.09501017537744925e-05
3.61548345783520105e-05
0.000113673284306349751
0.000130225266802272584
8.57751066746043419e-05
1.81729431772483436e-05
1.75197526297944919e-05
1.68673371357115221e-05
1.61436966901718898e-05
1.53538485561437269e-05
1.45253812256450281e-05
1.36573042694067738e-05
1.27708059836588637e-05
1.18576481600082552e-05
1.0926249238741816e-05
1.01357170514709718e-05
1.09735070155786639e-05
4.09422465408638912e-05
0.000138313302802576025
0.000155348955539742631
9.84792287516716476e-05
1.77071080656890386e-05