/*--------------------------------*- C++ -*----------------------------------*\
| =========                 |                                                 |
| \\      /  F ield         | OpenFOAM: The Open Source CFD Toolbox           |
|  \\    /   O peration     | Version:  2206                                  |
|   \\  /    A nd           | Website:  www.openfoam.com                      |
|    \\/     M anipulation  |                                                 |
\*---------------------------------------------------------------------------*/
FoamFile
{
    version     2.0;
    format      ascii;
    arch        "LSB;label=32;scalar=64";
    class       volScalarField;
    location    "0.750000000000000444";
    object      p;
}
// * * * * * * * * * * * * * * * * * * * * * * * * * * * * * * * * * * * * * //

dimensions      [1 -1 -2 0 0 0 0];

internalField   nonuniform List<scalar> 
29184
(
1134.16832534140781
1140.23705327874018
1150.44230241520677
1165.27693082799283
1185.22250508264619
1210.32697265120578
1240.19411410826888
1274.17773364890149
1310.83521168363268
1347.99312170695521
1383.17094902730832
1413.62304553111244
1436.08526524620652
1445.65924807783881
1443.71029245134196
1377.25905860183434
1010.47838059031369
1016.30832574987562
1026.48168741335166
1041.34370804500395
1061.31103390156204
1086.50159281894798
1116.62208799587461
1150.94882610805917
1187.99170477002508
1225.54350669777978
1261.05353252528403
1291.74447102542672
1314.44245159625052
1324.12069117540864
1321.17506670477178
1257.06981888007954
885.626231571319522
891.131882728685696
901.217624929302133
916.107253320667724
936.182534186478165
961.611880097954668
992.174149910216329
1027.12784258444731
1064.93133316704871
1103.26273764991606
1139.44877128447092
1170.65516989488697
1193.69077863564144
1203.69199782201599
1200.5431922494397
1137.56547615594695
759.588899327558693
764.717095103026736
774.663003101365121
789.599107481057217
809.831950773133713
835.585099822022471
866.756218538016356
902.640465115822053
941.622298880860171
981.147390234085037
1018.35552029583937
1050.32207774571862
1073.80603015486963
1084.24235842006919
1080.91999922197124
1019.15795895569022
632.308233171250777
636.998989697781667
646.766939414452395
661.766522433007253
682.202131224147593
708.370748323474913
740.338511328406867
777.487735321058949
818.098237802279073
859.257279222546231
897.832640158562981
930.778153559335578
954.7967531743883
965.778275889801762
962.287538892050065
902.506279908438955
503.756771749342875
507.990323684692953
517.530884641205944
532.581651547261686
553.228555034682017
579.870785293840186
612.817505594835097
651.638215434744211
694.352185432782449
737.652098294165967
777.944779408889872
812.042200425665783
836.612973829408475
848.235157200017966
844.54089230248178
788.338418704876858
374.07051982368273
377.899641425601089
387.183066432923852
402.245562713408958
423.034736527573614
450.08865399538638
484.087202156170974
524.98233477721692
570.382680752442297
616.414424478729188
658.799383172137823
694.185389892609692
719.24118849264778
731.514788240225016
727.578911025096772
676.650351583014867
242.806608953557884
246.038304598013951
255.318732789574938
270.588006583562333
291.651406344401948
319.145776951624271
354.239940289595665
397.522128136269998
446.274939509803062
495.62172318119508
540.457854853821118
577.217987492246266
602.585170792612644
615.352414718815908
611.160926156486653
567.492058061157081
113.185780951329889
114.924475224629646
123.433261713977686
137.877565136403291
158.406337228315579
186.087633140587513
222.712394793749809
269.509208847597392
322.417656270719135
375.690642680483052
423.141300744589898
461.11115252275863
486.404072602147835
499.539306779750177
495.292642302031254
458.714007079444627
26.6406827799173129
26.9460185882753649
31.124985935658799
38.9477453148150516
51.0764888691153374
69.6198218094328922
98.4117857286915978
143.586408450300041
200.333834241956083
258.239438358219104
308.033525340199049
346.713025691094799
371.26308213588527
384.396815546384914
379.935128167802077
349.003467646174158
4.83246324675646122
4.86145687319094399
5.42447780714922345
7.03157294060049765
10.026830834557046
15.4300147243184824
25.7809416482240294
50.7812716594360154
95.6687351694154131
150.147980093098113
198.385892410630959
235.886040868937243
257.608957683827384
268.384541184644831
264.57005730875926
239.910386001228972
3.79773799784529231
3.76261249822277222
4.0051764539249568
4.51398404837128986
5.50330702482054335
6.94665355992185241
8.70955059097514805
15.3060608253282453
33.9463224948482321
65.628583841741829
99.0792649265840737
127.479351964993612
140.72552286410064
147.027976042058981
149.868221944948573
135.24811659952411
2.56677477253062136
2.50791223041532874
2.69442098700595878
3.02719469762016757
3.76114551484341675
4.8108097101979439
5.88014803848347611
7.37787923564803805
11.0428485389624598
19.0164893595350009
27.6303218023526824
36.8231522104745181
41.9827359868096437
48.6608516880143043
60.9683338859570085
42.8116763290565814
1.36413177001413199
1.3454053638143284
1.4342658962535193
1.58704405053026498
1.94296376355361033
2.47497991299417919
3.50225893054576076
4.40691631402548012
3.7508366273259881
0.818816847909273449
0.0225356322060221714
0.983219578749711332
2.73225659389652265
8.2371864822051748
18.0730187113042007
-14.6339120435162044
0.496496412473946158
0.410301862769189007
0.325244439999719859
0.347045504586942499
0.388199000865576238
0.646035231245868147
1.48963176466190106
1.89665141647483182
1.46527883049771646
-0.0308637024658455772
-0.511395833659846311
-0.800586131018830027
-0.650722243243044396
1.03020084124896627
3.85645937752426704
-34.2956691573838697
-0.129900667488453081
-0.353519699604366799
-0.523177092677610922
-0.531921074490899315
-0.591474791858932036
-0.665586389948128243
-0.462132459629817305
-0.359444059642044067
-0.260381003377418097
-0.583422387353516925
-0.895674234908364397
-1.14867073972228706
-1.19359453430182993
-0.54664987566209966
-1.10850302642339038
-29.783285184725198
1133.55790170410501
1139.82453744059626
1150.35075964945395
1165.73112651149381
1186.41487755952926
1212.38777267320143
1243.19011731678279
1278.06657495418813
1315.47336224319224
1353.26115584330455
1389.07018664816701
1420.52292146597733
1445.16546959572929
1460.1067402714159
1463.57668536916844
1442.78488881423937
1009.84913404298584
1015.86822057053496
1026.37702268232533
1041.79333932428267
1062.51567299886756
1088.60573782556776
1119.68714263021889
1154.91839325487877
1192.70971247891066
1230.8728382051072
1266.9865427931345
1298.66532420145609
1323.29971083035844
1338.31882460371389
1340.9906353434933
1322.12501728266466
884.958734101026266
890.645841456652533
901.084865136144458
916.54643821847958
937.408536519959398
963.78708632783173
995.361599611975407
1031.2580697529886
1069.81710505436945
1108.73891739494934
1145.48174423883438
1177.61351994599454
1202.4400763236074
1217.60368071285302
1219.60387166649934
1201.33437313450258
758.866963359953161
764.175489376201995
774.490164826681507
790.018473288936548
811.082272221109292
837.858776558100089
870.12688299663796
907.023982143167586
946.769182135430128
986.854755323709924
1024.54538846965056
1057.33968933321376
1082.47363129269161
1097.89015984651815
1099.28306173372653
1081.16282222893733
631.515937405134423
636.391291795947041
646.53773128459045
662.149222501852933
683.472689538101349
710.766526938071024
743.953815467289928
782.222203811780901
823.606366431622064
865.282696544237979
904.235648505219501
937.878668834769087
963.40327007548342
979.150397782892355
979.966987795758769
961.972987198302008
502.865666597128438
507.290566120353333
517.211361197872748
532.892734256721951
554.498922465374903
582.402550569473874
616.739424954866536
656.805677703729202
700.351353512211404
744.092665242717885
784.616852351353714
819.248354298342633
845.182784637530972
861.334789498800433
861.531777965765627
843.853314764327024
373.033259880484934
377.04277282837802
386.710974634737681
402.418706039671292
424.253595712664264
452.748410206454764
488.379537798721685
530.690978787331233
577.010468781976783
623.36687515507947
665.784663107932261
701.501292496384735
727.784106136600712
744.364889643692777
743.889676308615435
727.749512308355634
241.552217814410142
244.956610179764084
254.651570962240612
270.559003651665535
292.741819879670857
321.891234090676221
358.952028334692841
403.952363740523879
453.674439123074649
503.198389108961692
547.785250934396572
584.626602485462058
611.116432813553729
628.074285077240688
627.147973080718316
614.254198318548333
111.753857231222923
113.734276707213098
122.565363952017492
137.527638428294608
159.19660888852377
188.830920092136239
227.890065497314026
276.662551663240038
330.776887655816836
384.015662241842165
430.830899962747253
468.605340894086339
495.036716083071497
512.364255597609372
511.517986993667137
503.135724119908446
25.5890142197347359
25.9611732379174782
30.0983182969218888
38.0380265635657224
51.0866069454840499
71.535761600995329
103.397753612580232
151.314703742177016
209.329409163598712
266.865091266275613
315.984516064876289
354.254540440049823
380.032847792964503
397.275277861230506
396.520335466397682
393.055859741687755
3.88123093889382709
3.99589750208130212
4.62324967329495173
6.32726740338164007
9.64630091241858167
15.7805335898249268
27.9307515556155295
56.0173111430268591
103.301491444060161
158.252154702975986
205.80374139122523
242.739197010462931
266.263279490563718
281.33137247800687
281.961385595812999
283.509932127831689
2.9656294121700153
3.05264913298798213
3.46174928720209252
4.17907415058447107
5.2027349470760349
6.56446435166999009
8.86001042233367286
16.2361962027855213
36.3230017602319322
69.3054233201935403
103.247019063679318
131.910790073342014
149.959305769977391
161.170087394615166
169.598058091030225
177.000431314682828
1.9434246736461418
1.99498391920704776
2.27872326114426471
2.82390639007764754
3.80477131403812407
4.82352806907622877
6.03394912044025489
6.78028188136054411
9.50429881851113123
17.874604091046308
27.9961527954579878
39.6353647637837412
50.6429328138495976
60.9898173906095735
80.4017732129625529
74.2820562773745223
1.03431343454047298
1.03233042089337346
1.18659834791392171
1.58436371614741311
2.31617858026555368
2.82963437352133695
3.78372469272196454
4.28193305087615528
2.44990197637359586
0.336607635013272066
-0.22644828515186699
1.03059460051503748
5.53104609283496984
14.1197309217343729
29.3191510520983911
-8.46477274486915121
0.366140747865058458
0.293552625279332347
0.317458046128720639
0.564196401741387632
0.842559313727591075
0.940286784058933733
1.61284706289048074
2.08059222776461183
1.00755571707529867
-0.182592702316470401
-0.617944980714828951
-0.900963981135503911
-0.698967009810030682
2.56027587358035014
6.42130770231739234
-48.0905632714922149
-0.173051815892136585
-0.283399555032939787
-0.354054853357184562
-0.315600705644051516
-0.51145809499312378
-0.65264529934154325
-0.53025772380270908
0.0165834612739885756
-0.173589534846907867
-0.586701243194462485
-0.944159228294593866
-1.22235761344068306
-1.26811064691155462
0.000550247566450501324
-1.30741178905142341
-43.1864507856093383
1133.292910507638
1139.72382262102792
1150.52262802649784
1166.38375163340265
1187.71297196883552
1214.43746731460487
1246.04657664524393
1281.68705089239234
1319.73254040313736
1358.06012613953453
1394.42847579339582
1426.74978268844802
1452.81985493614434
1471.06089552210551
1480.03112655676887
1474.22141158520913
1009.58101469714325
1015.74965397630206
1026.54367317856145
1042.44508444006374
1063.82284742427737
1090.68780662928134
1122.59480672577388
1158.59801589179619
1197.02595646193731
1235.71231042857767
1272.35986064107783
1304.86643533101437
1330.99091971411099
1349.33871954929668
1357.776021651983
1353.5170833733971
884.677696863983783
890.507636647177605
901.24602298694947
917.20008045393206
938.735413078441184
965.924069000395548
998.363386510769374
1035.06015283805232
1074.26034101245205
1113.68290639639281
1150.91781839494388
1183.82433112842182
1210.11115933924839
1228.57609072079231
1236.33372552597643
1232.63171827719998
758.571631823326697
764.029623863545794
774.651281542555466
790.673285171402426
812.430600434487133
840.06874192709688
873.268249961836318
911.017599029752319
951.413939734173482
991.967222436066777
1030.08767466678887
1063.58290101612556
1090.12670718332311
1108.8173333682189
1115.85208732847946
1112.24340913035712
631.23182493196191
636.268648574739018
646.710140500143893
662.801299558532492
684.836098154411388
713.059934449849038
747.276762985473056
786.47700672535359
828.529724822425123
870.627660506393795
909.922700682924187
944.165518067368225
971.028157483868881
990.007722782854557
996.289749298918878
992.672843944599322
502.6486188269281
507.220850914875655
517.403653205467435
533.528915696816739
555.856989669995983
584.777395658092018
620.281776382525209
661.39439264022451
705.636349515919619
749.736404845550965
790.479994000852798
825.57634313169001
852.767839780431132
872.10150153586244
877.552564563175338
873.853020140392232
372.935737409223748
377.025702154642659
386.913209273285929
403.001689726924837
425.559051621374806
455.181473073351981
492.172988564689376
535.694555836360223
582.748943251291621
629.372385446501426
671.836355838321538
707.838444017873258
735.300456107087484
755.031764112478299
759.512590705975185
756.208804900336418
241.593540052506114
245.034094286400091
254.887432323212465
271.054527089850808
293.917741198285512
324.316602171543991
362.996651297897756
409.441206421333618
459.96461504354852
509.625480153370177
554.022346112633841
590.922769535470707
618.55510581479416
638.693016437578763
642.347807912568442
641.150568098497615
111.803570749931396
113.85326024599317
122.808159654825204
137.885384198681663
160.134809390027158
191.143762822499184
232.163301690139178
282.65456842407184
337.645708343570504
390.874348800235111
437.22602838286889
474.823818203405835
502.452992755155719
523.005765313642314
526.372640772329305
528.763416467680031
25.3905134383011273
25.8283704232662217
29.977137121090152
37.8662532833435534
51.2487478553161964
72.8886793083916018
107.089147768404359
157.477536490979674
216.39280126494441
273.964988945032246
322.404359061759578
360.263975786607716
387.33232780433309
407.796558404098505
411.524792212329658
417.931592225784016
3.28558362722033781
3.43119188477203352
4.06658647142629981
5.68207736497574345
9.09922304877862587
15.5594007031301658
28.8397882791044822
59.9551847750392426
109.35698503201138
164.000791208647797
211.113464506877108
248.097685516576121
273.211575512189711
291.786344060124065
297.536882142116383
308.596186547750222
2.42678314102003334
2.57623848115303566
2.98712659652415446
3.62611379695229097
4.64445986953635703
5.98966048000046314
8.263719693623095
16.2951677698853246
37.6125503821532448
71.5992685483043942
105.939381921308723
136.151917108998305
157.31062078062655
172.542483410131808
186.871098925772685
201.763641759704569
1.53322954936856526
1.63069379065099085
1.93369658834263447
2.47512502172297033
3.45099057888564431
4.43865528709731549
5.45978599961966182
5.44316489526623215
7.92600771506207025
16.9458180200905986
28.5845128373155148
42.491697549972173
56.8684600652956078
70.5249284019121205
95.6132158802280401
96.4507256099545884
0.782309766616053004
0.821447263995896293
1.00844475080938789
1.4055185005699844
2.07195144254395913
2.65759683276552749
3.47552028860000917
3.55442612180971196
1.48291979309770738
0.0613872268425232903
-0.335031204047584019
1.59964619915542983
7.63706060214096283
18.1844113801802223
37.9280475020141807
-1.10409674699280913
0.243633190529370047
0.229779444382271159
0.310022940962652704
0.533684945094079488
0.648764878138265999
0.85609944103485347
1.48027105904333567
1.7433359929045551
0.532844215370953833
-0.330881686464627123
-0.717271483191649128
-1.0081368492614553
-0.754737229803391863
3.42360289100620108
9.17248663855178847
-56.6592036515890527
-0.224980339008011399
-0.268460669933661134
-0.259778100454631122
-0.249314061324950487
-0.571359773939038362
-0.670637443586613813
-0.435066910013109265
-0.0976227308054546938
-0.251660251464322471
-0.704468682333993179
-1.00809778408965478
-1.2609299709275601
-1.27733165780817992
0.259581994115436032
-1.14924269974972759
-51.867618426457831
1133.30086747740597
1139.91222993090037
1150.93950852150283
1167.19691640528185
1189.04836313491683
1216.38490062975939
1248.65451729016104
1284.91560457310652
1323.4733781821526
1362.22499117174175
1399.0146116070041
1431.92230052813602
1458.95100250073551
1478.96314796578395
1490.29693378152319
1488.07799932739294
1009.6053281085351
1015.93071810492518
1026.96307266550457
1043.26198530244938
1065.17033170794298
1092.66420654673584
1125.24324714442969
1161.87019400782651
1200.80652734971659
1239.90371792401447
1276.96175190939562
1310.05375116691403
1337.15676713658604
1357.31105647594427
1367.98537996467644
1367.19893590272
884.724641179859645
890.690458903030503
901.674223727157027
918.029390608204949
940.108799037891686
967.95235214932427
1001.09142057763074
1038.42983196742261
1078.1377244213943
1117.94952543704676
1155.56380751419078
1189.02253763040994
1216.26465680400042
1236.53038731166839
1246.42451217051712
1246.36854265428019
758.652421805595736
764.228798599276843
775.096110852912147
791.518692026989129
813.835963250949817
842.169250161822106
876.11869066760346
914.544813428473162
955.451312283166885
996.360770879887696
1034.8131869915378
1068.80839901169202
1096.26937838654612
1116.74653610457108
1125.80678484368104
1125.96896986024444
631.369598187325437
636.505007230969568
647.182290907641686
663.662973468248765
686.272820346370509
715.247819351284875
750.28998938548375
790.220216228033223
832.787089073575203
875.191160405851974
914.748776979935201
949.412887075680942
977.139470508644422
997.912071904503364
1006.07134373662598
1006.27373825991936
502.885689474144669
507.521807711505744
517.914179435676715
534.401210776796574
557.3148939256007
587.062753652549418
623.502703351204218
665.421028791677713
710.172536632790866
754.509675888043262
795.414035319104414
830.821763025295809
858.819213130707794
879.978526352668837
887.146721842426814
887.718859598221343
373.325394942909725
377.425789879636
387.467587451342865
403.865438135098202
427.011620354128468
457.563323973871775
495.648026687183119
540.086648509474912
587.626106577572045
634.392106063706706
676.866264402337151
713.031938123586087
741.256137724032328
762.87972734500363
768.939747610016184
770.613443253556511
242.211826840134904
245.639688387966999
255.52531812654729
271.87575919728306
295.303816796899582
326.766315980345667
366.749530461549739
414.265843518178599
465.238728984335808
514.922820045069216
559.131828456323206
596.001808727756156
624.376581402432976
646.49089765512781
651.727718324015996
655.896319441982996
112.572825940326084
114.648588720661337
123.543486286224493
138.564225200625629
161.31633144198122
193.604042469352862
236.276097500561264
288.021862913240511
343.337514665313165
396.460125607155305
442.383605061882008
479.720004064470004
508.043662460443102
530.579475784432361
535.938430152075625
543.676851369669635
25.5527765590794615
25.985337031658446
30.205550057911978
37.9321954604811253
51.5653216739916616
74.3391775013351435
110.601800346940195
162.919738860412281
222.390091927848744
279.859207031087635
327.517604809934937
364.806517335331364
392.510393985321116
414.845407367968846
421.526733698092357
433.036593529426455
2.82537138451884839
3.03581045316284115
3.74472689995954333
5.2692285952931428
8.64138097292494933
15.3542550877101576
29.7408496022400186
63.239048686303704
113.938031183439421
169.08716752120813
215.702861304151838
252.064547403329243
277.909582913878694
298.31084485626161
308.222838279751159
324.577445217112427
2.02420943366625039
2.2324568196791672
2.64178697493677639
3.21740911398069507
4.07424909662604051
5.27560933557365175
7.63108640859606879
16.2826615489766198
38.5730152440156644
74.1617601882459212
109.058699677027562
139.39170081818429
161.774157933718243
179.052501457485505
198.066543602483762
218.82567929167044
1.23815424053559386
1.35490813625335349
1.66873128120119318
2.20675423430081885
2.92908925294565492
3.73859297853161365
4.71984151714593381
4.65399331563284591
7.31625830628038898
17.199670961073025
29.5018699083590263
44.8982323892281556
60.2173509805779759
75.9971327834633712
104.176810006605592
112.638160711682531
0.586394470356402131
0.630564300557642454
0.832006749672656198
1.18869322501107355
1.60389682752630947
2.16435880014379478
2.94374004603692896
2.97588889928096734
1.11306375298640337
-0.171282322663723008
-0.55449496747142657
2.54223310437868122
8.76260667784072211
21.3590666451512448
42.4826515359101222
4.86907938006970653
0.117395426106805534
0.127846899588369034
0.227024278053561623
0.283348508665385523
0.24704991726372505
0.574425147483609067
1.16898475112575184
1.3618066836733469
0.308173883985719321
-0.511811681076277836
-0.877977332293863988
-1.10384739793157483
-0.73124104114944366
4.61555989478966922
10.8512066545208938
-62.2987832340048726
-0.296555783546196494
-0.310368693356555703
-0.312754272657588039
-0.446332266927308652
-0.703558911362796024
-0.770884655197548341
-0.561782475063356657
-0.170142290364559301
-0.321663329514395357
-0.856503851967187479
-1.12929636480761397
-1.32386365533018968
-1.31060493334656702
0.471016093454048601
-1.05822898735291915
-57.3839288616878207
1133.49779281926067
1140.29753574452661
1151.49919438658571
1168.05787921169372
1190.30524157048808
1218.11371607547585
1250.89636010682216
1287.63097098591766
1326.56757036681165
1365.61382646504217
1402.68407052081102
1435.96567952376085
1463.62296121725444
1484.71341922257898
1497.11418646532093
1496.12893422031402
1009.8203816609232
1016.30428956323294
1027.52746961315802
1044.13255074375479
1066.4477191548699
1094.43010135174677
1127.53333386844884
1164.63903518980442
1203.95456293936331
1243.34682996694846
1280.68956364692895
1314.16817548330823
1341.90013249219146
1363.0975891875737
1374.87621015089167
1375.59402399037936
884.958113372281787
891.062829183749614
902.254458689082867
918.922607465501869
941.422231924519451
969.775873690012077
1003.46072131269443
1041.29086197145762
1081.37560781487309
1121.46979993810851
1159.34993415051554
1193.17854121701521
1221.03570796320014
1242.34251112141419
1253.33153366764054
1254.64315447208105
758.909426033884529
764.617038630129628
775.704325912543936
792.445702616068274
815.200885506189252
844.078026250067524
878.611121326140847
917.550898188649398
958.827064902587949
999.995125967321201
1038.67552788208559
1073.00408225048068
1101.05314091491869
1122.57643568243475
1132.67649074869814
1133.94185652532474
631.67275914575896
636.938082973502105
647.834392986259786
664.637308635387285
687.708403579217929
717.274047407483067
752.952758227094932
793.424468329683236
836.343670257480653
878.969932535406883
918.69480144026852
953.63685991565751
981.917464481186812
1003.77574776632309
1012.83390217051704
1014.33915365800692
503.293900075084935
508.044889900140447
518.631335400560715
535.438697619563982
558.84473651327221
589.248433428777844
626.395912407687206
668.885017643859783
713.954518888993448
758.450436597824819
799.440686156875586
835.049543157120866
863.573977971714498
885.890568393351032
893.742653961485757
896.088444393984105
373.927665154130182
378.098076000510787
388.274279925393785
404.97902809430002
428.656510850015252
459.950415472685791
498.838916766164289
543.879366629885112
591.679814469688267
638.502311628700113
680.961674396178523
717.224119207516196
745.958749753955431
768.855742999246331
775.462370387119677
779.565418319722198
243.112270146355399
246.550675624198675
256.472389980629146
273.092154870270065
297.093249715932075
329.393989648901993
370.294794953034284
418.451634682867507
469.597069201957311
519.221164574581735
563.278388046179771
600.115446394439118
628.932463755730623
652.434533332045135
658.367419183364177
665.518609185901482
113.5696948846944
115.673836077480132
124.586285592998934
139.833995958155583
163.251786966371583
196.578371230519451
240.328386899047928
292.732135940916578
348.033410305957204
400.972600960749105
446.535543894753573
483.67193980638126
512.384029619865942
536.090162213722351
542.847552815837844
553.615383840519257
25.8108698891696235
26.2509417939150467
30.6617109879131817
38.5114931521491144
52.6204222395103898
76.4776397321001014
114.248745846246948
167.803685511108142
227.415502686813625
284.621199455303213
331.589743430257158
368.440286154379237
396.481785206800396
419.668636837335953
428.956909895862282
442.820144125090792
2.50258683190265074
2.74741106314590589
3.57066133146901343
5.07453639961906333
8.44561872497983757
15.4025262089624846
30.8522267533733725
66.1200717109792322
117.910276159960176
173.471723572404926
219.57377398853555
255.364201386042396
281.274261171330863
302.730323170372913
315.925465287136376
334.671403687949123
1.74353171383436489
1.97978004317114475
2.40110127206378454
2.92705232028530382
3.59990029691299007
4.62273955492512911
7.19667815074532058
16.4152584312644763
39.9997941168683155
77.3786640559499119
112.192612025220114
142.129814233584284
164.511310123763678
183.164318651935673
205.66836755174586
229.297450604724418
1.01466529615063195
1.14913613604586029
1.4718609076827498
1.95796261664365723
2.48701421005609369
3.19553496879977139
4.22849917117133955
4.36426487777377403
7.60046801356551782
18.3809271000750414
30.629324111552819
46.8349938566283299
62.2764921480787734
79.7815509455796246
109.51021925234727
122.211314319380563
0.418156350807452171
0.465973957572337838
0.658159825725967096
0.971223396525646265
1.28613184434285621
1.80326734354503415
2.54096285434928504
2.67622382479312648
1.15799615720933247
-0.273355659128792894
-0.611268909211984734
3.30001917850300686
9.89791705557760793
24.3154893105206042
45.3067656026629493
8.88030075971732913
-0.0116898674536853875
-0.00123790846172378011
0.0732758150316774604
0.112797719497669036
0.109137813657103067
0.386696032921051369
0.876843056079248839
1.06171548041294272
0.204190849698273169
-0.659748378155998072
-0.999578904055673734
-1.1829556913726349
-0.334030062416681872
6.37928861678800985
12.0756432733970769
-65.4668852597234263
-0.383181373026572292
-0.398233228627316915
-0.418320202425347176
-0.564915116756015578
-0.799042536629902322
-0.828566664288121757
-0.709844773509825444
-0.388418302931935244
-0.560087117185306127
-0.963709589252100596
-1.22403733184222885
-1.40174667846090251
-1.19970044045674573
1.27759718663129362
-1.07882807145094972
-61.7177611088805094
1133.80896590218413
1140.80194853758917
1152.13266810515483
1168.89358166977399
1191.4102280100974
1219.55688187724672
1252.71447031128764
1289.78614789315498
1328.98272316247312
1368.22955459884201
1405.49911248137414
1439.05338273999996
1467.13175291204789
1488.79241587902857
1501.34583524808681
1500.11606575767314
1010.1684948621903
1016.81205743857606
1028.17066059770059
1044.97633908616854
1067.57204750844949
1095.91021676125956
1129.39998944975628
1166.84891151842248
1206.42443923363703
1246.01250870821946
1283.54769964086722
1317.28903254026682
1345.41821355113211
1367.18050018820691
1379.17780278426108
1379.62597262952636
885.361236069772986
891.580825705218899
902.905586440274192
919.777830800369202
942.57489590534874
971.309065540847769
1005.40188465036204
1043.58623462726382
1083.92721263268209
1124.20389731875412
1162.26124564929023
1196.33865699841135
1224.57740051905853
1246.45025428268673
1257.64992292767374
1258.64969650104968
759.366072422927914
765.146447707509765
776.362162385739339
793.316651679457436
816.394097209744359
845.689016952070006
880.664450154713222
919.974290307487536
961.496124703406167
1002.82144183153923
1041.65192440862415
1076.20498470022449
1104.61689452112978
1126.74500752854783
1136.95954617592156
1138.05442302039501
632.144882840894866
637.459290335644141
648.499565765857824
665.534257515821764
688.962590567104598
718.994205741286578
755.160005863336778
796.022128729803171
839.167590371928213
881.911321264259755
921.748888865462391
956.884740026271061
985.512952190762007
1008.03002683634145
1017.0669629998298
1018.76433522007892
503.702962093093561
508.538953024978127
519.312514407710751
536.38530838109159
560.196180536496513
591.123056070069538
628.807734874570201
671.708046624397866
716.971026061325233
761.526618393336776
802.581199138112424
838.348474130882551
867.210986268918305
890.267328339511096
897.929031190423643
900.789313560385722
374.175911134427452
378.567627570086302
388.996052483012477
406.018268430525382
430.158937452416922
462.041231016568076
501.531552045472381
546.987182393280591
594.923934797221364
641.724965065172114
684.192412423942415
720.572788676244045
749.607642881853735
773.404792103904924
779.641331591573476
784.645325485404555
243.220664168958479
247.047714578480281
257.27510396522166
274.287392526875919
298.821032890738707
331.767703445819507
373.336961549985404
421.929728609889139
473.124919881957112
522.595351083958235
566.601079722983968
603.513575727548755
632.548987639714369
657.098204312864937
662.738357621900832
670.978631151907052
113.704681710574278
116.33363994905676
125.473473975065303
141.13966032469466
165.248593805421933
199.353825024513753
243.845087248557093
296.630013776032001
351.895116495331422
404.488227327286268
449.900842450221489
487.107604312771173
516.030112871515939
540.225591953716048
548.043073856779074
559.189767330122777
25.8675257360424098
26.6432575916414862
31.1139621680539449
39.1410756389436756
53.8483129412232984
78.633937672276943
117.581967060696343
171.885641213998952
231.604121083810242
288.264549955619259
334.948394968863795
371.759949705680128
399.828849271056015
423.539240993581188
434.502788805007867
448.580073346488689
2.36271039170809338
2.64285747251582492
3.48594895269768301
4.97443207744205296
8.38935080461443761
15.736960792370013
32.298106209103878
69.0360552098271683
121.767302325682749