/*--------------------------------*- C++ -*----------------------------------*\
| =========                 |                                                 |
| \\      /  F ield         | OpenFOAM: The Open Source CFD Toolbox           |
|  \\    /   O peration     | Version:  2206                                  |
|   \\  /    A nd           | Website:  www.openfoam.com                      |
|    \\/     M anipulation  |                                                 |
\*---------------------------------------------------------------------------*/
FoamFile
{
    version     2.0;
    format      ascii;
    arch        "LSB;label=32;scalar=64";
    class       surfaceScalarField;
    location    "0.990000000000000657";
    object      alphaPhi0.water;
}
// * * * * * * * * * * * * * * * * * * * * * * * * * * * * * * * * * * * * * //

dimensions      [0 3 -1 0 0 0 0];

oriented        oriented;

internalField   nonuniform List<scalar> 
20856
(
-8.20042853732245014e-06
-5.28355761722406436e-06
-1.88182022128325301e-06
-6.43045978690970334e-06
-6.74682971624825704e-06
1.56650745754502018e-06
-2.57954864380397613e-06
-4.54996608277442872e-06
-6.53698615573491555e-06
2.56320435043059405e-06
-3.17293733966768576e-06
-2.85240251497593443e-06
-4.88164478870208553e-06
3.03549978719576515e-06
-3.24351366733505963e-06
-1.61119836855358149e-06
-2.49900256242984032e-06
2.57982798430520813e-06
-2.82644209016859572e-06
-8.06795616458025897e-07
-4.67147132761728335e-07
1.65734882990168922e-06
-2.34955132222976716e-06
-4.89014713692030503e-08
8.51891958944812732e-07
1.26165714451420861e-06
-2.39220478004896626e-06
7.03303291318954787e-07
2.58219243639218781e-06
1.65257873613811953e-06
-3.30999296968314042e-06
1.34895409614616935e-06
5.17812854364582145e-06
2.38486820026262942e-06
-4.4110579273932854e-06
1.34437504031934654e-06
8.24406196013111525e-06
3.72934092949981058e-06
-5.75412693892616169e-06
-3.66379849628926686e-07
1.03173875312160555e-05
4.97774708203939901e-06
-4.6200293299266352e-06
-3.22080057302423243e-05
2.03882559969711954e-05
-1.00413633702022046e-05
4.00999071821719227e-05
-6.05235793142354746e-05
9.22783925982253051e-05
-0.00015547450538910636
0.000172648162683957063
-7.26019105172520001e-05
0.000357523602685362661
-0.000192334809170846191
0.000146110820341344247
-3.80749224602477428e-05
0.000484820535649358863
-7.99333606107197742e-05
4.17963310062967715e-05
0.000633920360101168667
-8.64150514643901888e-06
-9.83998704497925038e-06
-1.05383288541920819e-05
-5.21278231249850058e-06
-7.79151889615635466e-07
-4.51126651830823349e-07
-9.13977958717263707e-06
-7.39856082611016063e-06
3.22050080673693135e-07
-1.69123942211528422e-06
-7.54517501641751291e-06
-7.76508496912890189e-06
2.27462169723602661e-06
-3.30633443852049602e-06
-5.7690962633214372e-06
-6.76536258195316464e-06
4.05155092246985844e-06
-4.71659378281325875e-06
-3.81617403305685467e-06
-4.75400139577281826e-06
4.86706335198689682e-06
-5.20174819775743457e-06
-2.40289888056434763e-06
-1.92476156109491595e-06
4.1432035057691075e-06
-4.73747181091300155e-06
-1.32021966173034562e-06
4.85305694629379619e-07
2.94805542173800812e-06
-4.22639421537219959e-06
-5.65263764115781426e-07
3.08207185462765466e-06
2.97214800349481087e-06
-4.77431769320884433e-06
5.85816140725023517e-08
6.10685686547928644e-06
3.58343143506376768e-06
-5.74046793016382618e-06
-1.24483294024611824e-08
9.24925564560139555e-06
4.68806143889096954e-06
-6.19701459914515544e-06
-3.38300738259059154e-06
1.05720179882133221e-05
4.73244717625007613e-06
-2.65920302031773163e-06
-2.83491816158174871e-05
1.77210371626267376e-05
-8.93428527683743406e-06
2.32314101105271879e-05
-8.71388299638990309e-05
9.27071862805493543e-05
-0.000156233247936696354
0.000139345952836966746
-9.69350814411548922e-05
0.000373723505507059131
-0.000214365807639269724
0.000158352579826808994
-4.14595825768769821e-05
0.000464078073158109546
-8.78891186347835273e-05
4.30526193889274432e-05
0.000601050223895049636
-1.14910889290068423e-05
-7.5093381392069579e-06
-1.36828655765493588e-05
-1.56990235369776816e-05
-2.37491766139823034e-06
1.65638732783398294e-06
-1.16350606429398372e-05
-9.85542049945193405e-06
-2.25573201262104533e-06
1.02603614240060426e-06
-1.02540415173120666e-05
-8.87648304552787756e-06
-2.63105204183351291e-07
-8.91218809483541864e-07
-9.39617938024941148e-06
-7.42162456198957574e-06
2.57734704267611827e-06
-3.63489035731553394e-06
-7.61834304134349741e-06
-6.61702931480827754e-06
5.66404952784409976e-06
-6.35465431223133124e-06
-4.96860992698461308e-06
-4.69488899710614036e-06
6.97435380129373419e-06
-7.41940284198382294e-06
-3.35936206075809744e-06
-9.10339142006944819e-07
5.82496508616096496e-06
-6.69636091967901651e-06
-2.02175894264291092e-06
2.51471669085823455e-06
4.88661071748369028e-06
-6.40229118779475322e-06
-1.38708896022735169e-06
6.40197757646529367e-06
4.97604745785255388e-06
-6.61129775023339253e-06
-1.63951077296962767e-06
9.18346882841416887e-06
5.52527346368292481e-06
-5.69776250536244428e-06
-6.68835341204171656e-06
1.00372243678753554e-05
4.05471934715236968e-06
7.50739699641332139e-07
-2.59526687433298011e-05
2.07700008538577214e-05
-1.49730230601899021e-05
2.9456287392766361e-05
-8.57297179858060548e-05
0.000100008211105431606
-8.91846524038598226e-05
6.60172853441081525e-05
-9.16910079929240447e-05
0.00035030644105156722
-0.000206576103572686108
0.000129223794077402119
-5.56016434125569962e-05
0.000406492519395390301
-9.13942631314359512e-05
3.56190565937705624e-05
0.000562367856100207358
-1.2922060304896677e-05
-5.40665768949904681e-06
-3.82714499461289326e-05
-3.85421941554369785e-05
-3.0987206742868493e-06
4.829047113045096e-06
-2.47689226632174459e-05
-3.88910397737229275e-05
-4.58773634257908344e-06
4.60649099234504501e-06
-1.50085748208842316e-05
-2.51646230843294813e-05
-4.52612575146779309e-06
3.42473900292738104e-06
-1.35091239355446736e-05
-1.08411522858209266e-05
-1.86520713307732806e-06
1.61263625683915029e-06
-1.26991369385832805e-05
-9.21484799498602734e-06
1.76304092704684623e-06
-1.65070783930223648e-06
-1.01625201593681761e-05
-9.29533698067813676e-06
6.108933871683253e-06
-5.2963791879868872e-06
-6.0232077615893366e-06
-6.76643745192192139e-06
8.46998202938302336e-06
-7.58437557557431945e-06
-3.98392903319808104e-06
-5.31184027109037988e-07
6.4801429526241184e-06
-6.41785625648698521e-06
-2.77024446144457032e-06
4.0295962345026675e-06
5.96397557127055883e-06
-5.60543291565279031e-06
-4.00097927697147744e-06
7.85913861563519579e-06
5.35026013743989128e-06
-3.15741897300574007e-06
-1.38028010993318422e-05
9.20777227485629289e-06
8.67066280590125101e-07
8.88189679834474248e-06
-7.00865850618941202e-05
4.54679692983300533e-05
-2.52643040796008078e-05
4.7058319255529669e-05
-0.000132238669665549538
0.000151143265220900566
-0.000137918965878912553
0.000145319164664224539
-8.02335325811666297e-05
0.000315384760252546777
-0.000181470385296509821
9.90356771902777742e-05
-6.27716730341006861e-05
0.000383757931030348119
-7.29878796336749113e-05
2.70377832523494997e-05
0.000513115449236619336
-1.22878582401936307e-05
-3.95390061988123971e-06
-2.89895262684519937e-05
-1.0047469231835735e-05
-4.82891636067115619e-07
-8.36670594997839353e-07
-4.17163403802756332e-05
-2.09960256554463853e-05
-1.43904567692662588e-06
1.05569932022202743e-06
-4.74103336147620993e-05
-3.62366356717578429e-05
-2.49588142589479201e-06
3.40411815509451029e-06
-4.97779824416377754e-05
-5.21680390952402958e-05
-4.07619494206639267e-06
6.09845097059860067e-06
-4.78335688615450964e-05
-6.57398448317441151e-05
-6.20956341979228263e-06
8.825434362363534e-06
-3.67426076227609323e-05
-6.34389952346671373e-05
-8.08209976224151098e-06
9.74993580498383501e-06
-2.30962445661679329e-05
-3.52923966305791157e-05
-7.62916905970111822e-06
6.45241485754929604e-06
-2.16571454696873209e-05
-1.63671834809480196e-05
-4.0020238411483133e-06
5.17242535571701888e-06
-2.04494120735991508e-05
-1.71218237582057664e-05
-3.93637596225721877e-07
3.21291171097802034e-06
-1.68034353427166775e-05
-1.73825147228757015e-05
3.36914341907314184e-06
1.03932088287884675e-06
-9.11557697236868414e-06
-1.43135662902776286e-05
6.00485179321183006e-06
-1.08578782775488978e-06
-6.18804954939079892e-06
-4.31045041684431078e-06
5.30938801678596789e-06
-1.16085604397434885e-06
-7.8619038426770955e-06
1.00889760582740622e-06
2.86271773532469927e-06
4.82199037843973227e-06
-2.88433797093981553e-05
3.85944259588264252e-06
-5.62270147769780579e-06
3.04821933074745982e-05
-0.000123128730253782592
7.08256842092213034e-05
-5.66833044260323012e-05
0.000119751168309124829
-0.000152739293942315166
0.000167906300513110356
-0.000160939710839209
0.000157529191286978881
-0.000110033393276863964
0.000314253458124176522
-0.00015679422016473245
0.000110106149606842654
-6.78920777832634252e-05
0.000416186741430809085
-5.94369461123186958e-05
2.81501067011255351e-05
0.000449491738961826893
-1.0187218237193539e-05
-2.50605581108250051e-06
-2.28976385021401451e-05
-8.89500236747119275e-06
-1.34372036259605e-06
3.18400167453354813e-07
-3.72112609557649044e-05
-2.46574852917933039e-05
-1.80317303210338562e-06
1.70912784025056765e-06
-4.90438141008793857e-05
-3.67534636816109212e-05
-2.70363223500788077e-06
4.20580973507322926e-06
-5.84344889444886057e-05
-5.65943606985750669e-05
-4.82518330793081519e-06
7.42601364094667627e-06
-6.39334669266349427e-05
-7.43162762975383811e-05
-7.64935998004646576e-06
1.13512203986603989e-05
-6.26004258532092942e-05
-8.11116439905708883e-05
-1.06925862768908928e-05
1.52467356034991893e-05
-4.94511518616428538e-05
-7.33551645444157496e-05
-1.38045952174252307e-05
1.56271879526365152e-05
-3.77197236839055624e-05
-4.35811095768091691e-05
-1.23392034993735242e-05
1.18869631044143362e-05
-3.78331923289225246e-05
-3.0156497848317605e-05
-8.0845030135663153e-06
1.22303882377748211e-05
-3.8907780174759071e-05
-3.27037984724866989e-05
-6.0784883381831397e-06
1.44457652676920616e-05
-2.73930969239180629e-05
-4.51718792182490871e-05
-5.22174846131214842e-06
1.5537506026771633e-05
-2.36638953927723136e-05
-3.52250049081146547e-05
-5.75814674555080989e-06
1.70273069043248923e-05
-2.80628211963575371e-05
-1.95199219619827111e-05
-7.9714175644134785e-06
3.02148064614626049e-05
-0.000100122933239695823
-1.15965226246093968e-05
-2.21271416163373906e-05
7.79096649783270304e-05
-0.000157805953782891978
6.07293332627943555e-05
-8.64218803819349744e-05
0.000137216205986769263
-0.00016751663675171864
0.0001680112814781364
-0.000158339486839337225
0.000153210846143354173
-0.00012428278069552323
0.000295636625624657765
-0.000134805605523692868
9.88604343776521732e-05
-6.97753242601209669e-05
0.000349422052526748416
-4.95367131083911049e-05
3.00356093208725218e-05
0.000380741907426115293
-7.24819836384800746e-06
-1.64978421170477469e-06
-8.0762975753564868e-06
-1.21384083779684597e-06
3.69727670055919561e-07
5.44571012055440348e-07
-7.69199272634879745e-06
-1.63487502872486438e-06
9.34944952077627654e-07
2.22037124221937844e-08
-1.17213342134051522e-05
-1.38418103819247305e-06
6.13601802870763013e-07
-4.83693283729836038e-06
-2.23679664713944184e-05
-1.02431263840014745e-06
1.4410681165285166e-06
-1.60240926054509101e-05
-3.57997358857276124e-05
-1.60597707850453944e-06
3.6535173224209887e-06
-3.16999378511732501e-05
-4.88624912637913731e-05
-4.19140818196766244e-06
6.89548409362535266e-06
-5.38307323010517389e-05
-6.30588304625397513e-05
-7.29685685773848574e-06
1.10213556998436232e-05
-7.55314083133852923e-05
-6.84993810103482945e-05
-1.13736820791324827e-05
1.66662734196620463e-05
-9.30778190672075078e-05
-7.39623023187772248e-05
-1.69773910571506917e-05
2.14491614167084543e-05
-8.29766419046736882e-05
-6.43797981480326255e-05
-2.08909612170378884e-05
2.22983017766263039e-05
-6.57172864087249509e-05
-5.56311125404243637e-05
-1.85469969083364278e-05
2.28609887428901759e-05
-7.47085135849849281e-05
-7.7192623398897122e-05
-1.73733410506143155e-05
3.5728891111165937e-05
-9.47681117016884784e-05
-0.000105994823263457746
-2.48090041273465959e-05
5.07391113995341251e-05
-0.000120532503664111791
-9.97805027852573538e-05
-3.18913693350004188e-05
6.38342846350280164e-05
-0.000119365443429955955
-0.000112921636160381736
-4.62431850883425247e-05
8.17210165206631054e-05
-0.000103401629553591937
-0.000159923076003542971
-6.50670993748252147e-05
0.000108358431855227897
-5.97909908972149229e-05
-0.000180882598074860572
-0.000109550284487204823
0.000137040995596025193
3.63314772561632612e-05
-0.000176748938883723408
-0.000138007458259901944
0.000118317917713731789
0.000170636468191639643
-0.000120147468791027021
-0.000107971781562803761
6.88434516344002252e-05
0.000263854892491337993
-6.64928631698078192e-05
-3.95726684617900374e-05
1.80680918177376718e-05
0.000292177233420003125
-4.55599533412444555e-06
-2.27134620780695323e-06
0.000314064988126233039
-7.38942793036980127e-06
-9.50999704029934807e-06
4.83449544779322237e-07
-4.90217537377469101e-06
-1.00276273130882437e-05
1.96475275371247482e-06
-2.82530522627968136e-06
-7.78749673601310148e-06
2.83744253438532255e-06
-1.25364020710096231e-06
-4.12119555724821147e-06
2.53515766387494707e-06
-3.8608192310488064e-07
-1.00726882996935677e-06
1.34251128527405881e-06
2.14377082171880952e-07
3.36517484933501912e-07
6.20379296344569391e-07
7.35273124761763089e-07
1.17789017403643694e-06
6.56404782692136201e-07
1.40340909999017501e-06
2.4681255180385804e-06
9.69863372987241815e-07
2.12942976203043438e-06
4.76268368871546614e-06
1.8674002901587506e-06
2.74341829353740899e-06
7.04466072671745185e-06
3.39106290494141415e-06
-3.91070926007921263e-06
1.35698754009180668e-05
4.46658378044903225e-07
-5.06966608770167846e-05
9.07394563967693488e-05
-0.000113382858558295834
-7.28581633323718917e-05
0.00036877052318873689
-0.000230807996107091262
-4.42772391324653585e-05
0.000564235115169315119
-0.000122935612463482397
0.000634143475747501279
-4.00655184994191846e-05
-1.34059462024918986e-05
-9.47714541974031355e-06
-1.40708967106937725e-06
-1.08840185699184448e-05
-1.11993588602170201e-05
-7.66731099164275741e-07
-7.72882848775861638e-06
-1.29523664886169511e-05
1.14142740437816599e-06
-5.07167630015422445e-06
-1.06039399940005873e-05
3.28706610956166292e-06
-3.02240794845564072e-06
-6.21876878557222351e-06
4.23962780305136512e-06
-1.5014739142779875e-06
-2.3650458772988833e-06
3.48977922291496694e-06
-5.77954951124000724e-07
7.61664817819700368e-08
1.95721418201579003e-06
1.29347350017394006e-07
1.4769387816520635e-06
1.60047936144173018e-06
8.37808773738244911e-07
3.16980930446434896e-06
1.8204396001657195e-06
1.55384603324553269e-06
5.72785816744647553e-06
2.70603380950789508e-06
1.78684645212366314e-06
7.38475535774237245e-06
3.7789266187977849e-06
-1.16770487631062545e-05
1.59703064220584267e-05
4.50049321854989666e-07
-8.72953085801190008e-05
8.7658864196223961e-05
-7.93047245682399729e-05
-9.79794205299306666e-05
0.000393549428343592566
-0.000229853034883790785
-5.20170799312875615e-05
0.000565287366244155917
-0.000139261107552761002
0.000612126112747506048
-4.55801392582984427e-05
-2.81468069082889294e-05
-2.15614659243710883e-05
-1.90075401705339064e-06
-1.75764328925228695e-05
-2.75062703918052804e-05
-2.03540481230744724e-06
-1.1764819353471416e-05
-1.87055364192268218e-05
-1.01338141870817846e-06
-8.06831796754191724e-06
-1.4058368010670943e-05
1.5541019927930779e-06
-5.72065174187956524e-06
-8.06367488800028285e-06
4.42657363878903531e-06
-3.49175786836497996e-06
-3.91743753755941621e-06
5.68767417473602367e-06
-1.96904387177322516e-06
-6.63628960267297241e-07
4.53773527288437506e-06
-8.20288820127647868e-07
1.37150839624431277e-06
3.27779921068314909e-06
7.59004867611070804e-08
3.5710774878147294e-06
3.11004074980627095e-06
7.70673107694684489e-07
6.24399346289933136e-06
3.80528948542165013e-06
3.3559700202671197e-07
7.34058800558194051e-06
4.06381483184202028e-06
-1.4418360978896517e-05
1.61116147749504248e-05
-2.9505232116188233e-07
-0.000110347640361971951
0.000115175346084529085
-6.75851753203774623e-05
-0.000111393356150736217
0.000386817661427769129
-0.000216366813510263475
-6.38053387139125524e-05
0.000551498861988112491
-0.000135783871267370368
0.000580389011780693014
-4.57321558099548246e-05
-4.07534159386521334e-05
-3.72532514110456047e-05
-3.5046172858526007e-06
-4.13595554383793944e-05
-5.50889824690584652e-05
-4.19350468768262165e-06
-2.592376421966354e-05
-5.36496133986730491e-05
-3.89365349378210983e-06
-1.2892406893627166e-05
-2.85306106168455655e-05
-1.64433012609828027e-06
-9.36786159449957489e-06
-1.28916579762391256e-05
1.49985170742845835e-06
-7.09169426954128674e-06
-6.30410359186333952e-06
5.12886782960008834e-06
-3.97247929009065595e-06
-2.98846644929171731e-06
6.94258125342493007e-06
-2.28585857033139302e-06
-2.31289405483260262e-08
5.37853571526363933e-06
-9.47848853234395327e-07
2.65678018770353534e-06
4.83314617907696338e-06
-3.92835489818218803e-07
5.75418393860847445e-06
4.77903934999283592e-06
-4.84099728843353964e-06
7.99089152089806812e-06
4.24569863839421697e-06
-2.23880022912605547e-05
2.53134711094075136e-05
-2.96859042826496953e-06
-0.000124418109446236877
0.000168199087543363922
-8.04869302396805074e-05
-0.000109753646989665474
0.000377969955982675643
-0.000198106056530381644
-7.20362504706700829e-05
0.000517854477189995627
-0.00012748255660060832
0.00053762114020322702
-4.3191778674553148e-05
-1.67430247505660059e-05
-3.27587891665217176e-06
-1.80574297230660851e-06
-2.64711991935709949e-05
-1.36950003360600035e-05
-3.81254221662017863e-06
-3.87355528458082436e-05
-2.72262967903122292e-05
-4.86109837978897231e-06
-5.17586292198706665e-05
-4.5852105461130911e-05
-5.11390676657699254e-06
-5.53023930057074521e-05
-6.77358386111114762e-05
-5.62473418606890172e-06
-5.17762557481894111e-05
-8.53535738277511248e-05
-5.96956275328704282e-06
-3.35753405465617647e-05
-8.11795930965815887e-05
-6.30852188139214311e-06
-1.6287422466737759e-05
-3.58388183007166819e-05
-3.42233444867579365e-06
-1.30622274827133978e-05
-1.34931238981752254e-05
4.64139896421475143e-07
-1.12927032286139868e-05
-8.00069866596677041e-06
4.51750174999161368e-06
-6.66151024428099723e-06
-6.44741890929574851e-06
6.8080429170942066e-06
-2.81076526367455304e-06
-3.39452053871212773e-06
6.61259932535032774e-06
-2.45966969102172448e-06
2.5685835495484604e-06
5.01551147945307063e-06
-1.05840727198916409e-05
7.5859957916419404e-06
2.82686090002608865e-06
-8.07999438553135918e-05
3.27972308769041134e-05
-8.09104458582948535e-06
-0.000138083308722262922
0.000195178551260751572
-0.000102139159578944926
-0.000112816324613583692
0.000366902738679326099
-0.000178445172602341684
-7.72065838180859763e-05
0.00050081841220863657
-0.000115217462138309369
0.00047985401136127427
-3.75148766201483452e-05
-1.17651943384828927e-05
-5.14659374352652145e-06
-7.85318509731838834e-07
-2.01682610480053565e-05
-1.45836618890966735e-05
-2.68049508526330428e-06
-3.3650264259499223e-05
-2.63460992712887582e-05
-4.48918955688984957e-06
-5.13570005642925733e-05
-4.77577394833893822e-05
-6.16009790189948505e-06
-6.47141573248692279e-05
-7.09508834199202416e-05
-7.27576256281162719e-06
-7.33917537687159174e-05
-9.64205702898200489e-05
-8.41542108554715964e-06
-6.51732890850217569e-05
-0.000113032186423365485
-9.42460928597914728e-06
-4.37158751735301738e-05
-9.24653878525987552e-05
-9.83873599520028237e-06
-2.49414615147315696e-05
-4.30665264291637062e-05
-5.55856933407310441e-06
-2.45570521602733596e-05
-1.88069982981417222e-05
-1.62563526241796646e-06
-2.46413623680808272e-05
-1.74120564997015089e-05
2.31782833056684559e-06
-1.78268603930486385e-05
-2.23959099506680092e-05
4.18945205536386387e-06
-1.30494605031052597e-05
-1.42344407864557596e-05
3.12265832243310021e-06
-2.36704290259508488e-05
-6.49308837233248107e-06
-1.92044221403601658e-06
-0.000106845804169036508
3.36345490848111443e-05
-1.60882102552923221e-05
-0.000152005000289065896
0.000180803074908027098
-0.000109452154990891535
-0.00012481946694169985
0.000352816745799110665
-0.000153962466753173574
-7.87296904337749155e-05
0.000471508042786544367
-0.000100718337056510178
0.000407286321782964074
-2.90880387040294833e-05
-1.05779460572624071e-05
1.10294650885381556e-06
2.35848150538448571e-07
-8.92342218683494133e-06
5.3242360900989913e-07
-3.53490660423955283e-06
-9.0116968160835267e-06
-1.62894032714850875e-07
-6.61806790765379249e-06
-8.9888852334895314e-06
-9.45808914646881022e-07
-1.18805382503342736e-05
-1.72399120231236609e-05
-2.20176997475833966e-06
-1.55379554111519436e-05
-3.47153624863916267e-05
-4.3550802667376863e-06
-3.2598322912569712e-05
-5.63593149113966965e-05
-7.05078970483062193e-06
-6.11743245286569255e-05
-8.02928608427338439e-05
-8.83874760272844945e-06
-9.42876633201866337e-05
-8.82621533074331305e-05
-1.1256808347308427e-05
-0.000125678106564205836
-8.53918361326770213e-05
-1.38363651983496556e-05
-0.000111847190398617989
-5.72271456125351583e-05
-1.50314440019201425e-05
-0.000101186885730834302
-4.77512609940587462e-05
-1.05097645332048165e-05
-4.78667894603377789e-05
-4.70969480200589236e-05
-6.39333953884539173e-06
-4.88567964486837455e-05
-6.26989163468994441e-05
-8.56275752163766245e-06
-9.50678396990315832e-05
-5.37412687237028485e-05
-1.07928226860323699e-05
-9.57661419132925366e-05
-5.82557805708570187e-05
-1.89139334782735476e-05
-7.52251342116374487e-05
-0.000139053663947884314
-3.91776027711816224e-05
1.28925296834185927e-05
-0.000176919026398988672
-0.00010500814785621926
0.000176785822992251384
-0.000148492831383596963
-0.000127156997491737525
0.000338298766051187876
-7.84956252902588883e-05
-8.44849692378395233e-05
0.000424364019292455049
-2.20491326025771206e-05
0.000324006494817953431
-9.00145602956760924e-06
-1.15334918143070714e-05
-6.21640016482280236e-07
-5.86104798777521979e-06
-1.26448194343207871e-05
1.09510121945490707e-06
-2.95868517253245903e-06
-1.03486946380635376e-05
2.38561433853396936e-06
-1.14289335568367654e-06
-6.05424569938096689e-06
2.32949082286817219e-06
-1.96228224568538408e-07
-2.09438256699858396e-06
1.22636469412479661e-06
1.39938890439085169e-07
-1.96412863725350529e-07
2.34465711666823657e-07
3.81173471744725617e-07
3.34754372013419418e-07
4.72608223399458191e-08
6.87927791477342162e-07
7.93355073244170667e-07
1.32394082813288101e-07
1.28272403019598643e-06
1.84944421085738104e-06
6.04191597396299381e-07
2.24337656441225442e-06
3.92695995735559138e-06
1.77547258569628306e-06
3.36518926350210557e-06
3.88323516990582924e-06
9.79993596502821201e-07
-2.72362603234220678e-05
2.29164278276969911e-05
-3.54959501901540213e-05
-4.75707757885578721e-05
0.000401417887531282838
-0.000227910595538771135
-3.79258889843590272e-05
0.000601938888571461089
-0.000149086687446280174
0.000634565048218578673
-7.86396392534444806e-05
-1.76974258430287102e-05
-1.30836783595743626e-05
-2.48678323203826959e-06
-1.47540068329372258e-05
-1.53172562865098866e-05
-1.61272317886303789e-06
-1.02193272492584244e-05
-1.7542694638216084e-05
1.54330085192546547e-07
-5.32527869925788213e-06
-1.53306764256627194e-05
2.53611558708829774e-06
-2.48699164100246966e-06
-8.84114358913762547e-06
3.61612028201342471e-06
-9.10652892167977248e-07
-3.45162476791493055e-06
2.88380114715922425e-06
-2.17398016109832781e-07
-5.40797902180373851e-07
1.40629124370392555e-06
2.13633256252624764e-07
5.6614900787404035e-07
7.05878391904611976e-07
6.06424611953922097e-07
1.32844978994857519e-06
6.82038946060060591e-07
1.16047186009405426e-06
2.62722496023896232e-06
1.13710770620249306e-06
2.01583003940053822e-06
4.44532062816002517e-06
2.15138687573682696e-06
1.16244521891468886e-06
3.95698457013258703e-06
1.40329301400698764e-06
-5.07406909502327306e-05
3.38330967633674259e-05
-1.69527239923366627e-05
-7.06343872854883352e-05
0.000386827671216457376
-0.000204363943822186985
-4.99198049490202071e-05
0.000589366850684823495
-0.000150497314723636129
0.000619822229592401856
-8.20003139622023608e-05
-2.46825774346790671e-05
-1.75504697293867414e-05
-4.25292293458653977e-06
-2.07719319740044955e-05
-2.08082467058461965e-05
-2.28002407133640755e-06
-1.53196200812082839e-05
-2.28212777243354221e-05
-1.12560380567426407e-06
-9.59945257524579602e-06
-2.08273797269501526e-05
1.0393682153386793e-06
-4.61847512758946632e-06
-1.39215231624643532e-05
3.74338777557432882e-06
-2.22995450056928571e-06
-5.18210324223709343e-06
4.33628309337757835e-06
-9.96478941672952069e-07
-1.03353484698592657e-06
3.42235203720877416e-06
-2.43354697561162991e-07
7.58337449966738724e-07
1.96995353049084498e-06
3.49714859920588147e-07
1.9037469805497583e-06
1.57626839657752313e-06
9.55286036889416511e-07
3.36358660687870328e-06
2.06683351161061966e-06
1.58810156289064227e-06
4.74997669539828516e-06
2.77396601172473419e-06
-1.05624085562843155e-06
4.58210377480077909e-06
1.82771724286469079e-06
-6.65097677631908016e-05
4.85971868636813844e-05
-1.96105590947305921e-05
-8.83550526824741366e-05
0.000366289616066746611
-0.000178752988771595185
-6.1317587999095441e-05
0.000587108856780992104
-0.000158678225549428433
0.000596766425718975248
-8.57517654348155192e-05
-4.20485296967912728e-05
-3.65217811226882446e-05
-5.3551127405107141e-06
-4.16727152549459186e-05
-4.23296588329693957e-05
-5.09411942651777686e-06
-3.26070695052058999e-05
-5.3523307975695743e-05
-3.07569852845490053e-06
-1.8001655189719335e-05
-4.91534034650107179e-05
-1.0943666084479168e-06
-8.86468647724976882e-06
-2.48802685630768124e-05
1.52995874377142267e-06
-4.29694314448023561e-06
-9.81000251607477386e-06
3.98294470009379573e-06
-2.22567359842655253e-06
-1.64856953680188843e-06
4.83908691715352541e-06
-1.13679550519498525e-06
7.84399143540459772e-07
3.68746570825546256e-06
-2.22512620809321452e-07
2.17321088961930836e-06
3.08909823833731643e-06
4.91558017007723189e-07
3.64353935520955899e-06
3.28357741093433176e-06
5.86337745239448929e-07
5.02374658059046905e-06
3.50031705595258755e-06
-6.33898556395945967e-06
6.76703255449476963e-06
1.95712617087172283e-06
-8.098501798262747e-05
6.34153738261396689e-05
-2.1439623691992406e-05
-0.000106071480551788895
0.000355386973705356431
-0.000166611168771040323
-7.25004828978859718e-05
0.000577562952404061971
-0.000152874997527043118
0.000561730226940442869
-8.24117042202017458e-05
-3.6077309877488131e-05
-3.16563933316263803e-05
7.81611054755898695e-07
-3.91534455828295813e-05
-3.73019046153528211e-05
-7.95382719727610125e-07
-3.96052235663942498e-05
-4.67317437782161649e-05
-3.20047465435600653e-06
-4.51512617025221088e-05
-5.31267501406373297e-05
-5.68405540540820407e-06
-4.9851034207011126e-05
-6.68053844273028789e-05
-7.2288512961523379e-06
-5.40960516090088469e-05
-8.7134488053561225e-05
-5.8485708660886261e-06
-5.02076129368269131e-05
-9.40674701732112969e-05
-3.61487781288260863e-06
-2.06999949071897678e-05
-6.86689212275760349e-05
-1.2925579108260834e-06
-8.10064197691944644e-06
-2.55633886246169595e-05
1.11425220987516824e-06
-5.36043881321066772e-06
-4.43047925545135167e-06
3.20309915372318411e-06
-3.06295156088276565e-06
-2.30218542862201492e-07
4.65502823770058788e-06
-1.27931486439983756e-06
1.68760525324111496e-06
4.57686691361530835e-06
-4.60936925667321262e-07
3.11886084657639445e-06
4.19161147721798292e-06
-6.07987096745987986e-07
3.84685581047669656e-06
3.86209209829911166e-06
-9.42933718695882232e-06
6.27455010775640931e-06
1.44557030190158984e-06
-9.42454565067972515e-05
8.63758468319540462e-05
-2.70764576513462151e-05
-0.000121819070099988646
0.000345960998099447466
-0.000148127880447169259
-8.0285259245391384e-05
0.000556426752472588201
-0.000140498098011615231
0.000508692096832865336
-7.4307178185367264e-05
-2.41575457935845281e-05
-1.83198474373960831e-05
4.98165543742123892e-07
-3.35381956812306217e-05
-3.20507795185158171e-05
-4.3279435710649224e-07
-4.18811571900136649e-05
-4.51202685453924544e-05
-2.54615614660719792e-06
-4.92124183826965185e-05
-5.55261857767408163e-05
-5.08472047614861188e-06
-6.02434562920189587e-05
-7.20756315803409541e-05
-7.52335294284207486e-06
-6.85501075620758768e-05
-9.61336249541981696e-05
-7.97800415250293547e-06
-7.37543558798373848e-05
-0.000117258223487941364
-6.18313562487166274e-06
-5.84908005083668463e-05
-0.00012466857893323049
-4.99839909133814451e-06
-2.0881773627780888e-05
-7.71873750405964161e-05
-2.20571878454536244e-06
-9.11137543974189845e-06
-2.07344564199824344e-05
1.96520984766410589e-07
-8.26992903380406125e-06
-3.03481743784557667e-06
2.04526012911293769e-06
-5.62507025855046643e-06
-2.62705275700957428e-06
4.40052133150694163e-06
-4.24793644785054495e-06
-1.02021084623042488e-06
5.12539694033402871e-06
-3.83649721100196488e-06
-4.00088583399685598e-06
4.78233008374126808e-06
-1.57557069693063497e-05
1.03963490854748161e-06
2.58836418022774847e-07
-0.000111693116397342451
0.000116215384685704526
-3.43128668005216651e-05
-0.000139504250574618846
0.0003412656785162685
-0.00012528121643285266
-8.59396002188716259e-05
0.000525929146156404212
-0.000126612382774143694
0.000429134427484043567
-6.41576330228279791e-05
-2.26015185175763658e-06
5.10419804704315589e-08
-3.51132628988941352e-06
-5.81814912913799613e-06
3.71614602642504224e-08
-3.38865157795164432e-06
-1.15785309551477377e-05
8.75012484241815104e-08
-5.77818176902624303e-06
-1.88635876446637365e-05
-1.62598092950243119e-07
-1.36836627873065198e-05
-2.82045480432584829e-05
-1.23780456691507582e-06
-3.00549359837974432e-05
-3.70914767195412579e-05
-3.90247439647068709e-06
-4.58843268364581559e-05
-5.02316194734158764e-05
-6.5151054012221472e-06
-6.4643592163421106e-05
-7.10011357256842791e-05
-8.30348767705392156e-06
-9.14462834461633012e-05
-8.91118223965763431e-05
-8.16760013471523992e-06
-0.00012316923720256625
-9.38015964696054292e-05
-7.36560896482897606e-06
-0.00014437969425134075
-6.96309122229545323e-05
-7.01581457167961375e-06
-0.000147229356594072897
-2.53634792506079226e-05
-4.28227194743504337e-06
-8.07554291443915808e-05
-2.30115833726173408e-05
-2.41074361227568622e-06
-1.36532814953045419e-05
-2.32484683234187839e-05
-4.09824924145150816e-07
-1.46979858201524206e-05