/*--------------------------------*- C++ -*----------------------------------*\
| =========                 |                                                 |
| \\      /  F ield         | OpenFOAM: The Open Source CFD Toolbox           |
|  \\    /   O peration     | Version:  2206                                  |
|   \\  /    A nd           | Website:  www.openfoam.com                      |
|    \\/     M anipulation  |                                                 |
\*---------------------------------------------------------------------------*/
FoamFile
{
    version     2.0;
    format      ascii;
    arch        "LSB;label=32;scalar=64";
    class       volScalarField;
    location    "0.990000000000000657";
    object      alpha.water;
}
// * * * * * * * * * * * * * * * * * * * * * * * * * * * * * * * * * * * * * //

dimensions      [0 0 0 0 0 0 0];

internalField   nonuniform List<scalar> 
7340
(
0.00485035427294610091
0.00628524231286221782
0.00582682129019784605
0.00486606677106665025
0.00441090259478735692
0.00407072199237124791
0.00341075361537922575
0.00394155398842322043
0.00525595593260557836
0.00725672357085565059
0.0102312250435898089
0.0726521420228628811
0.510779034314003066
0.387274080812489652
0.635694283186162501
0.8240317437972704
0.00225169210590155534
0.0067260493557982793
0.00626487260430382692
0.00597912576596206641
0.00484572175775333999
0.00459274477474464014
0.00442636983157098773
0.00463255334107336332
0.00581530579309136146
0.00740446484447755335
0.0105111137988206076
0.0626715988029695747
0.408070480483330389
0.741580409444555722
0.835007876397838911
0.860498144821069677
0.0139301524102139491
0.0100425598556803056
0.0073321058050162622
0.00718750677664912324
0.00613615254176964539
0.00478387327308246648
0.0052967807877600942
0.00580542832614947164
0.00648098333998416327
0.00771987714051682906
0.0108737863783969456
0.0229836882672929434
0.356350878523297943
0.726958485751927563
0.825024697875338719
0.869905561626159285
0.0984865135825381544
0.0634288993598372264
0.0340390409505968994
0.0131328442497927623
0.0107000181181706421
0.00831453388781122626
0.00671189740223107796
0.00776030926006523059
0.00776160396894292302
0.00790768135041070713
0.014549160904942144
0.12682901111973871
0.48522904314376536
0.701880654531481296
0.598839323304149129
0.877906035392432504
0.07704246210526422
0.0897647512501594941
0.101762264817931186
0.117123933618342987
0.138684882232237405
0.120257174691816737
0.0543987954827697406
0.0242186142185002798
0.0205007262098029185
0.015027882980891593
0.0104347187405370388
0.0115921020098434819
0.0123006066908266203
0.0239644823891323154
0.172304155044095825
0.727203756271891599
0.781429746670481595
0.622356241541659916
0.878684169310429364
0.04538346518954961
0.0966794922106991444
0.116905119260371532
0.137751050040027523
0.152150331965986207
0.17345584720688384
0.165611234176245015
0.0823108181274053302
0.0491624433396910254
0.04390536830648889
0.0457609592788403505
0.0731913794448675048
0.0310853961808226012
0.280169769486448561
0.542508963894354324
0.761047428287495054
0.808600975236436481
0.848506837616727738
0.857666202454562487
0.0101071354454898878
0.00852687939442435539
0.0166668903980592004
0.0382054768427477487
0.0857214836271917024
0.141208462335153301
0.172813335563317738
0.194651675311529437
0.217423571626968348
0.186068906416471086
0.15859225001364502
0.291147786833327149
0.382270029143185419
0.309925004353152345
0.373598044633631665
0.517942720369365506
0.748987162994963929
0.785504516418941146
0.829299075060476287
0.743393038649309057
0.793716880486199372
0.00760727780562367797
0.00718211243431741454
0.00537349398207880545
0.00406477623327130069
0.00332099318127067854
0.00281333515405064044
0.00290438730777500126
0.00321908050704458777
0.00436041532260897195
0.00686282322932557642
0.0503253691994571678
0.448533852817977863
0.607156674223746862
0.580168759254141353
0.798495111683794723
0.00944603224692354068
0.00586144812864564449
0.0081695655017321421
0.00735607189376964385
0.00523599285675116141
0.00401329250516220971
0.00339325301541319648
0.00346693631159522174
0.0037526356244638741
0.00478367414877879909
0.00679402147770234721
0.0154526508571966262
0.331528219135692137
0.79578903604996909
0.872657672012962848
0.878149652465048947
0.0547770546897896893
0.0274912796643280374
0.00733670672919435867
0.00831954555424000049
0.00670313822228795451
0.00494291525198556174
0.00422530772874157249
0.00446457171259525068
0.00477293744265054436
0.0057905318852757284
0.00742577388922665768
0.0100990643328645689
0.246488301907537122
0.819308642197762449
0.875157716847246414
0.887204797791372402
0.100316661503598414
0.119520720988475854
0.0786469805150362133
0.0117381784542080862
0.0114503723740171197
0.00789713387054137572
0.00567944076731713519
0.00606270392253875114
0.00611596225434602597
0.00664385391433665578
0.00853493966665786266
0.0524579521105856539
0.213992305422187695
0.82067035634590968
0.836872211323411497
0.895696779284820055
0.059563587186628783
0.0838324327064661479
0.0988820381424397044
0.118904996715011646
0.136246685417294233
0.16409846056416677
0.151679438602144945
0.0302501259811451886
0.0177072085357076331
0.0122532581641593766
0.00812156341838284231
0.00844761349524354027
0.00864580684845837194
0.00943473077791603248
0.165718297852600699
0.63302086589558626
0.827140974605677703
0.839673252799254755
0.898475625153657864
0.0272654364771529635
0.0573676888807702137
0.0808938268305035013
0.134569569470856298
0.163706127677810426
0.188160978869769097
0.215769775999988145
0.187182436652413686
0.0445420237162404142
0.030823524117507009
0.0208171232335868928
0.0167674327774346085
0.0137592798977287985
0.0305999160377284848
0.185050480447446875
0.806984130841601144
0.841903920025585562
0.861864919920031891
0.853783202307383693
0.0217221455955082104
0.0179190098281944987
0.019583687076770797
0.0117011878385670544
0.013807579788636816
0.0601880690629775367
0.162107714160967142
0.215687303104844408
0.236786729251885403
0.264415864856056837
0.245344901179518238
0.0693971352551222831
0.0666326638351406736
0.267316885519905623
0.202025021073907268
0.209851703704530101
0.420054005497296989
0.83538176824940602
0.864063395498755327
0.879939638744740682
0.797084903375102738
0.0116119757209818611
0.0100863516125997421
0.00635963786095412528
0.00377846758838778747
0.00281194529410027771
0.00270053647498728119
0.00268570545286829672
0.00261753463933735251
0.00288935371523772874
0.00433177455787139235
0.00616617297584260739
0.201779315546187166
0.774557245784595838
0.715364938467534683
0.789172000633300064
0.0179028015469347088
0.0146594280105126103
0.0127579894276384619
0.0093224851235776153
0.00553819111968876544
0.00359891342575351797
0.0028109194695082303
0.00290558366625868082
0.00280537720635786782
0.00331131488426329897
0.00455388831089600151
0.00566069592809605865
0.0852066071209257869
0.839069825862994501
0.890212972880663589
0.889578687951546931
0.0288740043969185171
0.0188057228845397648
0.0100019099794634077
0.00921399465346140097
0.00793891634193858234
0.00527712986317571252
0.00356450098919292632
0.0034562436919743705
0.00348866854368498191
0.00410445643563962792
0.00515264354312861342
0.00604614228371810718
0.0828409480999116599
0.8587736068405456
0.896556531864337813
0.90909595777440666
0.108321831846732247
0.103100874733832282
0.0913718032860967866
0.0615895876071754222
0.0144841220215227717
0.00810654944689657118
0.00516892195601710656
0.00449692093897737302
0.0046656922218876358
0.00525210749137983504
0.0062009667755605867
0.00716202524794099307
0.0836462245837750196
0.876122846620304374
0.902630489981813389
0.912890224394809602
0.0799139306885383593
0.0917393563083714891
0.11116594543596281
0.131211015602188785
0.149833720086693878
0.165081785466849096
0.17178170129217965
0.0626086440629098628
0.0157890529287520592
0.00925784770042824973
0.00636841123050838585
0.00618792137773457526
0.00655271171495138902
0.00760044356211470994
0.00783638923129751329
0.111711238205155133
0.882074272208681176
0.899728435379285374
0.915917471670853911
0.0369740894136582274
0.0785732393782645755
0.108564552300403155
0.130572410305491549
0.159093415076498906
0.181239000211253359
0.212128818754906773
0.242430896223269021
0.086606364661792945
0.018736141920579142
0.0134882566640156312
0.010797821100449502
0.00947236989052169243
0.0116818574568673499
0.0156027175137750419
0.247482481549449629
0.880637732898799763
0.900436662336844718
0.896648398495148324
0.00207434562999261191
0.00161648053903471552
0.00324265288871194209
0.0110293617409959674
0.0533214357214488732
0.104552034030997054
0.15420761025242441
0.212117752517881841
0.242261241730329063
0.282801399786256458
0.332370778582701476
0.069853313019681923
0.0260454424522070238
0.0256000080712623472
0.0163793647591280733
0.0211416678356820924
0.18184832712784274
0.46824609209434398
0.887741102258335024
0.905335197162511096
0.800384198940379155
0.0190933713600344723
0.0165766043400657551
0.0131061391324699579
0.00891771047237680317
0.00490146104531311803
0.00308377821442387158
0.00268570545286829672
0.00261757124384438258
0.00261757124384438258
0.00261757124384438258
0.00289418362536959101
0.00436002595146856801
0.0690411799261756165
0.834212669840508569
0.884452121123280532
0.908021683623527087
0.0469485386234036253
0.0218668790839826807
0.0178634839139593452
0.0130163724042758611
0.0069880518478593924
0.00389590982016925188
0.00296064514283004253
0.00268570545286829672
0.00261757124384438258
0.00280557433450132152
0.00331242909900328602
0.00415362773215068037
0.0458119752099474115
0.767667571257141579
0.756524593829573266
0.78136124983402977
0.15332865739954632
0.0365172901515209564
0.0230322183368280621
0.0186609331974703502
0.0104705255481549169
0.00538179934544953317
0.0037894863629916631
0.00295805211137285893
0.00280555291339066497
0.00331242909900328602
0.00397924013823587781
0.0046494284856600258
0.0503715763315322057
0.597770269428507861
0.88784125618820986
0.918614930843694832
0.14945888969827556
0.168403329043574579
0.0358245001524037446
0.0229380014198294832
0.0171709050250013415
0.00732660559975488544
0.0051002155134271419
0.0037769663835850462
0.00348412212865463825
0.00410657643729204526
0.00479485758524257621
0.0053894567043837726
0.0811147362805964833
0.558648133351110632
0.9152365920604002
0.925163276998593354
0.012580630467171644
0.0491889980627313594
0.128463443790569981
0.148154121010069501
0.171625188207682938
0.182281992343186983
0.0501974166042155681
0.029387010086553457
0.0167506208251810944
0.00773821921602279531
0.00520402133776476285
0.0046697199837956848
0.00527462599740396304
0.00591771711026558341
0.00635727122632399368
0.093181303204064897
0.817180436237205932
0.916518812116376091
0.926317805050895227
0.00498597703364880591
0.012456371882030963
0.0812514987171857883
0.144425953328367274
0.170335381743592584
0.198878877097151296
0.210591243625003255
0.203225242430336045
0.0992276123068267235
0.0179330446476457656
0.00901673414415107843
0.00712422941248711146
0.00678593983622021758
0.00793860272889393946
0.00852784095471316103
0.136886903303973989
0.795392953656189672
0.918637966085788737
0.923218022010861228
0.00131689248943530008
0.000514528688160992699
0.00129106142108632079
0.00362511062564088542
0.00981750793931273139
0.10314299962727036
0.170251945933877213
0.192374202354822471
0.22150737744023799
0.272973398671193745
0.330022922084714732
0.155685781886684887
0.0204887830980423104
0.0117557830121628962
0.0110576734319067678
0.0110132837178985084
0.0168103860750960475
0.192347403785134458
0.849677267998648844
0.917758286629633768
0.924822428490097659
0.146409344340746789
0.0228208715573419152
0.0160681101272368843
0.0110488865261334501
0.00710484740951698637
0.00441052362175206082
0.00309080399635898884
0.00268570545286829672
0.00261757124384438258
0.00284074560727808328
0.00334489294798604982
0.00401504663908738933
0.00509657862567713775
0.850345821320408257
0.941414428831009564
0.94236178910148849
0.18725571619856185
0.0371611632377720769
0.0238811191656537677
0.0160474499168480542
0.009851223514018825
0.00575011930336742985
0.00378671390582773328
0.00296078269449754098
0.00280557433450132152
0.00302874869793502179
0.00306391997071178354
0.00351422773463302193
0.00432141423857700449
0.727381746368199855
0.940358944588873369
0.934847846625337708
0.177918809083222107
0.184075617539876835
0.0366431804007621015
0.0245769711311447231
0.0153030947467997502
0.00855342227065763669
0.00513373959981210624
0.00363031791724722532
0.00309434060390454367
0.00306391997071178354
0.00337669893890636544
0.00400833870536219418
0.00819177165082223338
0.434808357787023092
0.936389391597180598
0.931324118448165317
0.174019199204196118
0.202581464342790729
0.146677382412422397
0.0370266826066767349
0.0244269472604384079
0.0143439551777195858
0.00788350516990397009
0.00498983915759677703
0.00364326760299349276
0.00337669893890636544
0.00400833870536219418
0.00465661042638970332
0.00541177260734466634
0.169866706813091128
0.927731982747967088
0.928866433296532179
0.00706643406290901992
0.0154196617977641059
0.0648543704363359341
0.171601458891953884
0.197474100532811725
0.228535892589400519
0.128573290487987574
0.036088808085790125
0.0249374388602014024
0.0141509483484529418
0.00756089352405763492
0.00488496481397444025
0.00420554873649605938
0.00479718682392953587
0.00541209138345651736
0.00638079336807018636
0.119679361099386344
0.925953532351388997
0.926699835707417652
0.00257736798708953262
0.00702284616653884881
0.0162817300896050815
0.148416938950659549
0.196193647764698775
0.222422705110206925
0.256582664798304549
0.0924089043663306187
0.043403050956535856
0.027620764686481853
0.0145312969769990728
0.00721767369353544692
0.00529982850110501981
0.00593156752929767384
0.00635997234011472477
0.00713573974064153453
0.168509525215898237
0.92408309120115939
0.925106954853501584
0.00160294572626700329
0.000240238803178473368
0.000635206013936607324
0.00194671638577892077
0.00541370012988456797
0.0326407737633012326
0.18623686615896512
0.221896095551229577
0.249941693325137437
0.276613486640647999
0.136079624527564919
0.0624009002534862134
0.0384840817295487789
0.017914891737579243
0.00684100226786104812
0.00800143308699286307
0.00859201860456812461
0.0226096249374627863
0.264834399566930889
0.926452194965288744
0.924704736881323042
0.210331027493403822
0.194531359820248134
0.0238285406724518603
0.0156675438410599777
0.0108080170221877356
0.00699461466969476982
0.00430912237307605819
0.00331106331919282359
0.00304768288694922968
0.00326451632252353898
0.00399130240173501284
0.00508983311268448001
0.00714605643418573036
0.832295087129742206
0.946674566862816702
0.950895238396710862
0.214038263903002263
0.241358226381840346
0.0360822886392701339
0.0216202952125846386
0.0141551787050973807
0.0092379367816929122
0.00564459926829246478
0.00364940134216676718
0.0029225107203654406
0.00296423722576259156
0.00350543460772450612
0.00432106108108961263
0.00549461401143825062
0.599273485344450241
0.947239842693478051
0.942908841416310484
0.206871307324518472
0.237865625853439261
0.20542315129026123
0.0356795673737171429
0.0219144360740364461
0.0138702476738982415
0.00841275944477125684
0.00487677424442728522
0.00334676550775026439
0.00309864586868278773
0.00398018263153473127
0.0046559518736874906
0.00547082832476270681
0.267129153101817562
0.938259412280967209
0.93752961834568771
0.202780727504201924
0.233723522816182805
0.265068099235012955
0.0936060822607099052
0.0336915116626281194
0.0214996250968445234
0.0135403307882392687
0.00760037658826349417
0.00432403602906597864
0.00361506816122462733
0.00470797885818319793
0.00538334353346631676
0.00608440310302256482
0.024201448619790341
0.876584865041089456
0.9326188372907388
0.00531502717229124112
0.0117073970689361602
0.0244718533075591639
0.181379022013087643
0.22928713076367721
0.263325284915718716
0.287703921942547902
0.0599549400468833982
0.034615538176386039
0.0224479388751831835
0.0144135952800906238
0.00733626695015185751
0.00421384872984765374
0.00562398128314920732
0.00608219539023285155
0.0068915955249757091
0.0491804434078715949
0.768408305697411254
0.926612000707281558
0.00209420876075380909
0.00525336428058507336
0.0123003589235017498
0.043819610923707869
0.223826711427968339
0.257986259600133216
0.293853979419394729
0.265146783060547786
0.0576806159581011724
0.039982213126583982
0.0299045465138603611
0.0182454176006916664
0.00519330913136390685
0.00707625715067874018
0.00719430735743436731
0.00871129330430706582
0.0969426195796660173
0.903476760855484562
0.926232689903792927
0.000758512599216570492
0.000231600585564614421
0.000591251571822859565
0.00158279774613485176
0.00403601385002153382
0.0120292180738469871
0.152784053255343166
0.252661095701115945
0.288992707164174689
0.327037432612458545
0.265240975305904347
0.0721903913632429561
0.0597867627499480969
0.0485848422975718036
0.0287964746626490978
0.00732490465174683199
0.00900412406142582673
0.0129272051370127958
0.149708966199144533
0.924527618152145014
0.92620536398756137
0.226692920196440106
0.245729111479259743
0.250108670067775152
0.0293003553574400014
0.019264136240437147
0.0120960170008017568
0.00522945675728136994
0.00464711943798586883
0.0032163523962794806
0.0046454222841623774
0.00534473068418144046
0.0081550960113242147
0.288799472451168882
0.585239993963018623
0.955877918271154758
0.958762284263174225
0.241906635975636775
0.275688457844384838
0.311692323871424426
0.168851932948160838
0.0177772142832868935
0.00806473510111566615
0.00171192169204299055
0.00220479575988041365
0.0186131597852622031
0.00299193219203835927
0.00393355362715511192
0.00547430206064984486
0.0094340359280885959
0.747094282296671075
0.946967823760219929
0.950789997347327054
0.239594886665001117
0.270805266641774012
0.310745803963868417
0.295332075135228522
0.0379727044512912157
0.0247941633760889804
0.0230618436815637068
0.0273151807719886966
0.0308246818882530922
0.00362711847001186529
0.00420270325215697533
0.00529942720543045975
0.0102366024059828368
0.190578405407801632
0.937027271289287533
0.941200027885715107
0.21320451357785003
0.269319317645830003
0.302002067421785092
0.343952905996698699
0.268655589422239161
0.0458346526440780513
0.038563617604840561
0.037633074611897202
0.0253870536466357689
0.0195625269463025331
0.00578187146782369998
0.00579490612517403331
0.00724949178750819174
0.011404067022775053
0.880325224619071589
0.930768490651020963
0.00313839869947722758
0.00761870547868137744
0.0175297243590676749
0.0430905276447804686
0.264787900655731601
0.302980868480512366
0.339248934743769937
0.382083983978257768
0.216613195462527469
0.060082679788112589
0.0587712076044470053
0.126474976885328438
0.132024254307944844
0.00950966543773526171
0.00637796756995873387
0.00873671779862559075
0.0186995773100502097
0.711285163286875965
0.921371798155739663
0.000998392386471086326
0.00293686847351938823
0.00730668876732488287
0.0184165296668756251
0.118328494008982682
0.297694197638488811
0.337580301262002391
0.379361625430685245
0.372878890895231074
0.240688490257989718
0.0953864121293011846
0.112129846568997202
0.0997391641512640204
0.0186021851973871381
0.00752986892139347486
0.016196172644605801
0.0646263085442194268
0.542960606399167767
0.92108221313492844
0.00043719420186292136
0.000193520050334149585
0.000260008668124162164
0.000751754951257823799
0.00223577095760741805
0.00624327169497613296
0.0248518854641232995
0.261586806918876702
0.339642853634401776
0.373048092506038875
0.423387977411228578
0.365503658950847188
0.25637751076958093
0.368972182175770269
0.432213081181168524
0.36359263034878514
0.128688756336256177
0.0467060996151553096
0.234553065088926815
0.714150120206741068
0.923215152776517556
0.162349261917360876
0.239013036750170604
0.313193545388200822
0.350772346750661379
0.354502438384327379
0.342912389785094862
0.202421635999689126
0.0284591656114772558
0.029406788965593289
0.0241834424646235058
0.0299864450378050096
0.0803484290320390926
0.231396195291326601
0.918295396065283431
0.955486554939096178
0.958711707575019223
0.277574512467004819
0.311948317873669945
0.33975104497377695
0.348711165533171774
0.374729650424258542
0.38722199781071942
0.411294956127943812
0.303481238461492997
0.0344471385283883769
0.0289526096083938742
0.0131135829681086318
0.00979657084106697745
0.0150636754640280333
0.639706459513817549
0.947250802779396883
0.954090557559676089
0.272395747044554437
0.31597395692813901
0.34264065601752236
0.369066202879140492
0.377698370077941159
0.4066964484066663
0.424990608339961551
0.441074890005974329
0.347445632561391882
0.0369154328071611623
0.0207512029189481674
0.0121497618727368258
0.0129190164456615443
0.353553010771555876
0.894511845936401651
0.945637671141591696
0.14533053469388324
0.306041160737376861
0.35258881949755172
0.374933238279263725
0.398448107030462018
0.419528857601450367
0.44707590962807392
0.474673827963660644
0.478833303651166053
0.145642064814708733
0.0356641899452927666
0.0127618731610771759
0.0114513875628995086
0.0172020509040462996
0.921258311731738333
0.935842938966559568
0.00329811302536997357
0.0065218152622099736
0.0140994191815266082
0.0317516656461610813
0.10014502968758679
0.346532874496975563
0.383729152637952486
0.414707800377525804
0.440333714541083943
0.468590390113049704
0.49289137688345841
0.52237007124934054
0.492312278214249832
0.0591018783313054727
0.0266862136539876386
0.0148338593549715118
0.0329724294305290266
0.796795219280530542
0.920310552762737433
0.00090053027045774287
0.00212291713491728935
0.00558647347784274693
0.014109024539891362
0.031393121172608264
0.160327819198870541
0.386379886563312791
0.426138288323117953
0.464711098778218479
0.491649323911016456
0.522987679103738223
0.554579890959861377
0.579228952700151956
0.362360161694676775
0.0609703333972272526
0.0322103041520073741
0.0645928453328037527
0.5076876114302451
0.921637054727193039
0.000513899391019030692
0.00045875883788555193
0.000198751856014227731
0.000504845740882510149
0.00158259690635837369
0.00412516606679933558
0.0109221120553060144
0.0305114858001561094
0.326951696702000749
0.428185603488241751
0.474933093586430155
0.522976855429694298
0.554567213827502181
0.584328903059959437
0.60617966584616223
0.573342726754337395
0.161790379265890988
0.0868168793714425985
0.197509086039182546
0.566871762769133758
0.918545624758858592
0.0215751819744359682
0.0271196207551844155
0.0275009616106226401
0.0247545012759280217
0.0162780524232428447
0.0171794847848347962
0.0188804516792478241
0.0173016886752689128
0.297803875995746314
0.512273125847883759
0.608825232463614308
0.664350047561022006
0.637045572686324557
0.867328398390910582
0.869584946272920156
0.0257476559707699726
0.0267192926463120164
0.0272173598873523652
0.0275009616106226401
0.0269455786478120865
0.0159593888099863884
0.0160731745232469553
0.0187664898854673946
0.0430048359241535644
0.131616105844610365
0.351600847831238295
0.670499535561555393
0.715104088016295547
0.649673988738681985
0.835388047956302504
0.866710753113861365
0.0147663630164644351
0.0129013917169741397
0.0151851880267630211
0.0149481037623428615
0.0138347064463470344
0.0139659718854929261
0.0156488484019508024
0.0170512869955183506
0.02781061064600273
0.0368343493601584263
0.0727070044172034163
0.663118559990968581
0.774615673223411294
0.782541395794056016
0.728350653864297759
0.862169878681155577
0.00995254966839597202
0.0115588991649650599
0.0128363333174750325
0.014570626409361357
0.0155517779759584886
0.0164105727325626304
0.017992279159604975
0.0211197020964416296
0.0275015089304147808
0.0374749896964620133
0.0641128802333675446
0.450829186273507987
0.814178913672289228
0.837328681948549924
0.854917598157385883
0.862252145139424497
0.00955768698040790343
0.00260347771321636952
0.00025906847649599966
0.0151353767167972594
0.02100252607546884
0.015994227692969501
0.0155987084513254486
0.0167740270131780736
0.0181798890243586864
0.0218456174830253987
0.0278011537837689268
0.0363419499474494229
0.0508289843204427494
0.0753893241942450998
0.391910460893496071
0.824716827357123261
0.850667522231643991
0.858510049740750292
0.860046586041098071
0.00405276615688278993
0.00148547785165792042
0.0021784392599747157
0.0315404731550440187
0.0307673751257185601
0.0264274703269373815
0.020672300055330585
0.0211735312050836191
0.023629128689413019
0.0284494491297229424
0.0365905689860922187
0.0470824018987272969
0.0602123838830370961
0.0780415708121365015
0.2266532326073116
0.802507193939686392
0.84900670924524646
0.855986642060677871
0.856976246978720102
0.0115950911291822605
0.00625031754685990461
0.00470321845734348112
0.0042183830245765214
0.0127921627314521377
0.0174209267255040975
0.0665042419164234566
0.0610067868876279784
0.0368287775134243656
0.03287257759645551
0.0336206978360852893
0.0373939661723609873
0.0466217048773886408
0.0543244166530773703
0.0629032320028018177
0.0626648558046961901
0.178846702700818344
0.658709630202426677
0.820790063120984792
0.84854517353250003
0.85580200202286405
0.0145262741693546298
0.0187956152709079227
0.0177784437579342688
0.0126517339330892396
0.0160482267381777712
0.0149597747856134184
0.0153627725758152811
0.0139582954696123793
0.0169687144008170733
0.0306196366247821344
0.0326366950577544473
0.0510785698797463633
0.0648587642204720149
0.12547906771433498
0.696890216174082644
0.0123758636166744103
0.0202675787121511103
0.0238818095977134728
0.0219848759423803483
0.0117251797776956757
0.0124383980629612853
0.0137795782896514441
0.0148622568953245601
0.0156640145779173706
0.0149829592189008633
0.0915810779727041918
0.247765970053079321
0.320418269972056469
0.13913229852280351
0.596965645860585092
0.864318928086227123
0.0104446990802109403
0.0102691304535816492
0.0126589186534555379
0.0135589039995167929
0.0125341109773456187
0.0126324824325583021
0.0137305772209813711
0.0160487434188829395
0.0184697683425328503
0.0178227869126100086
0.0884385796401632174
0.571270488321485526
0.547031862840739347
0.254996012384070547
0.839676104704004
0.862113667889169877
0.0189082727880219362
0.0145458909949646407
0.0131162961548711397
0.0138271457972128729
0.0131398030133631459
0.0140768799573190821
0.0157786695389567043
0.0186668202885786685
0.024586323172101493
0.0277356663866339878
0.186649023171073097
0.610819072786531025
0.672662776361306558
0.494436017055769228
0.522754980225026866
0.86036532591876469
0.0101613526165773849
0.00775680996900771514
0.0153545051100058873
0.0611806815731623307
0.0808343262402391183
0.0443963828663529736
0.0224101355129677736
0.0154726554654156592
0.0164110184920453796
0.0191816107091967031
0.024553237027100043
0.0396618025420286818
0.0554622542763811843
0.234359851715015499
0.581886027733293898
0.720925785433157884
0.618243806595026424
0.326533818293873457
0.731067587770595773
0.00872304918228767288
0.00845260627244715651
0.0160122941012156642
0.0826992307284463851
0.104678687978316837
0.128667855395310698
0.114444892202156728
0.0395282004073276572
0.0256846333679749995
0.0277237321335262327
0.0389552563675984731
0.054842351249434651
0.0762910824469655163
0.195263705692942879
0.597853117562960001
0.749009674365386569
0.8004240307011663
0.687752315507227152
0.779755162866974771
0.0133217683838274016
0.0117986381608768502
0.00989694128509344302
0.0112734451127440641
0.0176330078005224114
0.0382784852085477564
0.105938718595706721
0.136083780994645853
0.162023220829343728
0.117885300435419976
0.0586517356709170962
0.0440614791066016448
0.051104172303198768
0.0592779540835541019
0.0630661282363911974
0.112007565392280406
0.331105711548708992
0.753078130649508459
0.793301300391131337
0.828717564653959737
0.8467145928471842
0.0107632023756474432
0.0105682249130669668
0.0102615925418041813
0.0100510389265721818
0.0102519445309556638
0.0115067264106706556
0.0130066972546429398
0.0147347369761737564
0.0157665231207786798
0.0163714535442309843
0.0206370966459957332
0.0244419997035692955
0.0345102716427166251
0.104081321341597394
0.676837279105066747
0.70977596350444272
0.00989441428908642909
0.0119839257925787313
0.012947208955548177
0.0113357476096758898
0.0105662656263998608
0.0105872967043818024
0.0122623320544496296
0.0136723025876391152
0.014935318111907632
0.0174924538938904355
0.0199008410871942577
0.027561668803565427
0.0362245971566519179
0.0468778279429989328
0.575538630908233761
0.790200132864942395
0.0104452417565957089
0.00965065850588430439
0.0105960784630181465
0.0120146564827669569
0.0116852498643563087
0.0118691272819151806
0.0124130331432769046
0.0135924983034767209
0.0160276856963545988
0.0202619519435292376
0.0255697925078802249
0.0318128188254911473
0.0435032303127279307
0.0635587211471047159
0.120351972252514192
0.841094537423745292
0.0407448333419967862
0.0302960543373950557
0.0152361988554793118
0.00965072969525322677
0.0112630672047717845
0.0115250883949079997
0.0120601159472936148
0.0112819967471048041
0.0167311289812504815
0.0241436393437279781
0.032586980637839616
0.0426104802151912182
0.146860562716593757
0.215373342091797565
0.203880656478745204
0.843000478085259131
0.00970992263148334755
0.0105476241268571639
0.02986693257052234
0.0687027648867939295
0.100755012323846788
0.129236917801769852
0.111920757132045856
0.0442199704668795948
0.0278851080675947098
0.0421223191923382964
0.085521938309013168
0.0643980643612443726
0.0432768779722776525
0.0503118534688865304
0.0749879737606906904
0.172160226370744962
0.296092760758573992
0.249960426196486452
0.759640552758025001
0.0133251021915408614
0.0141821269384554416
0.0173763639527077379
0.0781294523341775488
0.129754157202824155
0.147479635208090931
0.165459084018446639
0.184289452507519491
0.153586287315532199
0.142198245225994335
0.131811491317540386
0.130590407059853697
0.0694180414809213997
0.0831861231898753939
0.128993670252424975
0.317961471996937473
0.36481539158960663
0.396445327344875365
0.734822401832805339
0.0472478953715138872
0.0483503035193196123
0.0241692534186181071
0.0188379761522846009
0.0251960148614452858
0.0362707283004019693
0.135913242142943896
0.163852179026890199
0.183066436268622956