/*--------------------------------*- C++ -*----------------------------------*\
| =========                 |                                                 |
| \\      /  F ield         | OpenFOAM: The Open Source CFD Toolbox           |
|  \\    /   O peration     | Version:  2206                                  |
|   \\  /    A nd           | Website:  www.openfoam.com                      |
|    \\/     M anipulation  |                                                 |
\*---------------------------------------------------------------------------*/
FoamFile
{
    version     2.0;
    format      ascii;
    arch        "LSB;label=32;scalar=64";
    class       volVectorField;
    location    "0.0599999999999999978";
    object      faceTraction;
}
// * * * * * * * * * * * * * * * * * * * * * * * * * * * * * * * * * * * * * //

dimensions      [1 -1 -2 0 0 0 0];

internalField   uniform (0 0 0);

boundaryField
{
    inlet
    {
        type            calculated;
        value           nonuniform List<vector> 0();
    }
    outlet
    {
        type            calculated;
        value           nonuniform List<vector> 0();
    }
    top
    {
        type            calculated;
        value           uniform (0 0 0);
    }
    bottom
    {
        type            calculated;
        value           nonuniform List<vector> 0();
    }
    left
    {
        type            calculated;
        value           uniform (0 0 0);
    }
    symmetry
    {
        type            symmetryPlane;
    }
    interface
    {
        type            calculated;
        value           nonuniform List<vector> 
67
(
(-5.0108031983879238e-05 -4.31094193250188963e-06 1.15678291756209117)
(-1.49873777122471357e-05 2.5418188398131493e-05 1.28203354004919357)
(-3.10260782179564961e-05 4.96174351752105873e-06 0.955044362887255471)
(4.39436252013317142e-05 2.44134925789797394e-05 1.56682651839240283)
(3.80158088605994315e-05 2.98622875358376382e-05 1.29966001740360038)
(1.3823780081786325e-05 2.86898718556788415e-05 1.01081545816458807)
(-2.99308784162841504e-06 1.86546264654627653e-05 0.732927610568419041)
(3.33299222138415865e-05 1.98350258576593558e-05 1.23348771382509259)
(2.98839737855252229e-05 2.37707348300263271e-05 1.00014000717174034)
(2.07137216777839046e-05 2.50432794568443983e-05 0.757109639822457492)
(1.34370504898703703e-05 2.10609107812792679e-05 0.513978135750755682)
(-0.402084110028262887 8.43410165840836659e-06 1.35866815023150284e-05)
(-0.240560142739758231 8.18246487148223804e-06 1.2581335450569776e-05)
(-0.0816464562177188213 9.77235627298750024e-06 1.11168008113347251e-05)
(-0.266205547556382927 6.72133364052944173e-06 1.19510217962762991e-05)
(-0.114237735340390181 6.15802065340001259e-06 1.12244541138692275e-05)
(0.0316160253182665579 7.90469442099969071e-06 1.04875418060459069e-05)
(-0.149668706871438906 5.6977701916274734e-06 1.04208773379381727e-05)
(-0.00288536767607707606 5.20913313507716581e-06 1.00365788903894192e-05)
(0.135769715367833443 7.12511051885207874e-06 9.97639312431028674e-06)
(-0.0472943472047155852 5.26878126992297282e-06 8.9650827165118759e-06)
(0.0981000069214888332 5.09394964883702541e-06 9.03831495289359981e-06)
(0.235097042242119192 7.22331088648929688e-06 9.64685366163961094e-06)
(0.038980997197233247 5.79437138367941022e-06 7.37647666488978404e-06)
(0.186839430382231914 5.87467142890603553e-06 7.80428035115791781e-06)
(0.328630488941554 8.28669476075914846e-06 9.04449971542568265e-06)
(0.106374343530705975 6.6410022348760996e-06 5.33338649098320234e-06)
(0.2586098942901352 6.88877565696852268e-06 5.71967138415362469e-06)
(0.409906292848434106 9.25300201935611042e-06 7.32427517171713552e-06)
(0.14900878519444577 6.72587215613038172e-06 2.50625194150718097e-06)
(0.303692387726615387 6.402809225652327e-06 1.98527311053164737e-06)
(0.464828100289684687 9.10322540256774582e-06 2.69934097379198556e-06)
(0.157585917768483269 3.93026621265091446e-06 6.2743178358977751e-07)
(0.300057458848033143 5.38411176328472699e-07 1.1150124577547253e-06)
(0.440587549791220223 5.45968791144461806e-06 6.55841927872220868e-06)
(2.87665490932718636e-05 -1.35805612491604566 -1.50830102900316436e-05)
(4.3541939992175008e-05 -1.67396008905775373 -2.20636696067037762e-05)
(6.62386818736011873e-05 -1.91086116088421809 -9.23349009715877183e-06)
(7.30093781483169319e-05 -1.96866622258554069 1.02380127410877285e-05)
(5.20207818231872856e-05 -1.87324694533062575 1.87673320768435641e-05)
(1.63157651047055286e-05 -1.65578338319999174 6.21849583968572197e-06)
(-3.0967905430708826e-05 -1.79800580440710811 -1.06289450825916456e-05)
(-0.000151042711912260556 -4.917725359734054 0.000117641704477187219)
(1.32467611137512342e-05 -0.818859316113449975 -9.43726027314011157e-06)
(3.74077706260781239e-05 -0.975821984738873494 -1.06632746900681374e-05)
(5.14699177117564321e-05 -1.05091278614750139 9.84305255485892348e-07)
(5.13777185800627892e-05 -1.00764814933525182 1.08355317299836018e-05)
(4.48500089107494772e-05 -0.796275553185085361 1.59790175091960489e-05)
(1.76947323396990765e-05 -0.459858734523705737 8.09536646082144696e-06)
(-2.43379282032193784e-05 -0.417429388976029991 3.19348646250595334e-06)
(-5.44495934068944571e-05 -2.08445017914162101 8.8665120808857715e-05)
(1.50439906955692884e-05 -0.42318932002644094 -2.33973644594952455e-06)
(3.0858113927911662e-05 -0.467693773157042081 -1.82086370642934709e-06)
(3.58412626263316362e-05 -0.443772308250692138 5.10425074888053061e-06)
(3.50322016094834813e-05 -0.350971149030485541 1.1039444515264887e-05)
(2.85039956415304043e-05 -0.161399110336831547 1.40303103904581592e-05)
(1.09700690145779389e-05 0.108955034061588615 1.01194926991997907e-05)
(-1.53687148662874756e-05 0.2223763895168899 9.22596370323645602e-07)
(-5.05868783899371754e-05 -0.680422205652842171 5.49074592087571282e-05)
(1.38551278093575463e-05 -0.146439098504177134 1.10709099974173618e-06)
(2.02778129260427613e-05 -0.111703489196163464 2.63016408202687485e-06)
(2.24250519258281151e-05 -0.0462512775392710865 5.86354488403574186e-06)
(2.14643446291495179e-05 0.0556557643986987025 9.65123742800734193e-06)
(1.73664728576890119e-05 0.209961338693362198 1.20404438572595793e-05)
(9.16590765073340284e-06 0.413039300869701531 1.02606825276853603e-05)
(-3.72115076801815803e-06 0.567393562695786335 3.33015217278910356e-06)
(-2.09547827284698717e-05 0.272476509973502035 2.87783328430510177e-05)
)
;
    }
    procBoundary1to0
    {
        type            processor;
        value           uniform (0 0 0);
    }
    procBoundary1to2
    {
        type            processor;
        value           uniform (0 0 0);
    }
    procBoundary1to3
    {
        type            processor;
        value           uniform (0 0 0);
    }
}


// ************************************************************************* //
