/*--------------------------------*- C++ -*----------------------------------*\
| =========                 |                                                 |
| \\      /  F ield         | OpenFOAM: The Open Source CFD Toolbox           |
|  \\    /   O peration     | Version:  2206                                  |
|   \\  /    A nd           | Website:  www.openfoam.com                      |
|    \\/     M anipulation  |                                                 |
\*---------------------------------------------------------------------------*/
FoamFile
{
    version     2.0;
    format      ascii;
    arch        "LSB;label=32;scalar=64";
    class       volScalarField;
    location    "0.0299999999999999989";
    object      alpha.water;
}
// * * * * * * * * * * * * * * * * * * * * * * * * * * * * * * * * * * * * * //

dimensions      [0 0 0 0 0 0 0];

internalField   nonuniform List<scalar> 
7340
(
6.07986765771383969e-24
3.23913816474762916e-25
1.58353605933026324e-26
7.07330082593316229e-28
2.87257423958482424e-29
1.05421645948568153e-30
3.47001032126019046e-32
1.01479765449835945e-33
2.60542522470069459e-35
5.78213684069996198e-37
1.0864607795211611e-38
1.67953313613819863e-40
2.04820990528986044e-42
1.843363493436304e-44
1.06574885763268545e-46
2.19591881699430025e-48
2.59195684247005691e-24
1.38242597886139835e-25
6.76851735714137762e-27
3.02862361083772705e-28
1.23229272355454107e-29
4.53198453303817516e-31
1.49530539344922368e-32
4.38513526469568603e-34
1.12953257840089739e-35
2.5165156879383533e-37
4.75091807516452738e-39
7.38735451635932769e-41
9.07565004973769167e-43
8.24634224910477479e-45
4.83818729518792296e-47
9.06818014721484496e-49
1.07191021997541491e-24
5.72221205961220602e-26
2.8053645672258074e-27
1.25719606602826774e-28
5.12366594201930817e-30
1.88775637800722008e-31
6.24158441172173624e-33
1.83488211517705349e-34
4.74000978897396203e-36
1.05970643946105328e-37
2.00907165487518139e-39
3.14030847111285915e-41
3.88340729186457516e-43
3.55845806962969256e-45
2.1146751834212798e-47
3.62190590559987321e-49
4.29868283159154216e-25
2.29657466785958916e-26
1.12730396240104471e-27
5.05861938613018269e-29
2.06450178420638116e-30
7.61839131239716681e-32
2.52348931886136917e-33
7.43435698033676186e-35
1.92540260550656129e-36
4.31780373177849944e-38
8.21679556431131001e-40
1.29031537764491674e-41
1.60497567974951887e-43
1.48166645176770661e-45
8.9039330143282775e-48
1.39974249899930724e-49
6.61451735278809174e-22
4.54038221738636841e-23
2.86710578903407274e-24
1.66858256612720785e-25
8.93759783739425512e-27
4.39287678375777736e-28
1.97329579324518812e-29
8.06279915229208321e-31
2.97930094586620502e-32
9.8838735771556186e-34
2.91722665541914996e-35
7.57203333260536146e-37
1.70265333715155676e-38
3.250910300151559e-40
5.12605481547724783e-42
6.40906785608827825e-44
5.95557087135243735e-46
3.61406464378902695e-48
5.23613398747509816e-50
2.31147910355223211e-22
1.69235840635073505e-23
1.08031095663294935e-24
6.28608292925424146e-26
3.37093478020739314e-27
1.65876151752048047e-28
7.45971261818460602e-30
3.05170759277054369e-31
1.12912693268665781e-32
3.75146388014796937e-34
1.10916062363288564e-35
2.88488875554800845e-37
6.50309693820288496e-39
1.24541989014471034e-40
1.97115200295326127e-42
2.47605563069112232e-44
2.31445922675171722e-46
1.41700587857931599e-48
1.89506051282011114e-50
9.92381330571529184e-21
1.05501467793017516e-21
8.32875131442258798e-23
5.71410212606676647e-24
3.62503938319568968e-25
2.12008645957652893e-26
1.13994504515243737e-27
5.61945091127736804e-29
2.53020765159354163e-30
1.03581083810889387e-31
3.83341339901477532e-33
1.27341641232084216e-34
3.76294593673371131e-36
9.77857849789882731e-38
2.20158916815934973e-39
4.20975869228745519e-41
6.65018229698524433e-43
8.33438744289136682e-45
7.76895094242552305e-47
4.76570908530054997e-49
3.65376273295249534e-51
7.11391039150885548e-26
3.47121153041084949e-27
1.54415145491419006e-28
6.24575581737130738e-30
2.28377546840137701e-31
7.4918203982849434e-33
2.18413611846339347e-34
5.59139951750747448e-36
1.23753712339439865e-37
2.31946787767306625e-39
3.57714519580870912e-41
4.35272647519059915e-43
3.90933490843247612e-45
2.26797010432106722e-47
3.4228772115168768e-49
5.72270079449941115e-25
3.03621337827248561e-26
1.47978648090253522e-27
6.59309936181135654e-29
2.67213922393411088e-30
9.79169125920211007e-32
3.21992637880785211e-33
9.41357275842619001e-35
2.41780349374915169e-36
5.37224917259896058e-38
1.01167667383728663e-39
1.56937352122580015e-41
1.92374865811178595e-43
1.74430836179796494e-45
1.02633092257305533e-47
1.41008998149831921e-49
2.36210265873747617e-25
1.25444722758826386e-26
6.12107621413473249e-28
2.7315036576796471e-29
1.10888120872118801e-30
4.07083754142280881e-32
1.34148215554496511e-33
3.93147995249052069e-35
1.01269327667348935e-36
2.25796058173119453e-38
4.27001442535667646e-40
6.65842940803600428e-42
8.21549752001534394e-44
7.51201246615236139e-46
4.47470138545559244e-48
5.61849344248684354e-50
9.45633673806256085e-26
5.02595670268640962e-27
2.45570360926344713e-28
1.09736103979558408e-29
4.46124719797616142e-31
1.6404185674771767e-32
5.41573078996560089e-34
1.59061288912223713e-35
4.10768718806097139e-37
9.18695561435403557e-39
1.74386261187941005e-40
2.73190741161120498e-42
3.39039943132384631e-44
3.12314520451083008e-46
1.88045821929102865e-48
2.16644682318010446e-50
1.47889354987578183e-22
1.00865876616195664e-23
6.33196845318834183e-25
3.66538211385919457e-26
1.95367565049098385e-27
9.5589553811891164e-29
4.27608011121682584e-30
1.74049553512117536e-31
6.40855752068492251e-33
2.11905940250946298e-34
6.23526385314009495e-36
1.61381129017192456e-37
3.61907811119873705e-39
6.89245638491793673e-41
1.08419227155999674e-42
1.35244897178403455e-44
1.25399361757570663e-46
7.6215243168945553e-49
8.08757416700092412e-51
5.14227491311058371e-23
3.75647639023937669e-24
2.38489247001030456e-25
1.38020122242356366e-26
7.36504868603666716e-28
3.6077746088300619e-29
1.61572119133836838e-30
6.58441789570010923e-32
2.42757172072376983e-33
8.03887943769898004e-35
2.36947707172278649e-36
6.14520774427535279e-38
1.38150429012057864e-39
2.63898585856377536e-41
4.16663969941192065e-43
5.22177144996069803e-45
4.87011100674970985e-47
2.98495484320399513e-49
2.92170480111123741e-51
2.21022212918917124e-21
2.36497824000439568e-22
1.86078309945069934e-23
1.26806799420054589e-24
7.99799501217677845e-26
4.65285656100763125e-27
2.48958361157370815e-28
1.22174371376204625e-29
5.47823656503719084e-31
2.23409502208924549e-32
8.23883717276912618e-34
2.72783801017236175e-35
8.03600902777289338e-37
2.08227160994388787e-38
4.67542473699658895e-40
8.9172055267402124e-42
1.40522640078662848e-43
1.75700895119921703e-45
1.63414236450533488e-47
1.00034830147182814e-49
7.65247673223932467e-52
1.19465737178498377e-26
5.78291027483555906e-28
2.56138991524051558e-29
1.03238629002614369e-30
3.76244414073202728e-32
1.23046429643879165e-33
3.57702710232592827e-35
9.13289264243109067e-37
2.01634562845616998e-38
3.7703210831455803e-40
5.80185597732712068e-42
7.04505824878112701e-44
6.31495255482761549e-46
3.66990848757593153e-48
4.18212858163706249e-50
9.58442399311418517e-26
5.06153225230650186e-27
2.45626559687813302e-28
1.09024543193600671e-29
4.40332504875457817e-31
1.6083537166796935e-32
5.27321296602351304e-34
1.53738103189901399e-35
3.93846528091705652e-37
8.72995607083527584e-39
1.6402478254542295e-40
2.53898859539171607e-42
3.10598396342161525e-44
2.81085252443756181e-46
1.65622983695349922e-48
1.71846157093578058e-50
3.94047649268008986e-26
2.08323880836730348e-27
1.01253714520225982e-28
4.50198951587440438e-30
1.82148033340841454e-31
6.66607327786102569e-33
2.19036580998082834e-34
6.40208412614766961e-36
1.64495741719603273e-37
3.65908548230796329e-39
6.90437514176178108e-41
1.07438011728815717e-42
1.3229943062909799e-44
1.20742960151838952e-46
7.20062801462409276e-49
6.82892613841880743e-51
1.57238484298815731e-26
8.32138833456124755e-28
4.05009640558094469e-29
1.80337464635287135e-30
7.30735241932259058e-32
2.67875583537942207e-33
8.81873013982247289e-35
2.58326804502464221e-36
6.6547812219538909e-38
1.48492859253747151e-39
2.81255702415009654e-41
4.39703990869708347e-43
5.44621734852074338e-45
5.00755878656659415e-47
3.01778442694900041e-49
2.62616088975914099e-51
2.48829568984677211e-23
1.68808658959106958e-24
1.05454915569404038e-25
6.07722230598490681e-27
3.22591403378174077e-28
1.57238728395862521e-29
7.00925745458667586e-31
2.84376250967589733e-32
1.0439469616828759e-33
3.4423231685570806e-35
1.01026714965287308e-36
2.60843442009538514e-38
5.83626268446723353e-40
1.1091141864454421e-41
1.74109366169452606e-43
2.16766522165181515e-45
2.00613009121478409e-47
1.22009269551493206e-49
9.77842433390993697e-52
8.61702287251874579e-24
6.26939029323010313e-25
3.96158741305281953e-26
2.28270910018699931e-27
1.21322172954550505e-28
5.92091196188357381e-30
2.64255564833316734e-31
1.07348249350177232e-32
3.94610433381954967e-34
1.30316647263258947e-35
3.83128345157333531e-37
9.91256833226325313e-39
2.22342020663889148e-40
4.23818382221763303e-42
6.67803024723423419e-44
8.35294545153509873e-46
7.77595926502993021e-48
4.76781144928606947e-50
3.52391701913723663e-52
3.72958593149165556e-22
3.97381658471909373e-23
3.11164808319781393e-24
2.10993826160675736e-25
1.32474469675074594e-26
7.67443571789290693e-28
4.09037228928700434e-29
2.00009274229150182e-30
8.93842718719361678e-32
3.6339277155334262e-33
1.33625077720646104e-34
4.41237220320537065e-36
1.29658570822519828e-37
3.35175899313384118e-39
7.50913597374765811e-41
1.42916386079019202e-42
2.24764366214975874e-44
2.80491786599644242e-46
2.60395013777797729e-48
1.59134310031841377e-50
1.20164130878756738e-52
2.94599648277467972e-26
1.54742068671447375e-27
7.46911781544938345e-29
3.29766210740881188e-30
1.32496147415980835e-31
4.8147278383690052e-33
1.57038696474296717e-34
4.55384335060295122e-36
1.15998876554721558e-37
2.5554155243636733e-39
4.76847060767499957e-41
7.32349613247895446e-43
8.87622961668199253e-45
7.94228982617600209e-47
4.62021881308000401e-49
3.98817132852990739e-51
1.24283195066016343e-26
6.53800129919577341e-28
3.16160932843208679e-29
1.39875975343163682e-30
5.63229207997693766e-32
2.0515448788709077e-33
6.70899481360101038e-35
1.95130157104953413e-36
4.98768939929412918e-38
1.10324888179810793e-39
2.06876677104760261e-41
3.19630782272383972e-43
3.90313031012552728e-45
3.52626795365648752e-47
2.079451416206859e-49
1.63437417437204154e-51
5.08958125759523125e-27
2.68077470303245016e-28
1.29853035002266059e-29
5.75538446637331607e-31
2.32184789921759393e-32
8.47457089484868621e-34
2.77771468506458985e-35
8.10010689411248897e-37
2.07677105463750393e-38
4.61029557778726483e-40
8.68266193578261985e-42
1.34865990151802485e-43
1.65789435185810187e-45
1.51060131753443216e-47
9.01434672913370682e-50
6.47602408130477379e-52
2.02303465740397591e-27
1.06681163763679154e-28
5.17534254196363121e-30
2.29742065076903366e-31
9.28324680469053388e-33
3.39430009342741627e-34
1.11476116858222907e-35
3.25818701327903209e-37
8.37596213884174678e-39
1.86533373461085949e-40
3.52655530752514925e-42
5.50363999783839704e-44
6.80551836136976055e-46
6.24742623371260524e-48
3.76677705745022514e-50
2.48304660127421662e-52
3.22915346849686112e-24
2.18090489521278838e-25
1.35686131869476289e-26
7.7901539730588802e-28
4.12105860029966569e-29
2.00235011451817689e-30
8.89977126043809893e-32
3.60102020912313347e-33
1.31863059697162439e-34
4.33797121986559434e-36
1.27037120237862469e-37
3.27336668919190411e-39
7.3101000476679121e-41
1.38670762019303816e-42
2.17315570880897298e-44
2.70119046936246632e-46
2.49600823477630854e-48
1.51852763482124049e-50
9.21818199007663397e-53
1.1139345210796114e-24
8.07039348184716747e-26
5.07919824073795168e-27
2.91619896133126328e-28
1.54477814290651311e-29
7.5158746168412382e-31
3.34488965055335169e-32
1.35522903965666804e-33
4.96968968828683084e-35
1.63748739192237115e-36
4.8040329496309152e-38
1.24048106456014434e-39
2.77727667574510142e-41
5.28464253800431759e-43
8.31305354073108495e-45
1.03815077084814244e-46
9.64962499489181278e-49
5.9177372253871096e-51
3.31247517619234166e-53
4.81792337617019346e-23
5.13213088842127883e-24
4.00223591531604522e-25
2.70330380486157871e-26
1.69121282931803682e-27
9.76459924910680008e-29
5.18817449543088765e-30
2.52953494925902711e-31
1.12740822772641351e-32
4.5720237346271308e-34
1.67728432049232291e-35
5.52643521148178212e-37
1.6206509556222035e-38
4.18148597664653995e-40
9.35114607983986031e-42
1.77670235933061006e-43
2.78966747151167563e-45
3.47589211446008779e-47
3.22198691518862098e-49
1.96913342593712076e-51
1.15037334160451148e-53
2.96427955119192715e-27
1.55181890879492053e-28
7.46778053604595672e-30
3.28793546012000407e-31
1.31765632634815097e-32
4.77679038922690315e-34
1.55457569984491673e-35
4.49874111833314038e-37
1.14375391495083413e-38
2.51510216489665391e-40
4.68522518917114246e-42
7.18394820601615682e-44
8.69356616914641975e-46
7.76726021822022526e-48
4.52188265282086262e-50
2.87217659616183973e-52
1.24552703854153827e-27
6.53153455467617e-29
3.14945950969010706e-30
1.38968397351110114e-31
5.58200409441678686e-33
2.02861755895217663e-34
6.62008867603778505e-36
1.92168630060103716e-37
4.90304010719653592e-39
1.08266851400269696e-40
2.02689207783501757e-42
3.12680158642452702e-44
3.81266189603222431e-46
3.43970880770376362e-48
2.02972456776066317e-50
1.1736332434131135e-52
5.07912523410204826e-28
2.66735759771208917e-29
1.28850124965174812e-30
5.69643950536161893e-32
2.29269096188763412e-33
8.35007955297275477e-35
2.73143804994678127e-36
7.95036282287550658e-38
2.0348448929667048e-39
4.50987525195925288e-41
8.48050639626924914e-43
1.31534308652927488e-44
1.61469686068415939e-46
1.46929077803952258e-48
8.77252615239621076e-51
4.63524537288659569e-53
2.01030987541262333e-28
1.05711987775663467e-29
5.11493471970527982e-31
2.2651109926685334e-32
9.13229431187764531e-34
3.33223601196085534e-35
1.09229262201677815e-36
3.18686320668149641e-38
8.17906944484107758e-40
1.81866345709133564e-41
3.43330010906987457e-43
5.35068627757640561e-45
6.60765498132729565e-47
6.05812656489968286e-49
3.65421079135414546e-51
1.77153488938729083e-53
3.22717450189832823e-25
2.17171392104649162e-26
1.34674296209344058e-27
7.70918355872183011e-29
4.06715609963802482e-30
1.97120814359652325e-31
8.74110550676327479e-33
3.52929367638067059e-34
1.28982538531292668e-35
4.23548350629314083e-37
1.23825838035318463e-38
3.18558080015789708e-40
7.10351745462988684e-42
1.34563793893229953e-43
2.10600255691266951e-45
2.6144150232884221e-47
2.41289805695869235e-49
1.46844787752680436e-51
6.55495521502372202e-54
1.10925301169519064e-25
8.00486730118122684e-27
5.02134691475614774e-28
2.87477656244538098e-29
1.51882613332688765e-30
7.3716802542530045e-32
3.27339947227230274e-33
1.32354114831917166e-34
4.84428910444254989e-36
1.59336670613171377e-37
4.66696641821017031e-39
1.20325364481049759e-40
2.690084534435326e-42
5.11184670496766147e-44
8.03097782852640574e-46
1.00170303670906609e-47
9.29994108658027343e-50
5.70456438162800041e-52
2.35511300949020257e-54
4.38595809262691853e-24
4.88776491121182185e-25
3.85225391616614454e-26
2.61047206478028184e-27
1.63639505621621407e-28
9.45630412980022017e-30
5.02503316530626902e-31
2.44919168141640373e-32
1.09092946977770064e-33
4.42059042451943351e-35
1.62027447502628906e-36
5.33348775488351214e-38
1.56252740816255813e-39
4.02750797990418821e-41
8.99783745968562183e-43
1.70787986391513034e-44
2.678961352769798e-46
3.33466973117696807e-48
3.0880366066342193e-50
1.88785371432210905e-52
8.15256759993042278e-55
2.23303489467484162e-28
1.16612388130964063e-29
5.59898927783699523e-31
2.46000784094590913e-32
9.83967862024509428e-34
3.56076796093504195e-35
1.15692337340097381e-36
3.34286976656981065e-38
8.48673029906911494e-40
1.86371341522909739e-41
3.46736859833615756e-43
5.31012014104182384e-45
6.41847639565997373e-47
5.72812153038959132e-49
3.33768696754633634e-51
1.43814652484925093e-53
9.34328310829482299e-29
4.88821682256190402e-30
2.35207810613422661e-31
1.0358227041420684e-32
4.15316289693894816e-34
1.50684505990453751e-35
4.90982634347175003e-37
1.42320423601196001e-38
3.62638994634353388e-40
7.99768324941178761e-42
1.4955085728163243e-43
2.30448427713998847e-45
2.80697408326063418e-47
2.5298033616844524e-49
1.49398427170254174e-51
5.87845852612612946e-54
3.79287954678840371e-29
1.98757446360308472e-30
9.58224151066191459e-32
4.22855721137361072e-33
1.69904347838077785e-34
6.17842112726684836e-36
2.01817068250539223e-37
5.8665020543017745e-39
1.4996484375531316e-40
3.31988297461003269e-42
6.23604586571303054e-44
9.66230445758229687e-46
1.18497139462415067e-47
1.07725282518466968e-49
6.43639144643367047e-52
2.31975857355882677e-54
1.49432052853914278e-29
7.84212095929908042e-31
3.78739966788515174e-32
1.67434648661417159e-33
6.73988331849104491e-35
2.45572694247343721e-36
8.03904283074838781e-38
2.34257447540663568e-39
6.00532805107400197e-41
1.33389313796378675e-42
2.51561698610521792e-44
3.91678850424641348e-46
4.83254375446044222e-48
4.42681400870223097e-50
2.67189932948895012e-52
8.87927436802997327e-55
2.40503451352083433e-26
1.61422246835148222e-27
9.98690250771754472e-29
5.70480221762707219e-30
3.00392549375152124e-31
1.45333331358682273e-32
6.43424164566557849e-34
2.59403929770029184e-35
9.46739241398246428e-37
3.10498919584433717e-38
9.06707838320586098e-40
2.33012888911256596e-41
5.19076666973490519e-43
9.82381202090368346e-45
1.53612714433866473e-46
1.90536367002662708e-48
1.75708414011870628e-50
1.06992367338731879e-52
3.28629294676361478e-55
8.2159267652097454e-27
5.91630479717339676e-28
3.70481791885631354e-29
2.11780767301781858e-30
1.11722333644572717e-31
5.41476365963583858e-33
2.4012216011325583e-34
9.69687857372837636e-36
3.54507966589218554e-37
1.16457409808581255e-38
3.40670268875517721e-40
8.77326943653088099e-42
1.95938629851312829e-43
3.71978792638201308e-45
5.83880745916276072e-47
7.27667741371156364e-49
6.75041765320642288e-51
4.14187479089783491e-53
1.24773049565566803e-55
3.08682874503757957e-25
3.18761967389838421e-26
2.46615582763730498e-27
1.64896185105211221e-28
1.02197855291664647e-29
5.84888718601986119e-31
3.08097688807785451e-32
1.48918793049333948e-33
6.59383929573121196e-35
2.6582310906753922e-36
9.67632913339436304e-38
3.23710589962827498e-39
9.77315864754700783e-41
2.5767232956769436e-42
5.85292041542320478e-44
1.12517605351635703e-45
1.78240362668859214e-47
2.23564006770580127e-49
2.08241376201356629e-51
1.27958839658380116e-53
4.42763777130322998e-56
1.15331602947052918e-29
6.01371169661167478e-31
2.88341462867300729e-32
1.26527159827875714e-33
5.05503475747247457e-35
1.8273548375613452e-36
5.93137256012569471e-38
1.7122746239097469e-39
4.34335096938016528e-41
9.53051186925270447e-43
1.77177121169079502e-44
2.71142222212090999e-46
3.27507503550605124e-48
2.92082960425136964e-50
1.70286783135229636e-52
6.22131655589482634e-55
4.80369862569262679e-30
2.50978397073337373e-31
1.2061367150927353e-32
5.30561494359425427e-34
2.12509472073687719e-35
7.70290850214845179e-37
2.50768406059093256e-38
7.26314719371985694e-40
1.84930686734611425e-41
4.07565089485878298e-43
7.6161928413498835e-45
1.17288121161130205e-46
1.42778268049001919e-48
1.2860672148706728e-50
7.59719469388419488e-53
2.72044142300200379e-55
1.94052721641774085e-30
1.01566166579259906e-31
4.89112023230214079e-33
2.15621259342140868e-34
8.65571337391636524e-36
3.14492661923309629e-37
1.02649616844695366e-38
2.98176602291774542e-40
7.61733867818883927e-42
1.68529814918645514e-43
3.16388637468886149e-45
4.89964443512268864e-47
6.00587187447171039e-49
5.45732739809628724e-51
3.26084975935921141e-53
1.1505258908702597e-55
7.60705060482581601e-31
3.98787523611004347e-32
1.92404824096567216e-33
8.49818998786038099e-35
3.4180466680547485e-36
1.24446817034886212e-37
4.07114027056627062e-39
1.18560400625007403e-40
3.03767024584615488e-42
6.74376344940245204e-44
1.27121752489889136e-45
1.97839674597067373e-47
2.43993534313665678e-49
2.2342013513951262e-51
1.34828086872153855e-53
4.68815734073005732e-56
1.22392383900488246e-27
8.20105650665458895e-29
5.06670227590648538e-30
2.89075840576694547e-31
1.52053247151466459e-32
7.34952174776199245e-34
3.25105006246688559e-35
1.30970947666202222e-36
4.77678660764025303e-38
1.56567992248096213e-39
4.5695563669719061e-41
1.17374345157730345e-42
2.61355038137280261e-44
4.94426845012132671e-46
7.72832403299325389e-48
9.58259163271851428e-50
8.83391120859708121e-52
5.37701744618076185e-54
1.850990907971557e-56
3.87329855719516114e-28
2.8451081970285313e-29
1.8010378967060316e-30
1.0366643851534106e-31
5.49564703888971173e-33
2.67289662150424397e-34
1.18834846198278264e-35
4.80797031416222817e-37
1.76021746259667164e-38
5.78963123767070658e-40
1.69547972264881347e-41
4.37005491137026296e-43
9.76638138412293399e-45
1.85507496620079196e-46
2.91308576279963851e-48
3.63174276548783346e-50
3.37008467413038414e-52
2.06790414098385207e-54
8.78114011057872304e-57
3.05130213688649906e-26
2.35572825184500886e-27
1.6214539473256982e-28
1.02438946646421912e-29
6.06546223172132357e-31
3.35126928871877549e-32
1.71771791581416623e-33
8.12386456813613426e-35
3.52602128639348663e-36
1.39626036170477053e-37
5.01033078024781749e-39
1.61623509710470269e-40
4.64109730310451324e-42
1.17189630649224697e-43
2.5614084241623625e-45
4.74609783661009156e-47
7.24388455308934189e-49
8.7329167201855303e-51
7.82135708940582591e-53
4.28574414022119307e-55
7.68757240066953985e-57
3.16259805059201501e-31
1.64883185073431014e-32
7.90498041543566975e-34
3.46863384061699772e-35
1.38579960792737681e-36
5.00976135695676573e-38
1.62622885201863136e-39
4.69511105535199328e-41
1.19111837940505985e-42
2.61404359445895111e-44
4.86046797625590182e-46
7.43955684233372767e-48
8.98781916313996346e-50
8.01711978985057177e-52
4.51933571124972851e-54
2.15608097296159498e-55
1.31059359332625549e-31
6.84756511912749416e-33
3.29091966358258607e-34
1.44775418406029245e-35
5.79953536539074377e-37
2.10251805295948818e-38
6.84606558751881626e-40
1.98330185606472859e-41
5.05102334260433353e-43
1.11348042140804714e-44
2.08135520335552907e-46
3.20620381671831308e-48
3.90420691032405431e-50
3.51780663821609697e-52
2.0036084265104526e-54
8.37435443486804342e-56
5.26554462131086612e-32
2.75643169383791748e-33
1.32765013796383076e-34
5.85406371997425868e-36
2.35057838617236608e-37
8.5428212315497429e-39
2.78919634487174003e-40
8.10471024596837452e-42
2.07118642341686287e-43
4.58408919341698744e-45
8.60923985022632699e-47
1.33377387831876589e-48
1.63558222900787023e-50
1.48682253595121292e-52
8.61010931861585389e-55
3.14738776440335409e-56
2.05310102303163584e-32
1.07658473685229986e-33
5.19555359215470761e-35
2.29545096443143856e-36
9.23552649559587215e-38
3.36374777541656094e-39
1.10083986624437013e-40
3.20720930852080349e-42
8.22086633089666048e-44
1.82590016155594429e-45
3.44349512164474022e-47
5.36171698744753179e-49
6.61583502482076331e-51
6.06106254283974537e-53
3.53472031849581873e-55
1.15193228196218095e-56
3.16624447243773243e-29
2.14072279466930579e-30
1.33105997948372671e-31
7.63057167021527843e-33
4.02839705634535523e-34
1.95277694504341754e-35
8.65846573026716731e-37
3.49500978954183212e-38
1.27686461850236618e-39
4.19139742037839545e-41
1.22492959463679304e-42
3.15023584995185262e-44
7.02260292056298415e-46
1.32996788468258364e-47
2.08103210460406175e-49
2.58297369625043336e-51
2.38352233360413028e-53
1.37735389359683937e-55
6.13653151299405053e-57
1.02276996818632504e-29
7.12032227596170156e-31
4.3395304535469013e-32
2.41905250858916654e-33
1.25129542986559374e-34
5.96106944018662542e-36
2.60235096505224205e-37
1.03536926589934225e-38
3.72981630837840798e-40
1.20704944317200358e-41
3.47198424303382634e-43
8.77058721419960433e-45
1.92834360891523753e-46
3.59347880503181244e-48
5.50058285880406779e-50
6.6265320068145549e-52
5.89385619691135411e-54
3.14458741394371598e-56
6.1365315129940494e-57
1.47288499125625011e-26
1.08591058571448294e-27
7.57713365777006926e-29
4.90469452897156721e-30
2.38676376725220335e-31
1.08601537516802476e-32
4.59922243609205336e-34
1.80363619413366394e-35
6.51205675974355755e-37
2.15024130744169892e-38
6.44199729256391756e-40
1.73445696359690924e-41
4.18272403409325436e-43
8.8880446376067943e-45
1.60012966337092729e-46
2.36511689501140176e-48
2.79393152722134113e-50
2.52131030648926952e-52
1.52266419977826099e-54
7.68730098412827505e-57
6.13653097124844782e-57
3.87435457657367514e-24
2.01529733006323256e-25
9.37830674800942934e-27
3.94326463426693435e-28
1.49432689751181462e-29
5.06589411694813026e-31
1.52253475168450298e-32
4.00996593054472701e-34
9.11551420597466486e-36
1.7523993309726015e-37
2.76927147831620031e-39
3.45043604947062333e-41
3.1719055735834159e-43
1.84442257555816289e-45
8.46893727397240516e-47
2.81559801985685349e-23
1.60355272644518238e-24
8.21362820145454067e-26
3.81541346015939056e-27
1.6068665029852869e-28
6.09883383920760615e-30
2.07153993448188015e-31
6.24077887298587272e-33
1.64848491071926351e-34
3.76091278718554343e-36
7.26254112357317853e-38
1.15413561905588846e-39
1.44832673231026419e-41
1.34385463314419935e-43
7.88506091284294773e-46
3.23058409697852649e-47
1.13016953689751955e-23
6.43227422819849506e-25
3.28848886242783789e-26
1.52711937417376321e-27
6.43153462508042772e-29
2.44199851255437589e-30
8.30104684096065626e-32
2.50390810504616527e-33
6.62577956195634201e-35
1.51528827674672948e-36
2.93550579963994821e-38
4.68467497439998072e-40
5.91140176163492667e-42
5.52532020167330197e-44
3.28797216354685518e-46
1.20716503315413918e-47
4.49999549887232126e-24
2.55066808830322282e-25
1.30171535532135254e-26
6.03627041375445499e-28
2.53921872521241944e-29
9.63395666946515062e-31
3.27384032016384412e-32
9.87674083370675358e-34
2.61537612640120821e-35
5.98912326311687914e-37
1.16263804172511554e-38
1.86094890153424081e-40
2.35803388754038916e-42
2.21665317065339203e-44
1.33419618225475762e-46
4.42403715671032173e-48
6.1416524572277892e-21
4.50610504941463625e-22
2.98295517702625484e-23
1.80910274334222868e-24
1.00512737155052726e-25
5.10330902968300791e-27
2.36117805942499672e-28
9.91101983484255487e-30
3.75375666040819145e-31
1.2739671876711203e-32
3.84027362367976628e-34
1.01662331506821526e-35
2.32877629297469417e-37
4.52537403341581082e-39
7.25707505483089359e-41
9.22272280393662291e-43
8.70740377056606116e-45
5.29132351783464099e-47
1.58829684489853069e-48
2.24091369199783727e-21
1.76433876366051719e-22
1.17555742108384998e-23
7.07804651590059097e-25
3.91240717171362086e-26
1.97947682462274729e-27
9.12999195635458401e-29
3.8220388641043547e-30
1.44428852423893116e-31
4.89259424497681646e-33
1.47276433461621431e-34
3.89527642942403683e-36
8.91988790613170179e-38
1.73391231711283228e-39
2.78368733155557334e-41
3.5451100003166914e-43
3.35822820823745807e-45
2.06503682971578528e-47
4.65388731735990539e-49
9.59176604244512092e-20
1.08876412449960788e-20
9.06154140181465432e-22
6.43078373873216429e-23
4.20723538809257194e-24
2.53030167616716432e-25
1.39521028795815071e-26
7.03641163680617455e-28
3.2343116880353856e-29
1.34912999709913043e-30
5.07915366599351652e-32
1.71390986965686117e-33
5.13834583005834207e-35
1.35329760449425094e-36
3.08527155257412739e-38
5.96952182146245843e-40
9.53649933212613817e-42
1.20809144392225595e-43
1.13783386073675149e-45
7.04446684366160931e-48
5.81924375698841995e-50
4.43318081306737409e-24
2.27363190482268185e-25
1.0523425312849366e-26
4.40827071741213163e-28
1.66437858255317543e-29
5.62245844247484595e-31
1.68404021581165905e-32
4.42044651439909153e-34
1.00147954003916371e-35
1.91861810197641531e-37
3.02085649702735384e-39
3.74892587922196027e-41
3.43095071751622883e-43
1.98416956072588781e-45
9.75635264564038602e-47
3.38308596386793846e-23
1.89866299840656257e-24
9.66019238557636113e-26
4.46694983066404941e-27
1.8728789030479589e-28
7.07828024861459585e-30
2.39442086932767873e-31
7.18492135544378221e-33
1.89045996516179045e-34
4.29604386193139176e-36
8.26257017575400274e-38
1.30752197173875514e-39
1.63337206791954702e-41
1.50798838634289773e-43
8.78631303144074755e-46
3.84902654828402801e-47
1.40981808657034992e-23
7.9075975032715163e-25
4.01849464891193859e-26
1.85774424908596572e-27
7.78915776336486877e-29
2.94483076028541592e-30
9.96897456236392982e-32
2.99487748308910091e-33
7.89327247858556836e-35
1.79789619915690096e-36
3.46864529043953726e-38
5.51167897411786829e-40
6.92302966811732096e-42
6.43859296599683655e-44
3.80212835598001716e-46
1.48032393973511154e-47
5.76611884088730776e-24
3.2271646170014296e-25
1.63837872208732313e-26
7.56856853885778487e-28
3.1716285658283408e-29
1.19885480297228875e-30
4.05915257536425364e-32
1.22018666103295967e-33
3.21945059664820339e-35
7.34555632817604769e-37
1.42060273641514854e-38
2.26490747230170037e-40
2.85784452038892508e-42
2.67430068470439507e-44
1.59929165353695585e-46
5.54786475640072161e-48
8.05830715109339298e-21
5.85212468245402622e-22
3.85852474445718457e-23
2.33213914516361424e-24
1.29186067186533727e-25
6.54181849085573682e-27
3.01879779880422165e-28
1.26381471774230728e-29
4.77410898368143978e-31
1.61600067886320011e-32
4.85834644090311853e-34
1.28263798983480128e-35
2.92987769531907061e-37
5.67668152370509784e-39
9.07478794881271729e-41
1.14936568378103456e-42
1.08113800482267104e-44
6.53757288936650796e-47
2.02306969339994832e-48
3.00223076747836395e-21
2.29076637216471928e-22
1.51890866603677837e-23
9.1443697826778016e-25
5.05232160030552269e-26
2.55423189479550097e-27
1.17700222853766429e-28
4.92204078569712038e-30
1.85781228767575075e-31
6.28549048388884347e-33
1.8894552337692128e-34
4.98989207129483345e-36
1.14077317689765978e-37
2.21349549359350561e-39
3.54642663412707862e-41
4.50617615364772296e-43
4.25772256143298594e-45
2.60981445222099074e-47
5.98252860410506792e-49
1.31057912430155223e-19
1.41527321109945115e-20
1.15601338944940781e-21
8.2353741242151079e-23
5.39842786779355365e-24
3.25126134926398961e-25
1.79481974984007832e-26
9.06035756322269624e-28
4.16772570603683278e-29
1.73944978984960533e-30