/*--------------------------------*- C++ -*----------------------------------*\
| =========                 |                                                 |
| \\      /  F ield         | OpenFOAM: The Open Source CFD Toolbox           |
|  \\    /   O peration     | Version:  2206                                  |
|   \\  /    A nd           | Website:  www.openfoam.com                      |
|    \\/     M anipulation  |                                                 |
\*---------------------------------------------------------------------------*/
FoamFile
{
    version     2.0;
    format      ascii;
    arch        "LSB;label=32;scalar=64";
    class       surfaceScalarField;
    location    "0.0299999999999999989";
    object      alphaPhi0.water;
}
// * * * * * * * * * * * * * * * * * * * * * * * * * * * * * * * * * * * * * //

dimensions      [0 3 -1 0 0 0 0];

oriented        oriented;

internalField   nonuniform List<scalar> 
20856
(
6.56417281267277309e-29
3.17892781676218483e-28
-5.26897659440754528e-29
3.18469423321059652e-30
1.72532388345847944e-29
5.52410543225296257e-31
-2.44588464613664975e-30
1.40866958814097186e-31
8.62527836799936441e-31
2.3476740656200539e-32
-1.04500657353556726e-31
5.65053933652733914e-33
3.96033336882549748e-32
9.13451949830461657e-34
-4.08879379902127075e-33
2.04219661635769044e-34
1.66232147670431311e-33
3.2430599359397788e-35
-1.45898213959994639e-34
6.59658514610198175e-36
6.3430817081837941e-35
1.0452230767002583e-36
-4.72301017812193507e-36
1.88499703117297121e-37
2.18499540456419915e-36
3.03849797020167201e-38
-1.37856481012721278e-37
4.7029346300031022e-39
6.73542583841543122e-38
7.90580704738985717e-40
-3.6005877462306469e-39
1.00694177825547193e-40
1.83746141850652833e-39
1.82360619345184702e-41
-8.33500158442215556e-41
1.80748183359674567e-42
4.37254466989625318e-41
3.68412920040220411e-43
-1.68939221302871978e-42
2.63188952939831687e-44
8.90244184621613545e-43
6.41380383678983281e-45
-2.95016179563123865e-44
2.95929219022101085e-46
1.50955358992616463e-44
9.40568168585093248e-47
-4.33929624756250604e-46
2.37096080129522216e-48
2.04906720776947835e-46
1.1228321629839657e-48
-5.195281616602411e-48
1.16332900352020743e-50
2.0898960698804736e-48
1.03081351449902478e-50
-4.78276385278262111e-50
4.91764185268533e-52
1.42442292920817086e-50
6.51683840174093045e-53
-3.03116493868847407e-52
6.838317035667763e-53
3.02659477378442564e-55
-1.45769395523120489e-54
2.6957599847198374e-29
1.41259850034278965e-28
4.83308855956682421e-30
-2.13298963757131799e-29
1.30869320854026741e-30
7.66987966726731036e-30
2.23529153809587758e-31
-9.91795015577987713e-31
5.79196956563467549e-32
3.83619089913890889e-31
9.51067443542875216e-33
-4.24576114044745969e-32
2.32442473052897892e-33
1.76212655437627839e-32
3.70385397095547791e-34
-1.66326004492940017e-33
8.40417504947035462e-35
7.39859909043424542e-34
1.31662650203783917e-35
-5.94112690907581328e-35
2.7155637672929404e-36
2.82371182939618105e-35
4.24785503145399388e-37
-1.92515805208913533e-36
7.76201348278660766e-38
9.72802324618224245e-37
1.23603030040485412e-38
-5.62436964926006909e-38
1.93703373766663887e-39
2.99895630451408971e-38
3.21881323556442649e-40
-1.47021892101467376e-39
4.14819764052682211e-41
8.18153629135574769e-40
7.43084289371124108e-42
-3.4060517771517637e-41
7.44735747733030332e-43
1.94690935926508975e-41
1.50233242517334426e-43
-6.90871787399815366e-43
1.08457954466268299e-44
3.96372072211669203e-43
2.61721614159992809e-45
-1.20729941772836862e-44
1.21967773956017503e-46
6.72075218329898756e-45
3.84054596483515021e-47
-1.77692261857499269e-46
9.77345093737125154e-49
9.12220634890632163e-47
4.58755022472907828e-49
-2.12869250595515738e-48
4.7962592731755257e-51
9.30352919312462907e-49
4.21377872349646682e-51
-1.9606660630240198e-50
1.97651780438575256e-52
6.34104953850621776e-51
2.66508062348536258e-53
-1.24310122719723014e-52
3.03561721726440611e-53
1.22513333963530836e-55
-5.94264253993787415e-55
1.07279079349488087e-29
6.03510093226282132e-29
1.89062130585374224e-30
-8.36461933226976438e-30
5.21041532119277869e-31
3.27748062649760177e-30
8.76259484494407131e-32
-3.89849282003048632e-31
2.30700649616836825e-32
1.64001161918671527e-31
3.72925849795800091e-33
-1.6699323501536726e-32
9.26098163080466954e-34
7.53536776845043029e-33
1.4544152484839541e-34
-6.54902013481322062e-34
3.3489657019224877e-35
3.16423787467439864e-34
5.17524456592592589e-36
-2.34133907897931993e-35
1.08223000943407195e-36
1.2076585553523062e-35
1.6711917925641504e-37
-7.59322601596482211e-37
3.09352639355214278e-38
4.16022759652840856e-37
4.86654121633100621e-39
-2.22004792237363669e-38
7.71996289239621875e-40
1.28234299767848348e-38
1.26820773357224619e-40
-5.80701938928434197e-40
1.6531684024876018e-41
3.49774186006114693e-40
2.9295675142450551e-42
-1.34607684968259772e-41
2.96773444852981966e-43
8.32144059178199873e-42
5.92605243986036468e-44
-2.7317553525517701e-43
4.32156688711349359e-45
1.69372054170053663e-43
1.03286585312460608e-45
-4.77601627649411929e-45
4.85936777459711703e-47
2.87100930427949499e-45
1.51631149987405084e-47
-7.03242880881064067e-47
3.89350349111103793e-49
3.89576740220515061e-47
1.81197211804305405e-49
-8.42776813660172984e-49
1.9105830559551953e-51
3.97211748034234895e-49
1.66487120459028748e-51
-7.76488453337752515e-51
7.66920376164018944e-53
2.7066869751942045e-51
1.05319681494878351e-53
-4.92403200094808332e-53
1.29137504382212323e-53
4.78817652808145121e-56
-2.33875271818150527e-55
4.13746871210023094e-30
2.48199710500059973e-29
7.16398636438765776e-31
-3.17757049804187787e-30
2.01024410287805719e-31
1.34835959552272828e-30
3.32115640185015027e-32
-1.48251555896313046e-31
8.90269886853859539e-33
6.7497479965645788e-32
1.41607329535350922e-33
-6.35704507960363183e-33
3.57398979718527684e-34
3.10152733650789168e-33
5.52982080236905161e-35
-2.49556563265608922e-34
1.29238333462753329e-35
1.30231020455184872e-34
1.96953074990212156e-36
-8.92922804878311957e-36
4.17592971704195296e-37
4.9695066517796973e-36
6.36473948222014597e-38
-2.89793621799495307e-37
1.19347877299603001e-38
1.71148179512027235e-37
1.85459556104174689e-39
-8.47784161040474767e-39
2.97770647169861071e-40
5.27371851028211208e-39
4.83566311926677169e-41
-2.21865980894791687e-40
6.3748621012075643e-42
1.43792000688923242e-40
1.11755414710077553e-42
-5.14503506070335212e-42
1.14406554769808735e-43
3.41948147301669634e-42
2.26150022625879199e-44
-1.0445234356380374e-43
1.66544471671237595e-45
6.95670528710212463e-44
3.94289438872072419e-46
-1.82675592545028791e-45
1.87210168221802599e-47
1.17865855162404127e-45
5.7899902545806369e-48
-2.69052582650480284e-47
1.49953065393298437e-49
1.5985868311548229e-47
6.92045462007161565e-50
-3.22502881456869767e-49
7.35634505807487626e-52
1.6291493633457928e-49
6.35952650342288165e-52
-2.9717157330776373e-51
2.87373394608085349e-53
1.10967699358601118e-51
4.02325258076828056e-54
-1.88449581236346994e-53
5.27029065691971448e-54
1.80763648497602081e-56
-8.88935335723489752e-56
7.982647490288794e-27
3.81441412802690862e-26
1.61242887752588849e-27
-7.03826702094493572e-27
5.028068407228183e-28
2.62415019327587428e-27
9.53767277479163726e-29
-4.18896760911374352e-28
2.90983341264098394e-29
1.66888079253040924e-28
5.20912236848942306e-30
-2.30279913018229593e-29
1.54601840878947487e-30
9.82295783370351798e-30
2.62541330386284383e-31
-1.16810163624451782e-30
7.51509486764005231e-32
5.34010758328306919e-31
1.21924979426778547e-32
-5.45620748559643921e-32
3.32813470174233374e-33
2.67412957282026741e-32
5.20617054962203096e-34
-2.34255287322167462e-33
1.33596226323897794e-34
1.22885927494606897e-33
2.03552709646072046e-35
-9.20419091669155777e-35
4.83007411471194775e-36
5.15955954804076205e-35
7.25619459064289653e-37
-3.29583062573467948e-36
1.56026544425445269e-37
1.96843897996853033e-36
2.34654693629922626e-38
-1.07029543095899828e-37
4.45770576042976233e-39
6.77708819050040879e-38
6.84127120619104754e-40
-3.13255948122908707e-39
1.11174295432666629e-40
2.08742429904530329e-39
1.78455591122220653e-41
-8.20083210515151212e-41
2.37902398553977414e-42
5.68878058284453769e-41
4.12557734874518783e-43
-1.90229999761157116e-42
4.26745948322510677e-44
1.35210194376587162e-42
8.35063948144672688e-45
-3.86286842868293399e-44
6.20911635961978351e-46
2.74914956079215373e-44
1.45618850949744544e-46
-6.75695879430721436e-46
6.97601284482775001e-48
4.65496377902816778e-46
2.13862969139277426e-48
-9.95320086103823032e-48
5.58492010896623096e-50
6.30947840180198141e-48
2.55634847352408758e-50
-1.1931152509175542e-49
2.73859900819541885e-52
6.42615845090473233e-50
2.34909396882677865e-52
-1.09934826106820185e-51
1.03904125364042459e-53
4.37467511912750847e-52
1.48594279336857151e-54
-6.97025965175134721e-54
2.05097183354515271e-54
6.59093921829696755e-57
-3.26264679865010912e-56
2.8373520726533922e-27
1.41696269473976191e-26
5.57915327014157709e-28
-2.47311294305778225e-27
1.81588298802485966e-28
9.83180653277219404e-28
3.34290466595027727e-29
-1.48076898571034625e-28
1.04961257963191972e-29
6.2781204322681681e-29
1.83312011139297028e-30
-8.16114075961677018e-30
5.58008216026387844e-31
3.70465137302222364e-30
9.26261286267525787e-32
-4.14720524798838016e-31
2.71395917566329745e-32
2.01789528035429336e-31
4.31317360240121528e-33
-1.94132604096195997e-32
1.2023600539831072e-33
1.01189457056328944e-32
1.84571317735345594e-34
-8.34629070141107413e-34
4.8273266396362911e-35
4.6547756615740699e-34
7.2288298168733603e-36
-3.28289441220161793e-35
1.74528545256718152e-36
1.95569622862542793e-35
2.5805163152095871e-37
-1.17660227013723358e-36
5.63696390899499346e-38
7.46412850691903307e-37
8.354016107848801e-39
-3.82342179077054728e-38
1.61004318870715248e-39
2.57019413000865656e-38
2.43758821588104273e-40
-1.11955525705232286e-39
4.01389208100697848e-41
7.9161597525402785e-40
6.3623640898232643e-42
-2.93183088362105761e-41
8.58541736994660391e-43
2.15692608121588849e-41
1.47151435686964594e-43
-6.80222347131577931e-43
1.53924723002759199e-44
5.12487926157249908e-43
2.97945199901544611e-45
-1.38146472029504634e-44
2.23835040297612527e-46
1.04157345311185078e-44
5.19673632003325634e-47
-2.41663038347265341e-46
2.5133646304364079e-48
1.76277119469118867e-46
7.63329030911908227e-49
-3.5597785853925919e-48
2.01101605530310122e-50
2.38804297736620833e-48
9.12480239180994466e-51
-4.26691165961273309e-50
9.85589165209320444e-53
2.43086852296749559e-50
8.38464642598622313e-53
-3.93097238813576171e-52
3.55089428122570235e-54
1.6541752968405366e-52
5.30295263249147054e-55
-2.49173469610833895e-54
6.75965218731888524e-55
2.31016602462284929e-57
-1.1483767474018919e-56
1.77991333564599472e-25
4.03253800349239944e-26
-1.83455840667285362e-25
1.06042806179679212e-24
1.4317765741150692e-26
2.7996782124834712e-27
-1.26591494478179402e-26
8.46657607917946687e-26
9.73834672778677285e-28
1.83143739502256125e-28
-8.2635036582835053e-28
6.38652945134819452e-27
6.15709441527481073e-29
1.09748064484969179e-29
-4.96014530964080284e-29
4.41824949871978151e-28
3.58248809532663874e-30
6.05977204608704513e-31
-2.74640596476956018e-30
2.83056395293305502e-29
1.91098617946893752e-31
3.08255514391467596e-32
-1.401888193226199e-31
1.67530765985779363e-30
9.31679799836655424e-33
1.44320977386351205e-33
-6.58366985612935337e-33
9.14778033521024321e-32
4.13513276589736297e-34
6.2015742660658407e-35
-2.83738063194237118e-34
4.59575383681981989e-33
1.66247786632419201e-35
2.43727603070591453e-36
-1.11829487284652328e-35
2.11706732819102506e-34
6.01641102584021109e-37
8.72454098814443399e-38
-4.01434362893450755e-37
8.90418338840624857e-36
1.94442602596418726e-38
2.83056687588672342e-39
-1.30600084305665674e-38
3.40094052203692556e-37
5.55568049379989511e-40
8.27309830451945339e-41
-3.82731189874371234e-40
1.17166933795599273e-38
1.38523410650775566e-41
2.16212495913305727e-42
-1.00280415842049011e-41
3.60981240938325457e-40
2.96281460493442824e-43
5.00538945582943558e-44
-2.32727769472784345e-43
9.83708035474964661e-42
5.31108795046156171e-45
1.01415292937547317e-45
-4.72681799783137383e-45
2.33733962521861743e-43
7.72137399579922963e-47
1.76968491336346005e-47
-8.26809609426654124e-47
4.75001809940624537e-45
8.66726260109945286e-49
2.60016396066219106e-49
-1.21770764113877e-48
8.03782411772791361e-47
6.93235803331401475e-51
3.10869814462230851e-51
-1.45926980566710736e-50
1.08867686696773497e-48
3.39668268015983097e-53
2.85665033979934384e-53
-1.34402146146466733e-52
1.10794011400898566e-50
5.46076351996927302e-55
1.80679663711064426e-55
-8.51997323567909166e-55
7.53922432373075669e-53
7.15720357413454654e-58
-3.21009379975079908e-57
2.73005621714151575e-55
6.95000760464345067e-31
3.79131655512143832e-30
9.00670513328216312e-32
3.06308135654175681e-32
1.88739205879962639e-31
3.80428646761769279e-33
1.22407809993597854e-33
8.62969050705287867e-33
1.47321929493706427e-34
4.40889559885548183e-35
3.60832652821025747e-34
5.20743197636801075e-36
1.41959011446324028e-36
1.37190519812909614e-35
1.67136418589874075e-37
4.04441143710396991e-38
4.70990185476770386e-37
4.84015070648220707e-39
1.00621519794288959e-39
1.4472948307492238e-38
1.25491392337070334e-40
2.14865629968206222e-41
3.93661766318089032e-40
2.88509809822175712e-42
3.84706069127290409e-43
9.34164627545091797e-42
5.81038514282226674e-44
5.58800052680114107e-45
1.89689071737793913e-43
1.00854375748964982e-45
6.26816562097987367e-47
3.20829743187664002e-45
1.47481034817400023e-47
5.01025197700475316e-49
4.34423436510023841e-47
1.75581204326609246e-49
2.45276875324892138e-51
4.4201788923076061e-49
1.60769777273737753e-51
7.34864699427232926e-53
3.00607707200958689e-51
1.01392118990042353e-53
1.32272707794876875e-53
4.53093301253085884e-56
5.89585018878930673e-30
3.11334115077479996e-29
7.89033276081039311e-31
2.84983619746747415e-31
1.68263701650079443e-30
3.62698228923508881e-32
1.25636068475642671e-32
8.37744052284939732e-32
1.53443256715166378e-33
5.02361550436076998e-34
3.83228485564393436e-33
5.95069657579216413e-35
1.81013538245809918e-35
1.60283433644491271e-34
2.10609661448500267e-36
5.83034290548748544e-37
6.09528638394188683e-36
6.76747718331914604e-38
1.66156453733354198e-38
2.09284793757061242e-37
1.96184800645127468e-39
4.1348985062879416e-40
6.43155919906942147e-39
5.09136103597434268e-41
8.83151851809218282e-42
1.74943043466127265e-40
1.17157211522613718e-42
1.58153334999637639e-43
4.15139842934011234e-42
2.36140617014055606e-44
2.29762363004981623e-45
8.42943373281923459e-44
4.10194891598830995e-46
2.57771021682925179e-47
1.42563646672736346e-45
6.00274217717997784e-48
2.06076062848674132e-49
1.93029891672159637e-47
7.15143129612802091e-50
1.00904245914721779e-51
1.96396510165258808e-49
6.55208975907790636e-52
2.92377158726895132e-53
1.33566163266798751e-51
4.1342112002609008e-54
5.84816051312080371e-54
1.82462038129867028e-56
2.34168297208557039e-30
1.32782907395073338e-29
3.0726973951483846e-31
1.13249284101491837e-31
7.17757569025027771e-31
1.41495968249249666e-32
4.99476588154746514e-33
3.57556427355856171e-32
5.99518333041369532e-34
1.99779576549097789e-34
1.63614124184717837e-33
2.32808353006749851e-35
7.20006699799493532e-36
6.84421372746858965e-35
8.24906975072820428e-37
2.31940207802238332e-37
2.60286007301167858e-36
2.65329643547734604e-38
6.61039723273946147e-39
8.93669921365300764e-38
7.6984465457721338e-40
1.64505409524957006e-40
2.74604842354166086e-39
1.99943814606494596e-41
3.51346564796285533e-42
7.46819409178382638e-41
4.60407411964344371e-43
6.29142156156281766e-44
1.7718191714035101e-42
9.28554793329672229e-45
9.13925332496090295e-46
3.59678162812588768e-44
1.61385059663461247e-46
1.02523809525865514e-47
6.08143661719669779e-46
2.36288224839994712e-48
8.19558872787420565e-50
8.23192337181785178e-48
2.81633037027287955e-50
4.01270134006065938e-52
8.37325480874647691e-50
2.58125961031793571e-52
1.12211861568593406e-53
5.69326578421936118e-52
1.62915204227396296e-54
2.47864065537371119e-54
7.0944427218968868e-57
9.01759809199151609e-31
5.45414687705793265e-30
1.15955800083484463e-31
4.36286376944294182e-32
2.94910687295965083e-31
5.3468161815655051e-33
1.92472807854360129e-33
1.46981428110747177e-32
2.26871047061194052e-34
7.69914079183286926e-35
6.72644318911503232e-34
8.82085405106727208e-36
2.77476857208513936e-36
2.81371287461899633e-35
3.12868811218424775e-37
8.93779363643122385e-38
1.06990267180040012e-36
1.00721462768003023e-38
2.54693066619855945e-39
3.67254803077166957e-38
2.9245865372495101e-40
6.33696831853307591e-41
1.12814444545757833e-39
7.60055906444011808e-42
1.35309670465034761e-42
3.06699512789338228e-41
1.75110337740839455e-43
2.42224439259781086e-44
7.2733886148712867e-43
3.5332246364300752e-45
3.51759736910107126e-46
1.47582697656029081e-44
6.14314286601731811e-47
3.94478505989720708e-48
2.4941466633778743e-46
8.99717352922201813e-49
3.15243445171174504e-50
3.37449700208334408e-48
1.07264619593192548e-50
1.54307156047645241e-52
3.43083030657722224e-50
9.83287945598361844e-53
4.15605163322646921e-54
2.33177618241933378e-52
6.20656621804279193e-55
1.0083154085214921e-54
2.66464505811679468e-57
1.76374464511321055e-27
8.50705848922079083e-27
2.65431922475847019e-28
1.10504483743262814e-28
5.82005734475934632e-28
1.55825535420410954e-29
6.36416285147338557e-30
3.68181044403416414e-29
8.45563959700588023e-31
3.36622048125142651e-31
2.15659583354017598e-30
4.23631995469595479e-32
1.62952163700220428e-32
1.16703079265413231e-31
1.95710766655594472e-33
7.18875459369278669e-34
5.81882291096994339e-33
8.31610850520582186e-35
2.875371993518461e-35
2.66321570399403085e-34
3.23712716152723593e-36
1.03611173868271503e-36
1.11400206907793821e-35
1.1492862034720792e-37
3.3365516385075263e-38
4.2351636710950866e-37
3.70275218247103815e-39
9.50472044346996499e-40
1.45332317222405937e-38
1.07580303749265545e-40
2.36391530458399483e-41
4.46259045182508012e-40
2.79720185346749615e-42
5.04529235112978418e-43
1.21263271091332049e-41
6.44697092980921996e-44
9.02748557248928075e-45
2.8742179639837935e-43
1.30119147567210426e-45
1.31031689427833604e-46
5.82860891538510801e-45
2.26283612510395555e-47
1.46869556138760247e-48
9.84430882026274919e-47
3.31463765466727919e-49
1.1731084475594403e-50
1.33107031595362283e-48
3.95211266309929806e-51
5.73961343010367595e-53
1.35245875938854589e-50
3.62293913975002435e-53
1.48490513217856062e-54
9.18689303764313668e-53
2.28663958284644493e-55
3.92705224357311446e-55
9.67149324908027451e-58
6.25878760289087459e-28
3.15311005008307162e-27
9.18359210497435564e-29
3.98805034471538193e-29
2.17719959944342518e-28
5.45299211095982584e-30
2.29394623952482173e-30
1.38337330952225519e-29
2.97051425384574023e-31
1.21416739800647784e-31
8.12536740757299931e-31
1.49256647914893344e-32
5.88114215510952924e-33
4.40619196163551216e-32
6.91291092321367263e-34
2.59560176393974956e-34
2.20028077932802868e-33
2.94338690384441913e-35
1.03841315419351995e-35
1.00817671872077063e-34
1.14761962700169319e-36
3.74190387152946317e-37
4.22028166479622757e-36
4.07992284111143493e-38
1.20482694174526275e-38
1.60516281155610888e-37
1.31582672350987612e-39
3.43122952454272254e-40
5.50928972012984026e-39
3.82599523856365875e-41
8.53060920418327958e-42
1.69166955858315132e-40
9.95371490746687411e-43
1.81985618361814979e-43
4.59600429968212353e-42
2.29508850134959254e-44
3.25457492631786913e-45
1.08902168564775381e-43
4.63354301433166823e-46
4.7213129663641517e-47
2.20751917015253888e-45
8.05954797724302899e-48
5.28892543789367348e-49
3.72663364459131471e-47
1.18071810318561892e-49
4.22204845923841024e-51
5.03621401490429837e-49
1.40786059447708744e-51
2.06459419368291345e-53
5.11435022023304803e-51
1.2905340802040159e-53
5.05884537286876118e-55
3.47246427828211099e-53
8.14398193998551947e-56
1.39700308027613037e-55
3.38990442032099476e-58
3.9469523330422646e-26
6.8189693567490071e-27
2.3877907890155473e-25
3.17398750965022208e-27
4.65552379127081453e-28
1.89047610680837544e-26
2.14557473620651107e-28
3.01550478325163605e-29
1.41949081401587383e-27
1.35001596030440307e-29
1.79382617913348756e-30
9.77215922880413474e-29
7.81982063673111398e-31
9.83689267067356005e-32
6.23098613740378903e-30
4.15379990305629763e-32
4.97316742409805483e-33
3.67136341971236769e-31
2.01718621822563494e-33
2.31484417795793029e-34
1.99610262803107337e-32
8.92010233451820574e-35
9.8947747695188472e-36
9.98746242217620215e-34
3.5738850123803975e-36
3.87026313922634911e-37
4.58321762814073757e-35
1.28919874957501324e-37
1.37939877251604528e-38
1.92072999468556806e-36
4.15388817448876067e-39
4.45737920447909102e-40
7.31137477755198403e-38
1.18346557300393903e-40
1.29798441720809918e-41
2.51083121340967343e-39
2.94280412820520301e-42
3.38068208983564574e-43
7.71235720173644511e-41
6.27794982706669981e-44
7.80176904148308016e-45
2.09569656524730142e-42
1.12258118503811068e-45
1.57606220196763885e-46
4.96597466117804555e-44
1.62811817982930898e-47
2.74243639906619891e-48
1.00658420445676792e-45
1.82329626821913594e-49
4.01838899230856644e-50
1.69905785676659974e-47
1.45498296461293507e-51
4.79158626638468032e-52
2.29571122916867015e-49
7.11282172945869151e-54
4.39190254442794686e-54
2.33081553522657992e-51
1.16310423398606392e-55
2.77107736108297826e-56
1.58233840837837035e-53
1.14504032942906416e-58
5.732869414584558e-56
1.15488127870117193e-31
6.33794265608673814e-31
1.08887910690018839e-32
5.06802100424878625e-33
3.14096517231481025e-32
4.57117147385049235e-34
2.0184632838318403e-34
1.43051426012412424e-33
1.76234684211671324e-35
7.24669354014616838e-36
5.95966257083910169e-35
6.20383074641107186e-37
2.32628694702522468e-37
2.25822609818983241e-36
1.98355852341162675e-38
6.6088961206585805e-39
7.72824755795384863e-38
5.72400044273743892e-40
1.63986873719926617e-40
2.36777907273503907e-39
1.47920515999330978e-41
3.49292383543888723e-42
6.42244448496431493e-41
3.3902852404450096e-43
6.23883094855568449e-44
1.52005556298581924e-42
6.80818056365816394e-45
9.04107842206748676e-46
3.07887700215649434e-44
1.17854193915603563e-46
1.01186169081994752e-47
5.1949780723054645e-46
1.71894129009761513e-48
8.07001111166117803e-50
7.0180503091350818e-48
2.04135456763493359e-50
3.94214108984903567e-52
7.12462705960700994e-50
1.86466899227449598e-52
8.52449462348465092e-54
4.83511535884684394e-52
1.17336409054212029e-54
1.98415106937413953e-54
4.99406185390708299e-57
9.79636297276005563e-31
5.20577124421018531e-30
9.53686707355081071e-32
4.71656058428451034e-32
2.80065255306347373e-31
4.36216725635018644e-33
2.07180277666292098e-33
1.38891221079907151e-32
1.83515329790010905e-34
8.25649527821702441e-35
6.32988991319156727e-34
7.08924611025502992e-36
2.96576398370109284e-36
2.63820809235392439e-35
2.49907053155771217e-37
9.52479024341909135e-38
9.99994803365517173e-37
8.00101073771005033e-39
2.70702696648368485e-39
3.423078214288355e-38
2.3116258728240888e-40
6.7192662879975125e-41
1.04895025314909965e-39
5.98029631243043067e-42
1.43162927674319914e-42
2.84556433475039452e-41
1.37207196717717507e-43
2.55774723442631217e-44
6.73537478647397215e-43
2.75789032538633812e-45
3.70747393853976756e-46
1.36431209923011396e-44
4.77817500676040712e-47
4.15029764871356009e-48
2.30205208191557984e-46
6.97490704837032561e-49
3.31081269636524172e-50
3.10996448998105e-48
8.28974912143537476e-51
1.61772410990402021e-52
3.15727745235913792e-50
7.57751104865882264e-53
3.34844266386972641e-54
2.14282763888138239e-52
4.77098150035430247e-55
8.73679922163497066e-55
1.99967391477297899e-57
3.8775696452930401e-31
2.21250199485665019e-30
3.69655877604939358e-32
1.86811366416646206e-32
1.19088380533635748e-31
1.69219313962229065e-33
8.21026346793519524e-34
5.90919925328679103e-33
7.13966596409165188e-35
3.27323147839425273e-35
2.6940895974300415e-34
2.76179579409303494e-36
1.17610122380269092e-36
1.12313297475512322e-35
9.74880286905167673e-38
3.77792698624751933e-38
4.25768552234597837e-37
3.12458664957971051e-39
1.07386661873176682e-39
1.45748913886673993e-38
9.03623509523547681e-41
2.66571515792953246e-41
4.46604904158578034e-40
2.33978975269389199e-42
5.67982776480855696e-43
1.21140608112282363e-41
5.37260115751001421e-44
1.0147498058500562e-44
2.8669077838709415e-43
1.08068226492115231e-45
1.47084385269343756e-46
5.80604085533734235e-45
1.87352715205108591e-47
1.64646155277006632e-48
9.79458776298677077e-47
2.73647649542361027e-49
1.3133900571471298e-50
1.32290368142173935e-48
3.25409182785045441e-51
6.41745273529127161e-53
1.34273885695063397e-50
2.9758753026879811e-53
1.26717972563843403e-54
9.11154740199024031e-53
1.87434990280793483e-55
3.68815115542766011e-55
7.72793101159152709e-58
1.48871024732533688e-31
9.06070164067165515e-31
1.38807897143722284e-32
7.17578821618756677e-33
4.87904978556758372e-32
6.37114163339717791e-34
3.15479371957346219e-34
2.42234083729414006e-33
2.6912251083778444e-35
1.25793429512959078e-35
1.10458725411101531e-34
1.04230323461926149e-36
4.52014988984849541e-37
4.60513083668642379e-36
3.68320924087240642e-38
1.45194863495683456e-38
1.74561891348757462e-37
1.1816443345275826e-39
4.12673696278412461e-40
5.97451793207204863e-39
3.42016911558795145e-41
1.02424446658893037e-41
1.83024416100059525e-40
8.86245343647526365e-43
2.18191187500802935e-43
4.9629026059223348e-42
2.03625892638042537e-44
3.89723592848205776e-45
1.17407997051180514e-43
4.09803238026705587e-46
5.64741446751122838e-47
2.376759097109402e-45
7.10772030419660715e-48
6.31999483992173591e-49
4.00776381975966126e-47
1.03854353994143848e-49
5.04016840205388104e-51
5.41068317183401281e-49
1.2353739438384716e-51
2.46216046060556365e-53
5.48944614904446981e-51
1.13003391189829939e-53
4.62226597496893273e-55
3.72361849003172167e-53
7.11876314842572833e-56
1.49521841464687602e-55
2.88451591648289898e-58
2.94116290682108447e-28
1.42903225222928833e-27
3.2196758919568237e-29
1.83427261259832419e-29
9.7287831396331948e-29
1.87877912690136115e-30
1.0519511946790937e-30
6.12612389673555086e-30
1.0136202045213312e-31
5.54238435349093929e-32
3.57297140078688373e-31
5.05359916271718366e-33
2.67321600221965234e-33
1.92577421956255564e-32
2.32312896229144018e-34
1.17533983715311607e-34
9.56597132680346233e-34
9.8282561946259038e-36
4.68646688272212715e-36
4.36295552147884434e-35
3.810679772321379e-37
1.68380837832466966e-37
1.81903375137008828e-36
1.34802149389213884e-38
5.40754677382637896e-39
6.89438922161809853e-38
4.32854435437256178e-40
1.53649039078311838e-40
2.35907513153291045e-39
1.25375875856954617e-41
3.81217152367120693e-42
7.22430186414464704e-41
3.25063311287032218e-43
8.1176329987816491e-44
1.95809745396495527e-42
7.4720859405580707e-45
1.44929120116066508e-45
4.62997904014459568e-44
1.50429504058061227e-46
2.09915696069850027e-47
9.36759126301455898e-46
2.60976974436516962e-48
2.34803648718148893e-49
1.57867464612926512e-47
3.81406867424338368e-50
1.87167866887280036e-51
2.13002482804071819e-49
4.53765619880012459e-52
9.13947646344320358e-54
2.15976656736738363e-51
4.15105294545364445e-54
1.62532182907141437e-55
1.46423964214001132e-53
2.61494387027943776e-56
5.82706509517116726e-56
1.04055716119486834e-58
1.04067753997662991e-28
5.27960773161294419e-28
1.10915473649829034e-29
6.6025878625081384e-30
3.62859283147211524e-29
6.54689108191469407e-31
3.78220727142304403e-31
2.29544020608852966e-30
3.54683632390753669e-32
1.99427662519736093e-32
1.34271777095090308e-31
1.77349382505278283e-33
9.62564713494439984e-34
7.25316183816456415e-33
8.17571146805685234e-35
4.23425581412082246e-35
3.60882940096325244e-34
3.46606023519215444e-36
1.68880517583673326e-36
1.64797532049738231e-35
1.34621260177262897e-37
6.0682119890087456e-38
6.87659598537796545e-37
4.76911036254176536e-39
1.94863275957736301e-39
2.60767607565952456e-38
1.53311620388189365e-40
5.53555901479838128e-41
8.92505082419055388e-40
4.44448178150072764e-42
1.37296130834841715e-42
2.73327053572864778e-41
1.15307063153491187e-43
2.92235550638498913e-44
7.40736295628972234e-43
2.65179344051377894e-45
5.2149502449253209e-46
1.75102316607409117e-44
5.34052002743637926e-47
7.54938837456404859e-48
3.54143860204993961e-46
9.26746489168922689e-49
8.43982960800405017e-50
5.96555824867721387e-48
1.3546332578714974e-50
6.72390960615648579e-52
8.04504493510870532e-50
1.61178033158890139e-52
3.28163580663021567e-54
8.15317389664736192e-52
1.47445137882139028e-54
5.50378610859539745e-56
5.52497133945885726e-54
9.28719770298616454e-57
2.18425384353003981e-56
3.6291671031903476e-59
6.6026735180734875e-27
8.34147010304982827e-28
4.01990345535181708e-26
5.28800065231535607e-28
5.63912420184884443e-29
3.17691576606105084e-27
3.55770502920730131e-29
3.6273986776305742e-30
2.37386415589546044e-28
2.22907658363374699e-30
2.1451175877183836e-31
1.62669075475117292e-29
1.28607600004937186e-31
1.1700551141535668e-32
1.03272158416082763e-30
6.80640383961331759e-33
5.88713844648950602e-34
6.06023300197341675e-32
3.29405567612348438e-34
2.72777026320606267e-35
3.28235565531109353e-33
1.45201031223722089e-35
1.16116715522183053e-36
1.63644527228853686e-34
5.80026269427043957e-37
4.52484058202630238e-38
7.48445383270436851e-36
2.08649285886221965e-38
1.60717258206027938e-39
3.12672411932499355e-37
6.70526624992776547e-40
5.17699107033893341e-41
1.18669334068841875e-38
1.90566815647343125e-41
1.50314130062012165e-42
4.06396467467156757e-40
4.72760594947307887e-43
3.90448562943952616e-44
1.24503968613980412e-41
1.00631747864899448e-44
8.98796507677855871e-46
3.37482783861668111e-43
1.79561087264709472e-46
1.81138665971012541e-47
7.97829611526418681e-45
2.59889650329571299e-48
3.14476780747789564e-49
1.61355921837281222e-46
2.90463616742541348e-50
4.59783583270953801e-51
2.71775574087409102e-48
2.31333359475245508e-52
5.47094620474614598e-53
3.66451907367992011e-50
1.12868829886147889e-54
5.00437596899365919e-55
3.71301510742294497e-52
1.84756085122649483e-56
3.15142098549595025e-57
2.51562072535420927e-54
1.25453191991911779e-59
9.12736324496600543e-57
3.10752394426074479e-31
1.53470979126420175e-30
2.12242681941605021e-32
1.48950665328390672e-32
8.21728879569473979e-32
9.65585657817094794e-34
6.51542925751384512e-34
4.05695390403619652e-33