/*--------------------------------*- C++ -*----------------------------------*\
| =========                 |                                                 |
| \\      /  F ield         | OpenFOAM: The Open Source CFD Toolbox           |
|  \\    /   O peration     | Version:  2206                                  |
|   \\  /    A nd           | Website:  www.openfoam.com                      |
|    \\/     M anipulation  |                                                 |
\*---------------------------------------------------------------------------*/
FoamFile
{
    version     2.0;
    format      ascii;
    arch        "LSB;label=32;scalar=64";
    class       surfaceScalarField;
    location    "0.0299999999999999989";
    object      phi;
}
// * * * * * * * * * * * * * * * * * * * * * * * * * * * * * * * * * * * * * //

dimensions      [0 3 -1 0 0 0 0];

oriented        oriented;

internalField   nonuniform List<scalar> 
20856
(
1.51179160696445365e-05
1.4186920606078238e-05
-9.54076552646600775e-07
1.38472329383300252e-05
1.34005401932298071e-05
7.65869128891464883e-07
-7.77760818139312727e-07
1.26314195377216593e-05
1.27253071629875577e-05
6.21750852571087757e-07
-6.32441449394999818e-07
1.14708377668630439e-05
1.21205522901795854e-05
5.06221181431962754e-07
-5.14768264847957694e-07
1.03602705227652038e-05
1.15874036564878257e-05
4.13381421562446109e-07
-4.20057099106908081e-07
9.29427450095489448e-06
1.11177614303078539e-05
3.37653130286472824e-07
-3.42954102463541309e-07
8.26671568137191312e-06
1.07046324134454687e-05
2.75582469135330923e-07
-2.7992089052053979e-07
7.27263320513781364e-06
1.03437296502875409e-05
2.25840208281007974e-07
-2.29562128666394134e-07
6.30636311080819193e-06
1.00311784618800489e-05
1.868199597265822e-07
-1.90055567063273714e-07
5.36283195832336395e-06
9.7644884915316031e-06
1.56010769908441899e-07
-1.58658079288055271e-07
4.43843686345055052e-06
9.54144286951986923e-06
1.3150073660485956e-07
-1.33503621709195677e-07
3.52971113457569802e-06
9.35870241828299196e-06
1.12400154953310744e-07
-1.14075213584056454e-07
2.63358400958623954e-06
9.21402581464888573e-06
9.81493383478542327e-08
-9.99991712631634281e-08
1.74800871023151981e-06
9.10725042377867768e-06
8.81586731141377894e-08
-9.03798625964898345e-08
8.70817956920769503e-07
9.03826814971481016e-06
8.18906887736268833e-08
-8.42725957727099515e-08
8.9948317431347802e-06
7.8871434561148162e-08
-8.10869790349272646e-08
1.49250168022624252e-05
1.55170454399248372e-05
9.24724250239183254e-07
-9.39823025531463592e-07
1.36736406356242387e-05
1.46667875217562571e-05
7.52098090369856432e-07
-7.66470546490252376e-07
1.24787344398817746e-05
1.39311523482403626e-05
6.11009057581729295e-07
-6.22434678034224232e-07
1.13360958634885708e-05
1.32707215563760366e-05
4.98452264637442612e-07
-5.07122372566035093e-07
1.0241635218066365e-05
1.26879943674842664e-05
4.06919014857584136e-07
-4.13814575003925465e-07
9.18991510509335059e-06
1.21748921164672766e-05
3.32441413941831202e-07
-3.37839335253616735e-07
8.17553187184593011e-06
1.17240731438373461e-05
2.71702856801559204e-07
-2.7602869077164101e-07
7.19363592903717059e-06
1.13304685514083268e-05
2.22900397615752588e-07
-2.2651750466488078e-07
6.23891659880780342e-06
1.09900311648685829e-05
1.84270270315405895e-07
-1.87394925007052513e-07
5.30637973758571079e-06
1.06996539883002975e-05
1.53681887956881897e-07
-1.56374611731113882e-07
4.39214505207717847e-06
1.04563830704085877e-05
1.29443446955690605e-07
-1.31758441645830587e-07
3.49301694024340539e-06
1.02570352050130942e-05
1.10591695188541283e-07
-1.12748725116889641e-07
2.60644095658003679e-06
1.00996044815029498e-05
9.65321694533657142e-08
-9.87599259609385745e-08
1.73038228839025889e-06
9.98357412254200744e-06
8.67367006966925547e-08
-8.90030981430199691e-08
8.62404679049362035e-07
9.90844232401193181e-06
8.06777475992815921e-08
-8.27382127229915474e-08
9.86046598288710727e-06
7.77906226448898481e-08
-7.9446289342128848e-08
1.47155188870566406e-05
1.68220181671131615e-05
9.06775611423224444e-07
-9.22844743571743186e-07
1.34842996089690108e-05
1.59136678723694471e-05
7.36261961034312375e-07
-7.50858254209882755e-07
1.23107711738306576e-05
1.51156275285170209e-05
6.00450391527268953e-07
-6.11279977677528818e-07
1.11884099141925167e-05
1.44009819543051684e-05
4.89968982406477452e-07
-4.98501544828316867e-07
1.01117981360589072e-05
1.37707333826626062e-05
4.00122494030048606e-07
-4.06980816627622937e-07
9.07593027521950819e-06
1.32158489433006517e-05
3.27005517116022131e-07
-3.32433028172997472e-07
8.07605533186303374e-06
1.2728767723654886e-05
2.67505166465875247e-07
-2.71866488214504825e-07
7.10760305394849764e-06
1.2303859809519998e-05
2.19617122733686062e-07
-2.2321427083353376e-07
6.1655138302566519e-06
1.1936557598829955e-05
1.81515859798714258e-07
-1.84562150313774591e-07
5.24485491066274026e-06
1.16230514033294625e-05
1.51268051438924772e-07
-1.53932897361689133e-07
4.34169817379018043e-06
1.1359967689739672e-05
1.27313924032875294e-07
-1.29774897672606502e-07
3.45313593785474332e-06
1.11444164672464977e-05
1.08696013160371253e-07
-1.11136862582257807e-07
2.57698225109848468e-06
1.09746569565175222e-05
9.48355876081301636e-08
-9.72991606771862064e-08
1.71120726189804974e-06
1.08498739593288065e-05
8.52395109174356626e-08
-8.75359956599393757e-08
8.53155403379276947e-07
1.07690608576120945e-05
7.93644116009194285e-08
-8.12344696507042282e-08
1.07169301293999014e-05
7.65706519125056385e-08
-7.79400393642790831e-08
1.44834020919894312e-05
1.81030983831557474e-05
8.86736160204016043e-07
-9.02192898774749999e-07
1.3276378863897465e-05
1.7134647473986114e-05
7.22537141703282789e-07
-7.34954999426166709e-07
1.21286133897469369e-05
1.62741035071315229e-05
5.89052379744395792e-07
-5.99178395601879481e-07
1.10284338810706694e-05
1.55090809711766089e-05
4.80856011967347534e-07
-4.89088408641245753e-07
9.97123881237215335e-06
1.48339304821027534e-05
3.92875424094424777e-07
-3.99598023304220122e-07
8.9526970069441709e-06
1.42393101937997052e-05
3.21248966328898131e-07
-3.26659135331617131e-07
7.96863079402488576e-06
1.37176645336176233e-05
2.63011451217017564e-07
-2.67372308707976659e-07
7.01476853109392625e-06
1.32628518459508328e-05
2.16074081870915288e-07
-2.19607314872942007e-07
6.0862670810455856e-06
1.28696233872055595e-05
1.78581324693747049e-07
-1.8151160366215004e-07
5.17832984485631842e-06
1.25335819416419631e-05
1.48723128557931194e-07
-1.51327253536865371e-07
4.2871625801098174e-06
1.22512565760600266e-05
1.2505865749996777e-07
-1.27605772172481271e-07
3.41014162051264251e-06
1.20201359159502781e-05
1.0668594763312183e-07
-1.09311440373441341e-07
2.5453081548516778e-06
1.18386467704002532e-05
9.30560827344622711e-08
-9.5653112464193549e-08
1.69058513618049662e-06
1.17055935905930036e-05
8.36806014214761849e-08
-8.59552617585663496e-08
8.43147146874494761e-07
1.16193989378221691e-05
7.7978862691798743e-08
-7.96915590088014117e-08
1.15633581068973302e-05
7.52586531830435264e-08
-7.64468057746794494e-08
1.81218838553322407e-05
2.33686014589642921e-05
1.59635158582346818e-06
-1.6177893356868992e-06
1.67576432166734585e-05
2.18458718047416808e-05
1.30298480904981413e-06
-1.32248793611938412e-06
1.54665754415525971e-05
2.05310036837226186e-05
1.06343420038984207e-06
-1.08009532802866871e-06
1.4232817936443333e-05
1.93529913786742186e-05
8.67151849129307695e-07
-8.8111631879225292e-07
1.30564117491582353e-05
1.83244470324926502e-05
7.0699078823037518e-07
-7.18598269202385033e-07
1.19346287730139304e-05
1.74063405207785962e-05
5.7676932503160887e-07
-5.86446163226590914e-07
1.08573761510335501e-05
1.65943070429152026e-05
4.71099214679147084e-07
-4.79198658246081605e-07
9.82080015693323908e-06
1.58766623400538816e-05
3.85158286097890769e-07
-3.91854505559449421e-07
8.82086621095701566e-06
1.52444300981417838e-05
3.15162495047628314e-07
-3.20605801301433746e-07
7.85377044748932599e-06
1.46899064678821565e-05
2.58255273047490586e-07
-2.62624562498752624e-07
6.91549142289543296e-06
1.42064197948121704e-05
2.12310281393470984e-07
-2.15787825457241355e-07
6.00142550230997363e-06
1.37881069902153415e-05
1.75468635933159304e-07
-1.78325905314574647e-07
5.10702948725007071e-06
1.34302352191726005e-05
1.46029002577306447e-07
-1.48632413658195865e-07
4.22876040323970916e-06
1.31294583789298794e-05
1.22676379148734781e-07
-1.25330121852487668e-07
3.36423035244663402e-06
1.28835876821124722e-05
1.04582593838310503e-07
-1.07348817308949618e-07
2.51157276055809655e-06
1.2691030069297366e-05
9.12186024361368443e-08
-9.38753703658372926e-08
1.66861413587455424e-06
1.25501084475043676e-05
8.20742786724253242e-08
-8.42815900881443346e-08
8.32441246680322227e-07
1.24586734331236782e-05
7.65262982228865049e-08
-7.81003940863872535e-08
1.23988953179799348e-05
7.38582267959559056e-08
-7.49330836088823649e-08
1.77420093215765211e-05
2.47765438877669243e-05
1.54990848072403554e-06
-1.57188556335261513e-06
1.64185359802867622e-05
2.31911657039853422e-05
1.26727589691751577e-06
-1.28792278376710622e-06
1.51702837599069515e-05
2.17983591217774176e-05
1.03534753307378357e-06
-1.05265095290534233e-06
1.39699904095612257e-05
2.05693961823005712e-05
8.45641644376205e-07
-8.59396015000029781e-07
1.28254291121752704e-05
1.94819726857048135e-05
6.90287805422686276e-07
-7.01431117400162694e-07
1.17290864062156166e-05
1.85129914602301469e-05
5.6369029439730731e-07
-5.73150700839569388e-07
1.06758071256422465e-05
1.76557138109737788e-05
4.60802547542316628e-07
-4.68804739148542951e-07
9.66102759816684926e-06
1.68979801321263097e-05
3.77053677788663115e-07
-3.83704522720501068e-07
8.68088025365111467e-06
1.62302351762358756e-05
3.08802384703139445e-07
-3.1422022687937742e-07
7.73180498203703302e-06
1.56444280327716798e-05
2.53279615914215347e-07
-2.57601207058498492e-07
6.81000467972536402e-06
1.51334127301946143e-05
2.08352540381209254e-07
-2.11765167473845677e-07
5.91118329495746403e-06
1.46909269877919334e-05
1.7218991832702738e-07
-1.75018854730209965e-07
5.03116530870547356e-06
1.43121530643062481e-05
1.43204733065616177e-07
-1.45859017607716353e-07
4.16670861138628203e-06
1.39939424413581332e-05
1.20207252308561159e-07
-1.2296632874644211e-07
3.3155769976438369e-06
1.37342516228931666e-05
1.02435303878998506e-07
-1.05276693829466392e-07
2.47588198259218482e-06
1.3531251162004707e-05
8.93593510840274442e-08
-9.19916979656613344e-08
1.64533184262982748e-06
1.33827358705927576e-05
8.04331566046613513e-08
-8.25290486165852455e-08
8.2083531164006502e-07
1.32862528286205555e-05
7.50032512068715687e-08
-7.64598292648552113e-08
1.32224577455605448e-05
7.23613848839148779e-08
-7.33837061024697011e-08
2.00809323416864336e-05
2.24470038812091481e-06
-2.27399256157710448e-06
3.01911621114346001e-05
1.86687097698029947e-05
1.83590488532265339e-06
-1.85958478166504401e-06
2.80588336512809464e-05
1.73372224920382245e-05
1.50305619024793815e-06
-1.52598694182147483e-06
2.61324177114568272e-05
1.6065686734967391e-05
1.23091327577523793e-06
-1.25138220634200907e-06
2.44844744153883434e-05
1.48563148814647793e-05
1.00665731251997508e-06
-1.02353358268093559e-06
2.30266400047718551e-05
1.36924779819076638e-05
8.23193171913228271e-07
-8.36394171290558006e-07
2.17486969540071536e-05
1.25801166866832818e-05
6.72753994247965423e-07
-6.83761853716256276e-07
2.06070102514202412e-05
1.15121394438610152e-05
5.50017432690667753e-07
-5.59411082085492582e-07
1.95912697221234771e-05
1.04843380566760667e-05
4.50085146473698196e-07
-4.58034003538451745e-07
1.86919378114495413e-05
9.49260902297244409e-06
3.68641695909287333e-07
-3.75237205571879101e-07
1.7896713353629828e-05
8.53337918209271833e-06
3.02210973244978538e-07
-3.07564350688328976e-07
1.71955299634033862e-05
7.60331038342993082e-06
2.48108887194741241e-07
-2.52357294157072091e-07
1.65799810371933778e-05
6.69885006316469978e-06
2.04223445389867628e-07
-2.07587518722661767e-07
1.60425975318307436e-05
5.81609100580076756e-06
1.687790455791392e-07
-1.71622601686575561e-07
1.55770241701070611e-05
4.95129749253196479e-06
1.40305607186826685e-07
-1.43031703206840563e-07
1.5178596910611284e-05
4.10151758187795702e-06
1.1772361887191186e-07
-1.20550802025539263e-07
1.48442855422516939e-05
3.26457572429324712e-06
1.00314699335327865e-07
-1.03148610242697976e-07
1.45718483426942547e-05
2.4384935399560626e-06
8.7530263628230948e-08
-9.0060265185204795e-08
1.43589431640963773e-05
1.62091027464254206e-06
7.87885717935874154e-08
-8.0744373291265224e-08
1.42028586856821232e-05
8.08949864153625026e-07
7.34317371860275506e-08
-7.4797471829734661e-08
1.41009962192469738e-05
7.0795466722122629e-08
-7.18113512142554584e-08
1.40335005535436395e-05
1.3704333558841524e-05
1.33581337123004819e-05
7.24024203587506387e-07
1.25147466220835968e-05
1.26880378823687061e-05
5.88339950825001002e-07
1.13764949970238158e-05
1.20932613809753805e-05
4.7838060381271688e-07
1.02837453985849729e-05
1.15643797666127168e-05
3.90208980153448863e-07
9.2316830906107094e-06
1.10990478617554677e-05
3.18817411292100447e-07
8.2165972456841107e-06
1.06907246723967982e-05
2.60699425782833862e-07
7.23332149704016313e-06
1.03332119674992331e-05
2.1402519763242623e-07
6.27531535199507755e-06
1.00219687107357194e-05
1.76840156633213109e-07
5.33812196881155819e-06
9.75598388952974516e-06
1.47149201426744494e-07
4.41916852267784228e-06
9.5338885097835089e-06
1.23595858446418661e-07
3.51531775619822823e-06
9.3520351457122915e-06
1.05333674280511389e-07
2.62346933043746698e-06
9.20804304732617519e-06
9.18008981172106754e-08
1.74163078200592737e-06
9.10199563197298779e-06
8.25862795723375308e-08
8.67794267258208078e-07
9.03381918780926126e-06
7.71660124600787515e-08
8.99089541743690845e-06
7.47446284149691163e-08
1.47491469422425743e-05
1.54570028266739751e-05
8.75461426353883553e-07
1.35331744063249269e-05
1.46153408618205788e-05
7.11937003190449947e-07
1.23623271543697547e-05
1.38912957230953015e-05
5.78681970539807629e-07
1.12430559817962426e-05
1.32392418431908692e-05
4.7102479073871173e-07
1.0166290432079796e-05
1.26627341664637814e-05
3.84273243655522342e-07
9.1286067779581938e-06
1.21546258415156615e-05
3.1400446353609628e-07
8.12632024301015283e-06
1.17084207385634116e-05
2.56969066682477902e-07
7.15469155734533878e-06
1.13182369306715009e-05
2.11052555858283058e-07
6.20807337167671493e-06
1.09797564881289405e-05
1.74314086450546489e-07
5.28192885906899333e-06
1.06906323270256903e-05
1.44952173938851562e-07
4.37311506206532689e-06
1.04484138720839606e-05
1.21665218861194645e-07
3.47880674094998042e-06
1.02499321312937702e-05
1.03632520028047569e-07
2.59651647539232595e-06
1.00932465624499036e-05
9.03334894671769384e-08
1.72421124297592623e-06
9.97798160063678854e-06
8.13265840040253361e-08
8.59511572291697325e-07
9.90356740082803129e-06
7.60191685718583211e-08
9.8559497380785883e-06
7.35723522522495732e-08
1.45445583595787453e-05
1.67522093180691319e-05
8.58558557428121302e-07
1.3345400042601335e-05
1.58540814870710625e-05
6.98275128304048126e-07
1.21978555117507818e-05
1.50716449505511716e-05
5.68127285242376563e-07
1.10972351786796217e-05
1.43663639332929164e-05
4.62884718154151038e-07
1.00378610292250736e-05
1.3743232164454596e-05
3.77814820885016109e-07
9.01588275084995759e-06
1.31939724700488735e-05
3.08845354847987551e-07
8.02777801847962067e-06
1.27116958814565529e-05
2.52913035329925743e-07
7.06920523323076887e-06
1.22904200059033265e-05
2.07807800958094471e-07
6.13502640112379649e-06
1.19254375948579495e-05
1.7159668538708513e-07
5.22070028777884566e-06
1.16134093416809556e-05
1.42589558896641331e-07
4.32291026350124467e-06
1.13514209638542414e-05
1.19568480368141188e-07
3.43913071229577189e-06
1.11367997812754998e-05
1.01782003568216266e-07
2.56726224035968555e-06
1.09679253498984707e-05
8.87452906379782788e-08
1.7052242211731927e-06
1.08440006225309404e-05
7.99749913419542619e-08
8.50356274419715131e-07
1.07638662523814515e-05
7.48038123979007471e-08
1.07120128042628262e-05
7.2363839195306657e-08
1.43181920810192039e-05
1.80232377154326011e-05
8.39778567600558386e-07
1.31409021402555985e-05
1.70720325814733929e-05
6.83691404817126504e-07
1.20185804255010133e-05
1.62268128218311435e-05
5.56841093026849141e-07
1.09392769110478347e-05
1.54718802298806477e-05
4.54131127872953812e-07
9.89883812471560796e-06
1.48044996270009698e-05
3.70918637621466612e-07
8.89393760610909353e-06
1.42160582092781305e-05
3.03381631516454776e-07
7.92132502995122046e-06
1.36994885125302821e-05
2.48599142473285271e-07
6.97699758475166889e-06
1.32484822194063084e-05
2.04342498364070428e-07
6.0561846023734352e-06
1.28577505171194663e-05
1.68700837226416976e-07
5.15447689498187867e-06
1.25233068507298689e-05
1.40078331902877805e-07
4.26862878191282644e-06
1.22421693828029961e-05
1.17354689711362612e-07
3.39637342171715425e-06
1.20121180423805166e-05
9.98504731222422127e-08
2.53581351744967046e-06
1.18316594604274726e-05
8.7096196837957847e-08
1.68477866560581083e-06
1.16995106597639807e-05
7.85582680960089616e-08
8.40421614352714243e-07
1.16139192855594037e-05
7.35082917517888393e-08
1.15580716915616771e-05
7.10768181594192207e-08
1.78182634049360476e-05
2.31965592651828735e-05
1.50975295030772171e-06
1.65113585842561755e-05
2.17132137161957147e-05
1.23241636048967747e-06
1.52667709453474843e-05
2.04276210906950921e-05
1.00588479632104485e-06
1.40706497766160875e-05
1.92687168776178275e-05
8.20208190729134599e-07
1.29241519154934772e-05
1.82591020686812615e-05
6.68222569552700578e-07
1.18274126643583735e-05
1.73561135598505264e-05
5.44856304876052464e-07
1.07703512161634048e-05
1.6554896316037739e-05
4.44798051651945096e-07
9.75006421288569008e-06
1.58455804418180687e-05
3.63592643504284447e-07
8.76345715350196098e-06
1.52199753514783119e-05
2.97608239998528437e-07
7.80747474039743681e-06
1.4670752681243433e-05
2.44034382882493091e-07
6.87838801991977436e-06
1.41911876182069983e-05
2.00662812247374154e-07
5.97177591511302143e-06
1.37754958985128401e-05
1.65631256866505267e-07
5.08349997691647486e-06
1.34193767381479867e-05
1.37442690352794102e-07
4.21051443612416235e-06
1.31199715622823581e-05
1.15072268497046933e-07
3.35073479147346776e-06
1.28753520286952815e-05
9.78930294138597565e-08
2.50231447141715169e-06
1.26839230891768622e-05
8.54268698097751865e-08
1.6629648867717278e-06
1.25438614920539653e-05
7.70901940398655922e-08
8.29768070186825913e-07
1.2452891477465875e-05
7.21216514012446225e-08
1.23932075313305331e-05
6.96848332498054957e-08
1.74492223141619036e-05
2.46006932061051226e-05
1.46630460220774988e-06
1.61801626278155019e-05
2.30519282611486486e-05
1.19910985955173605e-06
1.4976308933043652e-05
2.16895314448072238e-05
9.79421266264092119e-07
1.38121106139192769e-05
2.04818352216212511e-05
7.99145008853433237e-07
1.26969788866133912e-05
1.94142754817604273e-05
6.51954104799108269e-07
1.16247843823342879e-05
1.84605122598740722e-05
5.32213067759038857e-07
1.05910249343221435e-05
1.76145420251376208e-05
4.34930662316911511e-07
9.59205803627637569e-06
1.68655450309987795e-05
3.55857677453779481e-07
8.62487158634597934e-06
1.62047216099746173e-05
2.91522265667116336e-07
7.68654306273069355e-06
1.56243536272430598e-05
2.39211280721088486e-07
6.77359635765765761e-06
1.51173476547182386e-05
1.96766381484558362e-07
5.88200308961490384e-06
1.46776336626746459e-05
1.6240018973999466e-07
5.0080037086557556e-06
1.43008396555024302e-05
1.3471703529815239e-07
4.14879478576831142e-06
1.39842454293267271e-05
1.12769571544392736e-07
3.30237761790436982e-06
1.37259768080567801e-05
9.59532681394685723e-08
2.46684820025514641e-06
1.35241248589687025e-05
8.37624443477028974e-08
1.63980484759883097e-06
1.33763387916276547e-05
7.55759241023066281e-08
8.18190256895617776e-07
1.32801417734912909e-05
7.06372116262567976e-08
1.32163512542926115e-05
6.81761098420344597e-08
1.96596615424945982e-05
2.12325873880175109e-06
2.98934419552335115e-05
1.83245842978551992e-05
1.73723337625564981e-06
2.78280606297456582e-05
1.70551037952126001e-05
1.42218448205851976e-06
2.5952148766149886e-05
1.58353305335121105e-05
1.16389088255164858e-06
2.43402301166943399e-05
1.46689445061937992e-05
9.51490915601885614e-07
2.29131655095035217e-05
1.35395893510470501e-05
7.77415837752933009e-07
2.16590281964559568e-05
1.24556001227580217e-05
6.35087815430451575e-07
2.05373910740051225e-05
1.14108316235735439e-05
5.19067577908851159e-07
1.95370463385816055e-05
1.04018748157931982e-05
4.24651637610045824e-07
1.86493515133010553e-05
9.42546760001296892e-06
3.4779056894620035e-07
1.78631483692634405e-05
8.47880088465792465e-06
2.85164627433818561e-07
1.71690483666788441e-05
7.55910410292803728e-06
2.34159358159264509e-07
1.65589584384672695e-05
6.66317668114177935e-06
1.92689822477131042e-07
1.6025641143459436e-05
5.78743942408394237e-06
1.5906030123512637e-07
1.55631051035322989e-05
4.92856653029764319e-06
1.31967881460141595e-07
1.5167079321852879e-05
4.08397944335136564e-06
1.10514325266728671e-07
1.48347374932789728e-05
3.25167814448213756e-06
9.40869040355337566e-08
1.45638153174777848e-05
2.42965244192059222e-06
8.21425518684542473e-08
1.43518777485658323e-05
1.61546176038031294e-06
7.40450685865391817e-08
1.41962284385942391e-05
8.06312286922495648e-07
6.9084113735695626e-08
1.40944489518367825e-05
6.65855129341108076e-08
1.40269360650983763e-05
1.35662829669797718e-05
1.33108193253840932e-05
6.53867482049179463e-07
1.24033413320796218e-05
1.26521434178702059e-05
5.31824990213063253e-07
1.12873627328099927e-05
1.20658984108648883e-05
4.32017086635685301e-07
1.02117120080441926e-05
1.15421885876599136e-05
3.5166284497272862e-07
9.17312420483083304e-06
1.10809667834253602e-05
2.87199416879049075e-07
8.16960125543271916e-06
1.06767003641115871e-05
2.35376269068778625e-07
7.19588690024189516e-06
1.03220312591549329e-05
1.93607918528476683e-07
6.24541926496826195e-06
1.00124467756907401e-05
1.59812238522781104e-07
5.31439605252894833e-06
9.74768779685260564e-06
1.32711671023460988e-07
4.40076195518760469e-06
9.52658946859321688e-06
1.11345501034078385e-07
3.50166179603637009e-06
9.34559909731350928e-06
9.47438903856351114e-08
2.61414472882820524e-06
9.20250233434158783e-06
8.23358811226137584e-08
1.73610976117953025e-06
9.09726584765614434e-06
7.39631568089222172e-08
8.6537139535334181e-07
9.02953653113377209e-06
6.92548919349060994e-08
8.9865053543776886e-06
6.72746201738247231e-08
1.45822298615355083e-05
1.539243334854149e-05
7.92299616691908714e-07
1.33981087117261372e-05
1.45650406442002046e-05
6.43103174512933091e-07
1.22533858757782818e-05
1.38524619864618599e-05
5.23441648426272643e-07
1.11553905778167854e-05
1.32091605546868823e-05
4.25095215735442995e-07
1.00954055265455162e-05
1.26386944001200091e-05
3.46396074216803249e-07
9.07115203929213981e-06
1.2135305340302384e-05
2.83025910222749337e-07
8.08010241089614815e-06
1.16931906004689063e-05
2.31961991641919383e-07
7.1177210879312403e-06
1.13060394157869302e-05
1.90741754989001555e-07
6.17852139631156023e-06
1.09695248270551767e-05
1.57420923496184465e-07
5.25848157856977494e-06
1.06817148894876088e-05
1.30671261115599099e-07
4.35494646558054103e-06
1.04404787415076913e-05
1.0950947042035024e-07
3.46539023948823927e-06
1.02429200042632231e-05
9.31253893808416865e-08
2.58740419719074915e-06
1.00872403488723677e-05
8.1020257289412364e-08
1.71880676119805306e-06
9.97289635379829939e-06
7.2890308681287504e-08
8.5706300269986093e-07
9.89901641933335909e-06
6.82251235569343669e-08
9.85142324774345561e-06
6.61222515305259562e-08
1.43814045675269538e-05
1.66827188300568836e-05
7.76346207456324911e-07
1.32135699076186409e-05
1.58003584944769032e-05
6.3236134189496498e-07
1.20913403478877173e-05
1.50297909804868715e-05
5.13509668143734778e-07
1.10112559205626672e-05
1.43336664997790139e-05
4.1770374702282836e-07
9.96827799607115853e-06
1.37172765304577994e-05
3.40658070051536576e-07
8.95953923149654008e-06
1.31732962168123118e-05
2.78488657135708548e-07
7.98238399510920423e-06
1.26953331250382859e-05
2.28288857900949768e-07
7.03277492970496332e-06
1.2277270139416434e-05
1.87702694122291942e-07
6.10584075806848589e-06
1.19144437548892168e-05
1.54868819026477999e-07
5.19752813931942746e-06
1.16038621182998996e-05
1.28459970180872395e-07
4.30499398898113867e-06
1.13429901507125763e-05
1.07534148479341857e-07
3.42598031278212698e-06
1.11294432713299656e-05
9.14031426299053291e-08
2.55838955019623332e-06
1.0961662173518243e-05
7.96029043124826542e-08
1.69995847576196846e-06
1.08386450040298012e-05
7.17189339409318471e-08
8.47914718244047333e-07
1.07589837737760475e-05
6.7135158433741686e-08
1.07071599367605442e-05
6.49820710308814699e-08
1.41593063035969895e-05
1.79491587035960823e-05
7.5986043825616434e-07
1.30124042536501624e-05
1.70147481945891801e-05
6.17844572020795341e-07
1.19145805763128941e-05
1.61820360861715522e-05
5.02903480648048716e-07
1.0855148479571454e-05
1.54367201919440614e-05
4.09734084975217244e-07
9.83068843601710217e-06
1.47766834956894682e-05
3.34479878707817678e-07
8.83875245529323432e-06
1.41940091123341985e-05
2.73611978162906778e-07
7.87679322864569503e-06
1.36820021817279857e-05
2.24358486253703142e-07
6.94115163626105813e-06
1.32343729798470967e-05
1.84465402308796985e-07
6.02739709861793208e-06
1.28459785599692786e-05
1.52146824114619111e-07
5.13161298496391397e-06
1.25131974892809409e-05
1.26112568449369964e-07
4.25100251859175719e-06
1.22334162976097127e-05
1.05480402920115457e-07
3.38351075008815846e-06
1.20046219589198816e-05
8.96429409229730358e-08
2.52717686022470349e-06
1.18252871103339437e-05
7.8141339900224006e-08
1.67963668997542025e-06
1.16939276923819721e-05
7.04765490194586578e-08
8.37989440825633065e-07
1.16086553996903768e-05
6.59665656594824436e-08
1.15527837540236939e-05
6.3786715790632093e-08
1.75296837220274922e-05
2.30325183750774065e-05
1.36487690753496381e-06
1.62771169848690882e-05
2.15868550225489846e-05
1.11362285196302946e-06
1.50764750371711519e-05
2.0327819449609304e-05
9.08918663967880338e-07
1.39163550345440023e-05
1.91912200513539524e-05
7.40421101380648804e-07
1.27990347877287929e-05
1.81986097551077448e-05
6.03247515762278398e-07
1.17260197127504098e-05
1.73086314788816205e-05
4.91757996569480249e-07
1.06882099888523394e-05
1.65174913765943765e-05
4.01229976501115299e-07
9.68346202823771939e-06
1.58160039015423606e-05
3.27871424249081117e-07
8.70948691180902135e-06
1.51965475251890887e-05
2.68397581680180805e-07
7.76384131596367123e-06
1.46521123351983737e-05
2.20165973873738515e-07
6.84316792372903679e-06
1.41761048434200119e-05
1.81025917047100153e-07
5.94343723816135587e-06
1.37629881529466275e-05
1.49273460556202667e-07
5.06100151993209837e-06
1.34088345412101083e-05
1.23675022332053301e-07
4.19322218540876057e-06
1.31110804181912732e-05
1.03403559859540599e-07
3.33816651313168571e-06
1.286788294408934e-05
8.78944443972925209e-08
2.49388336355165335e-06
1.2677536370218857e-05
7.66728470303955145e-08
1.6579073178002814e-06
1.25380658472308721e-05
6.91794512187323571e-08
8.27331854194683998e-07
1.244721117810564e-05
6.47088637156640068e-08
1.2387433423797634e-05
6.2502542086970094e-08
1.71706349952099104e-05
2.44314325630723333e-05
1.32503514116804172e-06
1.59539206838059421e-05
2.29209145165768336e-05
1.0830667977741087e-06
1.47921318867302136e-05
2.15864915860979285e-05
8.84462031878903385e-07
1.36623607086602393e-05
2.04010838701130945e-05
7.21124991279736748e-07
1.25753381957034476e-05
1.93508336614731224e-05
5.88226085224811339e-07
1.15261044682492413e-05
1.84105511037630019e-05
4.80116721346672219e-07
1.05109820858210942e-05
1.75750731498891478e-05
3.92227395836177941e-07
9.52709074632578318e-06
1.68342783369513113e-05
3.20841982409407071e-07
8.57216515107953572e-06
1.61798977123164558e-05
2.62840439372854792e-07
7.64384688501653929e-06
1.56045278814324189e-05
2.15703517530354333e-07
6.73905664162279213e-06
1.51013023232604201e-05
1.77385317943938183e-07
5.85418517607902924e-06
1.46644706333527448e-05
1.46270153973940609e-07
4.98594138237055866e-06
1.4290003727268457e-05
1.21185666055413415e-07
4.13187549431440807e-06
1.39753636062822284e-05
1.01342679273252071e-07
3.29009178204680588e-06
1.37186371494191469e-05
8.61862587540919108e-08
2.4585721400121598e-06
1.35177634021674436e-05
7.52143579736434343e-08
1.63478042830967455e-06
1.33703298405783824e-05
6.78347665191739523e-08
8.15732944310678078e-07
1.32740420067058957e-05
6.33610640991716246e-08
1.32101017911644025e-05
6.11208872260948738e-08
1.92591136520074013e-05
1.91982417419239342e-06
2.96067062602842889e-05
1.79968695368917275e-05
1.57045655307825471e-06
2.76013830931282807e-05
1.67872779734613812e-05
1.28477323285329068e-06
2.57792233637885874e-05
1.56170400405866365e-05
1.05131285295074009e-06
2.42050433744997989e-05
1.44908735672112796e-05
8.59141075136576847e-07
2.28067343214196108e-05
1.33944836555726171e-05
7.01437196341291391e-07
2.15751011177101889e-05
1.23375439009024632e-05
5.72856100436694874e-07
2.04712155850530148e-05
1.13149331577953493e-05
4.68116267456441012e-07
1.94847652532710178e-05
1.03239904020641842e-05
3.82862325060186447e-07
1.86079432079684448e-05
9.36218071715304716e-06
3.13484887690201162e-07
1.78302817177843786e-05
8.42738977881078583e-06
2.57006443709340712e-07
1.71428820129157741e-05
7.51738629012402536e-06
2.11025231181299716e-07
1.6538003706039473e-05
6.62938439966950189e-06
1.73599004545155652e-07
1.60087403531788382e-05
5.76022575488228261e-06
1.43199312641592257e-07
1.55494408275829667e-05
4.90701083106841887e-06
1.18707502591710059e-07
1.51560776680128736e-05
4.06745920251417572e-06
9.93502219800826266e-08
1.4825879026975132e-05
3.2396461493572572e-06
8.45568987451511044e-08
1.4556485801924461e-05
2.4214704425627066e-06
7.37963181467083663e-08
1.43453712536739847e-05
1.61041835472866004e-06
6.64730194563808939e-08
1.41899172812805066e-05
8.03820319240872294e-07
6.19580730471648904e-08
1.4088005025718751e-05
5.9681446917653651e-08
1.40204253086150064e-05
1.46123208744497965e-05
1.40125542568306805e-05
6.91304180668470327e-07
1.34389154201539921e-05
1.32663639916585775e-05
5.58892845675129352e-07
1.23018977603223132e-05
1.26210424237910731e-05