/*--------------------------------*- C++ -*----------------------------------*\
| =========                 |                                                 |
| \\      /  F ield         | OpenFOAM: The Open Source CFD Toolbox           |
|  \\    /   O peration     | Version:  2206                                  |
|   \\  /    A nd           | Website:  www.openfoam.com                      |
|    \\/     M anipulation  |                                                 |
\*---------------------------------------------------------------------------*/
FoamFile
{
    version     2.0;
    format      ascii;
    arch        "LSB;label=32;scalar=64";
    class       volScalarField;
    location    "0.0299999999999999989";
    object      rAU;
}
// * * * * * * * * * * * * * * * * * * * * * * * * * * * * * * * * * * * * * //

dimensions      [-1 3 1 0 0 0 0];

internalField   nonuniform List<scalar> 
7340
(
0.0267496023759445402
0.0269441704163233577
0.0271260648382312536
0.0272962406556148778
0.0274560529757868627
0.027606614279476055
0.0277489306700542879
0.0278838585384434921
0.0280121319063438463
0.0281344000697100992
0.0282512467996544371
0.0283631950385113303
0.0284707098303944341
0.0285742048278449026
0.0286740507775837782
0.0287521424295798418
0.0266474883071927508
0.0268440595038644328
0.0270279325732473291
0.0271998493770030866
0.0273612674063189107
0.027513267193551405
0.0276568285525824985
0.0277927998731865196
0.027921905422137322
0.0280447833167261802
0.0281620085596916286
0.0282740976371648849
0.0283815092116352329
0.0284846488205615124
0.0285838773404992266
0.0286613591165725025
0.0265498698433699852
0.0267480591606611209
0.0269333911819330217
0.0271067028576028948
0.0272694482626183801
0.0274226378686981062
0.0275672244244477942
0.0277040409834049262
0.027833801444101601
0.0279571322750675304
0.0280745973789403927
0.0281867040887400777
0.0282939027169494366
0.0283965893595653288
0.028495113690076599
0.0285719035099352772
0.0264565929867318222
0.0266560212535106832
0.026842350492633827
0.0270168030870139159
0.0271806097821683627
0.0273347522751634965
0.0274801494130345811
0.0276176161878299298
0.027747855931901589
0.0278714842052561508
0.0279890524854515335
0.0281010561526159053
0.0282079347550078172
0.0283100737828434687
0.0284078107369435673
0.0284838267025641079
0.025675365771263399
0.0259229171534127133
0.0261535160753571042
0.0263676953181218379
0.0265678949356227719
0.0267549109387664637
0.0269301937795621803
0.0270947797453315389
0.0272496309014883704
0.0273956253286484243
0.027533553199846298
0.0276641024088107694
0.0277878762079558222
0.0279054130737739214
0.0280171950573253163
0.0281236490941979035
0.0282251484979446216
0.0283220178613783242
0.0283971747798282201
0.0255913280631116374
0.0258383221341882269
0.026068596670783855
0.0262831997951985981
0.026483675040229724
0.0266710968358520664
0.0268468701872053711
0.0270119626583740537
0.0271672823302408287
0.0273136654403776206
0.027451870820634907
0.0275825656976239932
0.0277063380017686066
0.0278237121243330478
0.0279351563712312845
0.0280410843663832128
0.0281418558061196297
0.0282377836906576134
0.0283120200449783199
0.0249981475301908965
0.0252807104444599424
0.0255435757350391326
0.0257904648201482088
0.0260205973314345668
0.0262356825297222693
0.0264365686049500802
0.0266246238474747605
0.0268010563716884857
0.0269668185959192931
0.0271227706294303872
0.0272697083995450847
0.0274083562378300075
0.027539356579577904
0.0276632806890319202
0.0277806411863101323
0.0278918965816830899
0.0279974502783302583
0.0280976482576300868
0.0281927643887103577
0.0282661522311363142
0.0269637620671495694
0.0271417564676860977
0.027308951699512498
0.027466307389401666
0.0276149030815433828
0.0277556261685787398
0.0278892633350961532
0.0280164886170537822
0.0281379020533214022
0.0282540486918078058
0.028365420895136665
0.028472458302782902
0.0285755529677470289
0.0286750576780767479
0.0287528512506536604
0.0266715018275607667
0.0268634113042166139
0.0270435084608843732
0.0272124335843260921
0.0273714553452361758
0.0275215090940291972
0.0276634922740396673
0.0277981834185488698
0.0279262481016642299
0.0280482767923970581
0.028164806941904881
0.0282763246124918474
0.0283832631681633502
0.028486006876988549
0.0285848990045880179
0.0286620879417282502
0.0265735554636360553
0.026767093728778623
0.0269488066000998054
0.0271191616900359547
0.0272795402960905112
0.0274308079572388799
0.0275738359654819389
0.0277093872574825581
0.0278381176737927949
0.0279606076442845235
0.0280773847549863134
0.0281889263068799863
0.0282956575051132829
0.0283979535954094475
0.0284961471065889663
0.0285726499312003272
0.0264798614151614854
0.0266747735015859071
0.0268575587186872904
0.027029113114531416
0.0271905839180866526
0.02734283254546966
0.0274866940882143411
0.0276229130776222583
0.0277521360971833032
0.0278749341202749155
0.027991823227320578
0.0281032692586909334
0.0282096869791062729
0.0283114414482057986
0.0284088535107940611
0.028484588543998695
0.0257183314672038837
0.0259578170857638936
0.026181815998102962
0.0263904914010701201
0.026586322579193071
0.0267698726178060079
0.0269423230245962354
0.027104612848076047
0.0272576040103446986
0.0274020892877170144
0.0275387894612284245
0.0276683375157545479
0.0277912936664714526
0.0279081617527678939
0.028019394742114602
0.0281253951986293708
0.0282265165189630844
0.0283230672552536901
0.0283979497838947187
0.0256333249663642966
0.0258723825787369119
0.0260962356029325084
0.0263054899599005666
0.0265017475460810198
0.0266857819411701579
0.0268587887780962313
0.0270216333012438109
0.0271751309203165994
0.0273200346019327987
0.0274570353686133528
0.0275867472082216188
0.0277097163311083791
0.0278264333314868773
0.0279373381151952413
0.0280428205435482893
0.0281432209813560659
0.0282388369734154279
0.0283128060362934988
0.0250594951632283347
0.0253310799236125747
0.0255844708318371181
0.025823620405041884
0.0260475604668721494
0.0262575186688991657
0.026454305676925801
0.0266390506572285954
0.0268127778555858898
0.0269763391241520482
0.0271305053290362072
0.0272759914232024517
0.0274134558116133388
0.0275434895312402332
0.0276666235401779627
0.0277833375220891965
0.0278940621617996334
0.0279991776141019846
0.0280990111125047209
0.0281938217138497406
0.0282669492345579178
0.026984297533774685
0.0271584074390945236
0.0273224122083280466
0.0274772009076067539
0.027623725616165145
0.0277627722656236531
0.0278950481093653418
0.0280211668925371624
0.0281416803840314582
0.0282570936501834111
0.0283678659344934019
0.0284744099462093808
0.028577095974268555
0.0286762590962933196
0.0287537619275702559
0.0266966896194549275
0.026883789416089654
0.0270600281146150881
0.0272257843240058667
0.0273822657306886583
0.0275302685999341754
0.0276705919139281845
0.0278039342372390259
0.0279309017854863957
0.0280520382257507285
0.028167841488494702
0.0282787645492378198
0.028385214384160775
0.0284875541454668452
0.028586109674936324
0.0286630127994276541
0.0265984201807740808
0.0267872777238236173
0.0269651248625355465
0.0271323652375630199
0.0272902367330813724
0.0274394811235079174
0.0275808705698344404
0.0277150898239746334
0.0278427360264304861
0.0279643437863194462
0.0280804021187535842
0.0281913558033519522
0.0282976040944774195
0.0283995016557766766
0.0284973640992204728
0.0285735866326168597
0.0265043377722712602
0.0266946080195789442
0.0268736285938498617
0.0270421311918455642
0.0272011380915809092
0.0273513957153462897
0.0274936438908868694
0.0276285515295848737
0.0277567070811402562
0.0278786358766632686
0.0279948163261385663
0.0281056827953368137
0.0282116246884617991
0.0283129868847618801
0.0284100738117573151
0.0284855347382723424
0.0257631185452499925
0.0259942023351876009
0.0262113735432861275
0.0264144642931931455
0.0266057689247996623
0.0267856494588268809
0.0269551201996160866
0.0271149965891411687
0.0272660353003732342
0.0274089373747087341
0.0275443506077632655
0.0276728508195004663
0.0277949530559736292
0.0279111243571385642
0.0280217873400397527
0.0281273200299900668
0.0282280561488434181
0.0283242882451464895
0.0283989031404899631
0.0256768603050221284
0.0259078464562321302
0.0261250847321536986
0.0263289059704157231
0.0265207557816314297
0.0267012241158984878
0.0268713284231767678
0.0270318188457349222
0.0271834096928331541
0.0273267659560454054
0.0274625078876912718
0.0275911938169458686
0.0277133260348420354
0.027829359570675706
0.027939705101709008
0.0280447287429274814
0.0281447517228901704
0.0282400560488977673
0.0283137643452871929
0.0251227795710529979
0.0253828502180672468
0.0256267623212745634
0.0258581401137400989
0.0260756902036589355
0.0262803834987293296
0.0264728960626238359
0.0266541693253472475
0.0268250687388456241
0.0269863344358734006
0.027138639429940499
0.0272826131151323766
0.0274188450746087123
0.0275478729086354422
0.0276701856816256656
0.0277862289108402501
0.0278964048323113514
0.0280010702885863799
0.0281005337827943159
0.0281950392981944672
0.0282679131919781161
0.0268250785191259736
0.0270051470417999907
0.0271754042389614307
0.0273361439602761817
0.0274883538522080438
0.0276327744464100813
0.0277701148588230182
0.0279010050589995513
0.0280259989086267085
0.0281455992878568845
0.0282602708552440983
0.0283704396952901144
0.0284764918105797002
0.0285787760134153905
0.0286776100215972718
0.0287548401681726774
0.0267221354741800643
0.0269044405487456409
0.0270768287990945378
0.0272394099855578185
0.0273933110484415043
0.0275392328570137068
0.0276778696453708027
0.0278098424260551889
0.0279356972134701641
0.0280559301996452029
0.0281709995165697266
0.0282813254034174934
0.0283872888390126407
0.0284892320144638674
0.0285874635722781698
0.0286640988433372289
0.0266235002584462137
0.02680772194736478
0.0269816831745291891
0.0271458122271178992
0.027301143656550491
0.0274483380987599751
0.0275880664597227404
0.0277209361044677832
0.0278474846988262803
0.027968200729306919
0.0280835345512804521
0.0281938987750993686
0.0282996671478889135
0.028401173968875093
0.02849871811071562
0.028574678061724517
0.0265290588411339137
0.0267147047863364913
0.0268899199139337255
0.0270553608841673683
0.0272118787413125514
0.0273601240375137209
0.0275007406777480062
0.0276343222334272942
0.0277613986489984484
0.0278824499648732856
0.0279979171461165709
0.0281082033002360392
0.0282136727918648848
0.0283146506136185694
0.0284114250460321752
0.0284866292493407489
0.0258080949326178616
0.0260307979518443061
0.026241134012783815
0.0264387072347946443
0.026625449150203654
0.026801625190462898
0.0269681004647006131
0.0271255456309016305
0.0272746154164136868
0.0274159196594871354
0.0275500334939401334
0.0276774757471553341
0.0277987169570253177
0.02791418778062036
0.0280242807062601289
0.0281293494532509902
0.0282297083241916553
0.0283256341796003959
0.0283999984883811993
0.0257205112259763155
0.0259434376257879316
0.0261540731079940129
0.0263525386146116168
0.0265399622652979957
0.0267168399866484045
0.0268840291409985985
0.0270421527139350741
0.0271918237942620593
0.0273336202387790203
0.0274680923879390554
0.0275957435771537613
0.0277170328605379108
0.027832380067712794
0.0279421668531381132
0.0280467358168558847
0.0281463893167485414
0.0282413941666122062
0.028314858413522586
0.0251858798603468194
0.0254345789034356104
0.0256690774636360239
0.0258927341830095525
0.0261039225233885355
0.0263034194033927721
0.0264916521664368063
0.0266694404737471726
0.0268375033657834057
0.0269964641307064088
0.02714689689721176
0.0272893469572397067
0.0274243366878354315
0.0275523511637537979
0.0276738379012656521
0.0277892083381295896
0.0278988364836105715
0.0280030562502103786
0.0281021577547946461
0.028196370232085561
0.0282690073883480053
0.0268504568175909411
0.0270257851883239017
0.0271920884707156987
0.0273496659049522091
0.0274993299682376041
0.0276416941640320324
0.0277773665897226782
0.0279069021056325868
0.0280307965129471433
0.0281495061210020568
0.0282634567427039671
0.0283730424160614225
0.0284786234740212058
0.0285805283307928419
0.028679058501231907
0.0287560445825436953
0.0267471745566461548
0.0269247565193148596
0.0270932596926096933
0.0272527545235090631
0.0274041522713219798
0.0275480483720631913
0.0276850417656304415
0.0278156786378473582
0.0279404480375509481
0.028059801334282708
0.028174158594520847
0.0282839084932148856
0.0283894069253419583
0.0284909761071626237
0.0285889087161777002
0.0286653045028911167
0.0266480593004746955
0.0268276179258631516
0.0269978355033892933
0.0271589473029293267
0.0273118249067510512
0.0274570295038693672
0.027595142896209103
0.0277266988586631832
0.0278521791159276819
0.0279720286741497667
0.0280866609298489195
0.0281964575650390757
0.0283017677902382345
0.0284029064908833048
0.0285001569660156204
0.0285758822912439009
0.0265530681322895534
0.0267342029171046477
0.0269057701458501088
0.0270682611038637819
0.027222376651749508
0.0273686721199776287
0.0275077054815556013
0.0276399989590936854
0.0277660273051757306
0.0278862277202946464
0.0280010053762531144
0.0281107334738272575
0.0282157525230002891
0.0283163686792160495
0.0284128551370029549
0.0284878299796191212
0.0258514770982045464
0.0260661561029442643
0.0262699428633797298
0.026462154943088817
0.0266445151026292112
0.0268171434478217501
0.0269807379630127922
0.0271358382820334407
0.0272830030953244672
0.0274227592539067998
0.0275556132714920195
0.0276820300321020361
0.0278024378185524612
0.0279172325522633116
0.0280267780190411563
0.0281314049115428608
0.0282314092158560473
0.0283270531456577476
0.0284011935941997015
0.025762512810930522
0.0259777538870421612
0.0261820714412216715
0.0263753641610727195
0.0265585532748369019
0.0267319897081014501
0.0268963774932518898
0.027052220102104254
0.0272000360189093814
0.0273403231108899844
0.0274735659777493313
0.0276002158442050019
0.0277206905676099305
0.0278353763580531585
0.027944627288942106
0.0280487637519802567
0.0281480703466121945
0.0282427997157250615
0.0283160459796955831
0.0252462728838559192
0.0254841692478849045
0.0257097136927940569
0.0259260301321439894
0.0261311382789178696
0.026325648035322901
0.0265097884511986959
0.0266842376803073655
0.0268495774025920009
0.0270063191367086557
0.0271549445718932449
0.0272959216873805699
0.0274297101696835549
0.0275567453916949479
0.027677435115468399
0.0277921581429017434
0.0279012616779154878
0.0280050580075233597
0.0281038199525800413
0.0281977630205103268
0.0282701893688453547
0.0268742392495064479
0.0270451089857400746
0.0272077896738709447
0.0273624244091526039
0.0275097050616905821
0.0276501401477457845
0.0277842475403702396
0.027912511515058764
0.028035374629374863
0.0281532504786212064
0.0282665288118470782
0.028375573978991625
0.0284807228299285807
0.0285822853592120688
0.0286805486439738883
0.0287573289964754321
0.026770552365363548
0.026943777412350569
0.0271087040361198441
0.0272653157220403876
0.0274143742526574662
0.0275563756144927736
0.0276918310633289776
0.027821216938612052
0.0279449706452931795
0.0280635025037099563
0.0281771972395578156
0.0282864143865594504
0.0283914869383161336
0.0284927191136937381
0.0285903894034041095
0.0286665836096698032
0.0266709785833326614
0.0268462545072347264
0.0270129870374903117
0.0271712824746778298
0.0273218719715128955
0.0274652203907815445
0.0276018260172127064
0.0277321546636219024
0.0278566374646165953
0.0279756797348512873
0.0280896606756366393
0.0281989334702727537
0.0283038248942073349
0.0284046322961825706
0.0285016251821676031
0.0285771530558634052
0.0265754493745248219
0.0267524189380662185
0.0269206003469216575
0.0270803469835942286
0.0272322288681553434
0.0273767099124726764
0.0275142686638280426
0.0276453616687992142
0.0277704136426165371
0.0278898228088107596
0.0280039614837982453
0.0281131754728961743
0.0282177835163310922
0.0283180747040547853
0.0284143088280647618
0.0284890906246116453
0.0258915435442722171
0.0260988809872989176
0.0262966667490309551
0.0264839525035765223
0.0266622760814590638
0.0268316246502241541
0.0269925506271045494
0.0271454768708024805
0.0272908731097523394
0.0274291906560471949
0.0275608732309354613
0.0276863367601727327
0.0278059711029260033
0.0279201404521818297
0.0280291824266385367
0.0281334067835191069
0.0282330929496353855
0.0283284901235577487
0.0284024420876288625
0.0258012025922471321
0.0260094351574882872
0.0262079750724799471
0.0263965226524434174
0.0265758257411851627
0.0267460924586539021
0.0269078947047797917
0.0270616280840323097
0.0272077253959548855
0.0273466126484629771
0.0274787148343063059
0.0276044359314623414
0.0277241563120476792
0.0278382315259601172
0.0279469905578546007
0.0280507336594792087
0.0281497294213153247
0.028244217904733495
0.0283172805489218145
0.0253015682981728926
0.0255296485423104798
0.025747040749758407
0.0259566996359427149
0.0261562529745870444
0.0263462017586674063
0.0265265962392437875
0.0266979796985710345
0.0268608142686298512
0.0270155092776727668
0.0271624637690990149
0.027302077263559283
0.0274347532705557576
0.0275608821877269365
0.0276808355264737543
0.0277949622997342161
0.0279035853276659966
0.0280069972882100449
0.0281054554310555468
0.0281991631072350153
0.0282714125908238544
0.0268955579241240104
0.0270624576352592877
0.0272219109452032509
0.0273739250696309402
0.0275190753540784476
0.0276577837630341619
0.027790489562247906
0.0279176146235279692
0.0280395550160004656
0.0281566868100558802
0.028269367849155784
0.0283779363798668041
0.0284827088148948242
0.0285839793776587886
0.0286820230312200171
0.0287586440302994052
0.0267914374989521135
0.0269607880291986048
0.027122562108139632
0.0272766103648556385
0.027423582676232957
0.0275638924375294185
0.0276979741915891024
0.0278262425470864085
0.0279490899516713943
0.0280668905693547584
0.0281799979968196425
0.0282887463400581067
0.0283934487146343048
0.0284943939398057677
0.0285918484660036172
0.0286678863335941801
0.0266913749323193679
0.0268628865025108063
0.0270265504278924956
0.0271823465456730758
0.027330900273426488
0.0274725957696339042
0.0276078581470219075
0.0277370933449348454
0.0278606884481879015
0.0279790138425148223
0.028092418668411407
0.0282012313632361913
0.0283057593441373712
0.0284062850195901627
0.0285030663007279847
0.0285784412113910154
0.0265953054329838498
0.0267686338998063787
0.026933837883042596
0.0270911561401920298
0.0272410576417524836
0.0273839281589285492
0.0275201772144197006
0.0276502037544672993
0.0277743890415634853
0.0278930972714033637
0.028006672054904324
0.0281154354889076065
0.0282196875918915291
0.0283197029402256356
0.0284157301282812087
0.0284903624738033837
0.0259266798048485222
0.0261276778858076236
0.0263202500527491903
0.0265032406924015883
0.0266780416918125651
0.0268445096835483177
0.027003083014553779
0.0271540890667654154
0.0272979208666308537
0.0274349647596244597
0.0275656098011819381
0.0276902295381897603
0.0278091804809053773
0.02792279930018211
0.0280314010730118197
0.0281352776125296938
0.028234694286706833
0.0283298894623601021
0.0284036955927041111
0.0258350249446377828
0.0260372462765681018
0.0262307651493778361
0.0264151933856324218
0.0265911098365503376
0.0267585999142157908
0.0269181318891944174
0.0270700091774986711
0.027214591338656495
0.0273522430831676031
0.0274833380535974003
0.0276082394738025143
0.0277272952754822263
0.0278408345192367457
0.0279491646420839401
0.0280525686843921263
0.0281513016847883303
0.0282455932526066919
0.0283185137945970271
0.0253495544050002901
0.0255691504973595551
0.0257795694918787066
0.0259835400945986165
0.0261782756013469523
0.0263642736817564505
0.0265414132675368918
0.0267101230129808478
0.0268707678724561042
0.0270236688911275613
0.0271691552761634467
0.02730756915241472
0.0274392661932232815
0.0275645981297681954
0.0276839051147879933
0.0277975104383325136
0.0279057159709370332
0.0280087976455497649
0.0281069995829465527
0.0282005150307317771
0.0282726277849059786
0.0268842961009059384
0.0270475381787503993
0.0272039630721647128
0.0273534671225570993
0.0274965338329928623
0.0276335122483282493
0.0277647754270410191
0.0278906915181863883
0.0280116168817893044
0.0281278955968277088
0.0282398583434852295
0.0283478213395600039
0.0284520839154169328
0.0285529272582119506
0.0286506165214847064
0.0287269896696730372
0.0267799245184753461
0.0269457000246560475
0.0271045256798597145
0.0272561209820700867
0.0274010537456612462
0.0275396676863832075
0.0276723329254840965
0.0277994121403951112
0.0279212599382632452
0.0280382195332584301
0.0281506181159112724
0.0282587685904969362
0.0283629675866749024
0.0284634912114007654
0.0285605958736808961
0.0286363888423531894
0.0266795670549043913
0.02684759848721089
0.0270083986605471268
0.0271618048160805481
0.027308367957306387
0.0274484038112792796
0.0275822774958386224
0.0277103455002103115
0.0278329581157961657
0.0279504557778546131
0.02806316220318247
0.0281713853816024963
0.0282754167644487797
0.0283755264462210721
0.0284719627292832796
0.0285470965057325853
0.0265831440050609651
0.026753113743866113
0.0269155432470216498
0.0270705404115042236
0.027218504290987957
0.0273597541947969043
0.0274946448028474157
0.0276235281353506175
0.0277467495566755262
0.0278646444139350018
0.0279775321508183468
0.0280857152121992935
0.028189478108570705
0.0282890835050844808
0.0283847708147197467
0.0284591653604841198
0.0259282065648050869
0.0261236365400561409
0.02631160308872477
0.0264906921750071682
0.0266622643265710425
0.0268260468006455595
0.0269823751807965126
0.0271314991662066178
0.0272737520936964482
0.0274094695288722469
0.0275389966945032288
0.02766267244079346
0.0277808253760372277
0.0278937691781050712
0.0280018002077308918
0.02810519536389499
0.0282042085121857987
0.0282990692823467255
0.0283726414191182857
0.0258354646631519282
0.0260324175181365948
0.0262215016701989219
0.0264022243863898734
0.0265750498305508745
0.0267399502692577395
0.0268973132563498987
0.0270473663841483587
0.0271904136346243254
0.0273267726488849103
0.0274567763942932808
0.0275807549418393798
0.0276990293158308511
0.0278119065641401451
0.0279196762665245186
0.0280226072223731908
0.0281209434624615263
0.0282149063087849677
0.0282875969390627181
0.0253625158239805353
0.0255747009131024119
0.0257788733516887622
0.0259778643811362578
0.0261683636697059296
0.026350827829712771
0.0265250003039304363
0.026691215189502307
0.0268497628138986005
0.0270008944605468967
0.0271448871928002232
0.0272820398203655543
0.0274126705135352144
0.0275370995836072344
0.0276556411944528895
0.0277685972547877594
0.0278762523098506458
0.0279788685861928552
0.0280766797103398531
0.0281698711945330832
0.0282417583951209313
0.0268838504387820358
0.0270749830677536156
0.0272525262015630744
0.0274180155176245062
0.0275730899701957105
0.0277189785836563958
0.027856743145046714
0.0279872926094930086
0.0281114162144571224
0.0282298083925895324
0.0283430836453692145
0.0284517883932113962
0.0285564136022205886
0.0286574059297603281
0.028736972824107046
0.0265741859930308591
0.026782657889031905
0.02697618156696268
0.0271555376188367566
0.0273228017361436051
0.0274794396778949915
0.0276266732322570131
0.0277655579667060726
0.0278969961878015177
0.028021772106067773
0.0281405748095507648
0.0282540129599907
0.0283626263622842219
0.0284668979784447676
0.0285672657919321116
0.0286461956305775478
0.0264756137336965638
0.0266860159307142318
0.0268811556287436096
0.0270619863841640371
0.027230682541334799
0.0273886018293504896
0.0275369359091413267
0.0276767246255912001
0.0278088607567726111
0.0279341211674104112
0.0280531871199232105
0.0281666587671044813
0.0282750670649300311
0.0283788852054609464
0.0284785399905843235
0.0285567482355195759
0.026381765130657743
0.0265936029365913019
0.0267897555833948448
0.0269718318032443685
0.0271416717797108367
0.0273006001123261392
0.0274497932732732895
0.0275902729612273155
0.0277229198724047859
0.0278485001550965935
0.0279676842540658548
0.0280810616585089982
0.0281891528851853992
0.0282924202423476337
0.0283912778902825833
0.0284686816784789909
0.0255402478618393901
0.0258123049924830518
0.0260627621978079017
0.0262925980230511724
0.0265053315526854079
0.0267021511994408288
0.0268851288916750267
0.0270557933849279106
0.0272154548224009946
0.0273652665525815873
0.0275062273909787887
0.0276392014484999754
0.0277649402391403621
0.0278841005424228204
0.0279972590655253248
0.0281049241731197892
0.028207546216086548
0.0283055270397051736
0.0283820411441192931
0.0254564753074655904
0.0257279828587445025
0.0259779482978058363
0.0262082320707665815
0.0264212218263459447
0.026618398348307766
0.0268018672822724589
0.0269730378610885148
0.0271331645474577818
0.0272833622153610365
0.0274246016202250274
0.0275577252779511742
0.0276834661967198248
0.0278024648014778622
0.0279152830928347563
0.0280224159938309118
0.0281243014752544512
0.0282213341583931569
0.028296894077471324
0.0247937072062325917
0.0251160140638891187
0.025409671782524304
0.0256808105757068451
0.0259303744134938043
0.0261611287042456467
0.0263744089247730483
0.0265721429624329354
0.0267562313087599951
0.0269280386251039422
0.0270887686223273902
0.0272394957295778589
0.0273811607653579731
0.0275145822091660865
0.0276404727205267209
0.0277594555609699672
0.0278720783006376968
0.0279788233455146446
0.028080117088792985
0.0281763383233952051
0.0282510669570665389
0.0268906359348617327
0.0270833441229536773
0.0272622770593762276
0.0274290028184649842
0.0275851436244494118
0.0277319502922515095
0.0278705095646086948
0.0280017517463057065
0.028126481978337229
0.028245405124430592
0.0283591415028167024
0.0284682366431963027
0.0285731729514846627
0.0286744119720983362
0.0287538965792039532
0.0265791983585663069
0.0267894201078902709
0.0269844937054029566
0.0271652362300973775
0.0273337071025088162
0.0274913801120200627
0.0276394995372784107
0.0277791538081392335
0.0279112670562325638
0.0280366366795632913
0.0281559597644587094
0.0282698502186702755
0.0283788473101002046
0.0284834253070905367
0.028584034966594514
0.0286628884985749947
0.0264806922908849239
0.0266927686359669965
0.0268894514114453795
0.027071649693311356
0.0272415115231168549
0.0274004294816673627
0.0275496196009781744
0.0276901553802285094
0.0278229502115674536
0.0279487922717411852
0.0280683691395728005
0.0281822851834125608
0.0282910703408250294
0.0283951890074081344
0.0284950799301428269
0.0285732176818000103
0.0263869364633995372
0.0266003956302417292
0.0267980775799105779
0.0269814583193061439
0.0271524238446567909
0.02731231939622061
0.0274623452290758165
0.0276035534057495896
0.0277368437112261723
0.0278629932441154353
0.0279826785453470145
0.0280964924036503985
0.0282049531526155708
0.0283085138399503458
0.0284076002041024865
0.028484938537164637
0.025539238715170446
0.0258137644615159256
0.0260663367780213789
0.0262978982142520745
0.0265122373172941746
0.0267105137215355656
0.0268947343809299785
0.027066485749574716
0.0272270846600426233
0.0273777074055391312
0.0275193789387232143
0.0276529813422442296
0.027779276831867955
0.0278989282067169005
0.0280125148504430793
0.0281205417147015538
0.0282234486954041006
0.0283216476433651165
0.0283981006611281478
0.0254560571518485483
0.0257298059203302197
0.0259817322849207298
0.0262136857874197791
0.0264282535440972521
0.0266267978372011146
0.0268114517072514727
0.0269836668723590842
0.0271446996719787725
0.0272956853008205248
0.0274376171616379817
0.0275713542077642287
0.0276976395312847207
0.0278171194228758675
0.0279303581252555617
0.0280378459041592878
0.0281400078069685769
0.0282372429489930188
0.0283127558731811578
0.0247893135453829822
0.0251139239891200079
0.0254098643932641963
0.0256830125262369861
0.0259343564818532643
0.0261667496520599126
0.0263815300172777559
0.0265805515496111977
0.0267657839892941098
0.0269386067225596999
0.027100224324631602
0.0272517281390567551
0.0273940763894228063
0.0275281009014238659
0.0276545249050425303
0.0277739805725688398
0.0278870204362272334
0.027994122288230474
0.0280956948452318472
0.0281920938501714728
0.0282667119999162816
0.0266783039577254757
0.0268869901355422818
0.0270804232547435658
0.0272597557762076642
0.0274268704736072809
0.0275833258566801597
0.0277303984365427844
0.0278691786811247448
0.0280005970989414682
0.0281254620145893683
0.028244482212761407
0.0283582811931482569
0.0284674090235462821
0.0285723550130725784
0.0286735638167404973
0.0287529784405331189
0.0265753432003336051
0.0267862311748336863
0.0269818078287214005
0.0271629379350264953
0.0273317300229456439
0.0274896822720609134
0.0276380451490555769
0.0277779032241065871
0.0279101798257544061
0.0280356742401051337
0.0281550865310627278
0.02826903349125795
0.0283780587555891688
0.0284826432790211727
0.0285832209562473759
0.0286620046806866785
0.0264773116937595289
0.026690000314618878
0.0268869822654304036
0.0270695300317315632
0.027239685289628647
0.0273988555071281899
0.0275482657217787467
0.0276889865144057182
0.0278219306083444216
0.0279478869283505196
0.0280675448164261279
0.0281815110794667242
0.0282903199369293305
0.0283944420644880562
0.028494299144370596
0.0285723672229796638
0.0263840498970242879
0.0265979079394890114
0.0267958349741187797
0.0269795167752342017
0.0271507463443716526
0.027310868275001874
0.027461090693590158
0.0276024647055031526
0.027735889481387617
0.0278621421303922139
0.0279819001540508767
0.0280957582315452294
0.0282042386118853822
0.0283078000129832162
0.0284068507764071408
0.0284841188952895188
0.025535716603588398
0.0258105275188807957
0.0260633801990236384
0.0262954027558750005
0.0265099944562613432
0.0267084882817974316
0.0268929649179585686
0.0270649472878482754
0.0272257470352849917
0.0273765447740831683
0.0275183647005406359
0.0276520877557397023
0.0277784756746587876
0.0278981918165636285
0.0280118169668153311
0.0281198594603632168
0.0282227641941050905
0.028320925159725896
0.0283973058972286085
0.0254531517952847688
0.0257270861649347635
0.0259792466561975695
0.02621152082997278
0.0264262770188509535
0.0266250124437896994
0.0268098790794275114
0.0269822910404875355
0.0271434990831057772
0.0272946388956170072
0.0274367022304399071
0.0275705461937268033
0.027696913059635335
0.0278164494437623221
0.02792972066618786
0.0280372199007515033
0.0281393764600464565
0.0282365706611076399
0.0283120001321540901