/*--------------------------------*- C++ -*----------------------------------*\
| =========                 |                                                 |
| \\      /  F ield         | OpenFOAM: The Open Source CFD Toolbox           |
|  \\    /   O peration     | Version:  2206                                  |
|   \\  /    A nd           | Website:  www.openfoam.com                      |
|    \\/     M anipulation  |                                                 |
\*---------------------------------------------------------------------------*/
FoamFile
{
    version     2.0;
    format      ascii;
    arch        "LSB;label=32;scalar=64";
    class       volVectorField;
    location    "0.0299999999999999989";
    object      U;
}
// * * * * * * * * * * * * * * * * * * * * * * * * * * * * * * * * * * * * * //

dimensions      [0 1 -1 0 0 0 0];

internalField   nonuniform List<vector> 
7340
(
(0.0504867112952813724 0.0216343573171709352 0.0030336360619634818)
(0.0462879806023444584 0.0204127996770781285 0.00247449210857376284)
(0.0423178589179203438 0.0193779088065731547 0.00201024696150817325)
(0.0385414039923349799 0.0184591322143614553 0.0016354577738409272)
(0.0349138649505207205 0.0176461654921963619 0.00133470650721667508)
(0.0314353125567883238 0.016928933835616073 0.00108980910874431061)
(0.0280881871878237571 0.0162982047553437738 0.000889408991054378272)
(0.0248553596753079038 0.0157476821360531469 0.000729086853621946124)
(0.0217200620031504782 0.0152718901322629955 0.000603330331965778229)
(0.0186653169853047175 0.0148665744412060635 0.000503717178820827275)
(0.0156774181799777396 0.0145275114084634054 0.000424193072855716044)
(0.012745092603783632 0.0142495806593314327 0.000362503066346902116)
(0.00985786403432056813 0.0140291874856858165 0.000317150138705393889)
(0.00700744483802695928 0.0138654458552605851 0.000285752960671000226)
(0.00418780314044990901 0.0137582913559362845 0.000265937520234285716)
(0.0013925423353145542 0.0136903029777217765 0.000256003217203986278)
(0.0498146012104462785 0.0237463651410729122 0.00298981482300717926)
(0.0456959226747706837 0.0224295997397719396 0.00243776832571441712)
(0.04180566891091482 0.0213084411710598685 0.00197647987779278958)
(0.0380826920640662814 0.0203006965370233945 0.00161041402856898063)
(0.0345088527975029036 0.0194113294132931581 0.00131407547642544862)
(0.0310784135178605314 0.0186274837785505437 0.00107306121259092332)
(0.027775077320629428 0.0179379679515502405 0.000876810796090213068)
(0.0245828157281529659 0.0173355068630782309 0.000719393717503601701)
(0.0214855439467478634 0.0168139396225039407 0.00059490699499901436)
(0.0184669330807931513 0.016368922309002068 0.000496272527404857276)
(0.0155129187598804352 0.0159963593934985271 0.000418060502628974295)
(0.01261222692555947 0.015691034431409491 0.000357450460692894303)
(0.00975566579019786391 0.0154495821636269591 0.00031255148266430289)
(0.00693578215311548528 0.0152714989521916551 0.000281252633846055026)
(0.00414612001404992409 0.0151563049376022673 0.000261524061855764175)
(0.00137906768891533828 0.015083187850104875 0.000251632399343247333)
(0.0490900017269943756 0.0258763123451968696 0.00293783829470869659)
(0.0450631175167974241 0.0244619137425186629 0.00238512780655165003)
(0.041240734891003987 0.0232319939819527373 0.0019416488809308513)
(0.0375795229061458569 0.0221328786734673252 0.00158311701954845377)
(0.0340651113622834761 0.021163459984517019 0.0012923310629505743)
(0.0306881124157763682 0.0203097864666914457 0.0010557637460359454)
(0.0274332353482552027 0.0195599700672407749 0.000863477737162834003)
(0.0242857077722164992 0.0189055254117812543 0.000708892019175793469)
(0.0212302196423132632 0.0183396168277259325 0.00058599703270733564)
(0.0182508933446423639 0.0178567373897486094 0.00048852538284983372)
(0.0153336507354289615 0.0174518345946277735 0.000411494408911076319)
(0.0124676125688090236 0.0171200535347071289 0.000351847392184547283)
(0.00964466174788650502 0.0168583986903070963 0.000307503696487045649)
(0.00685793916853295361 0.0166658078818724027 0.000276509981873005568)
(0.00410061418529528588 0.0165410791059953065 0.000257015355565067005)
(0.00136424477400419399 0.0164609755326406287 0.000247271568687416519)
(0.0482987309726710806 0.027962747509957437 0.00287066561433244266)
(0.0443634989355614143 0.0264406436564935086 0.00233675642786521521)
(0.0406260468943708541 0.0251127678097040237 0.00190396665829321745)
(0.0370337648175438766 0.0239285526555028105 0.00155355597162678931)
(0.0335844929504272235 0.0228839604255347412 0.00126900845268326247)
(0.0302658433597792348 0.0219641374211331473 0.00103738583729979009)
(0.0270638778722063905 0.0211569795558384163 0.000849155295133573814)
(0.0239650077513361773 0.0204530722276494749 0.000697499470946666509)
(0.0209546653989748435 0.0198445530829568784 0.000576458519612443421)
(0.0180174960037761817 0.0193248367461328271 0.00048031331934790853)
(0.01513983691756377 0.0188884428216563281 0.00040443660524466774)
(0.0123114803664172434 0.0185310540426205615 0.000345725268594897694)
(0.0095251364780322683 0.018250013668685304 0.000302032124462096863)
(0.00677423632766779166 0.0180437042602458429 0.000271492071364541631)
(0.00405157492844853816 0.0179100586907301462 0.000252333497006524408)
(0.00134820812047372002 0.0178234987522588872 0.000242788859436748053)
(0.0602501842779098254 0.036284141495023417 0.00515742226291168466)
(0.0557452016589582711 0.0338503361909707409 0.0042109739902955242)
(0.0514855980873250782 0.0317898192773487173 0.00343817673514245368)
(0.0474478206093593563 0.0299428416688444672 0.00280307237008999011)
(0.0436233818188244624 0.0283639908592000743 0.00228533526572952247)
(0.03996792703552772 0.026944294020836132 0.00186392409123966631)
(0.0364500828222823342 0.0256830865919634756 0.00152220885192019752)
(0.0330701272287954734 0.0245688082010145636 0.00124436517110887868)
(0.0298139774892801912 0.0235871965010003917 0.00101804291131490313)
(0.0266688609557717352 0.0227261199226303431 0.000834015819898800779)
(0.0236220996270369125 0.0219753570380956595 0.000685420732064695925)
(0.0206598473699493509 0.0213260240365097213 0.000566424971728454155)
(0.0177675017982567296 0.0207708130315415289 0.000471725654287949978)
(0.0149321931737698994 0.0203042655492614264 0.00039701054601976824)
(0.0121444945846397936 0.0199226183318194569 0.000339239154701474852)
(0.00939764797623600552 0.0196233356528645979 0.000296261115788024)
(0.00668507959073536429 0.0194041164894635555 0.000266252920820445581)
(0.00399927295987577598 0.0192619763972464546 0.000247470244164082413)
(0.00133102243056776814 0.01916914597102716 0.000238135368599807709)
(0.0589306588250960994 0.0384824656725805403 0.00500783416853289604)
(0.0545891636635132543 0.0359610253502750735 0.00409703231957980404)
(0.0504807568494966413 0.0338038167366684489 0.00334789361825813198)
(0.0465653215911328508 0.0319097446109661564 0.00273399719092530828)
(0.042842776982138793 0.0302364776616082624 0.00223111116571745411)
(0.0392672093701326233 0.0287299615981632915 0.00182181607606941138)
(0.0358306587419222403 0.0273959388040188705 0.0014892451018501179)
(0.0325238784753281232 0.026216429727319801 0.00121849672734953163)
(0.0293341142542724517 0.0251769734208227014 0.000997769570075731325)
(0.0262494271963180578 0.0242650806721976531 0.000818116285693524527)
(0.023257884237781766 0.0234697535311911842 0.000672732412391198876)
(0.0203464456238019974 0.0227813228843231873 0.000555952351167126918)
(0.0175015570159985472 0.022192166149152287 0.000462820698081262681)
(0.0147114031499328037 0.021697097628407408 0.000389317672514532588)
(0.0119672808045159923 0.0212927377119335286 0.000332517814138990546)
(0.00926264485012542882 0.020976352673270169 0.000290293672724254673)
(0.00659069816473950403 0.0207448392927938076 0.000260837966130663139)
(0.00394376852432570726 0.0205945128005572894 0.000242420368246009234)
(0.00131139150290279544 0.020496970328774889 0.00023327636347106147)
(0.0666380249299040883 0.0470410275665637742 0.00725333731604937103)
(0.0619407497208771876 0.0436327333452447008 0.00593009120125214013)
(0.0575352004663106237 0.0405940205327841655 0.0048583828230151626)
(0.0533920330092612014 0.0380436240902189624 0.00398162478617449488)
(0.0494292887124563873 0.0357831111177127834 0.00325632525991269165)
(0.0456314048741751632 0.0338049075153954715 0.00266162836059513023)
(0.0420069174848874197 0.0320294626789393092 0.00217494553727479688)
(0.0385271756409939145 0.0304517932621827976 0.00177815264658925552)
(0.0351771828052218141 0.0290548215357662593 0.00145508608969577942)
(0.0319479965888705419 0.0278191922528681773 0.00119170192211781449)
(0.0288284468162486804 0.0267294346898769089 0.00097675888421943388)
(0.0258075684023515231 0.0257725702241280163 0.000801606251744056003)
(0.0228741818460182385 0.0249370922608346084 0.000659565152512140156)
(0.0200162314206812839 0.0242130989558678213 0.000545158614992687866)
(0.0172214580480780297 0.0235931797785338924 0.000453734452241836444)
(0.0144791964308687432 0.0230725321540118933 0.000381537158904959005)
(0.0117813000762618629 0.0226478314695028986 0.0003257631662687805)
(0.00912117938168090225 0.0223158149761894242 0.000284307946787468548)
(0.00649179923012593429 0.0220726060088892624 0.000255373166632108539)
(0.00388589102469174587 0.0219142130610828802 0.000237263626780355842)
(0.00129158608651847332 0.0218056651474249005 0.000228276238784185398)
(0.0457825640452705629 0.0203780089968319048 0.00238634144289334498)
(0.0418988671787986905 0.01932161362384947 0.00193935745259496807)
(0.0382037258208214187 0.0184178838503780938 0.00157682891868365384)
(0.0346418459454893787 0.0176120833571010368 0.0012867735741225214)
(0.0312132362712021841 0.0169014376894715719 0.0010511432449421057)
(0.0279081109548684932 0.0162770301527910347 0.000858658958993915953)
(0.0247124408940604806 0.0157310696954707889 0.000704248001772987339)
(0.021607617758394565 0.0152576786370071452 0.000582204995710142821)
(0.0185762152825534807 0.0148539449452391864 0.000485317238961490436)
(0.0156071452764805062 0.0145164147033567149 0.000408353250227108157)
(0.0126913046915166049 0.0142398016244903534 0.000348527845008440504)
(0.00981870367283570189 0.0140204979127301985 0.000304039921518176851)
(0.00698109825761606545 0.0138578604825844633 0.000273286908861443379)
(0.00417278845856526408 0.0137517917782569807 0.000254569889951280592)
(0.00138771013930464476 0.0136844579912737251 0.00024584884576782487)
(0.0492024470836003591 0.0236808478430539093 0.00288356461762964266)
(0.0451906440914304486 0.0223516318391918621 0.00235452583763670143)
(0.0413876104595553157 0.0212455297283470658 0.00190733429819075367)
(0.0377517488906357751 0.0202537799508387927 0.00155331085740834682)
(0.0342406616506368694 0.0193728536972457149 0.00126743663888609056)
(0.0308602911026615544 0.0185964347823901095 0.0010354782996488223)
(0.027598510134354149 0.0179144494909229159 0.000846765938397491414)
(0.0244419366491838604 0.0173174239550154818 0.000695002840784965208)
(0.0213740160850596807 0.0167984515643201347 0.000574247688925611172)
(0.0183785757473199744 0.0163549834102505141 0.000478201279038362496)
(0.0154434450873836247 0.0159840052214583195 0.000402067598915893209)
(0.0125591180012858371 0.0156800684419387965 0.000342983971638289025)
(0.00971710727311017076 0.0154397504063619809 0.000299159634019760697)
(0.00691007315113010764 0.0152628544078839516 0.000269040133613765464)
(0.00413164704417430268 0.0151488718826395911 0.000250830438554121304)
(0.00137444539141856614 0.0150764500880993507 0.000242277269590626405)
(0.0484819098232065621 0.0257637044481647468 0.00283462418395511893)
(0.0445618542194761783 0.0243574392817412361 0.00230214068783674702)
(0.0408389395869999533 0.0231639430716983202 0.00187292078710814248)
(0.0372551606785714098 0.0220795504158896663 0.00152657604737034156)
(0.0338019557854312841 0.021121006151795442 0.0012461892045501138)
(0.0304742293118514876 0.0202759091820438053 0.00101851182789670881)
(0.0272601737681745435 0.0195336758449359341 0.000833557199618280634)
(0.0241471902819851147 0.0188849026436937045 0.000684560027451302914)
(0.0211201312217198824 0.0183224347458478473 0.000565497979193581453)
(0.0181635785071841069 0.0178417543576656346 0.000470566875054014716)
(0.015265039438420825 0.0174385811111250101 0.000395314549824856613)
(0.0124152216359685926 0.0171082457851388231 0.000336999087229463389)
(0.00960676200249465165 0.0168479020404809221 0.000293914097072641692)
(0.00683286133248700838 0.0166566159713069165 0.000264494332292199608)
(0.00408659427106297223 0.0165330087876710621 0.000246798248534525321)
(0.00135977195830720579 0.0164534132373656619 0.000238401884919493134)
(0.0477081146311497672 0.0278292169645427169 0.00276675258906656368)
(0.0438811779958592357 0.0263448510719147058 0.00225438587186863656)
(0.0402336861564671217 0.0250396451653924837 0.00183602763440229291)
(0.0367165136411652382 0.0238711154881517881 0.0014978190294264095)
(0.0333268476104278399 0.0228384761314114372 0.00122348976284979041)
(0.0300564428011224627 0.0219280984268574418 0.00100052507096975865)
(0.0268944181385689374 0.0211288294554156132 0.000819448377248103705)
(0.0238290378924512145 0.0204308566561406078 0.000673340027109317531)
(0.0208462209712168348 0.0198261770687069468 0.000556168647577670204)
(0.0179313081860551192 0.0193089103993212448 0.000462479428586476599)
(0.0150721144069106625 0.0188743357770661951 0.000388167761139382775)
(0.0122598770867147176 0.0185185424638123972 0.000330697091786629968)
(0.00948797944551205141 0.0182390324609254598 0.000288434013448583728)
(0.00674980507293704984 0.0180341324054913259 0.000259740212737443658)
(0.00403795740893906404 0.0179015130189686851 0.000242515998632823765)
(0.00134385297805398999 0.0178153316856004273 0.000234248038497826913)
(0.059178228774467205 0.0360063165895881179 0.00497115342680391932)
(0.054874809364039219 0.0336461690274088496 0.00405878040987011669)
(0.0507790031686137233 0.031632075467840956 0.00331221316403940581)
(0.046872153851368295 0.0298159660262091036 0.00270415693742838111)
(0.0431517256352130785 0.0282623415999884338 0.00220338734732916305)
(0.0395859006847870259 0.0268663447636060468 0.00179676334492897324)
(0.0361404203406244656 0.0256218386176186932 0.00146710710267399218)
(0.0328184518983617238 0.024520472487692152 0.00119933960324130067)
(0.0296093679144281731 0.0235491112462758306 0.000981503985740244961)
(0.0265031626391814996 0.0226963243146845531 0.000804510348088916124)
(0.023488802066838399 0.0219517257923336657 0.000661418714562134061)
(0.0205531541700965381 0.0213064694713547761 0.000546272576669843161)
(0.0176825177673154837 0.0207539244011969159 0.000453950640040358226)
(0.0148654460584231214 0.0202894144145641213 0.000380704291200824785)
(0.0120937887256880282 0.0199096175522456773 0.00032420093904242652)
(0.00936130787628138006 0.0196120593419225088 0.000282825894603435388)
(0.00666128159121839522 0.0193942504610261982 0.00025482565065434098)
(0.00398599258456744984 0.0192529644279837292 0.000237978255750439507)
(0.00132675063195310532 0.0191603643357867275 0.00022978138845345964)
(0.0579012244962386763 0.0382090828644668992 0.00483029514992343399)
(0.0537484968658425363 0.0357458551878462039 0.00395081549575873603)
(0.0497927808399481336 0.0336350278409432227 0.00322685510823611651)
(0.0460046857295427214 0.0317713427792558206 0.00263446848406461657)
(0.0423857330006287281 0.030130131228056703 0.00214979219258764481)
(0.0388959556531694312 0.0286475757481929674 0.00175522408495325721)
(0.0355291197277894238 0.0273312809031317355 0.00143463496422648854)
(0.0322785614292188175 0.0261654965449063907 0.0011738577138194874)
(0.0291345503544714092 0.0251369376319735098 0.000961494351367536324)
(0.0260876106681709775 0.0242336735864404976 0.000788767632169930233)
(0.02312734052423095 0.0234447107025914925 0.000648809794239494026)
(0.0202416037554577419 0.022760601944185041 0.000535829342504511442)
(0.0174179034912861769 0.0221744321700036995 0.000445051955957389005)
(0.0146457711891406737 0.0216817527182981556 0.000373056138279780395)
(0.0119175794228069381 0.021279530471423079 0.000317652991922829817)
(0.00922713952519506851 0.020964967318121381 0.000277183629469622929)
(0.00656745816287060413 0.0207347261922382724 0.000249776111972487653)
(0.00393072991745103874 0.0205850016710457662 0.000233166594796061183)
(0.00130716380908711856 0.0204875407888699262 0.00022496793655457203)
(0.0651388819224612975 0.0465731909110099832 0.00699429281876510957)
(0.0607273012823789232 0.0432774763082285907 0.00572308537018992054)
(0.0565437703703110806 0.0403151104677712119 0.00468653164126932656)
(0.0525779988432165807 0.0378173515167227539 0.00383477584145212533)
(0.0487645712398456777 0.0356046107524172831 0.0031350210332384376)
(0.0450893405476665218 0.033664362047997165 0.0025626975713669395)
(0.041564494463289893 0.0319201820813096726 0.00209409514082551686)
(0.0381670279709750496 0.0303665808583710312 0.00171188958878683837)
(0.0348841034831009963 0.0289878321385252276 0.00140071842574777689)
(0.0317092920120464056 0.0277663927950736779 0.00114723270071090573)
(0.028634087089368189 0.0266878648436451281 0.000940572200904420791)
(0.025649722699162894 0.0257397576391753327 0.000772257777092888128)
(0.0227464928916190218 0.0249107734972827261 0.000635569029801363416)
(0.0199133985179590252 0.0241914451818942867 0.000524948038716355875)
(0.0171393275777285484 0.0235750311655413373 0.00043595703423812026)
(0.0144148466684628981 0.0230572389195523898 0.000365432252662084675)
(0.0117326791712778072 0.0226348682035241618 0.000311244341272489127)
(0.00908646495433161616 0.0223045250026298394 0.000271645422664378695)
(0.0064689952110278566 0.0220622325546988261 0.000244682770519423628)
(0.00387299014530638908 0.021904125248147905 0.000228157832702462692)
(0.00128736806337644265 0.0217955593525925896 0.000219902558818301999)
(0.0452902130719921164 0.0203046070116288252 0.00220514886539953424)
(0.0415012180550421231 0.0192666528703480111 0.00179124198183866728)
(0.037884046030702688 0.0183754843379738408 0.0014568498368170851)
(0.0343846549030280418 0.017578341755914044 0.00118733033615580925)
(0.0310046570407254453 0.0168744846759127584 0.000969933270267484037)
(0.0277394303955684901 0.016255975380690308 0.00079397438142177017)
(0.0245774895658693836 0.0157141930598153276 0.000652413029620922918)
(0.021500001570174395 0.0152434100670548571 0.00053879853739216511)
(0.0184905228489430223 0.0148414657788058599 0.00044789943519165813)
(0.0155398172783187561 0.0145052587075674214 0.000376005922468324711)
(0.0126400648544397563 0.0142298126819625764 0.000320207021502916613)
(0.00978198067283377916 0.0140118416912528906 0.000278689208347244392)
(0.00695738425280772316 0.013850619311017125 0.000250541549496618521)
(0.00416010594175642446 0.013745626161227124 0.000234330853400483108)
(0.00138383578997139899 0.0136786154926708328 0.000227282170646892894)
(0.0486078773092678273 0.0235799228515379336 0.00266869335810507877)
(0.0447089618593749516 0.0222737923850032625 0.00215991360077826379)
(0.0409987145377104928 0.0211859256419972448 0.00176236685561335471)
(0.0374381201128390143 0.0202079551761006372 0.00143382195757640126)
(0.033987618035561197 0.0193359450136807998 0.00116927706460930123)
(0.0306553158209930086 0.018566573954961002 0.000955457881891322173)
(0.0274328449811731614 0.0178911078247970777 0.000782470893051400037)
(0.0243089740936559238 0.0172987835359058491 0.000643017398506410989)
(0.0212676926202604102 0.0167827051940481163 0.000530891048674850198)
(0.0182938779520941015 0.0163412547061803255 0.000441089107281858776)
(0.015376944604805395 0.0159718441487177072 0.000369955147316650081)
(0.0125086469283750192 0.0156693283285602863 0.000314877015290975166)
(0.00968111159742336691 0.0154305286860148688 0.000274222644483726116)
(0.00688688681045984685 0.0152550126312238788 0.000246799076178614543)
(0.00411910994713285752 0.0151418069626118902 0.000230839675134650053)
(0.00137053069036119921 0.0150693170726339965 0.000223555227768473282)
(0.0479015996924532853 0.0256555826913438569 0.00260863098169135128)
(0.044091534997416984 0.024274481224206116 0.00212555077174056244)
(0.0404587035922822358 0.0230993929949452927 0.0017300234995333934)
(0.0369480368534661069 0.0220293418109429179 0.00140901261001342287)
(0.0335536728108793425 0.021081037452412462 0.00114974286776457876)
(0.0302731203574535222 0.0202439497243030522 0.000939922728165219247)
(0.0270976076056137494 0.0195084421041165842 0.000770089043918418441)
(0.0240164081779462128 0.0188646618205417886 0.000632954450918990215)
(0.0210152537719685319 0.0183054837209413075 0.000522455070553003989)
(0.0180799018911798892 0.017827002647849647 0.000433766668086420963)
(0.0151993812795481482 0.01742549957846911 0.000363434474552147622)
(0.0123655834223612791 0.0170967552931171052 0.000309154816133876804)
(0.00957157972342092579 0.0168380868946146484 0.000269408608343629438)
(0.00681028248158550235 0.0166482620048567058 0.000242757651718004264)
(0.00407429044814077573 0.0165254603452990242 0.000227146531946672376)
(0.00135586857457146949 0.016445908170197341 0.00021979413694766438)
(0.0471431553603633841 0.0277145568939299591 0.00255706684646852308)
(0.0434227377914664023 0.026255983635735284 0.00208099694227144392)
(0.0398626123792976753 0.0249703116554697985 0.00169534270846321872)
(0.0364163389913719771 0.0238168469577426899 0.00138226101315077916)
(0.0330838110268558278 0.022795507137803258 0.00112877683183184576)
(0.029859483449865807 0.0218939722851709956 0.000923331566869473996)
(0.0267350854279829256 0.0211017961867020001 0.000756862724691334792)
(0.0237005659162250609 0.0204090825169666416 0.000622205622149618197)
(0.0207429089404255577 0.0198079846446860205 0.000513449278174758642)
(0.0178487561660336073 0.0192931960001833276 0.000425979539957239289)
(0.0150074109909231583 0.0188605937091514686 0.000356594984708622918)
(0.0122111641990929679 0.0185066609359444689 0.000303238061245810289)
(0.00945363794036332972 0.0182289215096020571 0.000264423179406006936)
(0.00672780482413358732 0.0180253788525006689 0.000238496179459455151)
(0.00402586800809185547 0.0178933953023924855 0.000223197984659727897)
(0.00133996457346791434 0.0178072195614635206 0.000215817159681598846)
(0.0581586168730210337 0.0357461170528474148 0.00460258044947011238)
(0.0540469898116198028 0.0334491380381452055 0.0037548404519101887)
(0.0501059202595589559 0.031477436039393715 0.00306428975681486684)
(0.0463233748919648358 0.0296951614155110954 0.00249594624314242218)
(0.0427058093070473363 0.0281681097550697257 0.00203387541576756673)
(0.0392244037328199069 0.0267925243899542684 0.00165850738498845868)
(0.0358475970043217879 0.0255638104128399907 0.00135367876448934865)
(0.0325810754644055012 0.024474612223318877 0.00110639688842117142)
(0.029416835121548298 0.0235127952784503456 0.000905672774392040562)
(0.0263472125209079783 0.0226674849199992381 0.000742790018658714881)
(0.0233627636555457027 0.0219284221231646759 0.000610770523288395859)
(0.0204515531903878452 0.0212870810504252467 0.000503908303720262117)
(0.0176012611054316218 0.0207374254022011338 0.000417837982570196651)
(0.0148018579336045876 0.0202753117866561645 0.000349600829024882204)
(0.0120460811992939044 0.0198976523051247814 0.000297293033095901468)
(0.00932776827999043032 0.0196018556739999232 0.000259390091516858621)
(0.00663974764537097421 0.0193851494097283805 0.000234061369620939467)
(0.0039740325738504426 0.0192442103283289069 0.00021895761768782958)
(0.00132285548225586237 0.0191515170549777965 0.000211526922543752647)
(0.0569187679620271406 0.0379433764466879583 0.00446879448406874592)
(0.0529496548061015732 0.0355426438808259387 0.00365239119870160601)
(0.0491404529243117394 0.0334739721596522405 0.00298269782664779435)
(0.045472509385917334 0.0316449332226868552 0.00243243493063689939)
(0.0419527220555227925 0.0300309418254225205 0.00198426921875828914)
(0.0385444384019311484 0.028569572996631102 0.00161970370110972942)
(0.0352440138018946664 0.0272697583419578907 0.00132339577102000066)
(0.0320471752583182529 0.026116828553316266 0.00108265358250320544)
(0.0289466685627699921 0.0250983634230591626 0.000886933777881280562)
(0.0259351870555947356 0.0242029373126238304 0.000727845142624790093)
(0.0230038862744730878 0.0234198450461745554 0.000598645158401150566)
(0.0201419155762355279 0.0227400964585293096 0.000493884417229147272)
(0.017338168970907019 0.022157352910603386 0.000409457380817743394)
(0.0145834721776045527 0.0216675503568724039 0.000342591180275509093)
(0.0118709189501939785 0.0212676941082002094 0.000291434529571383194)
(0.00919430071099066638 0.0209547757644290705 0.000254375833030610139)
(0.00654622696575810591 0.0207252871448086323 0.000229472039498000317)
(0.00391878891365951987 0.0205755811264081642 0.000214412315957535234)
(0.0013032339739730591 0.0204779261528484288 0.00020688967793509118)
(0.0637183316574245068 0.0461237109621547639 0.00647705668259100902)
(0.0595688051029783019 0.0429268262611265869 0.00529744892549825503)
(0.0556000939994942683 0.0400483143513264972 0.004333623708336478)
(0.051807006385981659 0.037606958667576143 0.0035459670170254684)
(0.0481337484544430011 0.035438006284422098 0.00289809475153119051)
(0.0445742946250836519 0.0335330367170752208 0.00236669307273893121)
(0.0411447264831088996 0.0318165873060773027 0.00193288171777250594)
(0.0378257417167795484 0.0302846564081307931 0.00157943105189766613)
(0.034606927558923313 0.0289228972744103655 0.00129183185654336251)
(0.0314840703696875543 0.0277148369496640554 0.00105781987368551889)
(0.0284509854159303889 0.026646862821547837 0.000867284726115795054)
(0.0255009473009521273 0.0257069887530226721 0.000712159561538071545)
(0.0226257994910148176 0.0248843384662673466 0.000585973697505540246)
(0.0198158652905241969 0.0241699567055605816 0.000483558864401338194)
(0.017061360891964767 0.0235575652241066386 0.000401042651159818774)
(0.0143539893398623407 0.0230430628977894292 0.000335756500991311792)
(0.0116870592762953439 0.0226231490777104721 0.000285811754795007493)
(0.00905418146861736509 0.022294242275344052 0.000249491118719147428)
(0.00644788452540987888 0.022052383991253352 0.000224823071450795908)
(0.00386096128571151347 0.0218940946101505891 0.000209663169552186867)
(0.00128337997443757237 0.0217853510736499972 0.000202023244130970607)
(0.0486854722422238526 0.0213656545515952534 0.00240365859791557418)
(0.0448325720199592298 0.020208473859088024 0.00194008727342243103)
(0.041142064956685008 0.019219071018915717 0.00157688875310050408)
(0.0375938486275536193 0.0183362180723670998 0.00128136284813963369)
(0.0341508720631587687 0.0175485312588469049 0.00104233293648452077)
(0.0308170165138794139 0.016851119637445771 0.000850998520578081672)
(0.0275885075816118333 0.0162371916758728592 0.000698035184481542084)
(0.0244556948653612202 0.0156986457306123629 0.000574512019571255536)
(0.0214018726338864457 0.01523031406241049 0.000474102061776310204)
(0.0184124214721966897 0.0148300173415497841 0.000393688211803623958)
(0.0154786156298134924 0.014494783868160447 0.000330454505900883188)
(0.0125932699412947945 0.0142203907218666492 0.000281060937336571881)
(0.00974840509174446784 0.0140039547289203242 0.000243753786375731658)
(0.00693616499352937756 0.0138442562072778139 0.000218439357445034251)
(0.00414926964692174417 0.0137400976730423802 0.00020429174041645845)
(0.00138066558682869121 0.0136730750221654394 0.000198450629907680919)
(0.04805572098891088 0.0234562792439603068 0.00234896724319566151)
(0.0442712271629147475 0.0222068183778743634 0.00190119977425865796)
(0.0406521068057945772 0.0211340921305911804 0.00155155769746381008)
(0.0371526990858370432 0.0201663316878191515 0.00126088985663742209)
(0.0337582390681472194 0.0193037705091643474 0.00102690998692052306)
(0.0304706431552235479 0.0185409789297782401 0.000838888830389982344)
(0.0272840240867386966 0.0178701823151572389 0.000687888921375955456)
(0.0241888316777434942 0.0172812775308218945 0.000565862292224232318)
(0.0211709025486982796 0.016768013298830587 0.000466915955995429342)
(0.0182166814192639311 0.0163285747286680341 0.000387481594704853463)
(0.015316431577427252 0.0159604170420364205 0.000324714506399481086)
(0.0124626951149552946 0.0156592879670242636 0.000275993130551583689)
(0.00964841661678990208 0.0154223471525778266 0.000239792130161271637)
(0.00686613053213091119 0.015248341526286598 0.000215392712222003529)
(0.00410814672418164783 0.0151355097197000271 0.000201425337144416609)
(0.00136716355898080675 0.0150624575439637504 0.000195187518171630861)
(0.0473727089765565296 0.0255578359015654621 0.00229656277334891598)
(0.0436700323693309869 0.0242142911095018752 0.00187173081202586479)
(0.0401135408158243764 0.0230409178022020419 0.00152271903253589766)
(0.0366689175483281352 0.0219845329643396405 0.0012389386257277812)
(0.0333287803870438368 0.0210459459500512806 0.00101002525722770973)
(0.0300917323801963982 0.0202160662086798629 0.000825588522608091389)
(0.0269511839798883095 0.0194858204092910672 0.000676968357460056361)
(0.0238980701436699548 0.0188459262041784266 0.000556718880100224678)
(0.0209198027516618104 0.0182896973350177086 0.000459230658400129751)
(0.0180036424799520159 0.0178133103479271269 0.000380792020548644515)
(0.0151396630265394627 0.0174133514125037678 0.000318684779189993303)
(0.0123205342598383602 0.0170862428320950853 0.000270755773823256685)
(0.00953977348429601267 0.0168294261389463108 0.000235579073899792131)
(0.00679005538749695436 0.016641041338672783 0.000212004086744122747)
(0.0040633763779514805 0.0165187134109778845 0.000198289174707786905)
(0.00135241948668772451 0.0164389076492572651 0.000191877190657290241)
(0.0466279345715070181 0.0276240771444106331 0.00225113542044359663)
(0.04300701297997684 0.0261764376722609868 0.00183172633829526929)
(0.0395262510780838086 0.0249075757862186678 0.00149167686365649023)