/*--------------------------------*- C++ -*----------------------------------*\
| =========                 |                                                 |
| \\      /  F ield         | OpenFOAM: The Open Source CFD Toolbox           |
|  \\    /   O peration     | Version:  2206                                  |
|   \\  /    A nd           | Website:  www.openfoam.com                      |
|    \\/     M anipulation  |                                                 |
\*---------------------------------------------------------------------------*/
FoamFile
{
    version     2.0;
    format      ascii;
    arch        "LSB;label=32;scalar=64";
    class       volVectorField;
    location    "0.270000000000000018";
    object      faceTraction;
}
// * * * * * * * * * * * * * * * * * * * * * * * * * * * * * * * * * * * * * //

dimensions      [1 -1 -2 0 0 0 0];

internalField   uniform (0 0 0);

boundaryField
{
    inlet
    {
        type            calculated;
        value           nonuniform List<vector> 0();
    }
    outlet
    {
        type            calculated;
        value           nonuniform List<vector> 0();
    }
    top
    {
        type            calculated;
        value           uniform (0 0 0);
    }
    bottom
    {
        type            calculated;
        value           nonuniform List<vector> 0();
    }
    left
    {
        type            calculated;
        value           uniform (0 0 0);
    }
    symmetry
    {
        type            symmetryPlane;
    }
    interface
    {
        type            calculated;
        value           nonuniform List<vector> 
67
(
(0.0014284405448785262 0.0035666861899235295 -4.64975885341775186)
(-0.000134987533499033837 -4.81122334959446213e-05 -2.73198254429114007)
(-0.000151284166181502841 -3.17407423441971515e-05 -2.84558711935713715)
(-6.56869385197762659e-05 -1.70311009637531119e-05 -3.4235284585464214)
(-9.90456408743363448e-05 -3.46936267910439683e-05 -3.18644107389854714)
(-8.36502798945214601e-05 -2.1533441971492555e-05 -3.11890045801584037)
(-8.67411829141694085e-05 -3.76058155829066471e-05 -3.02887628192776281)
(-0.000106171862613470953 -9.52119157367189134e-06 -3.21140124191034504)
(-9.4858905737086642e-05 -5.33007042214484483e-06 -3.10872814686440169)
(-9.34322534948789601e-05 -8.49108147006833186e-07 -3.04978272655958893)
(-8.55733084285908833e-05 3.61770797679506264e-07 -2.99719864382602852)
(2.04904896053740426 1.67675583392145441e-05 -4.80178791285808439e-05)
(2.17052518359343338 2.06434865641983681e-05 -4.50524229465324398e-05)
(2.30083269285804803 2.70269688401278361e-05 -4.01766968963769059e-05)
(1.96013477828285754 2.28913544177254922e-05 -2.68971015591199261e-05)
(2.09891803984742076 2.72363719599921393e-05 -2.48626501241269642e-05)
(2.25661696283552438 3.41377118937019963e-05 -2.22250744334510458e-05)
(1.91636665977275622 2.68210819199796799e-05 -2.13550483323836933e-05)
(2.06367330839826391 3.09597755908788401e-05 -1.95832376369564134e-05)
(2.23271109925288957 3.81078085984307388e-05 -1.78069135483374708e-05)
(1.90288682741546 2.92413525000145327e-05 -1.3654764008613063e-05)
(2.05461469315124168 3.34225186581512779e-05 -1.26751437800893357e-05)
(2.22884780323040133 4.04672352764185976e-05 -1.17133497672957466e-05)
(1.88880067393592888 3.09836536837792433e-05 -1.03057089441021188e-05)
(2.04333282975505792 3.5229717105704737e-05 -9.56544285960754759e-06)
(2.22081136358212206 4.22246683657437121e-05 -8.82991770653885145e-06)
(1.88042551449449791 3.21100777709822701e-05 -6.7322299131329741e-06)
(2.03649046592965011 3.6394786517056017e-05 -6.26961815377725794e-06)
(2.21558411205632133 4.3277964634079638e-05 -5.81359029237535043e-06)
(1.87364880726963734 3.28513101358287557e-05 -3.9612583369097381e-06)
(2.03075637672306097 3.71676047674275277e-05 -3.68338532733082819e-06)
(2.21114303509598109 4.40429020424569202e-05 -3.40070289701319013e-06)
(1.87046385705370977 3.32257301348178887e-05 -1.29581550934385173e-06)
(2.02827506259495394 3.75470298200778627e-05 -1.20251622913745061e-06)
(2.2097653465727487 4.45421482891036676e-05 -1.10757430552795612e-06)
(0.00227254018859885916 -20.0166518176726989 -0.00510125027029265186)
(0.00381141001031156095 -26.3468011583608188 -0.00566778363225244487)
(0.0027936522687097994 -26.3894982134491904 -0.00437961738588909209)
(0.000203496798755805806 -27.2970755187928411 -0.00300402006490789507)
(0.00378340903017868133 -26.5638238795685453 -0.0020060442096635012)
(0.000518963607386703756 -28.6098084426291841 -0.00320083881812728739)
(-0.00215071815025427585 -29.5108088796490087 0.000640488681935181322)
(0.00382204548601237882 -26.5203894069563475 -0.000331774595242995043)
(-0.00010006467152654857 2.79191101721012913 -5.69277531159442322e-07)
(-9.92346751097610149e-05 2.90390847331376811 1.67533643184411448e-06)
(-0.000101671917860220049 2.99219988146654314 2.94478269861172029e-06)
(-0.000102861710471571416 3.06210587552417612 3.31720747396521022e-06)
(-0.000108445888266072766 3.12133684721090532 8.13029772246399438e-07)
(-9.7810068239522689e-05 2.97823296154193429 7.62346249550828721e-08)
(-9.82643344818427152e-05 2.9561542871174229 4.95694900874426989e-06)
(-0.000112134057807944691 3.15241091608472557 4.52187384659370324e-06)
(-4.74002545975354438e-05 2.82275174669097906 3.72274509340670408e-06)
(-4.66168635596863335e-05 2.88319259792869165 -3.40172462297072107e-06)
(-4.73763801877861011e-05 2.9564737031440429 -2.54014090315734556e-06)
(-4.86359568552386428e-05 3.02577831804127451 -1.86210827846385757e-06)
(-4.85133025306853393e-05 3.05155108068032455 -2.33248902502272929e-06)
(-4.89452208783973727e-05 3.01662396494860063 -1.44823256638798803e-06)
(-4.93024461215431869e-05 3.01760741604454585 9.25802329033569527e-08)
(-4.9928214119895778e-05 3.07914279575354843 6.88450134100198502e-07)
(-5.85308174594928075e-05 2.78555207152375184 -7.3663057988054294e-06)
(-5.83552117128284339e-05 2.86137745324596393 -6.11797681050724321e-06)
(-5.85275217263409801e-05 2.91573604553131061 -5.60745683416246092e-06)
(-6.01192716736211925e-05 2.96072051837496675 -3.83666981732405462e-06)
(-6.07279718574565069e-05 2.97640537252920501 -3.00207982180516367e-06)
(-6.0355690432687084e-05 2.979618630329818 -1.90734447244978201e-06)
(-6.06237158478080447e-05 2.98383006234577364 -8.88463910774014682e-07)
(-6.22772145735681152e-05 2.9946473760020238 -2.24536142959733068e-07)
)
;
    }
    procBoundary1to0
    {
        type            processor;
        value           uniform (0 0 0);
    }
    procBoundary1to2
    {
        type            processor;
        value           uniform (0 0 0);
    }
    procBoundary1to3
    {
        type            processor;
        value           uniform (0 0 0);
    }
}


// ************************************************************************* //
