/*--------------------------------*- C++ -*----------------------------------*\
| =========                 |                                                 |
| \\      /  F ield         | OpenFOAM: The Open Source CFD Toolbox           |
|  \\    /   O peration     | Version:  2206                                  |
|   \\  /    A nd           | Website:  www.openfoam.com                      |
|    \\/     M anipulation  |                                                 |
\*---------------------------------------------------------------------------*/
FoamFile
{
    version     2.0;
    format      ascii;
    arch        "LSB;label=32;scalar=64";
    class       volScalarField;
    location    "0.270000000000000018";
    object      p;
}
// * * * * * * * * * * * * * * * * * * * * * * * * * * * * * * * * * * * * * //

dimensions      [1 -1 -2 0 0 0 0];

internalField   nonuniform List<scalar> 
7248
(
15.9128473184183505
-0.188484464718840172
-0.67531110564632435
4.62378913974862371
-2.03096401575459362
-2.17637716431926931
-2.23152575015552213
-2.07707062111916718
-0.917663721502918861
-2.70696633193122782
-2.8288734155926587
-2.81795067645187203
-2.77356776045047937
-2.40801662246544979
-3.23501442578871412
-3.308860313845853
-3.28628711527698991
-3.30279142871050446
-3.29815131250899629
-3.64196993107784195
-3.69492141204542479
-3.69673967451773322
-3.6951819632432783
-3.81254915998726185
-4.071791862023594
-4.1155154289719329
-4.13129193857052801
-4.12450024199928578
-4.24871433276956267
-4.51648954607044928
-4.55871569267551724
-4.59360454590049105
-4.6301778326474583
-4.72149421137378145
-4.9611752507049518
-5.00490712100390844
-5.05773199660170913
-5.1249448522110681
-5.22460918877764602
-5.39422824547615942
-5.43929173059245574
-5.49676612631250094
-5.57086759171245394
-5.66205644356641624
-5.81250892697534915
-5.85581233604759355
-5.91174572128475795
-5.98217534713847598
-6.06721600946827966
-6.21624819930572947
-6.25473308875372247
-6.30441718236086146
-6.36741247333801841
-6.44648875498913299
-6.56584121172011415
-6.58338770245532157
-6.60700251300180419
-6.63811631478995334
-6.67846496999659056
-6.73020810633076838
-6.79644480934083006
-6.95929153994286853
-6.9712479536476808
-6.98756444319731429
-7.0093249801325479
-7.03787332777672248
-7.07499180750381829
-7.12335094169886496
-7.34814683248536848
-7.35353807265780191
-7.3614100384230241
-7.37245022749070866
-7.38754425142294391
-7.40789012532352409
-7.43517826978767093
-7.73512111114562462
-7.73347967530779368
-7.73233236407959623
-7.73187607557244316
-7.73239607538365181
-7.73435351291790685
-7.73855574424003301
25.2656158990969004
6.60959465309542793
0.285360682749002947
7.76582759404982426
-1.98467391032497176
-2.10452717080672436
-2.19458098786919775
-1.92008967220378768
1.20922512022792716
-2.67520242799992758
-2.80865877463285951
-2.83350944325711129
-2.78089829650205722
-2.2379178062322751
-3.21763165840764742
-3.32753595248247391
-3.3158960187420421
-3.31599530186977365
-3.20827811971030741
-3.64376081447962274
-3.71108774109389472
-3.6982884857400169
-3.72067730182851797
-3.81090685893515557
-4.0693392905464405
-4.11680843276906661
-4.1348248119634734
-4.10710817464822586
-4.2134916810084091
-4.51630560082176657
-4.55487334985534087
-4.58322723873845295
-4.60983794118118162
-4.68614251985565922
-4.96321770640688165
-5.00375603868868879
-5.05177893684910551
-5.11745977746736447
-5.22914127241627913
-5.39793466856644866
-5.44068903509757185
-5.4949432310622397
-5.56431379891623301
-5.64543024583321529
-5.81762365112629531
-5.85997396236199641
-5.91462912522643336
-5.98328701676031649
-6.06684355699819644
-6.22217839812589091
-6.26069809979870939
-6.31046522431895873
-6.37344145340202228
-6.45208372950667197
-6.61324305405422841
-6.64505811263161394
-6.68648024595859702
-6.73991137092553672
-6.80861905753267393
-6.99356085661975424
-7.01635136263561598
-7.04643422825114119
-7.08590373514122085
-7.13825387133342204
-7.36668169368576109
-7.3787625063380764
-7.3953951097527888
-7.41808723791678748
-7.44905459942816428
-7.7364841643146125
-7.73673530402440601
-7.73822715183603549
-7.74163248479854893
-7.74823944743746296
34.8521734675101555
18.3101263536266288
1.34919556069926472
8.90850997998063576
-1.96799507528029172
-2.04130213684498374
-2.12902004180753313
-1.671440079186155
3.91069044334483351
-2.65303802615252993
-2.78266697340461988
-2.85095690872614771
-2.83902522747437791
-2.49703392445661621
-3.19316343129372893
-3.30766149674427323
-3.32007614364211801
-3.31116298894053873
-3.07497458247484801
-3.6321207176305661
-3.70289791897452369
-3.67186270449088559
-3.72667036469438084
-3.84192912965316147
-4.06452197767337076
-4.11588313572949271
-4.14385780104141332
-4.13396999197202408
-4.22596658354613641
-4.51591854234717438
-4.55429774745896587
-4.58452455103723544
-4.61088576690617824
-4.69161284513052657
-4.96493829309126689
-5.00296564052627168
-5.04768478552056088
-5.10397064340730289
-5.20357466597405427
-5.40134257570611886
-5.4423819573766048
-5.49475302759437856
-5.56237427651150629
-5.64160121233482048
-5.82225807234724257
-5.86378846198041082
-5.91765716870990577
-5.98565426682512935
-6.06812612023866382
-6.22750550631874322
-6.26596398262848631
-6.31578868703222707
-6.37932684363841318
-6.45949586797401931
-6.61880679501227132
-6.65108802129552235
-6.69322457704992857
-6.74788688971022754
-6.81840639410061122
-6.99893587737157929
-7.02251089562720132
-7.05375619043230362
-7.09496340618160382
-7.14979729883990878
-7.37147836412602508
-7.38444300138673437
-7.40237812238482995
-7.42699894627527435
-7.46094674892513865
-7.74033433642156776
-7.74123833821051033
-7.74365739980195666
-7.74851837189334525
-7.7577686695928163
41.9369001682179601
22.9816959118822979
2.33638684905814387
11.4365808692723476
-1.95195834480113195
-2.05017315526257216
-2.15356020968394146
-1.53142359217622648
6.02425918937842653
-2.64029665898445742
-2.76666239432446392
-2.85137774362756335
-2.90048743778808937
-2.77520123029221821
-3.16839986454847633
-3.24968485378521876
-3.25235356304514633
-3.26214465628349659
-2.99747097922607253
-3.61355613715188717
-3.66555808532369909
-3.6301442431710651
-3.69274123951314337
-3.88351120694193819
-4.05791725276724602
-4.09986914211892817
-4.12702752383745874
-4.15650598884783484
-4.28266793607781793
-4.51444808149688548
-4.55151635843075031
-4.58978293038832508
-4.62235447462344506
-4.71662349456021257
-4.96612025342776686
-5.00308440406407495
-5.04937729087670828
-5.10465988640058033
-5.19903477685714499
-5.40461613565623455
-5.44483128878735112
-5.49723001637917275
-5.56788802183801579
-5.65251801609446325
-5.82649842496588644
-5.86741100060557663
-5.92112817605647912
-5.99021683227242185
-6.07091756654848069
-6.23218311367795419
-6.27053717879261008
-6.32049703322129375
-6.38418893271103904
-6.46213507719201541
-6.62360372661370267
-6.65614799275926483
-6.69873901356333423
-6.75406152656195857
-6.82531401822538442
-7.00355543367932398
-7.027651440297074
-7.05958539942108576
-7.10171445527069523
-7.15778318862609453
-7.37565434952106891
-7.38931499212307497
-7.4082428070883326
-7.4342141279246956
-7.47020610775828509
-7.74373979581916849
-7.74521855131809023
-7.74848522442777643
-7.75481644508693702
-7.76666503968487643
48.9830603359539509
33.736524311211042
2.65858542203530845
11.3644718654970802
-1.9960771257974097
-2.08911569780542994
-2.12076840805121725
-1.17169464924424993
8.10636624673338702
-2.62353349432279614
-2.72399745288495376
-2.77301193124583722
-2.79651337757411866
-2.59032662864444063
-3.13118712941440513
-3.18857966857678843
-3.16215189762801119
-3.1400022068023774
-2.7541787478921691
-3.58931733204294723
-3.62157202868051797
-3.58759372325335857
-3.60859607049859665
-3.81045660674705822
-4.04860711784077854
-4.07645669350386797
-4.10136603432744185
-4.15349579569013461
-4.27553860835730148
-4.51170806317306194
-4.54396062197656914
-4.59002618497628756
-4.62959374469320206
-4.72865842433806272
-4.96703272985088251
-5.00308450905155677
-5.05303080916967851
-5.11515267313006028
-5.21432291310871054
-5.40747775879132853
-5.44712430940249792
-5.5010908026177292
-5.57752279438918119
-5.65641606239933559
-5.83013035353217735
-5.87059654745899273
-5.92453861400161763
-5.99359471021105961
-6.06939617630219974
-6.23608610234706973
-6.27424954830686588
-6.3241123574815461
-6.38762510597645861
-6.46432105577039628
-6.62752446190101363
-6.66013406552606657
-6.70292945657043227
-6.75871414570882489
-6.82852332669259177
-7.00731920041406919
-7.03170230212035641
-7.0639507540474149
-7.1063257190271667
-7.16203689037316327
-7.37909267250180001
-7.39324681331584888
-7.41283385493433311
-7.43965440862371796
-7.47665788583096536
-7.74658429132420512
-7.74854365586353389
-7.75256176505276873
-7.76017458551960715
-7.77448699042553315
55.7869924633029655
33.535989352037177
2.95297446042324196
9.92560452212137534
-1.97008133117703887
-2.06921739825703144
-2.03114003548681366
-0.90432041338042346
8.6608115737794833
-2.59197302004889085
-2.67677082419954493
-2.67746085250345445
-2.6448454730459825
-1.98944460334325868
-3.09334107362051824
-3.12485671914262886
-3.09960221181689866
-3.07078055183261434
-2.62957085711649086
-3.56661101955323367
-3.57928969857402679
-3.55635686671033024
-3.55840104828026416
-3.57351440357307748
-4.04046221331016575
-4.0590585290090706
-4.08623774487418423
-4.11875762848323568
-4.20185343650251397
-4.50920769562001666
-4.53657032969372409
-4.57967569012148434
-4.6175912259252172
-4.7078308731368379
-4.96746884915207954
-5.00232459434355281
-5.05274346487898374
-5.1124051751855859
-5.21066014657774179
-5.40979087112008816
-5.44864117850399321
-5.50296061385608493
-5.58152845833693867
-5.65988994331301676
-5.83292566686883429
-5.87288800174693826
-5.92709339361448517
-5.99607794243823022
-6.06271708601056858
-6.23906129110492014
-6.27699949287289627
-6.32683415259053827
-6.38967990023366461
-6.46320239271215247
-6.63047667737254631
-6.66302038487299253
-6.70580258326588208
-6.76143909623194794
-6.82934868970852715
-7.01014689069533059
-7.03462554031982634
-7.06692407306019454
-7.10927908466408631
-7.16421365415144606
-7.38171372245115887
-7.39616729906463988
-7.4160839034696604
-7.44330523160266289
-7.48032021324225127
-7.74878289832663381
-7.75111388418259217
-7.75576522055741879
-7.76428866154524577
-7.78047701932464886
60.815466224761451
42.2599163226686869
2.58338429179736551
8.19495703459392644
-1.96701013227537769
-2.16134162469638103
-2.08932588581530609
-0.854050643744292515
8.87380972416690383
-2.57942833802566263
-2.66145482641920239
-2.61010220010236527
-2.59117032602452646
-1.44424274376336825
-3.06801391083459496
-3.05916206293197401
-3.04223665419309164
-3.06510238654711564
-2.80524041135377189
-3.54696960503445258
-3.5468247257542691
-3.54799969733496301
-3.55661870387971479
-3.55221449086951235
-4.03290355177737148
-4.04349063628266236
-4.06565483672679839
-4.07341267405292573
-4.17528715190217703
-4.50611585700132888
-4.52873863448247072
-4.5600787390379649
-4.58865750749825807
-4.67271831949688465
-4.96716851938047466
-4.99958226731437261
-5.04534838616958137
-5.09838078934883043
-5.19904202101499013
-5.41082857838995501
-5.44833438246113655
-5.50134644877679602
-5.57986864956893225
-5.65895357527532905
-5.83449308999852612
-5.87368255016267504
-5.92746089957131694
-5.99622560241521096
-6.0584123569461239
-6.24089198740314544
-6.27839730981238908
-6.32803136274951861
-6.38963585272683154
-6.45988547407670666
-6.63236629200184424
-6.66463377610068708
-6.70702031977810176
-6.76182260654500134
-6.82925217465713796
-7.01201749236551919
-7.03644615382598815
-7.06850285948124579
-7.11035878556258538
-7.16464165204559134
-7.38348301308614641
-7.39810621007430314
-7.41817686975950519
-7.4454630151135639
-7.4821018932310972
-7.75028442624327685
-7.75286976231879166
-7.75793097974803647
-7.7671228025193253
-7.78452124262548484
66.9020169954118273
61.5850995475775562
2.98937664205330833
6.81890405219974127
-2.02664345879860353
-2.24519491665291815
-1.94490361817290225
-0.226674133708154812
10.2234295407849913
-2.58498611596854211
-2.64392851159284081
-2.47369857486302713
-2.38788153953346072
-0.889586518895953304
-3.0254822166476778
-2.97856943656986495
-2.91059304723578283
-2.94163810932162528
-2.62921484331559441
-3.51202619174841413
-3.50852578324102238
-3.50723723977212476
-3.48205233224410371
-3.50329435095118402
-4.01975553372821359
-4.0251951192222819
-4.03937419720585655
-4.03224799805251521
-4.0935377670455857
-4.5018589653098342
-4.52047210333259653
-4.54648761738572826
-4.56859348886468908
-4.64660349038727372
-4.96622970271321407
-4.99631856568330335
-5.03851982841766066
-5.08455984113296289
-5.19271691679010861
-5.41130700794322284
-5.44788683456108469
-5.49896718066751866
-5.57337151216490323
-5.65157566918102106
-5.83537385098842076
-5.87405629563334752
-5.9265088215500894
-5.99322629321833045
-6.05574778767608457
-6.24187855942266356
-6.2791409158271998
-6.32811303832817273
-6.38934288028659125
-6.46345757789765951
-6.63339151382036629
-6.6656144545126379
-6.70769688559296462
-6.76174298880686919
-6.82913139386850521
-7.01299455506223612
-7.03746343410279618
-7.06958940119735768
-7.11146954730202907
-7.16499804818498731
-7.38438871562896804
-7.39912279858844268
-7.41937314189374053
-7.44701190426725557
-7.48449287259277707
-7.75105556292224929
-7.75379153250915465
-7.75910353445828882
-7.76872904126901798
-7.78696349200489113
-1.52465014771141316
-1.44542818243594873
-1.48296521952902438
-1.71117166357575279
-1.83563190329369053
-1.7358670259138349
-1.60661703317054116
-1.57269775469129414
-1.75684315910722866
-2.52693106359003927
-2.46686659712754208
-2.26771149873443001
-2.10489943231371557
-2.31579923069805638
-3.15804905830652149
-3.17765501085611479
-3.09755779888822946
-2.979662489815051
-3.05904675342927801
-3.60389577123314231
-3.65906778866429061
-3.6997076659583481
-3.70954612743169321
-3.7815966823102376
-4.03628884291709333
-4.08546721916393807
-4.15293586785483182
-4.23513726004070534
-4.35368206204103991
-4.47310913913336705
-4.51977956419589333
-4.58572501022817658
-4.68176634772066524
-4.81597325836176715
-4.91145712145402413
-4.95542671522080269
-5.01572107189231886
-5.10424319253012282
-5.22792236608312599
-5.34235992487973466
-5.38437719246171209
-5.4375166646282187
-5.50865610060918698
-5.60487405642882575
-5.75948825240441842
-5.79530920378931658
-5.83987137624330188
-5.89425320539922026
-5.96039546281407606
-6.16390479243149869
-6.1920208541441415
-6.22649027859988813
-6.26667864853789247
-6.31087227266097361
-6.53006012812771353
-6.54220940696926423
-6.55805523428028003
-6.57785000670485331
-6.60152883534813739
-6.62823451133438013
-6.65592790782917465
-6.92881149561818699
-6.93550968812518498
-6.94448141162519494
-6.95582642524633421
-6.96931661681685188
-6.984197588923724
-6.99900535860637163
-7.32353052744760369
-7.32464601863456899
-7.32675079564327714
-7.32987868104671314
-7.33389782646004651
-7.33841752016052151
-7.34272361707878396
-7.71636451884656438
-7.7118471658071126
-7.70723897157770477
-7.7025807925693428
-7.69791475045822171
-7.69328877228475783
-7.68876215475948754
-1.3552794809355988
-1.30549851496937119
-1.77646959560177864
-2.04385594373981583
-1.89844609660146157
-1.87977809264562779
-1.88453096147952182
-2.09997043135784445
-2.55984030121831507
-2.60850286396888542
-2.60138078349563795
-2.49827384164481625
-2.50701587399468551
-2.9968541859863933
-3.1951863680102961
-3.25003627024987995
-3.2320052505960426
-3.16245854612307609
-3.40418360465328362
-3.61001432531676913
-3.66158228626940474
-3.71290300916497085
-3.76331511169186683
-3.90766728957137044
-4.02715551861033116
-4.06654955749046287
-4.13845574042587749
-4.24973328293256092
-4.4209312627105124
-4.46895691457291644
-4.51264895909934793
-4.58373861143812711
-4.6993786763007801
-4.8737198105661701
-4.90906938243439228
-4.95341661254568155
-5.01989927199232788
-5.11937228556434931
-5.26701710418888069
-5.34305305578193934
-5.38560809144702102
-5.44337121255332868
-5.52180418133467033
-5.63205155160754689
-5.76123913503586405
-5.79772943343234903
-5.84464493692247444
-5.90327769124774182
-5.97644803752741094
-6.16619405206909921
-6.19508842690309791
-6.23099089863200373
-6.27375005398359598
-6.32232928197376598
-6.53164708318415865
-6.54401002960901224
-6.5602323455507614
-6.58068075084687898
-6.60543134692323175
-6.63394638223566613
-6.66469077980300817
-6.93005159315258368
-6.93705088023523242
-6.94642079631758413
-6.95829547468733178
-6.97255129689561048
-6.98862105264159617
-7.00525716132790155
-7.32447046560798842
-7.32579643290643912
-7.32817546498575734
-7.331660885184756
-7.33616354558743566
-7.34137001559983382
-7.34664635477705819
-7.71708201274834149
-7.71270145089976999
-7.70824626341186647
-7.70375147858580434
-7.69925516518713771
-7.69481419886525497
-7.6905250177668556
-1.0606755533761949
-1.06255600831724939
-1.81200593707846491
-1.93466259512045902
-2.01122302929756547
-2.06863369304724465
-2.11552275461146566
-2.28157100939748592
-2.60138882820037232
-2.67409178549322402
-2.69714647048209777
-2.65267075536024199
-2.69234844251984118
-2.96301654481915167
-3.21974631117218157
-3.24683161598177605
-3.1765940603494851
-3.11791040708984735
-3.2482160222144314
-3.61731371983928485
-3.66210487620020508
-3.68363480117570052
-3.69621711452944268
-3.79211547412361671
-4.01300655378853399
-4.07084659090628431
-4.17139623633863188
-4.29014549758817321
-4.45003487941863973
-4.45680960256674652
-4.50269933603045835
-4.59395824684146081
-4.73769903173503248
-4.92909368421178939
-4.91027954651408205
-4.95632623918381654
-5.0316307650131229
-5.14851050033281865
-5.30851222656663335
-5.34782621634508004
-5.39287734701744181
-5.45718340151906478
-5.54730654353409669
-5.67143182360305342
-5.76659772727444331
-5.80528143557905185
-5.85657637757108507
-5.92335680430231459
-6.00974869787395161
-6.17131171895648034
-6.20204366632410675
-6.24102649618712224
-6.28909476743587259
-6.34692257599575349
-6.53454754902980994
-6.54750512141765206
-6.56465986634059373
-6.5865667199103628
-6.61358298001544131
-6.64567969408347547
-6.68223656775132735
-6.93241891873020766
-6.93993636306661177
-6.95004672174363503
-6.96299667415139645
-6.9788275983587047
-6.99723399248771738
-7.01736483596257532
-7.32629507507433697
-7.32799090241112605
-7.33087225333511761
-7.33504513754022991
-7.34049793805969575
-7.34702345059387429
-7.35411497293773841
-7.71842298113564418
-7.71425732110263418
-7.71005748273850244
-7.70586354002826468
-7.70171835869781152
-7.69768450866085452
-7.69386295687962285
-0.978941108427081375
-0.978555268911605936
-1.7440533002736256
-1.71030325562105934
-2.07064815851347106
-2.17216208132095279
-2.18922730298617019
-2.22384602874795201
-2.34192765617654519
-2.72412538702236962
-2.7316644052324186
-2.67350517975288504
-2.6430618347310304
-2.73481942794054245
-3.23682926972817153
-3.22811115403191895
-3.12898752929982749
-3.03404951107291865
-3.08356456527582479
-3.65795223991000196
-3.72480382901154083
-3.73950307890945588
-3.71878786236844761
-3.77902661918516891
-4.04101453043071324
-4.13288385350867848
-4.25386604990134209
-4.38253833199304843
-4.5187858143113413
-4.46819976005640473
-4.52718872462040345
-4.63436019264364418
-4.78125831962454484
-4.94972823894494507
-4.92032102877017596
-4.97226653007412445
-5.05588877199394826
-5.17755455917565044
-5.3303582707295849
-5.35647821051743289
-5.40491335327812106
-5.47429188556116308
-5.57020715825631818
-5.69736532272613427
-5.77447750789127401
-5.81589371592721349
-5.87144505744309431
-5.94461566662358099
-6.04027152317318894
-6.17834834662982679
-6.2113414747198572
-6.25382694804359929
-6.307296933749722
-6.3734471722253101
-6.53853260670639624
-6.55232167988092584
-6.57071612476305589
-6.59449097218650326
-6.62432254641170815
-6.66067540892728971
-6.70369404423636439
-6.93572403374695412
-6.9439381919216876
-6.95503871590080536
-6.96941496479308675
-6.98731711608153372
-7.0087397778471745
-7.03325108707957636
-7.32889078632927315
-7.331098707924526
-7.33467194540692091
-7.33979118821702503
-7.34654675173965543
-7.35486813130710715
-7.36440868308179741
-7.72034670245309496
-7.71648495415739522
-7.71264763016298538
-7.7088860292338639
-7.70525357255285126
-7.70181918313442715
-7.69867964025831242
-1.05710981464910758
-1.05810290410096552
-1.7586225496191692
-1.53889016669723833
-2.09381627429797135
-2.2094036952828362
-2.21418150239298051
-2.20266677487269469
-2.07073845537774748
-2.74262699506009833
-2.75633598619654352
-2.69270064555786925
-2.63500114201170987
-2.66609334182922453
-3.25914414278816711
-3.25402799193959025
-3.17084803428962703
-3.08960999653554902
-3.15486015803839948
-3.68742131421691521
-3.76001157476189896
-3.77299602418245694
-3.77428072968271699
-3.85893057182413735
-4.07023685467800789
-4.16578850008987711
-4.27410717583419064
-4.38437574987019563
-4.49467308657546738
-4.48910534834507402
-4.5562235998729248
-4.66107073454512122
-4.78751364879631769
-4.91694520747172614
-4.93425320549996815
-4.99088824812997078
-5.0754595082649141
-5.18835122898182721
-5.32227809466161617
-5.36682056448942646
-5.41772001902243883
-5.48870650384574166
-5.58354940201513017
-5.70508627028846771
-5.78350351548791686
-5.82708155351318702
-5.88525561026094834
-5.96113835350429255
-6.05883980622263785
-6.18639321009264531
-6.22146725818420698
-6.26687130265954284
-6.3244391271968361
-6.39636654463829757
-6.54335948590492222
-6.5580783637412754
-6.57780690456592598
-6.60350587200216754
-6.63612349205245522
-6.67655855165579482
-6.72564633085205354
-6.93977842268691703
-6.94879057971077785
-6.96101183893880826
-6.97697880898799294
-6.99715775609368773
-7.0218613143342461
-7.05111812567786167
-7.33211725037553208
-7.33493385366276307
-7.33932546534349672
-7.3455593842412128
-7.35384620495604846
-7.3642821760765429
-7.37673025338309873
-7.72276313438115292
-7.71927922505827002
-7.71589368741539516
-7.71267239222145129
-7.70968577713800229
-7.70701560206300407
-7.70476734578091627
-0.735985888543894795
-0.888920708795108538
-1.78061827038950704
-1.50523487581821414
-2.08658279602684438
-2.23162407110502858
-2.23926712307591647
-2.23922147110783776
-1.97716899415652847
-2.7329212016344
-2.76895437676536726
-2.7268360300938892
-2.68518171761615676
-2.68470219119492537
-3.25708469600178807
-3.26564569669068483
-3.21259907958965751
-3.17116415167340948
-3.28579387223114061
-3.68311619774122745
-3.74692760910864209
-3.76140499398319328
-3.76949374668323944
-3.92592140626554764
-4.08347904143226881
-4.16296248321121531
-4.23801469160683197
-4.31212445497359909
-4.408494094687609
-4.50519314338132748
-4.57015320546581538
-4.6580324823140371
-4.75812148182235184
-4.8709045281360428
-4.94612299002378197
-5.00236689129813161
-5.08051660730567889
-5.18040928579184357
-5.29750412772967927
-5.37635819205624976
-5.42765678169262689
-5.49697187830386991
-5.58653929681989148
-5.69695281582167201
-5.79226745156309519
-5.83696350298994115
-5.8959991267814722
-5.97196542905006478
-6.06795230839125654
-6.19460895447041437
-6.23128422312251296
-6.27877197754322136
-6.3391300440462004
-6.41508575568313066
-6.54874389701046411
-6.56436882101753127
-6.58535452545552591
-6.61281728093021748
-6.64793571574679198
-6.6920013095203652
-6.74656252778534782
-6.94436299770671184
-6.95420309834608563
-6.9675711691426141
-6.98515006790495718
-7.00762534088678368
-7.03565757241547818
-7.06983611933359768
-7.33581652177562571
-7.33929346181697095
-7.34457019209068207
-7.35200851330058303
-7.36195965745089875
-7.37472593794708065
-7.39046544202824141
-7.72556645661213182
-7.72251481456214872
-7.71964823543688183
-7.71705179200301217
-7.71482145254474094
-7.7130740597429801
-7.71196201552745819
0.984653085061362177
2.29599462768817375
-1.72284843839324053
-1.17130537260544543
-2.06032270960832786
-2.25326335225026053
-2.27383737500907923
-2.25432405091761945
-1.88288463296626674
-2.72198730932240451
-2.7880928237044893
-2.75375131851890043
-2.75366764055891622
-2.6493331389109489
-3.24426196493581598
-3.26775218052479843
-3.23341655277153794
-3.22492191479864143
-3.38185326298877165
-3.6628591401192292
-3.71784776087807822
-3.73019415148225342
-3.73145911938911112
-3.91458136071501706
-4.08143450767273919
-4.14372837052985865
-4.18978215730478976
-4.23209620325976665
-4.34889227064810502
-4.51316676331536737
-4.57001144781717183
-4.6392607531722394
-4.72143102353476252
-4.83587686219090429
-4.95401515559846839
-5.00636543113310317
-5.07530151733650303
-5.16347107810987893
-5.26722765972607565
-5.38399141391039038
-5.43392682351394196
-5.49974159757027881
-5.58311554355176387
-5.68182636719340461
-5.80004210230194328
-5.84487846305226899
-5.90350175832058088
-5.97822095554321731
-6.07215264503960572
-6.20245996268272659
-6.24017381779625691
-6.28894095789548135
-6.3509126819640267
-6.42923127543227491
-6.55441600371649358
-6.57083867593386195
-6.59291281024217035
-6.62187530497354082
-6.6591052549715819
-6.70623785165679287
-6.76545075820260244
-6.94926890454623081
-6.95990279420803049
-6.97436473228104781
-6.99348050970448298
-7.01816031575867427
-7.04944254682387506
-7.08857807423752817
-7.33982547284965481
-7.3439729197185768
-7.35015141774128633
-7.35882347031405271
-7.37050335285567737
-7.38574872803626015
-7.40511965456137844
-7.72864065243312393
-7.72605472998578158
-7.72375018020015869
-7.72184037610045593
-7.72046181346105254
-7.71980081506919635
-7.72012359607468568
6.57616508399204136
11.3456243341308891
-1.42599166404846356
2.14024191731800784
-2.04856035240908163
-2.23737367408351462
-2.26116381123769905
-2.20937638566707051
-1.72550629558017476
-2.70234111643779418
-2.82043938784070436
-2.78973789431552266
-2.78487397968979433
-2.71180727305597813
-3.23140015810872905
-3.2782610891816617
-3.25414638236926956
-3.27220760965947743
-3.35169339568545821
-3.64692369688308959
-3.69768341435755366
-3.70285465455560381
-3.69067617485664146
-3.86274551895279128
-4.07541673795886616
-4.12513168019193976
-4.14981764734436354
-4.16534353621006659
-4.28900954250667432
-4.51558606136132923
-4.56412208657352902
-4.61555629003177792
-4.67673518094664509
-4.78648711783374647
-4.95853791049455417
-5.00628780342431323
-5.06622402411221628
-5.14185662115720366
-5.23819482659714097
-5.38979656488375625
-5.43740178769583515
-5.49898817170513432
-5.57722663456298662
-5.67138731684164643
-5.806720824655911
-5.85097746555368392
-5.90837657178704312
-5.98105019445423558
-6.07148376583253579
-6.209697257225125
-6.24796052315697281
-6.29737366827870382
-6.36006936716311166
-6.43894392835361185
-6.56017216690999749
-6.57723861638110296
-6.60018876037968472
-6.63036323583383602
-6.66933156165819163
-6.71904624991188637
-6.78224443732859772
-6.9542988910427086
-6.96564843544095158
-6.98110452730800279
-7.00162706093731213
-7.02835199420906331
-7.06270904186497983
-7.10668109397923775
-7.34398576200891462
-7.34878035805553242
-7.35583513955555546
-7.36572314015141139
-7.3791396927490851
-7.39694694341015424
-7.42022328893047778
-7.73186508798293826
-7.7297568048629941
-7.72803362812881467
-7.72684653982627712
-7.72639489415247205
-7.72697790223239789
-7.72907505094891523
27.050586381148328
40.2172268687105117
20.0750363536247249
32.9621794973980187
8.01453868349226894
15.4690508190796798
28.1155701549428478
1.85625649210503418
5.464090418477344
12.5774734990809911
24.7603697809755765
30.9967667350923293
44.6502841744340699
22.4433122703835366
36.0725128692967232
8.2710037290530245
16.5218803697086543
29.6940961467420905
2.14877191233791542
5.33447660793565781
12.4804301050109459
24.7528986786611895
38.129123670912179
50.4405552942590987
26.5873882674884001
38.8498342746921708
10.0375098056064473
18.779523508961411
30.7983583612241603
2.42165000289414145
5.94865573020567595
13.4374219473831644
25.0489680239636243
46.3000691351596174
49.0600886509995462
28.8598951963217019
33.3521347046755068
11.0377516639203606
18.3196816747803837
21.706323509002118
2.97528220776833408
5.94356212563226194
11.7757721128290882
14.5190357341293748
37.6655464235133195
23.2525663649764738
16.4688106022348393
13.6103137699071794
8.70625501371910104
6.07499205563988198
8.48430906371288529
2.59698459624571854
0.463013628421208523
5.50365626749146486
3.05693286419176502
5.15736637096483719
-3.48616441436799107
-0.0816513538459275878
-2.94393446711226403
2.87669189774669576
-5.9065340940128408
-2.31777396335067465
-3.24278835274083121
-1.63043966697523501
-4.66727249275214717
-1.74270474543103404
0.119120309167094707
-2.02482982865403205
-1.20402519096537075
-2.24592446933595014
-1.79060981585456602
-2.17949164681983643
-2.46363146843479708
24.8698790197590824
-2.32103058599196288
-2.61029156262133144
-2.60508441492889231
-3.28969420002262147
-3.10287213336153078
-3.10061863604367449
-3.03594893922643694
-2.63083016749807896
-3.05686082576186635
-3.0010984400853995
-4.50614523391303123
-2.77303823942138106
-2.9804695218454853
-2.96330312834761189
-0.325152223400655416
2.37870301659866534
8.64304645748878109
19.6025907965100465
-1.1955934332232605
0.355177563094255078
5.59700985282634633
16.3249139481782102
-1.89742161663981967
-1.10122565401056249
3.92214086970248843
15.218179330432072
-3.00801915924168917
-2.57681001273530441
3.08524936203134104
14.7763198103087916
-3.54870439426816642
-3.27310569134447249
1.0863809397221118
10.0770829032306182
-4.01410869404967752
-3.85222038438180725
-1.59310702399986326
3.31092893701146096
-4.5313892072766917
-4.54049346341305871
-3.59683124138031651
-1.09036692825139525
-4.97838558234406392
-5.07203783387903417
-4.75269601995960755
-3.41636063211295848
-5.37526558796504794
-5.47324645022976419
-5.36680295556563802
-4.73090888323106729
-5.72199048716672909
-5.82482812789043969
-5.81886443405868548
-5.52863916675584299
-6.03164341390996039
-6.09650931105827532
-6.11707780378462029
-6.02080982683519839
-6.35226448777883412
-6.3824260867569258
-6.39143046397787806
-6.35492453145754865
-6.67957768181123335
-6.69381087257869112
-6.69215479143290359
-6.66863694743034507
-7.01048959436178887