/*--------------------------------*- C++ -*----------------------------------*\
| =========                 |                                                 |
| \\      /  F ield         | OpenFOAM: The Open Source CFD Toolbox           |
|  \\    /   O peration     | Version:  2206                                  |
|   \\  /    A nd           | Website:  www.openfoam.com                      |
|    \\/     M anipulation  |                                                 |
\*---------------------------------------------------------------------------*/
FoamFile
{
    version     2.0;
    format      ascii;
    arch        "LSB;label=32;scalar=64";
    class       volScalarField;
    location    "0.270000000000000018";
    object      p_rgh;
}
// * * * * * * * * * * * * * * * * * * * * * * * * * * * * * * * * * * * * * //

dimensions      [1 -1 -2 0 0 0 0];

internalField   nonuniform List<scalar> 
7248
(
69.816588145923717
1590.55392952017905
8.31951509386592924
1379.57408952604123
1.16065499769125502
0.789447409136858957
0.828516709437901788
1.35390568998495775
225.907319025738559
0.809041819094076464
0.504518125834037767
0.537247929605240482
0.677340956579075892
13.6460043682567829
0.425487498762963989
0.373060002199970597
0.512670452199917137
0.530864370262256635
0.807503984559728272
0.348238045406139451
0.305883435924683922
0.461851547220869962
0.760394191364860084
0.825285278077371398
0.28331656865921423
0.2459172637632622
0.298830866027727848
0.62703345297996238
1.37984470342554899
0.205815099592432493
0.166790515640678316
0.142665265684466303
0.25650892326040986
4.03240631364427582
0.128175246296474227
0.0855964403707118876
0.0394825857056798901
-0.00101813920860529053
-0.0808044132540768067
0.0626421313202269597
0.0180660215492812332
-0.0364122692801674142
-0.0930411665940579363
-0.125643256117868168
0.0122057287146917701
-0.0308985013604205251
-0.0856021619468802647
-0.149692497213977149
-0.215899588205658799
-0.0236787593873297245
-0.0621160923358040559
-0.11145602260444977
-0.172402852530113893
-0.23847000468095933
-0.00540371204218488294
-0.0229501574600861416
-0.0465644489755526886
-0.077673988842666325
-0.117982390447873467
-0.169378302170595157
-0.232851982635318311
-0.0309790399458543947
-0.0429354533430995819
-0.0592519375476158253
-0.0810124408396242363
-0.109560265127474715
-0.146672284991040291
-0.194925823674151733
-0.051959332485368416
-0.0573505726578026828
-0.0652225384230254723
-0.0762627274907047015
-0.0913567514225634009
-0.111702625294351071
-0.138990767849076297
-0.0710586111456247421
-0.0694171753077910958
-0.0682698640795929707
-0.0678135755724403461
-0.0683335753836528947
-0.0702910129179071946
-0.0744932442400383227
106.518934904024022
1668.06346496102378
15.9684582593816646
1418.93645044127516
1.52502242406790955
0.86929306025666897
1.02434652124149839
2.79407504236429904
458.358571167340358
0.957355962762203028
0.521553566915237576
0.53758855512965531
0.848730492949763438
36.3940900798400762
0.432561241463324364
0.340520301952734972
0.386246778918755918
0.497822377843179065
8.71662704367389196
0.344972452452455558
0.336719204499180913
0.77627369840818361
0.698223317712089897
0.865667560360197097
0.28553868166485652
0.24545681139185907
0.559390047122929834
2.11618673013331104
1.25789064427024067
0.205305485617039235
0.170917053416741654
0.160216183873345797
0.492582597516830867
9.08986366370122489
0.1261516702345645
0.0871813292042531163
0.0521526904457121146
0.0878575674379483973
-0.0118206570380281518
0.0590035780015893824
0.0170969667579662678
-0.0313977447583045979
-0.0900897086524900942
-0.158762470058957106
0.00713034523337854106
-0.0347782478473905587
-0.0871602688746701687
-0.144527748544943879
-0.106200893578998784
-0.0295986468106100749
-0.068005532572390448
-0.11702208290412662
-0.175678854057991107
-0.243718540931554456
-0.0528036920753074956
-0.0846022286424983477
-0.125882992436957719
-0.178198516196790557
-0.238720799965155522
-0.065248328239831177
-0.0880386136343917491
-0.118119527240902342
-0.157556642261313606
-0.209407293426361024
-0.0704941936857378659
-0.0825750063380630978
-0.0992076097517549382
-0.121899737825127946
-0.152867091953988843
-0.0724216643146090022
-0.0726728040244040419
-0.0741646518360358498
-0.0775699847985494434
-0.0841769474374798876
147.616413543144688
1736.93605184727949
24.8819454609328936
1624.697339106139
1.20917405557436131
0.976026108918939705
1.03720648020085782
4.1727247529995477
933.656189468111734
0.878431701912017693
0.564138610066111101
0.545207529512054867
1.11827404503647099
47.7131805052298574
0.464260139811744521
0.385076030349590259
0.402732424443618675
0.663516282872923524
13.1608892145646514
0.355489813693865619
0.438804108499563805
1.8989468142896393
0.987766507560775109
1.42037956865594417
0.289715708735412858
0.244093656675772375
0.513661653988991329
1.48899262287790446
1.39528628071495042
0.205779889696410923
0.174554723933491057
0.164633138755422015
0.221140493202051924
3.75178055927546117
0.124649899450683582
0.0898038633763675598
0.0558155523040435586
0.208080803826960758
2.00610989522999805
0.0557337073332023897
0.0162276433078606466
-0.0211704235231680686
-0.0433100442920995934
-0.11656127128063444
0.00255659604611354436
-0.0380592078504400078
-0.0875038277431656186
-0.143821948278594985
0.13376283126250893
-0.0349058597869313647
-0.0731246395197027721
-0.121531538180980878
-0.17311311314867564
-0.205963873492986976
-0.0583653167434695988
-0.0906140350256309651
-0.132451226065634031
-0.184873694282626538
-0.247931836307408032
-0.070623280090712337
-0.0941972992320929819
-0.125430634055497175
-0.166521551363613074
-0.219651382506412252
-0.0752908641260259665
-0.0882555013867339921
-0.106190622384796124
-0.130811446272621923
-0.164759248743460207
-0.0762718364215660971
-0.077175838210510106
-0.0795948998019552906
-0.0844558718933472313
-0.0937061695928172456
186.904330651230453
1772.45390534372677
35.6552641542220741
1804.42786275899493
1.53669673526652728
0.970587874363491809
1.03116625231239833
6.7694446849006642
1092.81472088659029
1.04316327030468026
0.578360756549861077
0.500569943031122677
1.94813289094975928
51.8721857412208749
0.488868472164218415
0.444255972412038347
0.453573120580593347
1.04862902246065071
17.0466608911372965
0.372877993462732149
0.449483887895042733
1.71854882441421442
0.735290582530962911
1.68149676021421657
0.295781240655221433
0.290678681700555053
0.47000342643121934
0.443245647255837927
0.554848575660501719
0.207480861950528506
0.175187258573108851
0.264368223386164947
1.19477347730606898
0.82555294836568982
0.124116203849263196
0.0929433064156985206
0.065865195780123148
0.271458163718111767
2.75170441667685228
0.0526499792361106861
0.0150199559310461566
-0.0216807846515240585
0.0882341569805635828
0.472629183772918737
-0.00163498862673431026
-0.0411938525177477644
-0.085874362154469655
-0.138061715825669729
0.0379140209542085729
-0.0395586627103576144
-0.0774618730957648688
-0.125154881408727409
-0.178306891372718018
-0.0565962747479012082
-0.0631571009052489113
-0.0956370196588275795
-0.13775179019692757
-0.188944768753207815
-0.250064135568576595
-0.0752426819154225213
-0.0993357009455689971
-0.131230468004177425
-0.17291064192931821
-0.225198111640470711
-0.0794668495210697767
-0.0931274921230760139
-0.112055307088332293
-0.138026627924685119
-0.174018607761262489
-0.0796772958191690611
-0.0811560513180904775
-0.0844227244277743205
-0.0907539450869371961
-0.102602539684876565
326.855764079550738
1823.63661977744778
45.9415869738040641
1829.40111855415512
1.09801701684249475
0.93047074399220786
0.778070443580366145
10.4991111909270654
1210.51584941678016
0.855480777524316949
0.634795693780651926
0.459605020869549741
3.06599673697409525
54.7846070960182843
0.525334217832103878
0.473107592121451814
0.532492531896833099
1.3609160726295273
25.4160638065808726
0.3968721995888706
0.413978120729544541
0.534580926236381759
0.699798647201596569
1.63976482815020819
0.304971995905222559
0.311471571527637769
0.576362685788075368
0.446183570585689637
0.534490258889988357
0.209979017740067914
0.181914994575308492
0.273571432383326096
1.28809914381750956
0.355882535636703856
0.123547463629121848
0.0950388822043267828
0.0926906857407829715
0.391882183766807113
0.443834047683818622
0.0500718927518034457
0.0146153158833252968
-0.0145836732821302811
0.00615414842517395585
0.746248104831084724
-0.00524484025216271754
-0.0437144602863748649
-0.0873648345652181108
-0.109750948774654619
0.353517154321129512
-0.0434335524167640402
-0.0809701431122805404
-0.127623381999557556
-0.176638613942071587
0.0482780600345309729
-0.0670680624907990935
-0.0995495968823623678
-0.141371076852397304
-0.189835076349944454
-0.236171565266691336
-0.0790061674600193442
-0.103382485632612431
-0.135539000089439421
-0.176879205556320168
-0.225683609168788685
-0.0829051725018015717
-0.0970593133158482863
-0.116646354934330648
-0.143466908623716638
-0.180470385832479263
-0.0825217913242871498
-0.0844811558635321785
-0.088499265052766618
-0.0961120855196303525
-0.110424490430110253
437.67227385144173
1800.13040828230828
49.5448477116887531
1743.28581621479088
1.45311178637060245
0.965031772327143322
1.22591699747466309
11.2580478448813093
1355.41113087834901
1.0365513567686635
0.635910499597482137
0.681872283889701447
3.12313116654681577
214.571201255080041
0.53598221829889181
0.508585303957364787
0.564188235228690549
1.08486751554556093
28.9721124898489819
0.419517672847900813
0.435125016853202207
0.613449786425678711
0.624595412557029772
1.10554622216250831
0.313283431328621298
0.351327327210711304
0.63838942340550775
0.390293363275818594
0.430619567405999659
0.214487445116456205
0.195461944490744444
0.228980959892105679
1.04071818643092961
0.235352637709038109
0.123530794175640307
0.100557756972955589
0.0948416102519149123
0.313091342715420662
0.236219879398512439
0.0478178354099221409
0.0162340218985720201
0.0137563886925234045
0.00168917867161152849
0.125922647444995678
-0.00786862686288227441
-0.0455581153859835886
-0.0879436925044782825
-0.0731939582663495153
0.732691995891239789
-0.0463786866929814801
-0.0835117166705939273
-0.129373742299287525
-0.174249497097005851
0.12601786400852516
-0.0700113730165765336
-0.102348750648801751
-0.143604246123361035
-0.18786740081117384
-0.199978581237160391
-0.0818334536971527526
-0.106299447852016268
-0.138417922707813251
-0.178969636509467289
-0.225984687389056499
-0.085526222451159567
-0.0999797990646398432
-0.119896403469674562
-0.147117731602666751
-0.184132713242562029
-0.0847203983266794636
-0.0870513841825904383
-0.091702720557419834
-0.100226161545254697
-0.116414519331038094
530.880832844204519
1807.98854140039884
54.0177584551354499
1752.80502479520669
1.63913601517510821
1.16447373678320143
1.68627758755589485
13.7763128082359945
1424.85364262067924
1.1494540528836299
0.729753301447604752
1.23927170391851305
4.53821363029423086
429.554459994923036
0.552213320324496215
0.668191983262173772
1.52884014087280762
0.894960856738726052
33.6702180096923911
0.44001654682126834
0.513251058276192218
0.730366922613559177
0.54197770160683123
0.815108544825562054
0.323522530240758999
0.343237800902954915
0.354786174301339075
0.34894739589631063
0.312195094149245456
0.219090027546928467
0.202908096087309947
0.224131864249223212
0.455386376350471966
0.220541685244578983
0.123407055245851507
0.103545827570029059
0.161506900904001605
0.492518676395767241
0.13285059985085762
0.0468434159317630827
0.0190353941686137243
0.0317473438866609364
0.120341395407290608
0.0967790535025352672
-0.00924565407609188351
-0.0455947419279043864
-0.0882507873299963885
-0.0693024163394229537
0.917178213790142749
-0.0481774792886226072
-0.0847694422032499728
-0.129469282868124508
-0.171320997913230771
0.25570210196964871
-0.0718946704113341828
-0.103886472621991729
-0.144178152707455348
-0.184218319553745097
-0.165090350997055546
-0.0837038178255288395
-0.108115876656401808
-0.139939589782318324
-0.179493197107775643
-0.224438407042866883
-0.087295513086146248
-0.101918710074303073
-0.121989369759505181
-0.149275515113731938
-0.185914393231218222
-0.0862219262432754596
-0.088807262318792074
-0.0938684797480371647
-0.103060302519327449
-0.120458742628089518
672.751890300454306
1817.85140151623045
65.5220879421222975
1705.75080838340477
1.61186754282259415
1.8541955390151208
2.49307113263927249
24.3871734808040266
1563.36831260422355
1.29231052906708777
1.18099206909056353
4.18164877855394668
7.35179058348289427
439.962928071422937
0.614131340600909903
1.58766843247654665
4.54595013401611059
1.20858573228463895
39.0560219386476888
0.478103619788659173
0.498585509449742725
0.508407535871244542
0.565259917288979397
1.0839662517866453
0.339733240112745305
0.353876276073763318
0.345093061402031054
0.368230966060575482
0.336963361220497304
0.224219056734781624
0.208678904809123766
0.253463161122643388
0.29558939686256247
0.224878318233919294
0.123836135854658427
0.105823879560337147
0.164162221179864704
0.525579501329047183
0.0819142711154930148
0.0464967949633429065
0.0203059367922725151
0.00817925875685787847
0.0584900530830022719
0.037261946692538836
-0.0102529966843462831
-0.0468148219423987419
-0.090962424016398119
-0.0927960280945245575
0.695813772463931723
-0.0492149213915845235
-0.0859841185922130546
-0.131552735605306531
-0.169840180034316807
0.054328987717644675
-0.0729297677464861571
-0.104963222686560345
-0.145501947146943089
-0.188928208011940102
-0.22059628765667838
-0.0846812552928084272
-0.109138698581127527
-0.141106356124725024
-0.181626285968799067
-0.228713117305910679
-0.0882012156289680022
-0.102935298588442789
-0.123185641893740927
-0.150824404267255935
-0.188305372592775272
-0.0869930629222470247
-0.0897290325091524843
-0.0950410344582888478
-0.104666541269017685
-0.122900992004945558
3.45480154806409256
5.96185034944023062
2.66146279322204649
4.16820983821275082
1.25758675745934201
1.47691960871871952
1.63401573190674898
2.86700831922560351
6.0109462559049236
0.921314416173134365
0.986107815077836736
1.36403105808702629
2.65559110833749878
5.57313090415815804
0.485903738208832481
0.502429524135361349
0.74459825476494268
1.50130466199432888
3.50513562512192811
0.39986710402989839
0.393383932640298417
0.502596493001524758
0.92884132385785112
2.08113224226786953
0.331095359482617868
0.319211331212369831
0.364625141032212052
0.596928755199781058
1.28249626157106045
0.252617330147589803
0.219692446528165469
0.204340351542064924
0.271851970867600934
0.574399088192945384
0.178048420751352215
0.136567512437117233
0.0878233928887657278
0.0433701292685066062
0.0667255105125822146
0.11449709296510234
0.0727465064189922461
0.0210584375736598516
-0.0431316088624635122
-0.110578687367172107
0.0652003191664428522
0.0293914698948812003
-0.0150765913338394911
-0.0688603963498848337
-0.131805360975967317
0.0286576011921782919
0.000541229627819000622
-0.0339281670020658149
-0.0741006476039277329
-0.11814368999001737
0.0303773718520374755
0.0182280926424432561
0.0023822608169488781
-0.017412550547813304
-0.0410915856506459398
-0.067797928044122463
-0.0954910967608421646
-0.000498995618247811252
-0.00719718812661584908
-0.0161689116524589664
-0.0275139256807775505
-0.0410041214184303573
-0.0558851220962054973
-0.070693025073026855
-0.0273430274476030369
-0.0284585186345716126
-0.0305632956432954524
-0.0336911810471867551
-0.0377103264705201668
-0.042230020333260225
-0.046536118937589209
-0.052302018846564699
-0.047784665807113498
-0.0431764715777031641
-0.0385182925693428879
-0.0338522504582232861
-0.0292262722847856232
-0.024699654760364842
2.51465159783064029
4.94308883090750317
1.90879625324779711
2.90541349110269564
1.97984069045187838
1.3630188506262424
1.52041614221333643
2.27283570454194273
3.41123000125907128
1.20334594568287101
1.03313735440331445
1.43561367657864891
2.51921557223208925
4.44222954223813637
0.484930344153311543
0.592954372903836791
1.01952114627543655
2.03727296635056154
3.88218230501682982
0.432404119962632283
0.52215350667698246
0.8305114590178031
1.59516690541593853
4.81410039297010872
0.352473229430365798
0.371879105691793665
0.492405401052610325
0.990849359951689101
2.98289477073251819
0.257027300629239841
0.226989901058044841
0.212845918666278111
0.279105597818805728
0.629750621204072658
0.18057715189580939
0.139152065133795411
0.0856418436026753216
0.0365345237178337362
0.0644573196744983035
0.113804921235067136
0.0715502791736225274
0.0155651957676356551
-0.0548350272461855387
-0.134065907113841865
0.0634471634207173507
0.0269731638781994416
-0.0198215575783824045
-0.0777277630752001431
-0.147363051313916638
0.0263683343270315514
-0.00252614998948115163
-0.0384261989000010545
-0.0811596353405038273
-0.129541891478564902
0.0287904167275287934
0.01642746998356686
0.000205149936187290597
-0.0202432848681288746
-0.0449940322806361009
-0.0735092963375627295
-0.104251541123807301
-0.00173909315267889724
-0.00873838023665426608
-0.0181082963452928354
-0.0299829751148851242
-0.0442388012265598554
-0.0603085819013949725
-0.0769448133485020613
-0.0282829656079883439
-0.029608932906440049
-0.03198796498578068
-0.0354733851853673982
-0.0399760455997996075
-0.0451825158133644725
-0.0504588571783998255
-0.0530195127483411507
-0.0486389508997704043
-0.0441837634118643491
-0.0396889785858017541
-0.0351926651871391979
-0.0307516988652900419
-0.0264625177680350362
1.91871961486431708
3.06794230382835709
1.53336836453235859
1.84789537248547742
1.37210731712338863
1.235419439908225
1.29159432045672995
1.5730043576183117
2.1209399112082794
1.07986000108620583
1.04266857061689611
1.29695182246704066
1.93568751912858428
2.77166819508703499
0.549426246207420532
0.679813295012826946
1.07376987890345643
1.92207668760735739
3.21047737123503474
0.456400929981750969
0.584754843333444074
0.974832506598148574
1.78882210850217471
5.07999846963755086
0.366109144355644123
0.38131911685138109
0.497040842406082706
1.82403090929962963
7.55248514010349759
0.267411848086474835
0.232226722110919465
0.240748596565880685
0.523744817133670493
1.10916422388085101
0.179044717564365741
0.135299421783068474
0.0762833450743509167
0.0151716044404300136
-0.00458386785472769242
0.10901970107427833
0.064227327985897309
0.00140924410254266537
-0.0817709937295105771
-0.175736055880854697
0.0580897413786718997
0.0194211592895788404
-0.031768213698822996
-0.0979077869628373482
-0.180978469419263127
0.0212507429085164318
-0.00948113542865971007
-0.0484612106354636654
-0.0965026887089102114
-0.154158476622024587
0.0258899509348397595
0.0129323784468382916
-0.00422236823013131136
-0.0261292342966535918
-0.0531454794237140107
-0.0852419710813906994
-0.121795363174370994
-0.00410641873023296407
-0.0116238630671313351
-0.0217342217575296481
-0.0346841742714486534
-0.050515100114086546
-0.0689215047511671092
-0.0890524021941492688
-0.0301075750743366836
-0.0318034024111279179
-0.0346847533351258633
-0.0388576375405032814
-0.0443104380651504898
-0.0508359507044921222
-0.0579274745196974791
-0.0543604811356441925
-0.0501948211026327154
-0.0459949827385007157
-0.0418010400282651032
-0.0376558586978101711
-0.0336220086608723587
-0.0298004568803409628
1.7350038860246908
4.89022213472445166
1.42688612740999288
1.62269238207965016
1.27293612278623347
1.08999704219412141
1.13754673221446589
1.22310490062575683
1.41293402421216086
0.967180304458647777
0.911480162566209007
1.10915261378232199
1.41002278278120552
2.32802396577492932
0.52232030472064428
0.736104989762713213
1.08655208891055843
1.67980845031982873
3.26840655442524453
0.406402763509155496
0.494286236160685677
0.853715455408808443
4.89907994839599503
9.87906318074034395
0.328227677024418352
0.304403282425305621
0.451467664247142741
1.37887690785355987
6.59202740421208766
0.254739659485927417
0.210073206721017952
0.259067592230824983
0.363122746410957764
0.642525126644089672
0.168847332602619388
0.119230724320981599
0.0438703441818876355
-0.0428233931360101003
-0.082823220869719355
0.100345968374566052
0.0521232833467682177
-0.0161618825994986233
-0.105282851023666746
-0.197295909121013746
0.0502112824882596301
0.0088092426194318306
-0.0466401697092530959
-0.119157471747692062
-0.2110683993031017
0.0142141566710984272
-0.0187787206173209882
-0.0612608676070256764
-0.114702876221522101
-0.180650266444951246
0.021904893290240951
0.00811582006489350131
-0.0102786255390449124
-0.0340534760579474863
-0.0638850454311198218
-0.100237346815729572
-0.143250815101207768
-0.00741153374696148538
-0.0156256919218545239
-0.0267262159064705941
-0.0411024649416730573
-0.0590046163575995153
-0.0804272797121608068
-0.104938589170612009
-0.0327032863292735509
-0.0349112079245274681
-0.0384844454069299471
-0.0436036882170787871
-0.0503592517414991336
-0.0586806313608584651
-0.0682211841357980575
-0.0562842024530932697
-0.0524224541573965336
-0.0485851301629854904
-0.0448235292338603764
-0.0411910725528496918
-0.0377566831344325546
-0.0346171402588576899
1.52178015897032348
7.62792261805359662
1.2648917298189013
1.32542117971689843
1.08318777136655342
1.01181832714174558
1.04723043432301011
1.2083186087834672
1.40176473752047559
0.844181636875886654
0.817948224345220409
0.988066341547122806
1.29588693468691818
1.79766462090401924
0.450661880523220426
0.597862150126171055
0.947663073561341829
2.3494657891569104
4.03196320016684773
0.349281152672600348
0.358721194269627175
0.52580180088863937
4.87628138480522644
11.0652237777963602
0.291964949346576852
0.245233934974926265
0.449028354929837836
0.842792292108385466
1.34132172986257303
0.233235049068853395
0.176113728453945129
0.13291452642207599
0.0602275957748208343
0.256809089983247807
0.154871101953053564
0.0995450343906601059
0.0233397499078746781
-0.0535998331837271025
-0.072047455982178682
0.090008609527676392
0.0392659656452816336
-0.0300937021432219343
-0.117095058392974127
-0.205874702502986423
0.041183513407083476
-0.00237683511711833531
-0.0604281707364431458
-0.135476649239308383
-0.22757904776345958
0.00616933629064756166
-0.0289040260729030059
-0.074301267579607061
-0.131808959721335828
-0.20326746545329144
0.0170780140538657269
0.00235913625842213565
-0.0173694043386642578
-0.0430683659378168007
-0.0756858887357072241
-0.116119756588641945
-0.165194413181256272
-0.0114659226869142945
-0.0204780797108425755
-0.0326993389407655641
-0.0486663090244483856
-0.0688452570659526669
-0.093548808132170605
-0.122805514819788297
-0.0359297503755325806
-0.0387463536627647848
-0.0431379653435009086
-0.0493718842415209955
-0.0576587049565863707
-0.0680946761032130282
-0.0805427543122387984
-0.0587006343811512649
-0.0552167250582678779
-0.0518311874153951982
-0.0486098922214504639
-0.0456232771380184823
-0.0429531020630068913
-0.0407048457815343406
2.18402397502374113
25.0711021946755572
1.28925171996002397
25.3960180182380775
1.03718052268196126
0.911945492620250486
0.980964982304523447
1.08896468821432246
27.2625090728665533
0.794102072487561816
0.664086741929348356
0.86202034248520365
1.42484810540987428
2.94305509985345637
0.430977660532556095
0.484624876114102376
0.905980813206796798
2.65508983481456484
1.93634398238187266
0.322696290254314844
0.294879595832743036
0.536577502519718808
1.81347316452745555
1.32841261029951818
0.274699356437402675
0.215445514927668808
0.266415446098408615
0.374145084287150431
0.778811288405094837
0.216727214273398971
0.157162875138711688
0.0965178492349607203
0.0364677197322461136
0.0476665474708389963
0.142961113022800651
0.0880653030498054212
0.0168596702679951922
-0.0560757543969842565
-0.0560104731765276864
0.0804788262651869313
0.0294464036675289968
-0.0383726917372436763
-0.119290754675577926
-0.1935026084425365
0.0324226802256802268
-0.0122457794084314432
-0.0710179820075625134
-0.145389127540500956
-0.232718764385239502
-0.00204635069810486228
-0.0387201642773986193
-0.0861938235212977161
-0.146417157010352378
-0.221237747011807095
0.011693602964249282
-0.00393132126764384176
-0.0249170237246155862
-0.0523797521378069897
-0.0874977938043521308
-0.131558384015263458
-0.186064894216497245
-0.0160504977068562787
-0.0258905983460245327
-0.0392586691410991839
-0.0568375678539291412
-0.0793128395600166541
-0.107345041229828145
-0.141523050025424285
-0.0396290217756260707
-0.0431059618169705866
-0.0483826920906853045
-0.0558210133007159826
-0.0657721574525133579
-0.0785384379474530908
-0.0942779424043101583
-0.0615039566121321768
-0.0584523145621466261
-0.0555857354368799531
-0.0529892920030122436
-0.0507589525448063836
-0.0490115597432572367
-0.0478995155278398033
6.6597586794849466
602.064511377106555
1.60390182651381097
259.080327720576861
1.107190876597832
0.785181399003209046
0.844325238966452174
0.987841640714606117
56.922546277696803
0.756262953738823795
0.565651930432427452
0.657559125901103547
1.1323689647735844
15.0080610980119271
0.418411534962069787
0.416736196341265741
0.820402248002515266
1.89605319867484656
1.14825032455436471
0.331411710540889026
0.293921781722212117
0.525610586287464043
1.22313631394313149
1.02607896827037393
0.274350009182735222
0.221728959128068948
0.212054173356093778
0.33552826294558491
4.2411530658149017
0.208490687365410154
0.155178688568883144
0.1014808514317357
0.0746266666337475487
-0.0169741743158571372
0.135084924286489383
0.0837342209763116824
0.0203972512436852611
-0.046494706838573277
-0.114825554102914756
0.0728594274207046005
0.0232206498646165757
-0.0406979916168825756
-0.115271880277111813
-0.177169389941934652
0.0246517527159596343
-0.0201340662681008774
-0.078321324068585163
-0.150513356745880483
-0.23085124474080107
-0.00989707112960584202
-0.0476051000995334067
-0.096324376460285549
-0.157901537893489347
-0.233356732416561741
0.00602149624989825518
-0.0104011758306122616
-0.0324752934046525291
-0.0614375365196082115
-0.0986658105774971816
-0.1457830418530211
-0.204820324840713858
-0.0209564045464048256
-0.0315902942077435911
-0.0460522322716187676
-0.0651680082630264751
-0.0898478072580151388
-0.12112989791429693
-0.160262832865889049
-0.043637972849655135
-0.0477854197185770685
-0.053963917741288836
-0.062635970314060721
-0.0743158528556941006
-0.0895612280324330212
-0.108932154264403225
-0.0645781524331242029
-0.0619922299857820838
-0.0596876802001617274
-0.0577778761004600211
-0.056399313461052869
-0.0557383150691944246
-0.0560610960746843745
23.9436865884360195
1395.87917710895772
2.55919467236686415
1174.49480247930478
0.982010779751778307
0.738153719722284385
0.765809744954835114
0.908568170314555168
171.662405695432085
0.701188603009352152
0.51882431049493094
0.648939795485802051
0.657166403896498941
1.17364176282602073
0.428444429963570794
0.404927988023750518
0.584995969417447914
0.574933506308335396
0.599196091683381726
0.343236393730135092
0.302827550742580609
0.434370737560943521
1.0600667671369135
0.755042872113276475
0.279421658998117994
0.235622262857161174
0.242323734292381215
0.265932177134907022
4.63251439863509873
0.20619905005320413
0.160330482635491794
0.124639633786272908
0.149768930472223172
0.0380690159619993182
0.130622463413279932
0.0838302014809737261
0.0291224627764943983
-0.0331943058574555236
-0.101752424697934427
0.0670799908158760394
0.0198223862904015023
-0.0396292680237386175
-0.107803669631207202
-0.151149111324052565
0.0179834734241690435
-0.0261639633196628224
-0.0828582619744408083
-0.151688612742930551
-0.225435257890735707
-0.0171318847133677919
-0.0553770346928050688
-0.10465153634250951
-0.166440040273619333
-0.239744987634168988
0.000265332938556361983
-0.0168011125820080633
-0.0397511152013597657
-0.0699248226558080999
-0.10888522779605285
-0.158513278883924108
-0.220849634102800979
-0.0259863910431679598
-0.0373359354320918907
-0.0527920269448563517
-0.0733145529894946024
-0.100039407648449374
-0.134395905356724993
-0.178355874363437528
-0.0477982620089122678
-0.0525928580555323072
-0.0596476395555559716
-0.0695356401514153205
-0.0829521927487769789
-0.1007594433891848
-0.124035787710198173
-0.0678025879829352585
-0.0656943048629943238
-0.0639711281288210531
-0.0627840398263097288
-0.062332394152472971
-0.062915402232396514
-0.0650125509489211384
64.4384123810362865
87.462166490414873
47.3063464899657689
70.3219340825539376
22.9736090143202532
36.4865865631891495
57.4723152974014511
10.6562786001133087
18.3189668066376221
28.7065940239838149
47.227587590872794
87.3656820492467148
107.644675892984594
62.7189324260384922
86.4240680716700496
28.8857375865998733
46.5621834775528569
70.6497819374604177
10.252053635059033
18.183678663894284
34.5615868599908964
59.8052310321740777
126.867857489391369
188.41439429300749
89.2146056842469903
160.001786031579854
42.7115500796033132
64.7555512513486775
147.992342235724578
14.1276504769207829
27.2358028165778094
51.4235447452532739
179.561755691612746
516.191393958484923
587.12329885132408
477.787560821249428
518.192601082731699
85.2913873918289767
428.356254062402513
461.480223643942963
24.859127990316928
67.0826039068273587
415.079664032478149
413.806179691028547
804.25309497161868
681.685260785285095
706.681171815877178
590.104671262713282
666.372645031088837
618.398278841620481
513.41659330874711
125.225979932899776
582.526109803454233
549.697573788104251
439.018364836950298
671.242654024509648
97.6342992714459967
648.285154341127281
35.7653282066884728
785.205912340239138
483.388826063464421
30.9676434836242578
789.563095649836328
703.078385388277411
279.780290668682312
19.8653096807153915
3.43618932960921475
-0.475726063205952177
0.460239873442255809
-0.584964405789032638
280.694305126028155
-0.397243493967345318
-0.683165396622723242
836.791257959800532
154.628343298360534
-0.706503756861103449
-0.702154989688365538
-1.74999692908870452
-1.56898045419608279
-1.44178462710465993
-1.37940831654742935
-0.850192450182664761
-1.27636372356181682
-1.22201553683860564
91.2621715207158246
-0.872350742311577609
-1.07840006679433253
-1.06109630891785423
7.89746184060891387
12.2064045094890652
23.5598851340789643
43.1698907062091664
8.45695431875847525
15.0283500181048222
26.5967229835559564
45.6739417302265593
10.537091184212068
17.543808837392497
36.4493757712790938
56.7672290915282503