/*--------------------------------*- C++ -*----------------------------------*\
| =========                 |                                                 |
| \\      /  F ield         | OpenFOAM: The Open Source CFD Toolbox           |
|  \\    /   O peration     | Version:  2206                                  |
|   \\  /    A nd           | Website:  www.openfoam.com                      |
|    \\/     M anipulation  |                                                 |
\*---------------------------------------------------------------------------*/
FoamFile
{
    version     2.0;
    format      ascii;
    arch        "LSB;label=32;scalar=64";
    class       volScalarField;
    location    "0.270000000000000018";
    object      rAU;
}
// * * * * * * * * * * * * * * * * * * * * * * * * * * * * * * * * * * * * * //

dimensions      [-1 3 1 0 0 0 0];

internalField   nonuniform List<scalar> 
7248
(
0.000153222034473164914
1.43000202991121806e-05
0.000579376011505184545
2.37886127989525356e-05
0.00847390680441123013
0.0136447345062637639
0.0157968697410495983
0.00261094016181418094
9.78110347495736096e-05
0.0121777037847634086
0.0176696355682323877
0.0209780667285175831
0.0109468648522454068
0.000290878297295724174
0.0146192447131263305
0.0160274145561521003
0.0173736172201645715
0.0182439132685047918
0.000873982744520905575
0.0144529263857209357
0.0158518460478384547
0.0160947166345686704
0.015537839529369735
0.00447584478335245461
0.0152478759679585945
0.0153024653687974573
0.0178590590478687021
0.0176724905431592458
0.00983439861396556703
0.016528854414010332
0.0162381717082637177
0.0172135910861994888
0.0202932512856062522
0.0112431267584243086
0.0176717283726456897
0.0173954362015844646
0.0174715618561980535
0.0181754123840677483
0.0189897487643807678
0.0184523220994751366
0.0182452140631180551
0.0180394484518158031
0.0179614456579496352
0.0187301950241536667
0.0191252401913811036
0.0189064246730738447
0.0186301847951801484
0.0182529028707460704
0.0180352375624257509
0.0197866421095326504
0.0195782048740887789
0.0193092912397085405
0.0189133533380584987
0.0184359601015059368
0.0207239381901953602
0.0205983366283271074
0.0204619603997201957
0.0203074138217090965
0.020110170796990328
0.0198172862447935361
0.0193670093611999772
0.0212865665914268171
0.0212392524242809785
0.0211825350135696616
0.0211131321758935529
0.0210231591156747402
0.0208915910923132032
0.0206462193560519244
0.0218444394803695846
0.0218867560396635505
0.0219299775907778154
0.0219743599523655013
0.022020518086003818
0.0220673294762671231
0.0220986917935596799
0.0159929034420810134
0.0162125751821227994
0.0164670368732339825
0.016766376043539994
0.0171248892449990635
0.0175636999852629497
0.018108645451833362
0.000115480808964380888
1.34845976683843624e-05
0.000390266739958639508
2.19688035849752381e-05
0.0065636456687889937
0.0130963085050193398
0.010943385521322296
0.00156318795805430663
6.84635502925803413e-05
0.0118051595171231542
0.015896459751577191
0.0192065398703487565
0.00615956102543295698
0.000205857637452497381
0.0159186357445146275
0.0162615020297755992
0.0181981542473431818
0.0134848401620315285
0.000550843260335351012
0.0152769592579122815
0.0162877785330502803
0.0161059405929937054
0.0152864890219396986
0.00234150863420864563
0.0158460157831552262
0.0157095612402690966
0.0183788002796150193
0.015251331125920576
0.0107022256282839068
0.0169843803193341809
0.0165959368482541773
0.017661379425006847
0.0205681742127099207
0.00702484853722279597
0.0180087939945721906
0.0177387738405499033
0.0180682807834878154
0.0192714146908862551
0.0199223569351435793
0.0187322381613637678
0.0184985272430608014
0.0183504492820550959
0.0184499633555483683
0.0193850942948752651
0.0193381315804645147
0.0191163830032794295
0.0188414952314205943
0.01860224359622175
0.0187058953958378904
0.0199297483518316026
0.0197292242240534217
0.0194493946337130977
0.0190553214204269745
0.0187244875862747628
0.0205402121500556506
0.0203939219099690504
0.0201960878356256604
0.0198876146030128736
0.0194703548800890455
0.0212032809295072157
0.0211370667812036152
0.0210488829696724687
0.0209103569675696092
0.0206529960819281794
0.0218925765294364361
0.0219333720379780751
0.0219764308348448754
0.0220197759613401621
0.0220339113643743326
0.0163043353329968381
0.0165696544723312085
0.0168852557883994066
0.0172671277246118637
0.0177319221373484492
9.46747129264196766e-05
1.28852590258605372e-05
0.000290884520260383916
1.94018023411653521e-05
0.00934427371383144377
0.0133337598151035252
0.00826394997092388603
0.00110024628966949112
4.3252024121552783e-05
0.0118804439567495052
0.0143722195749444101
0.0156005919443371124
0.00417877065323328002
0.000166680943752617013
0.0164611302187106338
0.0159550867217238476
0.0164488157352731326
0.010164145597668062
0.000430639849457565508
0.0165916595631853021
0.0166767331792600573
0.0134532788510539764
0.0119477006459820564
0.00156937375937611623
0.0167458497885897249
0.0164558245353698951
0.0204444500483977228
0.0139704106333259984
0.00691415849610095556
0.0175130128761032608
0.0170137505859263884
0.0182935623592381802
0.0234372432113262689
0.0092808059669549723
0.0183411691337537416
0.0180517282876175439
0.0185388369109837393
0.019759378943600716
0.0146146346111039882
0.01902076146408389
0.0187517513207914807
0.0186718914239236769
0.0190103859021348714
0.0198223151170828504
0.0195702645263625408
0.0193363039674124618
0.019062054643447738
0.0189563557229841181
0.0186806096202383372
0.0200915622201781156
0.0198955042694847414
0.0196055456533309608
0.0192726921324636175
0.0191901267240382374
0.020637518671293438
0.0204965596565916883
0.0202773359823056852
0.0199337284480308428
0.0195992239153612059
0.0212411022312460097
0.0211812136612613069
0.0210911107499818229
0.0209275430501574058
0.0206787022480285979
0.021871805833926266
0.021914230467946251
0.0219628883598249128
0.0220148432170395869
0.022018664259039207
0.0161605224588342589
0.0163980633351517684
0.0166779893135387963
0.0170130134763111784
0.0174142730139022518
8.13092348882622865e-05
1.26386102692964008e-05
0.000237310314055470584
1.79279302760209971e-05
0.00678265229564928469
0.0138153096275860521
0.00605810111488352693
0.00081737102719583489
3.8382023451202229e-05
0.0115120665281029499
0.0153751933093662033
0.0118341018457596859
0.00283772171912844611
0.000159817405902457131
0.0163607376246186174
0.016292253761300203
0.0139238373006461275
0.00704259597819380766
0.000376291064280712541
0.0179894930622182536
0.0175146497427293123
0.0131225153019924375
0.0103080186249039189
0.00119166375259106253
0.017885672095036418
0.0173971075667628018
0.0227038304185361063
0.0162698180740527207
0.00522757672065620165
0.0181709212012046567
0.0176963658243523905
0.0187864338251692367
0.0188895079685112224
0.0165011724214121809
0.0187129302092550361
0.0183668095584987381
0.0188043866419303068
0.0193152127501618233
0.0121957279850467126
0.0193692680843494704
0.0190571259969139345
0.0190330326283248627
0.0187392142519269486
0.017258424479392593
0.0198056403364942658
0.0195647977741890654
0.0192948451552323978
0.0193232646830210145
0.0191356733392250671
0.0202645260185951442
0.0200658406406134908
0.0197520466868651226
0.0194769416043869791
0.0194751136167749458
0.0207478497071479674
0.0206145434112410576
0.020379324640526008
0.0200218088876618384
0.0198213535893635093
0.0212933848035973539
0.0212398275015761723
0.0211431059744984461
0.0209551487844098425
0.0206706452252398837
0.0218682537334842081
0.0219157304155808003
0.021974574850667606
0.022040871734833975
0.0220793317123221429
0.0160402734084290621
0.0162551952793717931
0.016507119831074852
0.0168093390182616105
0.0171519120706950454
6.43545343063020299e-05
1.28316108645980388e-05
0.00019738849383226073
1.76935567025338825e-05
0.0105609069895059617
0.0167355250679872558
0.00420913817669357326
0.000629174992812849866
3.61170237220790699e-05
0.0131676295921456209
0.0168091021755138355
0.0100447850622970899
0.00218044224034673979
0.000150377348502081536
0.0163430072592495521
0.0167886920749949625
0.0139223341906950203
0.00593472020535448612
0.000313695051865928772
0.0181089381929392633
0.0184088838574004397
0.0173435288019571296
0.0113770808786537413
0.000910640183130781585
0.0182987490068468109
0.0180414749231940334
0.0220542747284873282
0.017092552592035716
0.00439362445137102611
0.0186783535541654895
0.0184192041054960856
0.018910764141616191
0.0172352937442259053
0.0174594184984650236
0.0191329703004581575
0.0188288017497105151
0.0189866941233301952
0.0179522058464791252
0.0182995686316172086
0.0197109078211323355
0.0193934907327147701
0.0192873356104965171
0.0186214639305083245
0.0165324417065727432
0.0200486596660401535
0.0197985266175743843
0.0194849111933736927
0.0194936251874377395
0.0184801204982722456
0.0204376445384267594
0.0202384988919140883
0.019905323923903321
0.0196177098716844925
0.0195614396227714524
0.0208678784598934491
0.0207398645884527555
0.020494601028433302
0.0201125226385230407
0.0200943563141048574
0.0213586858331350146
0.0213133371637385695
0.0212097925419160727
0.020998707221822753
0.020777017957931302
0.0218806645971636078
0.0219348688851025292
0.0220041475405848112
0.0220810351519111839
0.0221633960963540481
0.0159459720252698341
0.016143433559159065
0.0163756278219928282
0.0166608210839133582
0.0168839691801154976
5.69684329517688447e-05
1.35965095403235425e-05
0.000185298901320637836
1.72813465043511648e-05
0.00767307502010174114
0.0140941914172173256
0.00434196570910653015
0.000621773873024603942
3.15199984358477869e-05
0.0125904073236597028
0.0161563980319381455
0.0124859734596334052
0.00269026229604685989
0.000116376535832457017
0.0174278354465465801
0.0168425546937172356
0.017111876947077314
0.00789882292846749018
0.000281576447369518562
0.0184296630711012419
0.0191054787857637617
0.0200641550100993486
0.0156119817917149094
0.000833121319305813813
0.0187397639980772003
0.018264695524069334
0.0194433622810190748
0.0186237916987960668
0.00511020244241244294
0.0194210666489487982
0.0190126641952449021
0.0186636339639687544
0.0165606235578634083
0.018928575830570768
0.0197028169514683812
0.0193996226504914542
0.0189459529245758866
0.0175145441938702913
0.0193709122800782944
0.0200538701182332024
0.0197440458435709024
0.0194381880783390734
0.0185649372874047459
0.0178644268623453228
0.0202811051982360914
0.020023705098678183
0.019670884717298262
0.0195112703369396054
0.0180789245425372266
0.0206044610516634419
0.020390124344371114
0.0200322569452083647
0.0197542742941280505
0.0196818350367873665
0.0209889096843184318
0.020859427427511755
0.0205945213597492627
0.0202393058103986605
0.0203413044245359872
0.0214336337731007714
0.0213958612763581572
0.021283976404953095
0.0210559408226398855
0.0209490004452417798
0.0219071208238199484
0.0219675638390884366
0.0220411284008269585
0.0221085017296007227
0.0222095856828894017
0.0158782667175924666
0.0160634835155397289
0.0162847472392273276
0.0165489340536729944
0.0166945424855026725
5.24396360448104522e-05
1.38752103000182902e-05
0.000171810238732786574
1.76390569657363019e-05
0.00593896850611601215
0.0133828794558362302
0.00410797012192937357
0.0005416665146282647
2.82775397656033382e-05
0.0119877833027645462
0.0183956671838372381
0.013622126235429792
0.00234453603608170223
8.76958277690584233e-05
0.0179586556722725471
0.0178137597338012439
0.0164100671851648214
0.00884384256426424403
0.000276051290563484816
0.0186582014354311695
0.0197255596755123649
0.0198942772781637855
0.0181985800225084454
0.000885725098762886725
0.0195220525284631359
0.0189915326726354354
0.0195663912019922899
0.0186557119056550633
0.00720997179403595843
0.0202591404373130349
0.0198938135702927572
0.0193030231928929055
0.0181420016215453166
0.0187959454914619628
0.0204068187608381288
0.0202321031423499179
0.0194270883287585572
0.0177513181764363294
0.0195289625501609311
0.020418621774378639
0.020131248433103037
0.0198122919880909902
0.018829023302504605
0.01846685986270339
0.0204699883631418375
0.0201614110574991449
0.0198239006178487498
0.0197784614980135061
0.0181684898310742957
0.0207515431307050968
0.0204805101809546579
0.0200662731888067471
0.0199281786353028428
0.0197236628427351068
0.0211040542290735142
0.0209476791635484771
0.0206155962556401895
0.0203107483461049676
0.0205879414223995617
0.0215147120100074134
0.0214749420241951011
0.0213273595002907088
0.0210529832225740017
0.0210387752640938917
0.0219468404882443152
0.0220140429581921274
0.022090605881103887
0.0221378430508989768
0.0222135208115397075
0.0158367769456133657
0.0160139943714321803
0.0162290440338171867
0.0164662082245893987
0.0165654234104330479
4.65932699073700062e-05
1.43359976013797297e-05
0.000149548393481546905
1.94835259940279825e-05
0.00811201892277106998
0.0132165446629619147
0.00278249218834642365
0.000412017628611607574
2.76504228085835389e-05
0.0127373379155968219
0.0183386500511209007
0.00967650750862792015
0.00158637097781155691
8.53689119841822506e-05
0.0174127575236739593
0.0170830272114786026
0.0117228761657963299
0.00728908368348302194
0.000290996090267819116
0.0208323343530726658
0.0218774675293149368
0.0217540534876400661
0.0206192640461303617
0.000971023476671152856
0.0219467697706168148
0.0209593720649312622
0.0202000013453080135
0.0207349509620533626
0.00643345672666621651
0.0216454593544780256
0.0214039707500421478
0.0203251893644646742
0.0197664637503162308
0.0211288719538976454
0.0209962624700568562
0.0210273732445273309
0.0201267342656969231
0.0184688387385336973
0.0208979557353704999
0.0207894330763687962
0.02066748744347131
0.020216525244224931
0.0191644139123865222
0.0188999327409583098
0.0207590725272086343
0.0205561914672233725
0.020307988490349968
0.0202715873298158419
0.0184607877309090132
0.0209285823609062956
0.0207199894675695814
0.0203682328420418807
0.0201829805664057726
0.0200306688202443253
0.0212267217901251186
0.0211140830602188079
0.0208490515078325125
0.0205351615475594454
0.0205843282210921713
0.0215914142254899563
0.0215749514060888867
0.0214860353561366763
0.0212816480072403336
0.0211393399588404481
0.0219819414356687351
0.0220604211057670897
0.0221591555642429681
0.022255119189135808
0.022400796262909882
0.0158118897905167276
0.0159850777732775048
0.0161943295868063192
0.0164025985326834954
0.0164457314326803203
0.00230538942694685561
0.00589830292834508333
0.00706900929074839521
0.00386691704367620728
0.0105601344549396525
0.0142767661421243745
0.011518631131672917
0.00655025562252948591
0.00336244510452482883
0.0135471961059092233
0.0158120156617038883
0.0130550338771443179
0.0075718862851517927
0.00426823473408307653
0.0157359115328790898
0.0162511689340619284
0.0161389191008126411
0.0119491444775724417
0.0070911369570588632
0.0152111465603891344
0.0154167482744460987
0.0165191595655056096
0.0153447367438603217
0.0103627616678355888
0.0156456342379310553
0.0156803908914021038
0.0163299437702421057
0.0158414414017009897
0.0121892372948001239
0.0164280306692862442
0.0162201450514095243
0.0164519360076762662
0.0163760455626395969
0.0139334500357069721
0.0177029174991373793
0.0175945079670595771
0.0176740048008352177
0.017778529303942546
0.0164039252748172659
0.0187837721433172337
0.0187072977078476775
0.0186933246296498434
0.0186986074699523296
0.0182288705559216363
0.0195719355210279
0.0195282800714896773
0.0195300102968214116
0.0196061690064888161
0.0195135480576423409
0.0203723097288721205
0.0203474316251316921
0.0203412612695896937
0.0203890478775065123
0.0205256278126908255
0.021048331628901934
0.0210493589455858915
0.0210831170074840361
0.0211357065651365493
0.0212024571864593697
0.021302907908927967
0.0215211619568667772
0.0217826294750772982
0.0218474077972825864
0.0219382179413315122
0.0220592075367540066
0.0222116256135718171
0.0224041403002618079
0.022701476909926032
0.0224008517721069472
0.0225546636529066341
0.0227400368061458011
0.0229638527238712059
0.023236393217949531
0.0235697598122038762
0.0240051259971974136
0.0168010730169646239
0.017205748951896898
0.0176958865249467918
0.0182974847990713292
0.0190468608947305176
0.0199949897358867139
0.0212275940931327435
0.00276807297018730929
0.00596540130303873511
0.00983145325580594802
0.00692266930983173167
0.00777769239076909688
0.0121732788774701513
0.0102811135751662581
0.00719539471160023439
0.00468832104201887846
0.0118218446645185563
0.0137758817008990283
0.0100659941416553975
0.00633185559599993945
0.00461172892342747234
0.0151036988832400961
0.0148981011101784865
0.0112645925518364953
0.00792370698594696901
0.00637467501251098509
0.0144484308124441362
0.0152605946097007054
0.0135260095886227272
0.0106570891308386557
0.00795320771438802303
0.0153466877824312512
0.0159380739313497687
0.0160338263705708355
0.0133030810935849675
0.0100041075262855411
0.0162664502847197252
0.0160548238193900308
0.0165553400915332376
0.0154969294427858006
0.0139797946698548801
0.0174337139623095654
0.0170515769523685613
0.0167309913681981844
0.0165531243165773813
0.015752119700044101
0.0183805275710864184
0.0181045502637007943
0.0176776280084714917
0.0170986283890042536
0.0163790939400422948
0.0192513738065082374
0.0190682358954642819
0.0187853203419033714
0.0183363355597294629
0.0176666212273322576
0.0200946542576132363
0.01998598563995908
0.0198375529180136283
0.0196064045750303263
0.0192578375100694692
0.020989262992088812
0.0209409264854695451
0.0209126354834039789
0.0208906760828881863
0.0208630187977794264
0.0208155776324650266
0.0207534787653689302
0.0216570880219426228
0.0216826847279294535
0.0217319365578993832
0.0218090294239355054
0.0219121233180602573
0.0220374526476969541
0.0222029224968121296
0.0223171692758371218
0.0224441567597306428
0.0225975453233522375
0.0227874808319647841
0.0230264388719091176
0.0233258396984762431
0.0237039038728946057
0.0167520137806932284
0.0171424626569844293
0.0176141511175588912
0.0181933876270608252
0.0189174650707153273
0.0198410410699452859
0.0210416439649462467
0.00332684177414946077
0.00663415584246309677
0.0122432886483228639
0.0103926661042597433
0.0102623839039829509
0.0136987068341209023
0.0133395206135249189
0.0122023079743927565
0.00972213607890266666
0.0127065468459723069
0.0144620672996525462
0.0115209308642977813
0.00909425647320588615
0.00851454735677597413
0.0151108923353278669
0.0138519633096129812
0.0111249515186210429
0.0097840270148190512
0.00977854272700180542
0.0148076424320711993
0.0132400810709606253
0.0120210000797011125
0.0112147140879988658
0.00958005746803971929
0.0151097177936221211
0.01463118086690148
0.0134416050852828595
0.011807484452094676
0.00818311346741703444
0.0161318084201400626
0.0162980053777136979
0.0155156507286687666
0.0147256774862787928
0.0141233753208469728
0.0172592111240157699
0.0169054410530674951
0.0166103840081374514
0.0162491950926411215
0.0157943996884364161
0.0181654406020077576
0.0178905275967729677
0.0174318861647371967
0.0168018270647069361
0.0161375953373125922
0.0190381177438367355
0.0188284762802050087
0.0184945580029132958
0.0179544522875246769
0.0171891429151427889
0.0199041462009261275
0.0197522423239561221
0.0195540947303885944
0.0192540576383426094
0.01878829811633052
0.0208789321061528706
0.0208076581763527863
0.0207461876270881758
0.0206831267939780739
0.0206055373752159279
0.0204951255776229802
0.0203374516620020152
0.021562332025903113
0.0215699736373262708
0.0215932343169207702
0.0216351278316600677
0.0216939337998831132
0.0217664857196753492
0.0218595162723309137
0.0222359211266167887
0.0223485466738637568
0.0224821656469667043
0.0226453643682814273
0.0228489169919581063
0.0231046407416815001
0.0234295187726503464
0.0166832975402820272
0.0170580505218354793
0.017509081464678028
0.0180605853946387424
0.0187473270454243529
0.0196200436679910967
0.0207520576438047777
0.00344128866021296614
0.00314814998845785185
0.0147931131525232996
0.00495222753385986519
0.00961862258486090305
0.0158392410043341168
0.0177906879538034073
0.0182790167302088503
0.00881436426216148858
0.0122199970364267711
0.0156631055426441693
0.014851827316796894
0.0138376077136825974
0.014869036744576819
0.0140564230601200046
0.0153958555038150244
0.0142614174327518311
0.0143634398250263671
0.013414980067027904
0.0140249500292967781
0.0153491555536004552
0.015222266166087333
0.0104987675932993706
0.00692764608369226837
0.0141535818170950515
0.0147526080701476572
0.0150120484316740958
0.0144913704940364905
0.00862928172516331561
0.0154590048948674719
0.0154682661486122888
0.0156093399039785741
0.0152984341668872398
0.0140019968539960397
0.0169031972691666491
0.0165426441316431257
0.0162896771356700505
0.0160621159813451875
0.0157766705141935068
0.0179390609976801743
0.0176573892997200395
0.0172336468804841457
0.0167016770009885858
0.0161834511892595088
0.0188539106881507289
0.0186184878868549258
0.018273784220019313
0.0177481994468416185
0.0170330058546208467
0.0197330242628372711
0.0195418882020073938
0.0193034535754963953
0.0189651237948915488
0.0184598551668932395
0.0207773385184456434
0.0206802854396502915
0.0205871987601263205
0.0204858873434658924
0.0203609283115412619
0.0201925639221346848
0.0199582248259469464
0.0214700370961877635
0.0214582581669476441
0.0214554207070985076
0.0214623992841604348
0.0214755382352167339
0.0214901291086700107
0.0215069900984576901
0.0221520689163334401
0.0222484194202324688
0.022360626712344147
0.0224954266243306972
0.0226611214982589231
0.0228674428595718529
0.0231293462536519313
0.0165915930264302555
0.0169445251258191695
0.0173672954713549599
0.0178815636193139504
0.0185186373399546141
0.0193245140349129034
0.0203675165301989043
0.00279618200079936484
0.000530668489827536369
0.0158735671818659961
0.000724793577141582949
0.0112220780376084545
0.0175406966152559969
0.020924349775539041
0.021585293775632227
0.00138737166628735914
0.0126137231189516977
0.0169166137157307876
0.0182550338707709522
0.0175464228525511017
0.00681350724744078824
0.0140109837120289092
0.0168808526104934249
0.017726249079141547
0.0151046444991734426
0.00941208302833927701
0.0138602099641435082
0.0164985335016926346
0.0179630738614177179
0.00964716123723879937
0.00490473958241883102
0.0137828679697398291
0.0145486285271878915
0.0155155983771462485
0.0152984478416081787
0.0129330681354287297
0.0150797820526147354
0.0149546252435437382
0.0152010286437339343
0.015583370085376318
0.0162315887798572013
0.0166974574516556354
0.0163421501292850581
0.0161372156637454994
0.0161454311566401019
0.0164047819308362902
0.0178158865567588226
0.0175224549739801186
0.0171280537219367923
0.0166869176494905645
0.01636076833655601
0.018752601754773543
0.0184966173845891937
0.0181504839290410093
0.0176471428647105126
0.0169958708594416148
0.0196197846366850427
0.0194060374874260311
0.0191431985469529033
0.0187764159100336989
0.0182265372543698422
0.0207041060296166389
0.0205883551142458307
0.0204720695873910549
0.0203435639692708878
0.0201854795911047338
0.0199749039225009771
0.0196756043676934618
0.0213951199865660933
0.0213677183593920725
0.0213434204767255879
0.0213215939028668956
0.0212971210885091328
0.0212616163468984376
0.0212092770392078196
0.0220727073425518693
0.0221536952358809894
0.0222459579424294888
0.0223547289662263428
0.0224855991955259307
0.0226454726302573808
0.0228451123136907061
0.0164832345713809142
0.0168106314675002498
0.0172005605087224463
0.0176720462533138771
0.0182526991577741833
0.0189838648631428762
0.0199282877096325015
0.00172149741748127416
0.000125009903224379033
0.0121630161365684272
0.000188111829588727278
0.0102801995882338508
0.0171829796369413652
0.0213909012474351803
0.021403753642957872
0.000378171418780399744
0.0130711263915134421
0.0169937124633396767
0.0187880245542129259
0.0178004770710738711
0.00162193603399353936
0.0141400140846344377
0.0164893366076506696
0.0166134625296144034
0.013547779291107967
0.00993741873422577041
0.0139074433522885666
0.0162212348909694555
0.0170613507885517893
0.0120985849995419933
0.00779652163755054951
0.0139511433079542915
0.0145861028015063076
0.0161845105623951643
0.0180278015887757291
0.0146337768874184853
0.0151728663327591606
0.0150109450459886083
0.0154365111813949026
0.016410540183254111
0.0184349623561947257
0.0167455266841882618
0.0164331277011159557
0.0162591479182654236
0.0163865446359581675
0.0170428505305048883
0.0178290376213055511
0.0175567936036598662
0.0171992336325641725
0.016778859457115658
0.0165325984266080778
0.0187464212261898508
0.0184880736209047693
0.0181547849775108364
0.0176623523339142705
0.0170220899177990215
0.0195752891197672647
0.0193539429166291327
0.0190839193482739006
0.01870575900057787
0.0181265452407482902
0.0206655813599450622
0.0205386497909286203
0.0204074517218971428
0.0202608308700168334
0.0200810063017913994
0.019842491689307365
0.0194947348146588782
0.0213401454564135611
0.0213008469101806201
0.0212603507848830725
0.0212170310881487252
0.0211636407066294503
0.0210877906880517565
0.0209745575285849514
0.0220008296166695795
0.0220685075264602654
0.0221433032018803592
0.0222293518165775847
0.0223296972414969187
0.0224482352199163286
0.0225894197536071692
0.0163638994506640802
0.0166638087343732796
0.017018562880474309
0.0174447696172435919
0.0179664775778442358
0.0186200595446570707
0.0194618586950824173
0.000739127678102898932
3.68917770550956394e-05
0.0046335257495600914
6.9146325823774582e-05
0.00874230392482339136
0.0159577508657117381
0.0194140562653483464
0.0144795646313504722
0.000181178584234598816
0.0124441567645937716
0.016386812140900351
0.0190263188239530312
0.020237770970199017
0.000609214023041638759
0.0141859068815282426
0.0157989215106924402
0.0159997094935107956
0.0151081643907605874
0.00429885643758564761
0.0141012288991958484
0.0158815252510660573
0.0159983129426765174
0.0133076055243409631
0.0106074603067446115
0.0143912269543614701
0.0148480805607846041
0.0167606921085432202
0.017879368798059174
0.00915273659711619836
0.0156088728750068632
0.0154420768017420901
0.0159916539548942346
0.0174561059555098132
0.018805192157799161
0.0170250106864487487
0.0167378705394006719
0.0165664948904016632
0.0166891404524695322
0.0176862992897127008
0.0179678428873478561
0.017732088773811553
0.017414574166608212
0.0170151078622780769
0.016888034126700719
0.0188157218155724573
0.0185689965783017545
0.0182594950116448697
0.0177947331405083307
0.017230392682046923
0.0195951816170664116
0.0193739482574959952
0.0191047956352835592
0.0187197488284809796
0.0181353453992520765
0.0206602453661129844
0.0205274474096740281
0.0203885707351724281
0.0202320104290656111
0.0200397838729159464
0.0197779237048329171
0.0193675402483074049
0.0213044832873616752
0.0212582160279019342
0.0212070774724642634
0.0211490589312697229
0.0210755314531102279
0.0209719350233232953
0.0208097860265151202
0.0219380991288681965
0.0219948572014880099
0.0220556324371241168
0.0221228364375624376
0.0221981635868845374
0.0222822103453268923
0.0223734920357716305
0.0162391021277862035
0.0165109323804297874
0.0168304508840258771
0.0172113954682121817
0.0176749032285981496
0.0182521039126353757
0.0189908698633444832
0.000288089661539254636
1.71519379694771354e-05
0.00142618397091141499
2.81890424605674148e-05
0.00960751853372610043
0.0153979130995896586
0.0182884324058133138
0.00632916246348178436
0.000110363843895801181
0.0127459212794424452
0.0173735212582146019
0.0218949959512665174
0.0186917797248664398
0.000421314508497609361
0.0143454640282955695
0.015615477222882531
0.0166397380732062061
0.0194396011664792236
0.00170238112044598195
0.0142174288951064133
0.0156710132053666656
0.0160105616579087028
0.0147268044380993949
0.00970589542311537171
0.0148022634916065068
0.0150948607730746927
0.0172667559403569607
0.017793847634493095
0.00817177708933773325
0.016082146384194751
0.0158876488609152808
0.016583251334242783
0.0188194034349346631
0.0187368706360048765
0.0173440206911420029
0.0170688325472253336
0.0169616891166953186
0.0172116330627321776
0.0184989383478024322
0.0181851451744903699
0.0179761726589508751
0.0177123301241996524
0.0174452733098188831
0.0176402521867206376
0.0189465295590625915
0.0187178599148687917
0.0184288920024262871
0.0179976805245800273
0.017593972239580178
0.019670888230304065
0.01945542773924697
0.0191881102654796326
0.0187891471318466161
0.0182056727585861548
0.0206807632551621462
0.0205491904451360584
0.0204091719988597799
0.0202511645911841488
0.0200556969985417645
0.0197817675496704155
0.0193412080588683775
0.0212874896410661686
0.0212389611759708982
0.0211825812658910165
0.0211157600390412363
0.0210301445792623123
0.020909492665383899
0.0207114068546918884
0.0218857900515151277
0.0219339131913581648
0.0219843315395123681
0.0220375235908857152
0.0220945029513570541
0.0221534347201399404
0.0222061404533402292
0.0161138991060675967
0.0163584065265215926
0.0166441470266793096
0.01698231400776095
0.0173908462735616713
0.0178957363987671328
0.0185343658410316928
0.000324294783256206458
0.000258125778545739433
0.000515391357548470783
0.000366217577597477287
0.00118897064414449504
0.000798912629614809871
0.000519235825790797449
0.00235736810027464697
0.00208236814987036375
0.00118449075259179494
0.000713956529029113776
0.000181862490796828039
0.000151942242511380026
0.000269872700191008032
0.000200580827982976243
0.000663208935806698825
0.0003896214922904225
0.000252026715106874678
0.00216569267374415453
0.00122778956917662051
0.000535140031160333783
0.000290914348164063308
9.64245059553705739e-05
6.45572416455883442e-05
0.00012795704839196537
7.58877958897147698e-05
0.000305011776053780534
0.000160105806709078267
8.54348788364765694e-05
0.00107027770666905824
0.000419594025097933573
0.000179778191054413811
8.64541742299248763e-05
3.06755447128442615e-05
2.66481946367540674e-05
3.54988802114767019e-05
3.06079835807132754e-05
8.55759035198270368e-05
4.08265597215871112e-05
3.44458159936884308e-05
0.000283700045443004026
9.69392829331628618e-05
4.42106833682541945e-05
3.8247063450999434e-05
1.71050208510282198e-05
2.07735260251679185e-05
1.97522063975235737e-05
2.47969198047487051e-05
2.4164181880095421e-05
2.29154303532443702e-05
2.93537929423551873e-05
5.96289865114648629e-05
2.75308211064663137e-05
2.69046141727505314e-05
3.59889834954631581e-05