/*--------------------------------*- C++ -*----------------------------------*\
| =========                 |                                                 |
| \\      /  F ield         | OpenFOAM: The Open Source CFD Toolbox           |
|  \\    /   O peration     | Version:  2206                                  |
|   \\  /    A nd           | Website:  www.openfoam.com                      |
|    \\/     M anipulation  |                                                 |
\*---------------------------------------------------------------------------*/
FoamFile
{
    version     2.0;
    format      ascii;
    arch        "LSB;label=32;scalar=64";
    class       surfaceVectorField;
    location    "0.270000000000000018";
    object      Uf;
}
// * * * * * * * * * * * * * * * * * * * * * * * * * * * * * * * * * * * * * //

dimensions      [0 1 -1 0 0 0 0];

internalField   nonuniform List<vector> 
20536
(
(0.63905509941806149 1.17152378280938585 -0.593817083314641891)
(0.633943969244238237 0.580421434650951418 -0.227632009419005049)
(0.670634962459785489 0.745689320227761465 -0.282483323103919548)
(0.696908534356869724 0.537155951569189938 -0.284118908819081417)
(0.495751964344893603 1.51833037320692243 -0.788925695582722186)
(0.469395360676445661 1.70985940672744885 -0.78370193000917765)
(0.560493000736320579 1.51621238018617843 -0.973084926670514383)
(0.459515827215950745 1.72248115076792607 -0.818749250646151783)
(0.523097607724590019 1.07128411903380583 -0.422740621687084095)
(0.4775330727544847 0.423080072674031082 -0.143781865576711076)
(0.556335984912424975 0.632795811766697414 -0.152798557049411865)
(0.522301665571054174 0.498214838711648955 -0.182416781584211318)
(0.51092621980189934 1.31185316944229191 -0.602699027856520408)
(0.503124233835807066 1.60708694537580099 -0.624144026368192439)
(0.548011970954009331 1.44894668522053993 -0.780920727672669845)
(0.501581799421043861 1.70050903127752973 -0.779695127162999269)
(0.295924584008515679 -0.848331907845584987 0.019352779303829875)
(0.174969805286806612 -1.07682093336526363 0.0745230418099313702)
(0.261670575004426809 -1.03598715758373205 0.0626389086640373183)
(0.246288923061284137 -1.04607891737588865 0.0629737755758198736)
(0.287845786699138573 -0.293768042603590851 -0.0825283868419880717)
(0.0908147626111961009 -0.684499189210200143 -0.0519252641616376465)
(0.263774968517626884 -0.621481301177377876 -0.0729650841472250233)
(0.212898092068355888 -0.645056056488043983 -0.0578129693193506281)
(0.317283089502682136 0.200502024995100364 -0.124435141739655988)
(0.219471424951338423 -0.0451335882313725761 -0.12005269933273266)
(0.268399571594854502 0.16712538774590166 -0.113287672909885812)
(0.283959786837737926 -0.00654646376943852481 -0.146574886524078019)
(0.417609949095464394 0.759447567323908279 -0.323740271746145059)
(0.226190897773818123 0.231586312903474784 -0.113827675318158572)
(0.345240888218452835 0.40999450800052617 -0.107984378348407198)
(0.338994136494638776 0.254145674247984399 -0.146468693110364145)
(0.465968203225011923 1.03609885707483729 -0.430159019804950637)
(0.502975623166315056 1.26893319370953694 -0.492905105967048118)
(0.521971631111550094 1.08049371229123414 -0.592597378814682774)
(0.512272017839895955 1.46282097404500577 -0.664219512618698271)
(0.0195125969022872207 -0.837285230882465092 0.00324499834446410635)
(-0.0999956627560790734 -0.958150769398220636 0.0667411718903846013)
(0.0798704881360006447 -1.04251604494304795 0.0393777669354626464)
(0.00394704077111531805 -1.05914069484625717 0.0604761109087898138)
(0.0173524140795640221 -0.349495870196220748 -0.0894495766523822206)
(-0.184078672870745808 -0.607037556176694526 -0.0664550945549465255)
(-0.0332007733822313536 -0.612129364658692277 -0.104702269215737595)
(-0.130432102739206551 -0.57171954008952619 -0.0549809175905791661)
(0.159618810153839857 0.0143704137305240426 -0.109445232911235243)
(0.0652158661153483948 -0.174606515621323455 -0.204350220824125128)
(0.192426817585718168 -0.0303439558719083048 -0.140128759467730124)
(0.0994200862541079339 -0.104480958437491098 -0.09998529746933843)
(0.211044758222251327 0.463995796462457089 -0.220246423376962569)
(0.0100900604923644249 0.111639572664888387 -0.175831155103574194)
(0.0941951629522938261 0.207974939582680873 -0.0776933891648137892)
(0.00623105671314516142 0.121732815294795335 -0.111946346029803384)
(0.324941625322777317 0.604289102105753373 -0.291465892443174057)
(0.430985150655670168 0.87395006521788976 -0.328556643614590194)
(0.411581410749035703 0.677772237932308674 -0.371260403216487844)
(0.486860889601282987 1.19946130632616343 -0.516285642563220293)
(-0.260029847726192642 -0.692140420573872928 -0.00295892100902624133)
(-0.284066254407439378 -0.801409099670868486 0.095358307630236061)
(-0.212604835604125769 -0.833331071832720482 0.0389524171631740884)
(-0.271112703521546816 -0.826123788275778148 0.0734655065881622826)
(-0.196785476734505471 -0.365009189893668817 -0.18135573872668953)
(-0.323184344163359893 -0.63211950357937452 -0.0237944910200107856)
(-0.250997986208083612 -0.58559175543739217 -0.09392958330244984)
(-0.314591137130868614 -0.571702657584766794 -0.054431561329446751)
(-0.0242844653712129162 -0.0542002026764699663 -0.270736143016463815)
(-0.13751842393169475 -0.281924569042339201 -0.258625271871881945)
(0.0598284337594314278 -0.0825467888712277387 -0.319510366001288182)
(-0.10769896390423575 -0.209433175313042341 -0.237720106550993682)
(0.079154693949233787 0.212891275925818524 -0.24705062416978496)
(-0.0168558679224808244 0.015751895582103187 -0.325526026991618089)
(-0.021537132032486226 0.125244063477521511 -0.236338381801808106)
(-0.0711903854463726976 0.04161004972553322 -0.208316904603333797)
(0.103444088699436137 0.168207855177641974 -0.24424537447339098)
(0.25405568143931001 0.453209900114948716 -0.23220152306431488)
(0.192495684857839661 0.242359912489461093 -0.240079261923877268)
(0.397353665126821354 0.864520099192268798 -0.393006604677116012)
(-0.323610410748450206 -0.692337009935804049 0.0745227376192512114)
(-0.278863545769793164 -0.691784097693720512 0.14180706372906729)
(-0.285405841079446332 -0.739892117102512903 0.109703523642049189)
(-0.314283435905358621 -0.744867171238060344 0.138636857259469448)
(-0.312220532806652018 -0.478966805227145576 -0.101064024165204103)
(-0.322312707200898108 -0.621812349885225379 0.0887283093231510112)
(-0.325277467964044831 -0.635727755351160218 0.0178512186556311729)
(-0.358401458826545116 -0.631714441597840404 0.0348493149415083914)
(-0.136457971548409884 -0.153650219190482606 -0.313415155847036275)
(-0.258801966329111233 -0.401512052573700928 -0.104133941750541803)
(-0.189206101439124391 -0.275338083651777643 -0.268775241243952856)
(-0.255705377211477458 -0.367479332922557522 -0.192264706379208394)
(0.0352089445423618141 -0.00987777894390846553 -0.322720777295224803)
(-0.0352544558954578369 -0.141887122603852112 -0.294656729167722675)
(0.0483881168230485825 0.0658007101608994033 -0.414098719859993691)
(0.00057515470608861057 -0.0657288774899995459 -0.366596887634807911)
(-0.0773106144135237705 -0.14898589971675047 -0.262018850144600524)
(0.0376956200408315664 0.0489675142651981449 -0.233009801503545944)
(-0.0496174355638720824 -0.138774753778833998 -0.267864151112377158)
(0.233892303437457705 0.48124296110925624 -0.329204505379572798)
(-0.259290141487039716 -0.622548988405589254 0.156012635432966951)
(-0.221301628639908959 -0.582576614634243484 0.147796074148806827)
(-0.233503412551627654 -0.634178416200723793 0.138849983935048105)
(-0.256014640938731275 -0.626165532576648753 0.182546225763324188)
(-0.282171323316553369 -0.538679855226225968 0.0856583917378135051)
(-0.254791146505112087 -0.552093107180254505 0.160463881680179998)
(-0.285421944189271859 -0.60012300438503019 0.14534053771717681)
(-0.290701335798748517 -0.591593777903572926 0.171483345189768849)
(-0.226705145670843711 -0.364269286433330675 -0.085375515071227398)
(-0.235979020087252273 -0.447860783613023172 0.0749863232832100879)
(-0.263568004402845224 -0.406674119966681902 0.0173200996509758447)
(-0.258986377113855692 -0.49137038148614981 0.0357268169393647819)
(-0.066572575698994288 -0.26505775011351651 -0.233954802017099228)
(-0.100464113250160983 -0.29442436297700636 -0.0898819654381061151)
(-0.0466189736751056807 -0.149518678993170173 -0.215651084282701022)
(-0.105034254774971997 -0.349463754883292621 -0.174999716510918751)
(-0.0690637318427857888 -0.354243398880654703 -0.220810439668878505)
(-0.0964009769830101171 -0.203892934689470368 -0.27233575108694813)
(-0.139324144570096786 -0.338111525031348115 -0.294226895502093744)
(0.0627410467984617082 0.0204621455221444259 -0.292792781097464927)
(-0.202233956687907779 -0.520521545072624048 0.152247320396019764)
(-0.175203561459948365 -0.513802224239531258 0.123994808206843235)
(-0.184549832595560404 -0.540991743943311953 0.124381572219872394)
(-0.206598079794276968 -0.535766395493918135 0.153483374864676531)
(-0.214080252412219868 -0.476065690919546203 0.149791813225576581)
(-0.191373563423732629 -0.485047473583632927 0.156234419353007331)
(-0.215100219295676715 -0.505771311161935855 0.153254911160558421)
(-0.224286367968590333 -0.495668645146277453 0.187423923359065159)
(-0.177018196114972909 -0.417445984094157618 0.0704798729163326754)
(-0.176948483645939986 -0.440830293685495034 0.148918947327945778)
(-0.203339333049521037 -0.435486292906351269 0.119481749038077581)
(-0.199386066396347705 -0.449453013883890473 0.157115565691381215)
(-0.0617675818611269217 -0.380922935941386986 -0.0767376030898843514)
(-0.106517594616007183 -0.388720955781783117 0.0833121139070168298)
(-0.12098689970686001 -0.335125647890249623 0.00141083824268364291)
(-0.107069324623087811 -0.410797947611519776 0.040994314038204395)
(-0.0209583390953578738 -0.382054828089051279 -0.039894310510759548)
(-0.0447949322371542016 -0.297238024836849635 -0.174291492306075491)
(0.0239183484852886971 -0.448566892030058728 -0.138197599910424962)
(-0.000306238791052994286 -0.352911319891867747 -0.181343623842784463)
(-0.158268906214614147 -0.485454143741302357 0.127981907163830677)
(-0.140222893580093544 -0.477329770655165186 0.105157703842772968)
(-0.144466557400003748 -0.501189108206455347 0.10483450507600503)
(-0.164829177228423246 -0.490713260373935534 0.119572832984081723)
(-0.159835607762149362 -0.459632336802256347 0.155361553455376555)
(-0.146811326805019182 -0.457627227030778516 0.132493625677897686)
(-0.153017834593559776 -0.477651339633105798 0.136324583084064366)
(-0.172635894389834538 -0.469013778067633946 0.153214220286250424)
(-0.134606979650481878 -0.43161984137893461 0.161751188318630196)
(-0.140058126612262218 -0.441446858821790356 0.155359082459930242)
(-0.139383955413271421 -0.440275322684859194 0.155513727710968747)
(-0.162156624833417307 -0.44622281138333425 0.177530855877811478)
(-0.0763849048937813302 -0.419942140367166372 0.120155406486141841)
(-0.108430987894759079 -0.434059467014867639 0.159599753001431088)
(-0.0767302544797660718 -0.4056324731635359 0.147433803540304109)
(-0.123222796248188521 -0.427323936430239748 0.168963678998486633)
(-0.0551460597548404166 -0.405598551456535339 0.110947145436099875)
(0.0229033864844798915 -0.45147051584414255 0.0944049700005791526)
(-0.0744591016596654331 -0.412619708079946135 0.0855091368558578979)
(-0.0687373060127489804 -0.365003091230983234 -0.0222883642542566034)
(-0.12871041370431649 -0.453828081003550154 0.109669422356839949)
(-0.116919451287314596 -0.450343072482043638 0.0906356076996507748)
(-0.116626790086590271 -0.466905834312228707 0.0933011439774397988)
(-0.136182139248896245 -0.4537701499496965 0.104146584276823814)
(-0.130914374267844469 -0.442788028596085348 0.132491154682451234)
(-0.121516807860954063 -0.437239376766706933 0.110668622514955281)
(-0.121357440802580943 -0.454863655607527062 0.114457294633100545)
(-0.141026082303950362 -0.437379111074653437 0.126092313373173615)
(-0.122942644912967025 -0.441475576964378058 0.153207647142731079)
(-0.120890599611344282 -0.431276820470622713 0.133499132144192512)
(-0.117354735754630263 -0.447280670838018979 0.137811068929731606)
(-0.138793556199198143 -0.429842286278702745 0.151679342447827797)
(-0.0956428227510432993 -0.440007749975820761 0.150391491951389067)
(-0.114223476919498371 -0.437026730419223797 0.153075503229229554)
(-0.100875574314250899 -0.439794927601782737 0.150585232739095187)
(-0.128565653985867667 -0.43592617859426025 0.172875373041318947)
(-0.0889932495829897918 -0.437458252950415072 0.145682095743513651)
(-0.0609846619513352214 -0.398664948107077755 0.116274081849313843)
(-0.0942272421682212313 -0.441917797747094387 0.15812839770542178)
(-0.0246638867313182693 -0.442905727735427746 0.0862067849186119173)
(-0.110974296105695924 -0.434208179308563313 0.0916348078577660929)
(-0.10038757170130902 -0.430305448120349765 0.0731450015873137266)
(-0.100375381092697738 -0.444852923754367691 0.0780484956384082107)
(-0.11607381469306749 -0.433906931964388232 0.0856246837771756641)
(-0.114060303058502704 -0.425711087103449293 0.111676599976696489)
(-0.106016269932125623 -0.419978405903015883 0.0896002283232070901)
(-0.103984868369426608 -0.435784614338473819 0.0960440677395308362)
(-0.121473080257139668 -0.421216781411216268 0.104810192164481439)
(-0.115298261917808814 -0.425096335784621637 0.133366988230690875)
(-0.110051016458000278 -0.414127091846025031 0.108466290291699352)
(-0.105061274144810896 -0.432336325574315894 0.116466751465937712)
(-0.124095184958017038 -0.413228830603265929 0.126801077166974363)
(-0.114692631222134647 -0.43137082744068711 0.148366107021354221)
(-0.113940916265616157 -0.41744894600925303 0.128861896289416356)
(-0.102339753996841948 -0.437155294482486634 0.137187249712479975)
(-0.125599497882977862 -0.416698278875176631 0.150778634488187485)
(-0.114940366251139972 -0.426695072159763378 0.142131491566491241)
(-0.083463469832875864 -0.43672833860729221 0.145475231909180353)
(-0.122632554570724653 -0.426933437141232108 0.161936134215089983)
(-0.104247776661342051 -0.414325688729762387 0.131189084280641799)
(-0.0969416588805991492 -0.415033633781230871 0.0711104220527545433)
(-0.0845408593180799195 -0.412424872044796498 0.056044291134857524)
(-0.0869310210022715135 -0.425622783359310253 0.0611976799285222778)
(-0.0991972604546260128 -0.413963381213640402 0.0663356240014785353)
(-0.103560061965186884 -0.406353035006908003 0.0863899186382099671)
(-0.0918860356205072615 -0.401713351578824651 0.0681023066604138777)
(-0.0929265461442949359 -0.416878987799298328 0.0747135402465435999)
(-0.106900072622324926 -0.402441252154577211 0.081008564550710524)
(-0.111002701385838176 -0.403128635118351231 0.10396119835042486)
(-0.0994802303691772055 -0.39284080276129929 0.0819250572891954132)
(-0.0986644586614569413 -0.41212196059292433 0.0903766205426747432)
(-0.114147487269289569 -0.393407721347548534 0.0979527247301050369)
(-0.121397021013972636 -0.409303950083002188 0.122627280834553501)
(-0.108941913104269872 -0.389245994290541075 0.0975857459871238009)
(-0.105447822411771974 -0.41553379336518631 0.107926546177104482)
(-0.122763573783619545 -0.391294793725824319 0.117489911339481987)
(-0.122221371922615576 -0.395018945551127487 0.113683768649072064)
(-0.111995129364078586 -0.424420483455708264 0.122689925187247667)
(-0.135317011561045225 -0.400829180939363983 0.137537841370676789)
(-0.128451162358647369 -0.423961941160815814 0.132163632589014646)
(-0.0650008073155743382 -0.419396671661606046 0.0357377916062067633)
(-0.0523971424372320915 -0.419252734173309771 0.027506306079773099)
(-0.0640943370887988029 -0.42074618608624631 0.0330657088131436003)
(-0.0728126881586855373 -0.408574630382758597 0.0437409733763893735)
(-0.0592872419920632068 -0.408411849298053853 0.0335735096880825645)
(-0.0724445335770954324 -0.409612291814032914 0.0406946115097461328)
(-0.0806629014557920937 -0.397081822966550313 0.0530361757425168792)
(-0.0663939280122288755 -0.396628174368402475 0.0407214760126386674)
(-0.0720543251167433813 -0.408113301910618176 0.0460901817492161206)
(-0.0808102101507715692 -0.397395574256353412 0.0496442347329131214)
(-0.088962545006007504 -0.385372371904501188 0.0636374453113995459)
(-0.0739219014033456606 -0.383944967745494914 0.0489762166981152144)
(-0.0792952323844378915 -0.397377610482938515 0.0555271683409016212)
(-0.0893251722419091954 -0.38440821906509598 0.0599960373301848399)
(-0.0992755274906693547 -0.375012331827843493 0.0755496049258943536)
(-0.0825393294780696896 -0.370597525201729561 0.0583010087869717877)
(-0.0874728560918313081 -0.387247044580606437 0.0660935300480118976)
(-0.098737865256195198 -0.371287596390920127 0.0717558153093526691)
(-0.114658290640761731 -0.369746707715101819 0.0886422338016424755)
(-0.0936383115853078041 -0.357710033197632671 0.0686360438591439859)
(-0.0984994537220630351 -0.380803608130037885 0.0775153566501104313)
(-0.110675130784183229 -0.359802652750669805 0.0848663964749323124)
(-0.110350188313050518 -0.349078073054843729 0.0797377488516883698)
(-0.114646551866165181 -0.383991460604998502 0.0881431851058034344)
(-0.12842345248559095 -0.354519946825280485 0.0995667557842788015)
(-0.136263266905400665 -0.370125479457995399 0.0994545573712475733)
(-0.0473015623296863391 -0.406675557695007961 0.0253420241616489558)
(-0.0350147401882209414 -0.409221982449622212 0.0186369981265472641)
(-0.0462553667588231979 -0.408701411199720699 0.0236078688749330051)
(-0.0535850480304940965 -0.394619517246416585 0.0305540123243319243)
(-0.039878629915125155 -0.397356050949559225 0.0223394220506388692)
(-0.0527025783326437736 -0.39653488214464605 0.0285377242942498506)
(-0.0604129047086426965 -0.381278950202650402 0.0366615169682370234)
(-0.0452013274990904004 -0.384137350076152517 0.0267348291408031867)
(-0.0536931002532011897 -0.393184170882157569 0.0321557878568602684)
(-0.0596071605406340299 -0.383072007307307782 0.0344143146903843761)
(-0.0682426860646127009 -0.366404375567613072 0.0436397801736874424)
(-0.0512317518702975969 -0.369234399142845005 0.0318655565929622034)
(-0.0604981644829736195 -0.379974355897686078 0.0383977253873990232)
(-0.067243137848553361 -0.368069964020669771 0.0412453892732576322)
(-0.0779860910312144967 -0.349718069283275035 0.0513874477202214755)
(-0.0583818575302147563 -0.352154649282624299 0.0377500759842780073)
(-0.0685670523393699105 -0.365215929705123621 0.0453729381081887095)
(-0.0761862529424362639 -0.351273571420360475 0.0490076990886709682)
(-0.0916613412119552662 -0.332219493297184976 0.0597315589091897969)
(-0.0674258609907247008 -0.332296229311534574 0.0443634889859095549)
(-0.0789964953143848375 -0.348984458626466321 0.0527451589707673626)
(-0.087544769135829717 -0.332432938592728933 0.0575324586606044616)
(-0.0805805362038677919 -0.310089186420468177 0.0515935653735451194)
(-0.0953070782066262195 -0.33393783834034263 0.0603716595676308254)
(-0.104075709062911317 -0.312679117300121379 0.0665235156531662625)
(-0.113983016551015559 -0.31851439446067259 0.0677703692231831634)
(-0.0280017253607744258 -0.398339685140035649 0.0156343960155372261)
(-0.0172029592764223575 -0.40340153690969055 0.00969823486198404493)
(-0.0272219133175902565 -0.400991231275157123 0.0146581078838535547)
(-0.0319733198526297932 -0.385092128979247939 0.0185202388671101836)
(-0.0196404516902229029 -0.390659926098210708 0.0114432599887074864)
(-0.0311529284645459745 -0.387875180572485156 0.0173935403292756439)
(-0.0365175338934902519 -0.370138825182353248 0.0219388687655283805)
(-0.0224227019987046222 -0.37631685961333039 0.0135069240650391043)
(-0.0322426067820570025 -0.382776286587999004 0.0194666061248817829)
(-0.0356076877053002547 -0.373147776344205317 0.0206413101063680667)
(-0.0418552273488052504 -0.352982445977282566 0.0259758524035527821)
(-0.0256742191911275529 -0.359920761250452026 0.0159644355957936773)
(-0.0368105904262592404 -0.367619065591057448 0.0230301062970602148)
(-0.0407766815172542485 -0.356391345762542722 0.0244947861619721138)
(-0.0483590893399826957 -0.332855535472795672 0.0307261172499661631)
(-0.0295474633630110027 -0.340846032020586276 0.018900043314398117)
(-0.0422571352475030054 -0.350046748513003658 0.0272528128945066436)
(-0.0469442279058873424 -0.336998229768282531 0.0290107403815052234)
(-0.0567534048820895129 -0.30853960671720132 0.0362254954502648982)
(-0.034223527071707914 -0.31808399155221645 0.0224600126826497368)
(-0.048973565699536814 -0.329026949136601243 0.0322682622638221991)
(-0.0546203349041158442 -0.314089842907301353 0.0342818538341578341)
(-0.0402104489597093842 -0.290027498457868849 0.0269491499067781616)
(-0.0584606306596577169 -0.303312193539143848 0.0379500170467167094)
(-0.0650706918626506037 -0.286299776409495943 0.0403505969434772571)
(-0.0690999517313157507 -0.27901235481634562 0.0420289213659706395)
(-0.00904818869377504824 -0.395088354069736192 0.00550709883515429922)
(-0.00881387395854342157 -0.398108921412520966 0.00518055438783930535)
(-0.0103407188230217831 -0.381164284067932124 0.00642994518663638631)
(-0.0100619227775949113 -0.38443246325986169 0.00605595630099987816)
(-0.0118845607617891862 -0.365321871359224892 0.00753249089530445056)
(-0.010453035754570834 -0.378390144978922649 0.0067493498206290161)
(-0.0115294721916909242 -0.368933362473830906 0.00708947118415015429)
(-0.013735347797838398 -0.347076563846789199 0.0088886265066391093)
(-0.0119785206578515505 -0.362260932806203473 0.00792012425041938722)
(-0.013282525327732525 -0.351188205005742271 0.00833691925341798097)
(-0.0159023994740680741 -0.325797588044384356 0.010633938747081682)
(-0.0137290805662642589 -0.343605732438563738 0.00940066106874439845)
(-0.0153720196838095895 -0.330611465241475722 0.00986601400649318901)
(-0.018241861099986139 -0.300725865555858785 0.0131836671391630227)
(-0.0154960994485142858 -0.321803031457642053 0.0114394697354547447)
(-0.0177758560217274146 -0.306432411412111416 0.0118166780357934053)
(-0.0167551367768756128 -0.296203176857910089 0.0148767875373984008)
(-0.0203360787144735364 -0.277717240844153668 0.0146391118843687013)
(-0.0203040262631429408 -0.271057064607374387 0.0176477739857767921)
(0.605177530664826047 1.28402494414582247 -0.469873531126407451)
(0.593026978127972337 0.6750583177979953 -0.207896789962153633)
(0.633829893628874874 0.830081686316920586 -0.256862769311216266)
(0.476767630167359069 1.63092588032113461 -0.614741326404999455)
(0.438929716743857334 1.8239373562928296 -0.626186608246088294)
(0.462838363978057998 1.85223375859923967 -0.65227441467510705)
(0.490924369080869505 1.16859863810869014 -0.352764585240745165)
(0.424043800376392777 0.536545762902940093 -0.117395387062403156)
(0.536420557316279911 0.711335157413698904 -0.123803371170673429)
(0.495173637200222838 1.47746284375865589 -0.51231162575033129)
(0.483735098899035987 1.70915409498983228 -0.523493138163568017)
(0.492789453013825041 1.77329093610755906 -0.629420671664535303)
(0.265566769315836781 -0.809136550915524388 -0.021179891560796589)
(0.166571257853620952 -1.03762682814537266 0.0423218078261050623)
(0.253776218820961907 -0.984712362777286132 0.0560619247865334208)
(0.303660608828494438 -0.16058787082788778 -0.103895476682059812)
(0.139759432524198951 -0.680833570079297123 -0.116226694190499094)
(0.316001003369840661 -0.564405167604602798 -0.0883632948399719342)
(0.282554893385531247 0.376617870751326911 -0.10117500685552186)
(0.241354964229234276 0.154127356310478969 -0.124942930817538808)
(0.260147732444172108 0.294304596656699113 -0.0791977040474327043)
(0.35614513301483286 0.919480134386150283 -0.276942427571988281)
(0.21324515339692901 0.38428066530145083 -0.0687780122141727485)
(0.30737103594911902 0.513203451117420717 -0.0718875833561539584)
(0.467992570596973301 1.17209307660082929 -0.389367510778344639)
(0.496880835262699272 1.41817317161469503 -0.429438614775555061)
(0.513772701850889635 1.59039209012388261 -0.566740201409640765)
(0.086298119147450697 -0.817360178719273578 -0.0527249948035985738)
(-0.0327386847120461066 -0.92703726465005698 0.0264909048678965524)
(0.160678068316795597 -1.01435831229439932 0.0316505097208306801)
(0.119325049330063257 -0.292977450334379219 -0.137274148325978063)
(-0.100120086719569262 -0.645942561806123972 -0.131076243256140534)
(0.0615928774746326915 -0.644611897030828662 -0.157321477827826878)
(0.190794912965337099 0.163260569980248182 -0.0925459361761897525)
(0.18703938522980107 0.00202615631685867242 -0.256429416949309874)
(0.247188915869857279 0.0950656714016006599 -0.102256748920752122)
(0.24435013136969716 0.61792920833811027 -0.181203095420527427)
(0.0625679704274432202 0.244165527900288393 -0.131851236734303517)
(0.141948378296376992 0.32037888090795863 -0.0318888963484099605)
(0.360099206772203362 0.777848423570637215 -0.268513099320481896)
(0.441090228599302081 0.979630462537702695 -0.288730029865097992)
(0.495228277727986221 1.31281713096039732 -0.458071443343455731)
(-0.160779571877493643 -0.726782406696239613 -0.0518603435846457725)
(-0.213944422276132862 -0.787917303448375628 0.0550006440836780588)
(-0.121817029018728665 -0.839284789868904535 0.00725941594091771957)
(-0.0617114927005201763 -0.303129354414952423 -0.250231511879471735)
(-0.253091110008768605 -0.669493702406499858 -0.0661470392015075931)
(-0.178162762134563862 -0.595765670312238704 -0.166292529939044614)
(0.106916317451249854 0.0968974772827637526 -0.295734717507424305)
(0.00814075625200146383 -0.156079273138853336 -0.355207996573522145)
(0.171576447160304041 0.151417262856097412 -0.36400019702421138)
(0.131252563584688342 0.365562687666652397 -0.219161240634257209)
(0.0437068527130431081 0.1398214103095822 -0.335395058156369941)
(0.0262953727242894106 0.256212486775823367 -0.188409041367054636)
(0.188307212780705363 0.342265233915121203 -0.221989795786162819)
(0.287754097210676352 0.578800230976661778 -0.201239114278131348)
(0.423106332306274979 0.997042506840973619 -0.35275920031133623)
(-0.255588636985665085 -0.68328286251786885 0.0407139484668165089)
(-0.240045707861280627 -0.686857117435977327 0.101907497208932163)
(-0.220558284989208736 -0.718442297235253546 0.0689321414263840138)
(-0.242814245335933709 -0.432099033775791397 -0.171123523895557544)
(-0.288386704952418582 -0.617185384598735176 0.0614697519651045896)
(-0.25638881897484278 -0.628040061650545933 -0.0283795871333825077)
(-0.0242671514640095537 -0.0558871543003956403 -0.394868337222468224)
(-0.193972139512858299 -0.291642101685237465 -0.165516091698872214)
(-0.0585545303595467193 -0.155438049969814474 -0.372667600724634951)
(0.103514625027937596 0.124646003370006447 -0.338223613308274829)
(0.0370235990434005791 0.0181766279531284138 -0.342806790606528577)
(0.0955872716988255267 0.173788192200424463 -0.446588426547870787)
(0.0186052574713453031 0.0234919146596747272 -0.237192192531589047)
(0.126437893099675347 0.196021436320601289 -0.205413272986161327)
(0.311547735301079209 0.606570474304457097 -0.291239294012851424)
(-0.237439576011523434 -0.611752432180164729 0.122663300707219716)
(-0.196751616507278987 -0.584183546913936036 0.114525820805831499)
(-0.195221018777147898 -0.62529681889557609 0.104534375355323131)
(-0.265757762301866873 -0.468117269125486346 0.0670771841617897324)
(-0.245731016979836153 -0.545232012770411445 0.134646399044577092)
(-0.258335614970613192 -0.592457436094051326 0.122540134846943899)
(-0.182438831019600206 -0.191923512526522344 -0.11345454508293186)
(-0.230928317365113961 -0.381748947262946114 0.0570548402226094334)
(-0.226280071430414675 -0.301336461071195494 0.00332575742017947838)
(-0.00523060997011155424 -0.0883538635691237251 -0.241775369829842213)
(-0.0671417601318046314 -0.147029186860274552 -0.120313243447022544)
(0.0502210766000535172 0.0533122314131790273 -0.263036051411425664)
(-0.0721321773773785507 -0.215412668085771974 -0.21051250534799601)
(0.00731923416637738147 -0.0499363164289760991 -0.249310883648607928)
(0.148043840191204368 0.20248043829509943 -0.268169239276958349)
(-0.184814466202854549 -0.526241510032623871 0.126508919143188875)
(-0.153812828535615675 -0.520054050160217662 0.105559031352575952)
(-0.158382804531939397 -0.544140636164252123 0.104207769828712354)
(-0.210594485640752394 -0.465191913148740921 0.124624055105396855)
(-0.176744490465503945 -0.489654742258585407 0.134520598978538103)
(-0.195860622490421743 -0.50614929082500093 0.13911610568806268)
(-0.190044419189220604 -0.353165956702443717 0.0501961418585194843)
(-0.165774804816852583 -0.414098210901235386 0.127078710797483285)
(-0.189085868880730534 -0.397716381868044366 0.122777651636195737)
(-0.0993643727980739883 -0.251440736785712382 -0.089050378965175564)
(-0.091199559570618996 -0.302009927271175538 0.0619417223465366373)
(-0.100961710184267084 -0.218248070822321949 0.0241222477015622661)
(-0.000933206657316679178 -0.402287088656055669 -0.0468496502760144401)
(-0.0766520957441946538 -0.146033680284992418 -0.14760692642508233)
(0.0107687192751301231 -0.163332663091101588 -0.200178585934940895)
(-0.137465382571163169 -0.493386304098258788 0.113570711187925347)
(-0.120870453906500322 -0.487456900356353084 0.0931749982925898085)
(-0.123708667837206299 -0.510218850633562426 0.0925046482313740259)
(-0.138189959540196 -0.4582943255157087 0.136975254670624574)
(-0.127563948591121495 -0.469781927156019075 0.118763462810147047)
(-0.132407958889306399 -0.486197031520904543 0.123717092741049792)
(-0.101001259403623228 -0.41428795446946054 0.138824291285500667)
(-0.116680564555639452 -0.444896021559569976 0.138849994711275071)
(-0.114694358431522356 -0.429813309103209362 0.142986099096724384)
(0.0129112812714369148 -0.437160848640512023 0.104142451035698774)
(-0.0691748408992579056 -0.41995742271618991 0.137619261941644172)
(-0.0377031684775082504 -0.359535369895065848 0.124806717873235232)
(0.0170647842879856348 -0.354136916718602535 0.0926615382457723624)
(0.0844089478314170166 -0.41680274279830043 0.049307553320178367)
(0.0275295412503380743 -0.445632467974373003 0.0185062578028046126)
(-0.110117402678622092 -0.467941408916205615 0.0983677499148116197)