/*--------------------------------*- C++ -*----------------------------------*\
| =========                 |                                                 |
| \\      /  F ield         | OpenFOAM: The Open Source CFD Toolbox           |
|  \\    /   O peration     | Version:  2206                                  |
|   \\  /    A nd           | Website:  www.openfoam.com                      |
|    \\/     M anipulation  |                                                 |
\*---------------------------------------------------------------------------*/
FoamFile
{
    version     2.0;
    format      ascii;
    arch        "LSB;label=32;scalar=64";
    class       surfaceVectorField;
    location    "0.840000000000000524";
    object      Uf;
}
// * * * * * * * * * * * * * * * * * * * * * * * * * * * * * * * * * * * * * //

dimensions      [0 1 -1 0 0 0 0];

internalField   nonuniform List<vector> 
20856
(
(1.03913143659906049 -0.159370437440444046 -0.0256199049974548225)
(0.645996348174417756 -0.0488981708438788049 -0.00553866642462969017)
(1.60566225807218865 -0.210546571180057485 0.0644498207073942592)
(0.904549855642072131 -0.0676400219656586588 0.0294908068457429354)
(0.657984083836284928 0.069168933843913899 0.0859336570632506236)
(0.378124616016694837 -0.120313760921083895 -0.29046607716404621)
(1.4620383673949835 -0.137625653057258601 0.136003247781644548)
(0.866410222870832025 -0.0367883844853003419 0.128660031769244038)
(0.74127443935466919 0.0683974680060094042 0.21786773433372969)
(0.448992413211906527 -0.0160267432817457929 -0.22313845399718249)
(1.34434449651863486 -0.0824826096024618427 0.244080475169433875)
(0.89420389518659904 -0.0232795866161964043 0.254670500106127018)
(0.834836579801105816 0.0383729458764434303 0.328765244596947781)
(0.533222484544327968 0.0326432819658811768 -0.0694024040502352613)
(1.26243982308490632 -0.0359811322579475304 0.37656572839615543)
(0.926434465464639478 0.0276504289939373607 0.357618315830252664)
(0.845049084924332727 0.0356810804237372645 0.40192182155231887)
(0.608902878386015312 0.0675240191668592671 0.09993072925743339)
(1.17176811129873504 0.0270916206482940194 0.469893034310860047)
(0.940985313944935453 0.126538050995329998 0.400331025212990188)
(0.80262592936461219 0.0891009404269576255 0.415657844758486383)
(0.692432165375106212 0.121719964470106537 0.209770848008042299)
(1.11026733604605909 0.117885627371496104 0.523039053203099957)
(0.943261069051927303 0.260944467007871606 0.381275715354161326)
(0.736815480666316303 0.199000136033122194 0.383227431113903172)
(0.774381028665310778 0.229414784022160506 0.244793187939352702)
(1.07426480028595561 0.203087237270319548 0.511442025043091442)
(0.924409360875345754 0.458694970472327601 0.280136974693180218)
(0.64910335134336361 0.359892530705445468 0.331166024217229849)
(0.843747578196516579 0.394366536978152882 0.205070087913293425)
(1.0000491052645879 0.306056238949939885 0.462786939758482174)
(0.877587879307717422 0.800478894959705034 0.03276516627462564)
(0.533450807345393185 0.6302768517445273 0.185974406188157276)
(0.888379869322263538 0.658502932766161453 0.0445456295181211881)
(0.843469442552026716 0.511886613482297581 0.329078944051571509)
(0.583340506614217436 1.2593495154894232 -0.308417262503830059)
(0.584750835002787239 1.09845549180381719 -0.170395725269725851)
(0.895800555004286014 1.10835421520411592 -0.176333441227603749)
(0.774939914849597011 0.90760990702327482 -0.0441479689965514413)
(0.0701098902892203363 1.42493814320346091 -1.10677894445833491)
(0.0749711386247706724 1.577791041795783 -0.637964625995444901)
(0.343526070317222876 1.57219236990712563 -0.426376825332858478)
(0.398626797123431298 1.3853561137886512 -0.514049337509409288)
(-0.166128118603735275 1.17692166117863328 -2.00531867811635234)
(-0.167291005292076939 1.34606703690145491 -1.83627008262863378)
(-0.0117314971842771964 1.39803369306830394 -1.63172329962943907)
(0.115098994504926763 1.33331470189449708 -1.72576503881016996)
(-0.44594622484923635 1.10732222922723178 -1.66112562496900518)
(-0.528267234700182664 1.01506194757962609 -2.15798915534594205)
(-0.523949928791171637 1.02156220523040298 -2.16369154100473171)
(-0.290908721715575358 1.00996562432231718 -2.34615149508317788)
(-0.359403009028331111 1.35908591712572901 -0.412181033245574258)
(-0.538805026418574973 1.19530801435792333 -0.918006311948411424)
(-0.606774504301107132 1.19664233685710619 -1.10598665421872999)
(-0.326356876561421538 1.23252769752974523 -1.08134138338693475)
(-0.100475114522066686 1.60607200109520631 0.259921348747305214)
(-0.266340858599022456 1.46294150398378919 0.225894361978253994)
(-0.245588231454777317 1.49971884585088544 0.125431101414731128)
(-0.24539207587334666 1.49269861510804436 0.253299016531778387)
(0.113649506887691501 1.68211248221183474 0.29577507754642185)
(0.0799099397965693375 1.69404180972034935 0.273278082629620889)
(0.155118670360641808 1.70676938542842249 0.306870213160047089)
(0.220043223925629167 0.114284765258912013 0.106014895636076023)
(0.255991127242935601 0.0666536318008777717 0.347020729356086521)
(-0.22137290138239174 -0.0546909218933858271 -0.189717742482143126)
(0.679462564057402574 0.02186191007336373 0.25439384661637432)
(0.503298421848707767 0.152071931338509186 0.274310584551238912)
(0.430196324601377023 0.162805995992006181 0.45712913245187814)
(-0.0559024080062959783 0.0678259405369520257 -0.0646823906167326157)
(0.803774987190825962 0.11725862509421929 0.405845421831827924)
(0.714251415515119614 0.124159179540973844 0.417972947161435293)
(0.561397352288893536 0.175100280492354127 0.531864826705637173)
(0.17343693051329237 0.0994405478998892089 0.0923852010918095323)
(0.941357882714519145 0.136381779756382548 0.516749245758903797)
(0.777827260717991797 0.104767317549737088 0.476016566043139688)
(0.623846269019632027 0.145258689144739106 0.52539908633676391)
(0.354918596703994671 0.114989988927226672 0.269850692848841389)
(0.952991969291036245 0.132771405867085163 0.547210417257104953)
(0.7340383782491543 0.122203820931610294 0.459961350480553144)
(0.563320235298198746 0.131336166859509051 0.443619088112499171)
(0.444999506622845875 0.130252531693893336 0.368152137336124674)
(0.83636331680941256 0.144720578401826394 0.5156785065145012)
(0.630610809482555212 0.199438900044251355 0.398554250659400033)
(0.374984956391738844 0.195750950889635927 0.315760203514205362)
(0.40026472307832156 0.177753584023450928 0.347961800930373322)
(0.710442711838392249 0.192877600497090657 0.457835451102686364)
(0.481678459314385465 0.347408870962848226 0.333117739976971916)
(0.225644883539560526 0.331222949950703449 0.249633560976408986)
(0.314746138351854721 0.301116085071840123 0.283294723786874703)
(0.602899405671122435 0.284877548689179916 0.398809774873134792)
(0.360112969547600192 0.582980542846955996 0.237003455712208821)
(0.120107446794200601 0.517614636641522408 0.229597999516855472)
(0.306892249560854535 0.493380501411472161 0.159889759114823254)
(0.477737006756661531 0.42801559414859347 0.353776819150988353)
(0.288779592952554343 0.974254527757385302 -0.0171864853561893849)
(-0.0119638556179619843 0.810738339321122492 0.107520906394158622)
(0.304872748257450699 0.783704676459805571 -0.0203211799447442047)
(0.25147965617180007 0.668727197006780627 0.269271196309332161)
(-0.00945818991584664037 1.4571702989817259 -0.499943088761340471)
(0.0267871458583417398 1.32655027000318304 -0.299013107348388985)
(0.378951766430999148 1.28321964576897063 -0.262238263090087464)
(0.151851444949621273 1.11359427134281352 -0.104285659698746064)
(-0.35602004318970748 1.52393177594984275 -1.36745576416574965)
(-0.397033878244276772 1.66472772344598963 -1.00016193377095153)
(-0.120984751324221873 1.76471464349459128 -0.650660091245933159)
(-0.196413215408943298 1.57983062214417891 -0.823349592524403318)
(-0.442400162366325622 1.18125836528746953 -1.98894055985822416)
(-0.481321600209140499 1.27248879047469154 -1.95031634680200239)
(-0.342209861563371243 1.39167163448263387 -1.74990963192181703)
(-0.244209129584679552 1.34062881535970124 -1.98344622897568423)
(-0.591544391081856857 1.09450307415127934 -1.4148698423253312)
(-0.678444013361068077 0.972995696965681667 -1.88370796674340157)
(-0.657872020174286143 1.0213212360419448 -1.91387920464479144)
(-0.490743548162698495 1.03143550056779287 -2.14715546383097067)
(-0.423154303824433253 1.30760885218068412 -0.279930916724558221)
(-0.602930675293248175 1.15102284534019272 -0.728770775257744918)
(-0.654471376425458606 1.16567557885655537 -0.895625242509753172)
(-0.438090436225818725 1.2067926476069113 -0.815805879882318674)
(-0.12593732164545679 1.54891538365513171 0.261748090777370157)
(-0.310457690271146891 1.38302247869407569 0.227340786506395193)
(-0.291784751952135435 1.4426281800076064 0.135931080062954734)
(-0.298772424894532873 1.42047881579271618 0.273309673649328233)
(0.103321170034645082 1.64004506560805741 0.28711172537459545)
(0.0670827663027198928 1.65540700740277535 0.259974143280952252)
(0.14435069298472597 1.66503928069988882 0.301776488790941377)
(0.418577032459751253 0.181507341546938733 0.698134966171887861)
(0.127685492574188209 0.155799248539562035 0.674678979219111463)
(-0.0583154604137590127 0.0264180448157554232 0.345444243269625695)
(0.56380948636252326 0.145150751921440141 0.812370685002735016)
(0.482794902786711055 0.231490252853256806 0.714683374606277622)
(0.225146618906260892 0.293700593518830488 0.691029441555492285)
(0.100731599213661482 0.163216304269324763 0.46433202570572879)
(0.554762300883771764 0.19889626084057016 0.79033809377511699)
(0.470468431836415235 0.200658373132408141 0.63929096588096701)
(0.195780048116859701 0.265908185506264882 0.588196389124802987)
(0.123796306215864377 0.19091424101187135 0.453568757702610459)
(0.441786856588058996 0.19360856672729998 0.622862647841352812)
(0.405635266668233296 0.152426075797157168 0.493001608406121783)
(0.00714305055805721303 0.182567222645069915 0.35956638759943288)
(0.161939078444838014 0.18007465708194037 0.429340881131549501)
(0.347678884018656875 0.166235693797539247 0.439128004737104893)
(0.220930739320339409 0.17040073697218111 0.299417941146152056)
(-0.184196179987994785 0.18023470657740373 0.145490926076899396)
(0.103350078857508146 0.187101745090052451 0.358097454915944358)
(0.239903743941590392 0.155730934446936919 0.271179349959113358)
(0.0060075109903850038 0.284047948831706532 0.166839513831214176)
(-0.350857696900252036 0.258589575273355243 0.00934687992791866096)
(-0.129363996209804877 0.26439886538033619 0.214220713313151373)
(0.0704918956961333304 0.227844025845413495 0.124970197430716148)
(-0.11112427159594275 0.463282110141562953 0.146113820516291903)
(-0.387854667776082573 0.402417814660154249 0.000805683249698790904)
(-0.224612545518229678 0.401659128765733009 0.103029165604436812)
(-0.00246138360770415581 0.371900827997145411 0.128297465485628287)
(-0.155348534461284743 0.727345232692342747 0.100115450198806966)
(-0.362400058920136603 0.627134656627813314 0.0434775793681405204)
(-0.165817222623943522 0.591253074751574403 0.00689347804743029036)
(-0.0420582467094208212 0.553390007210158852 0.181724161165639525)
(-0.217106796058645996 1.16300629094294972 -0.174305715598032457)
(-0.404539272907941783 0.998413719690937618 -0.0793470165323342524)
(-0.125950619226901789 0.908955708510632232 -0.167285731344149591)
(-0.231077167462595906 0.846092541300556333 0.14630487234604464)
(-0.473328047365532634 1.54727076929390472 -0.799231952358004594)
(-0.432066095797943972 1.47987468009994982 -0.552000129813846163)
(-0.091962639490640527 1.44943258179864798 -0.406908396815846007)
(-0.387783682805106056 1.35153677771211211 -0.35647996512189567)
(-0.646149868883813094 1.42484292875727925 -1.5830225164072127)
(-0.687283377659525296 1.57824700039945665 -1.31753427384538901)
(-0.465397397642028365 1.7211014989532285 -0.966743328831495274)
(-0.610326477071621687 1.58271640343523479 -1.31252452694898136)
(-0.653469745966120064 1.06836266328054408 -1.84508375368718069)
(-0.69463216474176015 1.11912424996826143 -1.86584260049019113)
(-0.607956960796630308 1.22972361958733511 -1.74811147955336255)
(-0.541630764878492599 1.19033558615813861 -2.06216001347868572)
(-0.693463913154612754 1.03319967317317052 -1.19760889967578987)
(-0.774619605972860281 0.875682249879632724 -1.57224219944657184)
(-0.750057743923385645 0.96618660742290885 -1.62131332526527228)
(-0.644923682532091092 0.975100877821340584 -1.85593422413057896)
(-0.441667724136305395 1.23595895117083598 -0.221499072026777932)
(-0.626253848559727544 1.08225799309219672 -0.615077250110504514)
(-0.673555189045347946 1.11120242685012971 -0.742942782422251091)
(-0.502745162519077637 1.15621669305326114 -0.628676942118122861)
(-0.158016579893477699 1.48292457520784504 0.252704421103621069)
(-0.3439094238201863 1.32277505279246443 0.218318519557798352)
(-0.326688786685329136 1.37626379676044874 0.118731382998609372)
(-0.330911617276927805 1.32989391780697175 0.281887063019908346)
(0.0960720650419903122 1.5850118823979229 0.279180508251428594)
(0.0577157110007982532 1.60972077089660304 0.248628135114694698)
(0.137446702023115735 1.61545113074667657 0.296578391002280839)
(-0.0835838301199995637 0.243654640068121708 0.667573454602715)
(-0.519470342255488715 0.219235464603349278 0.454615151309023635)
(-0.383490380555431498 0.0941991589804904994 0.38380490543826612)
(-0.296029664180280871 0.148430724639417339 0.62048895011258276)
(-0.100250340265176457 0.272544171632652821 0.564542456074018095)
(-0.546993675820758307 0.26374295087230204 0.377580363270589581)
(-0.250663837739686313 0.260374395427485639 0.454030629945030406)
(-0.431340469740141175 0.19175633934465014 0.377442353331749303)
(-0.287270080083758317 0.210888239039138697 0.308471810843265082)
(-0.628241595446335954 0.218973570748886404 0.17281812304468433)
(-0.303466881179934145 0.266429855241960667 0.394063420054144964)
(-0.516662752844786466 0.13765698077725172 0.113173595797796581)
(-0.568637354014902785 0.175570855858269842 0.0120557052702110062)
(-0.839257638136536643 0.154109425313837312 -0.109043991029942972)
(-0.49941891611652639 0.238683758644174793 0.181993330474377907)
(-0.673551259933320101 0.108932823954747432 -0.156295624077875672)
(-0.734817635864362217 0.214572761906605292 -0.144580135141332361)
(-0.979030675748025159 0.121698009069950944 -0.288277511220195959)
(-0.675513761272129254 0.255382081962419016 0.0120483913616574942)
(-0.797757905518458932 0.149113565563628314 -0.271224811838550406)
(-0.719446020941216569 0.331341727701574607 -0.156686950653595697)
(-0.973684546763024406 0.192012101567141741 -0.330047560543126228)
(-0.745697756868756279 0.312381688653716294 -0.118518411326089146)
(-0.727093008412324604 0.244231064783528434 -0.236297330626323854)
(-0.628750381017511351 0.542175683515041751 -0.101830557898453161)
(-0.841865385455014992 0.388363127272576714 -0.270521311364650074)
(-0.672266381515540634 0.4323357816798718 -0.177441056620899706)
(-0.5786779061214683 0.411112514939166562 -0.114837579005719809)
(-0.541646640316104322 0.884684936050010973 -0.135984887363000156)
(-0.71134197524181908 0.703441131696082134 -0.206658028070147382)
(-0.516263732819169818 0.655884919050458981 -0.22832465479671582)
(-0.497919168820051716 0.666860700446542554 0.0113924596832220906)
(-0.583970077235183016 1.3100677562211529 -0.457041430748148014)
(-0.687426814638789629 1.13890905899723971 -0.355045640687085551)
(-0.429972988475539719 1.04560413139149389 -0.364342942335503295)
(-0.61691519056213151 1.06990079545994177 -0.12568288962037466)
(-0.749771713508384341 1.50593983589662761 -1.07030245130123669)
(-0.743793708695985822 1.48221460262533866 -0.844164362221030196)
(-0.451330678655893658 1.52933760083864145 -0.625831341331483104)
(-0.751596208011900968 1.47059418502727368 -0.786953042133042624)
(-0.783697343737815744 1.25886586665058653 -1.60035435792837566)
(-0.84248278137066468 1.38199120197013858 -1.4378126634094579)
(-0.658461947465128872 1.55943089775311039 -1.16830734536172431)
(-0.813992936508707965 1.43602191446102845 -1.59474261716942278)
(-0.76815639475782671 0.930489127565657381 -1.59300104624958405)
(-0.799890550289132363 0.947866788314863928 -1.64462979649749297)
(-0.752717935869154364 1.07824617403043899 -1.58943924502214129)
(-0.717104711009308948 1.02044921984802217 -1.91641381633667374)
(-0.739865674066437107 0.936327045896004906 -0.989710549881273938)
(-0.81722948700130138 0.756934978068098729 -1.27765932771537249)
(-0.806060571141176574 0.866523162295139482 -1.3368961557650203)
(-0.739895254044151129 0.859716763062845502 -1.54610025037878307)
(-0.447661216019247243 1.16399246086682195 -0.175259658525931977)
(-0.626159394008992121 0.981874494231981698 -0.509787519373703701)
(-0.671869038553548514 1.04191864380026833 -0.604423828078883285)
(-0.526913971676208126 1.08684121820746826 -0.512986830032740482)
(-0.182428388930572227 1.42066960450236501 0.244794606705607487)
(-0.370906739426116183 1.26769762995615953 0.212626584162858068)
(-0.356130143449950143 1.31969747008572158 0.120373874049283291)
(-0.356711537508610677 1.24167924446307443 0.275450943406529092)
(0.090333303092345052 1.51895969028773603 0.271490816315208605)
(0.0510023483789007123 1.55403581763809617 0.239358738055656523)
(0.132322510233818913 1.55654874337024252 0.28968254445861652)
(-1.40868041356036544 -0.290831121278796068 -0.224835728033371179)
(-1.58927048210364075 -0.421392995437714302 -0.36280128994904598)
(-1.58826848545087906 -0.730567003346453303 -0.325295862736477148)
(-1.23122633076484145 -0.0762275976921108489 -0.0359008976502592156)
(-1.11933523923332023 -0.0121810719040509607 -0.0105206303485410185)
(-1.44763880096145847 -0.158729974437454291 -0.267804725346244998)
(-1.44376820438407338 -0.505392263627045923 -0.281210963148419535)
(-1.14349704048419332 0.0177450023632770293 0.100134155718182016)
(-0.939881756504867605 0.194013227498574969 0.166386088377801389)
(-1.30071745102530367 0.108468183648978422 -0.106258224911924271)
(-1.21079301014008678 -0.173804118767513421 -0.168897662485304967)
(-1.13932902205852171 0.10762758803891781 0.0549171853816403238)
(-1.00729646965610153 0.26815877199750987 0.164622059976897911)
(-1.29530414042093245 0.21628902094075303 -0.0494343282748047411)
(-1.05251308324097881 0.136067773605841158 0.016992773703582216)
(-1.20664312391322803 0.103740238937818738 -0.0563271011586047657)
(-1.1235089305488184 0.246608412948363442 -0.0141439697587442959)
(-1.37138247196988017 0.164660160392825355 -0.139236885392125892)
(-0.996940824129425307 0.289049998173027678 0.107533302568751668)
(-1.32313485364140537 0.0553055641836836948 -0.20685946282099224)
(-1.20272845373325676 0.173358516543864583 -0.244697678828531606)
(-1.35787349439149407 0.0718077858994643631 -0.304661734332950851)
(-1.06338978566743192 0.27513925775004755 -0.0181678667134932761)
(-1.38819497762338684 0.0166898844696454496 -0.391728556199352151)
(-1.22621257786691129 0.111148192777934696 -0.409377207520348896)
(-1.32836903459116318 -0.0107614247151850591 -0.454885644694095648)
(-1.07741491639237053 0.21781579853363614 -0.18310233491160946)
(-1.38369080071822848 0.00879485421951778368 -0.53633915307796276)
(-1.20023309213746687 0.132972483674192343 -0.473744936621990465)
(-1.2694614813020817 -0.0243154737643685205 -0.561196486353558122)
(-1.05213012958807139 0.188845762558144642 -0.309647570357006796)
(-1.29766030794430876 0.0493172042765048016 -0.575700853071054119)
(-1.08091300453383443 0.288211564800849307 -0.443881921254180356)
(-1.20099830714352573 0.0839624520290460363 -0.582757350547151831)
(-1.00804327940974003 0.230174119180337311 -0.39763999611753692)
(-1.16020334015943249 0.169836206228992981 -0.49441056094003949)
(-0.915474664366337176 0.580331199944700504 -0.375348781536343989)
(-1.06278130980799657 0.357088723338493896 -0.516727174903824027)
(-0.883092039423602815 0.395310980598185757 -0.436818503584754159)
(-0.941033717795228264 0.424366383396184821 -0.333922403348214825)
(-0.803693304351696725 0.975537010022857753 -0.425718781394229473)
(-0.934771752286870816 0.751923797839255448 -0.466343159668917817)
(-0.741600940926568475 0.691684163241275796 -0.460430797754975918)
(-0.833196267025172244 0.783582147302454346 -0.251692015764164057)
(-0.837560470303610916 1.32267144408488879 -0.742168572159969564)
(-0.909138229525893182 1.17876526915770574 -0.628463574995096974)
(-0.667739601735610755 1.11899012669773912 -0.564256066428787895)
(-0.896428993053823842 1.19018616454397463 -0.518416010078506795)
(-0.91980695293196979 1.36021564915541249 -1.21167457432926184)
(-0.932487551587714347 1.36589355878694629 -1.03908224806047644)
(-0.70084390706411348 1.46822016109030518 -0.811996748231933574)
(-0.953388698307122029 1.40247046745703363 -1.12688462060738082)
(-0.860935062779443427 1.06916055009576949 -1.4820881019785761)
(-0.909845372259673213 1.14426197119682116 -1.4042287211645279)
(-0.779370326595832719 1.3483097543593594 -1.21172343173967767)
(-0.910015748347923981 1.21858954232348071 -1.62830854993180063)
(-0.815586282017762065 0.785207374781525358 -1.3292880779632843)
(-0.843591903367917229 0.785166530877055791 -1.42156290412769803)
(-0.80406984974015383 0.936783727804500588 -1.38437943948126407)
(-0.8039853325145212 0.845985513586499316 -1.66443214927473915)
(-0.748758432024548393 0.818431744453092413 -0.797736297207795375)
(-0.826516894956139669 0.640655711329481625 -1.02913329179336133)
(-0.831590521149209172 0.760561468652512174 -1.07766073262535467)
(-0.77549771276383872 0.715146060991289412 -1.24339228985895844)
(-0.454657007483242448 1.08485660172102749 -0.121901276684914656)
(-0.619809698121803865 0.869683532782047353 -0.397365095097009458)
(-0.663381013804486219 0.959899849524930016 -0.473950254515086933)
(-0.52502412575883739 0.998956685246337961 -0.404230594989302694)
(-0.198292210308242428 1.35898830230032353 0.239322793772460019)
(-0.394209788529061966 1.20057453837510208 0.211787152590006272)
(-0.378739909535312558 1.2655345388255046 0.135754897656985757)
(-0.378070243192910938 1.17205974403464319 0.257873234852823985)
(0.0858648831223829678 1.44416612488396567 0.264751187315446668)
(0.0454592767506663969 1.48654837663723138 0.233067729247455002)
(0.127530658176611911 1.48631146606276676 0.281772438573160644)
(-1.63305222987335874 -0.285384644312104641 -0.405770287261919937)
(-1.63280003261758555 -0.397292120885185673 -0.428492697993439697)
(-1.62910349046255698 -0.710969257047777137 -0.367355973802316271)
(-1.58057366790459808 -0.0726111894873476271 -0.305573401437401859)
(-1.60868759512060433 -0.0254780464672649254 -0.363542319909626876)
(-1.64496801492656664 -0.177768476780017975 -0.468088766558681146)
(-1.63319763909816729 -0.518068037274474702 -0.406501963855783188)
(-1.55628713427097076 -0.00898046959235301867 -0.420217427210276329)
(-1.62829013101673414 0.174283220008397688 -0.322078641564531032)
(-1.64178694686281013 0.0664404069929843688 -0.457111949852844701)
(-1.60826911686692209 -0.197914079799479337 -0.375358350199475332)
(-1.57512691171019714 0.0390881416043215094 -0.47902142242324286)
(-1.68479518795046035 0.160367510714886641 -0.353293273643828065)
(-1.65207225501630939 0.130007887665865407 -0.478760479048125909)
(-1.59451165831184838 0.111274164256370572 -0.30359266304267496)
(-1.59999982981762101 -0.0164878284346871885 -0.53267327534974318)
(-1.62978092076407655 0.0186121834358931315 -0.429754649966330615)
(-1.62834526671339841 -0.0365135777014657867 -0.521536782839990609)
(-1.54116166952568223 0.188997479110184136 -0.239880037856238959)
(-1.61098725498829665 -0.139239882252576996 -0.587223101765663724)
(-1.49338479871398033 -0.0890897684082509189 -0.514849700198518279)
(-1.52281253286924168 -0.162541089492565904 -0.5616412253187133)
(-1.43963925569575402 0.106905809651302683 -0.293636050874585497)
(-1.55397437864497601 -0.210286551881120831 -0.625945135692547394)
(-1.35849151315744554 -0.125520056775309835 -0.606704923527305207)
(-1.42949478917346262 -0.217096717775248166 -0.603130236186261381)
(-1.29177741324990003 -0.00555786647910651212 -0.398617210793845211)
(-1.49959178391321624 -0.208437135120996597 -0.676404454647530406)
(-1.26237957998811057 -0.064103364575018501 -0.670208900278719599)
(-1.34517284144972149 -0.190776417832359296 -0.677369940937557313)
(-1.14367637244417519 -0.0264051733229438805 -0.506869212754679666)
(-1.39404907912399612 -0.125261591071586909 -0.74368064719540028)
(-1.16888308279979225 0.148509040507161738 -0.655602604196795946)
(-1.29110745141870709 -0.013613153100427107 -0.714401888723728118)
(-1.06073223216160195 0.051773188812096152 -0.584729162544855408)
(-1.28342657900530632 0.0198683831904033423 -0.686384087459372516)
(-1.06526629090533964 0.516570304544385794 -0.607721553036398188)
(-1.1988166480914102 0.338489932164987184 -0.692280396592257596)
(-0.98883940891237887 0.286644702672284479 -0.623423517332722943)
(-1.13591152268566664 0.358217223572036392 -0.557008928748223275)
(-1.00004656372713163 0.951076061528450034 -0.66908795326978221)
(-1.12045192767345059 0.764252739864519137 -0.679560139056675672)
(-0.909098167729706197 0.641956845332557258 -0.640458049337435997)
(-1.06406148171399773 0.800843086027613893 -0.550587457076610165)
(-1.00984426774494285 1.23502420367376331 -0.925377250895603298)
(-1.09637695814680414 1.11522187246168736 -0.832412748279704018)
(-0.880190361919580444 1.08977425235033842 -0.706930767371847346)
(-1.09764066767897983 1.16698838983587971 -0.84381628528472985)
(-0.996060025504880153 1.16969127117017502 -1.23163639489574872)
(-1.05335714628043364 1.17292687559111286 -1.11435609507796984)
(-0.875689515765152304 1.33521994285972356 -0.908232142373747275)
(-1.0799936924408462 1.25251526396233248 -1.28038090728631504)
(-0.87929619335348419 0.867344724914273724 -1.3437035233136494)
(-0.93280628737589999 0.899488974141892772 -1.31287308804856662)
(-0.834774802436919816 1.12366406507255734 -1.1653636161290184)
(-0.929235993471373756 0.989909159198376409 -1.53814633012160185)
(-0.827369289702570287 0.637317233590113608 -1.1214081179577795)
(-0.859734606079517683 0.637018021106360077 -1.26696286581530693)
(-0.833638730330932498 0.78543086045089705 -1.2190710741991615)
(-0.830954529795286612 0.659416007156226169 -1.46344120271129197)
(-0.737797132049442972 0.699963920720484079 -0.628762089682568526)
(-0.81873347038285671 0.548837775552859508 -0.876536068152182435)
(-0.842455010624888034 0.672456950384926366 -0.891289279677232038)
(-0.774174039764942812 0.565245174642813319 -0.985353164947300075)
(-0.4682710126222277 0.995884116889324544 -0.0636766658220814796)
(-0.617660988103644559 0.773197526661405621 -0.297143758104473688)
(-0.657177721852134189 0.870838687003128165 -0.37219238214177236)
(-0.520352301482426061 0.893560505917139425 -0.295638597341144893)
(-0.210390281402306062 1.28728591230101697 0.237215546132992311)
(-0.418135443979270216 1.12272387900663695 0.213532864780522524)
(-0.397991186359558657 1.1998610924999531 0.149504126409555765)
(-0.398505408311182363 1.1168340845262692 0.251683434315926935)
(0.0823109492789759201 1.36265599732030607 0.25971240502986942)
(0.0414756978679590785 1.409315213008282 0.228581562308973835)
(0.123675881533496873 1.40585148803000193 0.275951256103783626)
(-1.40786891068186981 -0.225433128237661679 -0.213912247663973071)
(-1.22460807216593448 -0.224022343810277497 -0.104749953310792634)
(-1.49111237895547166 0.4609992167718589 -0.0386157564975912748)
(-1.25442929718180785 0.0406847330546392244 -0.0907368506199286162)
(-1.51556059832293966 -0.409035792031649748 -0.38714209941652078)
(-1.29850719740163334 -0.594188056501156914 -0.2920276264689739)
(-1.54017843373977992 -0.0131723766695987492 -0.288641326269720389)
(-1.22280509729204145 -0.33746143851350624 -0.343506839378513007)
(-1.64073192663184653 -0.326630825044261053 -0.490811177290201239)
(-1.53798733160311984 -0.705259061524454722 -0.38231229551867324)
(-1.6311806007940497 -0.158493537563839798 -0.499538656699467731)
(-1.46911268922405003 -0.393319031195406899 -0.431363324872978238)
(-1.68307796443929014 -0.126236151796987994 -0.561658396501898971)
(-1.66127034234381887 -0.556381707235107825 -0.4726149369229804)
(-1.64413600867892984 -0.136752814616481561 -0.623858706694809029)
(-1.62188098475409381 -0.232216687756628376 -0.516845678684320631)
(-1.65290697615887971 -0.00160070553968371027 -0.613793787336439856)
(-1.66340649938784346 -0.288833536876362262 -0.513990810674089027)
(-1.61358686677718799 -0.130874095853590999 -0.721005852771543831)
(-1.64651157750627886 -0.052150339467038842 -0.586940831741351698)
(-1.59986572273205119 -0.075070235431172444 -0.64700398824429084)
(-1.64256376622215927 -0.0492450798918961027 -0.532786149538240994)
(-1.57150004131701149 -0.20697425203160616 -0.767708555629004863)
(-1.61865515818394989 -0.0139699964274924426 -0.64760820308909095)
(-1.53089064009984321 -0.22098735264088526 -0.653423358192375181)
(-1.60855265328824726 0.0212192619038178119 -0.485099497365161947)
(-1.49785443566876064 -0.347568109517357671 -0.781867064095300934)
(-1.53784147766670709 -0.219382833980626607 -0.666571021691682919)
(-1.464596689573894 -0.283793961529380467 -0.649921761306458179)
(-1.5157122948156494 -0.129413033286347429 -0.507730575700257925)
(-1.44205835600188581 -0.375648974297372373 -0.767387362787175897)
(-1.45550355317930413 -0.325515907136920635 -0.660571275344089992)
(-1.41118796728710438 -0.281874747146466764 -0.673795253596514376)
(-1.41785612629315905 -0.22399024834189224 -0.547131572849290815)
(-1.43221454566914264 -0.34015992510434101 -0.751547167887618772)
(-1.39398679608062093 -0.346007199478525151 -0.657113750186515411)
(-1.36937828381523863 -0.156460889897517552 -0.721562929382565832)
(-1.32735050840787983 -0.204664861501108492 -0.594778572601869504)
(-1.44824166029875689 -0.210025830542729414 -0.796638067752292289)
(-1.34741662794919059 -0.312609726209070848 -0.699582280384549393)
(-1.30786331197914496 0.170240553214612622 -0.751079681119190101)