/*--------------------------------*- C++ -*----------------------------------*\
| =========                 |                                                 |
| \\      /  F ield         | OpenFOAM: The Open Source CFD Toolbox           |
|  \\    /   O peration     | Version:  2206                                  |
|   \\  /    A nd           | Website:  www.openfoam.com                      |
|    \\/     M anipulation  |                                                 |
\*---------------------------------------------------------------------------*/
FoamFile
{
    version     2.0;
    format      ascii;
    arch        "LSB;label=32;scalar=64";
    class       volVectorField;
    location    "0.420000000000000151";
    object      faceForces;
}
// * * * * * * * * * * * * * * * * * * * * * * * * * * * * * * * * * * * * * //

dimensions      [1 1 -2 0 0 0 0];

internalField   uniform (0 0 0);

boundaryField
{
    inlet
    {
        type            calculated;
        value           nonuniform List<vector> 0();
    }
    outlet
    {
        type            calculated;
        value           nonuniform List<vector> 0();
    }
    top
    {
        type            calculated;
        value           uniform (0 0 0);
    }
    bottom
    {
        type            calculated;
        value           nonuniform List<vector> 0();
    }
    left
    {
        type            calculated;
        value           uniform (0 0 0);
    }
    symmetry
    {
        type            symmetryPlane;
    }
    interface
    {
        type            calculated;
        value           nonuniform List<vector> 
67
(
(7.9372924735836738e-07 1.47807974075668277e-06 -0.000942033464394477407)
(-2.9898156657915773e-08 -1.45153368213394196e-08 -0.000249216484232064515)
(-3.55159823280497454e-08 -1.60929806631351601e-08 -0.000306681527240846089)
(-1.41085461067810877e-08 -1.06092925507192359e-08 -0.000319900306185202379)
(-1.22909074164071416e-08 -1.23783403414902159e-08 -0.000306520008492872868)
(-1.2220421683319223e-08 -1.33622782576328432e-08 -0.000319739793334436538)
(-1.31058555108253477e-08 -1.3725933184845565e-08 -0.000341603970683625224)
(-1.89788783820656937e-08 -6.33846449150032323e-09 -0.000319484171996358541)
(-1.82550932928478444e-08 -6.05442876006791484e-09 -0.000324658427730812162)
(-1.69982060912399544e-08 -7.9445881359143479e-09 -0.000337176398199761046)
(-1.61475719461120676e-08 -9.279588860078605e-09 -0.000342376613003523027)
(0.000208135558778788321 -1.73391698480912069e-09 -1.18818856425180199e-08)
(0.000233724506881216322 -1.66010165355152229e-09 -1.11630264132724378e-08)
(0.000255229886468972059 -3.01069314544026196e-12 -1.02110930373565149e-08)
(0.000194497871765887334 -5.000491044536413e-10 -7.63582772377141985e-09)
(0.000220523255620575816 -3.82016334057557043e-10 -7.30443586293952798e-09)
(0.00024373241705615692 1.23420112376604989e-09 -6.65623869830561912e-09)
(0.000187170150859454498 2.28701381069501019e-10 -6.57753389913477956e-09)
(0.000213166677797363007 2.66209441932157676e-10 -6.17299538173661336e-09)
(0.000236699727776563316 1.74488083130565192e-09 -5.84272422258942609e-09)
(0.000182938295417970742 7.82047542363801161e-10 -4.52861382645157554e-09)
(0.000208873735500272168 8.00908152940566391e-10 -4.31561587559763547e-09)
(0.000232308119817435486 2.12395502380396491e-09 -4.14562360817154885e-09)
(0.00017937045953790801 1.22857175155119709e-09 -3.73757302711072264e-09)
(0.000205333164774773179 1.22294380608826302e-09 -3.52609785917655249e-09)
(0.00022870246367363953 2.43083543572600307e-09 -3.36376855700614887e-09)
(0.000176785158141882723 1.55545061942122474e-09 -2.50817638710513438e-09)
(0.00020280338330942301 1.52767933355035117e-09 -2.37174728919464985e-09)
(0.000226138925827874566 2.64757934009272698e-09 -2.27615698184088003e-09)
(0.000174715940832887085 1.80378731788496523e-09 -1.53971762678586847e-09)
(0.000200824823285305245 1.7535857077382459e-09 -1.45070974445421946e-09)
(0.000224205252945392685 2.83276796467612804e-09 -1.38813404158105384e-09)
(0.000173648754178041024 1.92919769702817581e-09 -5.12178986327853196e-10)
(0.000199795117517599283 1.86887392049880156e-09 -4.82401938857551767e-10)
(0.000223176929739255642 2.86858822948938646e-09 -4.616597059429307e-10)
(1.3512097760585994e-06 -0.0253186583375968402 -3.68328608884138651e-06)
(2.72382102824634017e-06 -0.0305054320179378169 -3.7800617791683969e-06)
(2.20946750422981576e-06 -0.0317337456114919828 -3.21950381585038489e-06)
(3.21028068821486709e-06 -0.0345921278895662057 -2.17504985052202611e-06)
(2.86859052031898612e-06 -0.0407024842331009662 -2.24867065894501627e-06)
(-6.81430652121336163e-07 -0.0430833021727844226 -1.09332527863060796e-06)
(3.65550830595420796e-06 -0.0370916973352221138 -6.0349901510932077e-07)
(-2.81961155898697324e-06 -0.0508412406686467241 -2.5322348062912738e-06)
(-3.80198109864312816e-08 0.000301141253499197974 -9.35715688030167415e-09)
(-2.74242036769967309e-08 0.000205566860121253806 -8.00226566269225826e-09)
(-2.60423441956180601e-08 0.000157710789945323461 -6.58453485259740472e-09)
(-2.50350300705022366e-08 0.0001126068611559973 -5.69894192974358671e-09)
(-1.99226401375674185e-08 7.64920772588761346e-05 -4.14101092624607008e-09)
(-2.18690607986685949e-08 6.90481865947119517e-05 -1.47472029291438529e-09)
(-3.59414957289956764e-08 5.76770068964627881e-05 -6.65870230726812717e-09)
(-1.46946416465081176e-08 2.13647046844987722e-06 -4.30259114894032795e-09)
(-1.1953955887742553e-08 0.000387327287128061426 -1.01318515247685189e-08)
(-9.14230383155805968e-09 0.000323063455686913882 -8.37624784916291022e-09)
(-7.28166021600950372e-09 0.000276568394982049386 -7.02478857185067614e-09)
(-6.43046232535147986e-09 0.000248040881061077222 -5.25235195780276842e-09)
(-6.1711142186184421e-09 0.000226080375845906999 -4.1004654891714661e-09)
(-5.88658021102895815e-09 0.00021473587036784878 -3.06735678662159339e-09)
(-5.39777704266909676e-09 0.000207341723939340704 -2.43308118369303545e-09)
(-4.67862055884898369e-09 0.000189778536659549303 -1.02083816951901813e-09)
(-1.56802532685431172e-08 0.000434154757427536887 -8.83013704119926333e-09)
(-1.45265301081372676e-08 0.000391447985730581207 -7.05349383744938357e-09)
(-1.30988979038678395e-08 0.000364847511429121666 -6.14797456909042859e-09)
(-1.24515442626308336e-08 0.000349086822503545387 -4.60245200586219817e-09)
(-1.1711281827095504e-08 0.000337279678378517647 -3.65543034250708923e-09)
(-1.10145469744894811e-08 0.000328960454926011516 -2.66032390890958406e-09)
(-1.09536724895545583e-08 0.000323520827751008191 -1.7075822399939999e-09)
(-9.44543348165842011e-09 0.000319434792835399768 -6.38226512740075216e-10)
)
;
    }
    procBoundary1to0
    {
        type            processor;
        value           uniform (0 0 0);
    }
    procBoundary1to2
    {
        type            processor;
        value           uniform (0 0 0);
    }
    procBoundary1to3
    {
        type            processor;
        value           uniform (0 0 0);
    }
}


// ************************************************************************* //
