/*--------------------------------*- C++ -*----------------------------------*\
| =========                 |                                                 |
| \\      /  F ield         | OpenFOAM: The Open Source CFD Toolbox           |
|  \\    /   O peration     | Version:  2206                                  |
|   \\  /    A nd           | Website:  www.openfoam.com                      |
|    \\/     M anipulation  |                                                 |
\*---------------------------------------------------------------------------*/
FoamFile
{
    version     2.0;
    format      ascii;
    arch        "LSB;label=32;scalar=64";
    class       volScalarField;
    location    "0.420000000000000151";
    object      p;
}
// * * * * * * * * * * * * * * * * * * * * * * * * * * * * * * * * * * * * * //

dimensions      [1 -1 -2 0 0 0 0];

internalField   nonuniform List<scalar> 
7248
(
-0.0253349103577420465
6.51441900355462167
-3.97453148197648254
-4.80865611986837393
-2.24567206802943353
-1.02007846841631178
1.00517242563366072
1.05498142874591849
23.9663706813360022
-3.10611368186805459
-3.0794126271358202
-3.55935669539619104
-4.27978612212177811
-6.61553603232462528
-3.87543127682112765
-3.98405700810539898
-4.02150083485759069
-4.04929346968741033
-4.17959527105193995
-4.15630168645021136
-4.2172941105710402
-4.23526952649703148
-4.17541168005290153
-3.94402678097745651
-4.46385121016750208
-4.53067798899996443
-4.5867968740995666
-4.62828311876633158
-4.65163155623456337
-4.83868630067018213
-4.89853323445675137
-4.96385146253024434
-5.02977363285882273
-5.10142240652828427
-5.22627337789593671
-5.27842064811383871
-5.3391739382715766
-5.40843957286107191
-5.49755237251512696
-5.60785355624078452
-5.65264387858289119
-5.7056898082630445
-5.76699122153947474
-5.84740453270955562
-5.98149322884576318
-6.01974940622966326
-6.06443321713171635
-6.11567667615704291
-6.1781457959374384
-6.34729024014989029
-6.37955150065837451
-6.4167427961758996
-6.45869411163096352
-6.50553969051949021
-6.66391945063627311
-6.68332059000635859
-6.70619855988326119
-6.73293618191677723
-6.76374323862658322
-6.79854173630365644
-6.83650333321759085
-7.0255749737758153
-7.04089357007763805
-7.05900542313909263
-7.08029922340631757
-7.10512857706485512
-7.13378293106524186
-7.16610711661020972
-7.38379345870010617
-7.39468190274795312
-7.40769845866705179
-7.42320145306229762
-7.44161489944030219
-7.46346931381196921
-7.48938974349415254
-7.74219333532373888
-7.74862432950151447
-7.7564648759370467
-7.76598175532156176
-7.77755198732783537
-7.79171985092740105
-7.80935336649020151
24.0360904708929866
24.9244427962762529
-5.55858536652775825
-7.28695750257861619
-2.40544972010386804
0.704090909729227832
1.31659210681218708
2.2573690121851655
31.53888153491107
-3.27318234449419432
-3.25971014896622169
-3.56357555471138809
-4.68148735371609526
-6.95890609690608386
-4.03187054101535836
-4.14845268374754816
-4.06581237857060174
-4.12739467889581757
-4.03210772745159485
-4.18177403241301171
-4.21117790587908836
-4.17075280574402374
-4.0963272010129721
-3.93536186311198355
-4.47307957592714356
-4.51702254140687742
-4.54809624379538402
-4.5883533195784052
-4.61962581464124078
-4.84081130827571027
-4.88899778370965965
-4.93958134897685763
-4.99458112334565207
-5.05945889827848116
-5.22414307882663564
-5.26989780026587873
-5.3225244073519784
-5.38513122439955705
-5.46717537657295694
-5.60422604473484665
-5.64555071138076858
-5.69429305230976546
-5.75125477153332909
-5.82503676891784572
-5.97792869717363917
-6.01423573369936104
-6.056767619616239
-6.10584733447289008
-6.16563925348597053
-6.34448644915305238
-6.37549437057787127
-6.41133504783382868
-6.45209492707585941
-6.49881375010943163
-6.70446733086383251
-6.73041949015744123
-6.7602935923194325
-6.79405070158618329
-6.83129824175082678
-7.05858504640454232
-7.07957940853964107
-7.10410211331332597
-7.13240980092608812
-7.16425073665936196
-7.40858616436273909
-7.42424279735393533
-7.44295286465762551
-7.46531805818940963
-7.49202546310616047
-7.75871432098726466
-7.76876583317071479
-7.78108712352609366
-7.79634334345616864
-7.81564165869980698
38.6099472675483639
39.7446572715693947
-1.30107611625444797
0.609406149074175119
0.314439481496084028
7.1358380617616497
0.982617135433732969
-2.66167745502900743
42.4686980530836991
-3.32398216052350648
-2.98379313495204146
-3.82245804288460711
-6.14109245151742478
-9.56316972968962631
-4.18638751081135752
-4.27462730569203764
-4.09090860698941317
-3.99073173089331101
-3.56064885740931203
-4.21850198723446113
-4.24198307120273554
-4.16342669789127573
-4.08357838852417654
-3.94108499503626009
-4.47754439539616111
-4.51155961071580336
-4.53593742123428179
-4.56847924809684613
-4.60735316509096915
-4.83977683180182794
-4.8816065508469233
-4.92454818925425197
-4.97530301068328562
-5.03861279374133897
-5.22053310466373155
-5.26222662701905275
-5.30963585012793171
-5.36803556744202925
-5.44531952736125824
-5.60056838877134044
-5.63938299268291843
-5.68493447181189904
-5.73913430840884597
-5.80836485939503788
-5.97475214665659138
-6.00953122762035541
-6.05041119235109193
-6.09794137970071937
-6.15510812471281188
-6.3420249495695602
-6.37204034129383867
-6.40684541346974878
-6.44659127925042341
-6.49260799481165929
-6.70295522848790082
-6.72825636509319303
-6.7573967106261783
-6.79032876716274458
-6.82695700765052393
-7.058226404413948
-7.07896647153873282
-7.10324629824118325
-7.13129835360063691
-7.1628137464184265
-7.40939341437250576
-7.42518707370888276
-7.44417419877479425
-7.46702766953864305
-7.49452550221754876
-7.76072615038183589
-7.77124545559633351
-7.78423900678556002
-7.80050872476288237
-7.82144263237436199
69.7785045541621685
51.7343899633810906
-0.685676234259981143
0.760524954453103419
-1.44965669920728857
3.52822527868152136
3.34975094154285102
-2.25017529360608393
6.09327385401365973
-3.37803316164553502
-2.86890691356506133
-3.0921640330436504
-4.26969427031257709
-3.11672091802975615
-3.95808576620968955
-3.88628737078628816
-3.925861147424202
-4.06327159033965923
-4.22037171761320273
-4.13762636029815312
-4.13457778569572021
-4.10206498408046194
-4.06080627345057987
-4.26982367861085699
-4.46251715874734511
-4.49238639054091582
-4.51925854795054782
-4.56736992991107993
-4.62603693255345405
-4.8333622331572883
-4.87106100992183944
-4.91045994327872481
-4.95920740045806774
-5.02244987420349531
-5.21541633216763589
-5.25432601313376946
-5.2982782798803667
-5.35439483336889044
-5.42753253671350411
-5.59674897474783606
-5.63378724067923731
-5.67721556403360683
-5.73059271997068542
-5.79786560195178335
-5.97183883903795376
-6.00550796993223024
-6.04528941136226461
-6.09224256251680707
-6.14862648873888151
-6.33987514346260461
-6.3691252378354335
-6.40320856849153053
-6.4423330355183408
-6.48801632789600013
-6.70167291770209683
-6.72644009491192119
-6.75498936642502201
-6.7872152479390957
-6.82294703007120962
-7.05792840042925196
-7.07845039699498457
-7.10250954994989581
-7.13029094658341656
-7.16148654012540931
-7.41009491599680992
-7.425998663775224
-7.44521798853308603
-7.46849097435101594
-7.49665522782769855
-7.76244966325750063
-7.77336584570155154
-7.78695070693253211
-7.80414935984066283
-7.82664859171764693
81.0108745384607118
57.719586055495256
-0.535268662286707553
1.22047123795755397
-2.15971203813629753
-0.140574066953234045
1.24025813554263031
0.367423901770959738
-1.07729421144949811
-3.17594167770716851
-2.93136646426946967
-2.75371285779746744
-3.44321028227578063
7.16563549708206438
-3.69811385049035168
-3.67719132494961887
-3.76802219371798497
-4.316792060228825
-5.066371649017956
-4.05413582351803115
-4.06289534495137872
-4.06747164821609974
-4.04743277104391641
-4.50173296477925344
-4.43540112710454792
-4.46891084335414934
-4.51361009188058837
-4.57047385162559472
-4.60210005277197354
-4.82277714366253019
-4.85866753537878093
-4.89785666613412829
-4.94393026672650393
-4.99031048568358226
-5.21004597690500937
-5.24679246066417093
-5.28858710700263845
-5.34247319281776178
-5.41113297355093348
-5.59313195763603854
-5.62874424027123599
-5.67069476934433769
-5.72399426884575124
-5.79070387093716477
-5.96931020571983684
-6.00206260609501463
-6.04108252993034256
-6.08816379795470741
-6.14529256154004955
-6.3380840076902718
-6.36671395653640548
-6.40027804380860221
-6.43911324522549311
-6.48491736957995002
-6.70060698416161671
-6.72491994158398398
-6.75296758253159535
-6.78456714578405151
-6.81968116287495185
-7.05767833222513641
-7.07799722944436382
-7.10181179813193175
-7.12920589051012321
-7.15974192631712114
-7.41066337074785331
-7.42664228710490359
-7.44602400391453312
-7.46959711607984467
-7.49822406076514714
-7.76384584069511341
-7.77508512107939787
-7.78915644828329601
-7.80714658389231442
-7.83106037205077588
98.7039887101557269
69.6197288217974801
-1.17690897780320469
-0.643730839631643903
-2.08625985508971379
-1.37593630765405273
-0.208915628818318488
-0.666672773107047867
-1.83113942214572489
-2.97320930264982364
-2.87614254095183064
-2.78793859257224774
-5.39554283020127734
-5.11826321674897144
-3.52903996179636437
-3.52275379511999542
-3.6800249779480585
-4.22302754760623777
-6.717028381671871
-3.99114457309936288
-4.01967829844840452
-4.07346929095747612
-4.08366905104688716
-4.4348982863440165
-4.4115271220564285
-4.45289199365980259
-4.51232725404131685
-4.55653913329004823
-4.53999632102065398
-4.81159016372990322
-4.84783831782940311
-4.88976388859184574
-4.9366194064394584
-4.96353940283826844
-5.20425862242001003
-5.23952447839322399
-5.28054777059328817
-5.33218560093406069
-5.39388483500516536
-5.58979593922502804
-5.62424992095916298
-5.66523784247413342
-5.71805729859725886
-5.78560516807340797
-5.96721453372526778
-5.99922892240689709
-6.03783273664858644
-6.08508353961872128
-6.14559143635929672
-6.3366695704503373
-6.36477495083014677
-6.39798978770152882
-6.43684743724113595
-6.48369585735029119
-6.69975974265844343
-6.72366283343125026
-6.75124101335031224
-6.78231083864821471
-6.81736335580409403
-7.05746566940552444
-7.07757749186004315
-7.10108671251695078
-7.12792289015202929
-7.15755476465029439
-7.41108446522265574
-7.42709757986958685
-7.44655310315357699
-7.47023435813045822
-7.4989552754996085
-7.76489523080070487
-7.77637302774796613
-7.79080474261048028
-7.809364864008149
-7.83433709632468833
104.71662796451642
82.025345324844011
-2.39811981873856972
-0.918382382154732113
-2.06002536555751048
-1.72648754694122442
-1.07253900336805419
-2.37730172161261599
-11.5013166742639896
-2.83304971630063918
-2.68465004166270305
-2.6265989724207941
-10.8200442602147344
-25.9241374634208341
-3.41466449111008119
-3.36471100613649998
-3.64599283461338741
-5.39080703795462757
-12.9812640926023395
-3.94647898097126903
-3.99888516610587974
-4.15210922934242266
-4.393669515285751
-4.84752740436529095
-4.39275081847076088
-4.43905939110547099
-4.50776361768340372
-4.53298806970996004
-4.55473872660408485
-4.80271117286566973
-4.83841387164391357
-4.87790245089853336
-4.91885419599560247
-4.94148236866240786
-5.19944794152100531
-5.23338777085572282
-5.27235446336675295
-5.31976728226605466
-5.37227155355270103
-5.58704813679127366
-5.62048573850128008
-5.66054030988848922
-5.71172066581642213
-5.77657614699496236
-5.96556974462782463
-5.99696311925383263
-6.03524953323893865
-6.08185693912143943
-6.14522194761103524
-6.33562504693266781
-6.36329566735795016
-6.39616523752920241
-6.43464882702509211
-6.48416944531155348
-6.69914786011989172
-6.72270893798814306
-6.74976395661362805
-6.78004924146650012
-6.81394489065582221
-7.05730330223143643
-7.0772348004304142
-7.10041511888794741
-7.12650606375186335
-7.1538617799180404
-7.41135689121136387
-7.42737475003486036
-7.4468275579634593
-7.47044124231253281
-7.49881906239503238
-7.76559599328627392
-7.77722359091508952
-7.79187345228769068
-7.81076590677363392
-7.83627689754794066
104.465666675347165
76.8306690479537338
-3.77534751837417026
-1.26862174503935421
-1.89389056913417719
-1.65966559339589215
-2.15811398276730637
-5.34408715987423477
-15.2324902838561229
-2.70050295892453729
-2.46731627939584186
-2.71526492541964615
-16.9517340765065896
-48.9646126115069364
-3.35532851705490032
-3.29763515825122155
-3.58409435536137311
-6.38603623889707706
-34.8475788192696143
-3.92379533609764053
-3.98801110362666789
-4.20807019749868605
-4.53654676618412989
-5.38724948350390243
-4.38207627459226057
-4.43103626434319509
-4.51182488380794045
-4.53939553369290127
-4.57633597712468809
-4.7970722461344506
-4.83213582739923453
-4.87170884454057695
-4.89922869583361464
-4.86356583611788551
-5.19653531493238763
-5.22941189821386754
-5.26619328901225714
-5.30898574011553936
-5.34834039832210539
-5.58544038126408005
-5.61817678754500083
-5.65753861931488533
-5.70612178356550359
-5.76759618814157893
-5.96462499036211646
-5.99565945853905369
-6.03361075786116885
-6.07932675624579399
-6.14218403821430048
-6.33505831769028571
-6.36251277579450836
-6.39513663119506237
-6.43355370200105536
-6.48412440001889756
-6.69883358360925563
-6.72221801766015847
-6.74906180845809711
-6.77925766200806823
-6.81304009513578102
-7.05721368136382488
-7.07704389118758925
-7.10006636917836786
-7.12594076543989186
-7.15293103251087192
-7.41148938933850765
-7.4274999699258748
-7.44692114690490836
-7.47043450409249221
-7.49866103363847269
-7.76594956148372173
-7.77764778516991839
-7.79239606199318313
-7.81141939195458512
-7.83706643140640491
-0.663715183070255677
1.68582321215870934
-2.00345963500971669
-0.438866992717237281
-2.9944537140649885
-3.33127034999808291
-3.10563691781095486
-2.06048054698409278
0.0798028316602863441
-3.28792928060537326
-3.3814152736624159
-3.15030016997576379
-2.3036281072070981
-1.46885933353267895
-3.69630661367293545
-3.74159037033393727
-3.7126755904287112
-3.48545671871314333
-3.24035047690844635
-4.1314027086295475
-4.2261563456872473
-4.27891184782728651
-4.21924369705529223
-4.14886647774599115
-4.54185104105738002
-4.6365967969769617
-4.67252804148747813
-4.66329528649255742
-4.68743588452912618
-4.91219796083983429
-4.99038801877463367
-5.03908152345632576
-5.06195383033560731
-5.13723870588686804
-5.2831231843897859
-5.34182288332497635
-5.38905126264642398
-5.43906890544379884
-5.54013703803522617
-5.64885450370444975
-5.69827566625957438
-5.74440666822613011
-5.79609655091258968
-5.88738625710593322
-6.01075344578296722
-6.05445884861180605
-6.10118179679411021
-6.15229645432303762
-6.21961599340374516
-6.36719506362054499
-6.40444984213412827
-6.44638032504237124
-6.49423513283188214
-6.55130050341281045
-6.668447938988038
-6.69103936636220897
-6.71717710341868024
-6.74711310431681355
-6.78128326283186578
-6.82063902414926204
-6.86687271305426972
-7.02545317548772363
-7.04200238753625385
-7.06109287877859781
-7.08300879175834464
-7.10790785840845896
-7.13596169872183239
-7.16753453748645342
-7.37878021311875276
-7.38918192116875261
-7.40113057611515579
-7.41463738942007655
-7.4296258141889151
-7.44589856203176215
-7.46306253351449378
-7.7313701761337823
-7.73550056890513194
-7.74007893460660856
-7.7449861077250084
-7.74995772329847465
-7.75451276321226324
-7.75798472805711548
-2.46503717708157088
-3.82138878861556108
-2.55963124447341928
-2.52228877767016257
-3.08021557902972987
-3.52742504979661442
-3.31603571291865595
-2.63185179835488858
-1.66313186131851776
-3.29239248782179139
-3.60589686027636169
-3.37617550776755593
-2.50035675376105138
-2.09783819809821281
-3.71866833963605226
-3.7968310304204298
-3.79752418761778898
-3.60277518932498353
-3.71136052381095638
-4.20819122831034687
-4.3514239876606684
-4.46466209431624073
-4.5048696749586048
-4.6905267231498895
-4.57761654539164375
-4.69309492252900728
-4.79336304445618033
-4.8640386674160494
-5.06651105920327449
-4.92504075398706842
-5.00888403202459287
-5.08719743952168368
-5.17411008601896505
-5.36922720356251038
-5.28376563627130302
-5.34987814652579097
-5.41905711405910484
-5.51437867090992029
-5.69743123800631768
-5.64850694477923376
-5.70232847640387508
-5.76154528165089808
-5.84268225156437371
-5.98835791519461935
-6.01035257476861595
-6.05605543277465763
-6.10854149470334207
-6.17373516189305693
-6.27096828526464112
-6.36688388559797502
-6.40496158933503601
-6.44910286725962489
-6.50232087240922851
-6.57204467649439561
-6.66829540287136435
-6.69083932568401618
-6.71704713872091119
-6.74731244338198266
-6.78230123541774788
-6.82344439199109765
-6.87360912176088146
-7.025450010604815
-7.0420344583916652
-7.06124816330834548
-7.08334207711157848
-7.10860061949579336
-7.13746565051401038
-7.17062382258844
-7.37903998293123475
-7.38950425596914862
-7.40155635719087801
-7.41524400709373488
-7.43055280617971547
-7.44739431703473542
-7.46553350254739012
-7.73205901137647267
-7.73631891566515595
-7.74108173909654695
-7.74624523409076637
-7.75159023630998956
-7.75672574164970641
-7.76106232041421507
-2.95361082686207421
-4.29701134785393357
-2.75314123972671698
-2.91541186126833951
-2.9062581306288684
-3.22389281065801381
-2.88944368374886817
-2.72472003280775388
-2.53466091321322873
-3.30238758779563568
-3.53670558529404255
-3.41193209284972099
-2.99154706924748259
-2.82089239486296384
-3.67685669487331701
-3.82155317315734866
-3.86434168303313896
-3.77602809803258932
-3.82452393103615673
-4.22917645310514878
-4.3761837348554522
-4.48553860260458137
-4.51053064579900287
-4.6416929413620176
-4.60409580912477789
-4.72909202260783523
-4.88365793303702844
-4.97701534027142767
-5.10542256520473003
-4.92567380460138793
-5.02218925696202323
-5.13163953015389662
-5.24585991924471262
-5.3989271729630417
-5.27758313979968285
-5.35358135621638098
-5.44193304655067855
-5.55062356309162475
-5.69798948139098282
-5.64559010931340577
-5.70430676577815099
-5.77401174573823539
-5.86519878355860858
-5.99133944075734703
-6.00876212968883205
-6.05654847708802713
-6.11360675026094658
-6.18553276783010642
-6.28374459435669408
-6.36592442105620471
-6.40487025717124592
-6.45104836826243222
-6.50751045139002748
-6.58055740621495655
-6.66790073097795499
-6.69032394692996224
-6.71658007863416007
-6.74722868602730674
-6.78312570029164341
-6.82583644254543298
-6.87826373931127577
-7.02541822219966061
-7.04199121312418352
-7.06129562879567629
-7.08364576818124903
-7.10945632058178845
-7.13934826931476163
-7.17433723793549571
-7.37941157865722985
-7.38996049530250687
-7.40217278907286591
-7.41616866769661165
-7.43201136141368224
-7.44974947419061628
-7.46939657595024542
-7.73294811925340664
-7.73741655396458583
-7.74249198285930351
-7.74809626333167323
-7.7540931634981991
-7.76022453341458718
-7.76603755136373763
-2.38556006608277649
-3.36858840433921713
-2.49246631463128177
-2.67518292233493282
-2.57699304148645059
-2.70752544500117986
-2.13278576914075657
-1.63410233897127943
-2.82946325271006938
-3.19222609448616623
-3.28258969395323863
-3.26328992354870495
-3.33230432093227913
-3.50887052615095341
-3.63480930371567901
-3.76749356969565685
-3.93735450655353869
-3.98452215205213323
-4.01730552216850967
-4.18648980629101963
-4.30582226277861402
-4.42668516703608717
-4.52093915847945027
-4.62123489078062999
-4.59204410184943779
-4.74174540931754063
-4.88054261081412033
-4.97602930139164279
-5.06548904740741079
-4.91365930729818601
-5.03635170130984466
-5.15564138855410015
-5.2617287728477784
-5.37606392400246769
-5.26468576920784681
-5.35096894315864446
-5.44733427275833737
-5.55083020107148517
-5.66618599867606587
-5.63976438712518036
-5.70167278030409452
-5.77450699432718828
-5.86080344234243711
-5.9632827179207748
-6.00549146106522524
-6.05417140931874442
-6.11230380658897143
-6.18238900529243107
-6.26797193431853117
-6.36405847455123741
-6.40325880136000247
-6.44992650831754588
-6.50619997313876741
-6.57465461667762874
-6.66735139546532096
-6.6894912827951627
-6.71566745438894142
-6.74643825466753277
-6.7826135707085049
-6.82552596747905049
-6.87724189218145909
-7.02538893070184844
-7.04189827669803936
-7.06123963150613587
-7.08374013750657472
-7.10993266979190608
-7.14046291174344638
-7.17634961068899102
-7.37993177582367821
-7.39058412333533976
-7.4029732836015576
-7.41731065516064003
-7.43374502053897857
-7.45243702781455841
-7.47358885046347066
-7.734118656343691
-7.73886929742809127
-7.74435424066187039
-7.75056220365349713
-7.75742424355854343
-7.76482775671932224
-7.77253168578450016
-1.45361475396862794
-1.35307836668823844
-1.8939165533611686
-1.23624653493890602
-2.33707291340238887
-2.35678087132950775
-1.25816031951488982
-0.25705300690624977
-3.95097181098925621
-3.03799210245599172
-3.0456040380252527
-3.08404273664946693
-3.1652241900752367
-3.69406596223627437
-3.6412159594394824
-3.7410588131650262
-3.94311528918758336
-4.07231400141824729
-4.11817438962206328
-4.12573848399340903
-4.23323608332232393
-4.42460237354022379
-4.6066496407768307
-4.62461575458262164
-4.54279955841466077
-4.71392576308991629
-4.8531388661416166
-4.9503789646303602
-5.02844974821225144
-4.89238222855800498
-5.03101003162109262
-5.14907659476913171
-5.24554302353878388
-5.3410854980689848
-5.25256668939025584
-5.34169358558814444
-5.43720526460571918
-5.5326128499980527
-5.63543605685839921
-5.63259872943623741
-5.69441980901947709
-5.76591358923018671
-5.84563809258394951
-5.93825496025448274
-6.00092552533738033
-6.04878784867891017
-6.10530731378520386
-6.17074369877921569
-6.24608647802635453
-6.36125584733716121
-6.39973853749059085
-6.44517545595551411
-6.49857626931642418
-6.56076851042650944
-6.66657925390503436
-6.68841977371761232
-6.71420353640817513
-6.74455559644304081
-6.78021615135368716
-6.82214194031484222
-6.87145847859213887
-7.0253454440706804
-7.04173761531729525
-7.06097938102594291
-7.08347003731444058
-7.10971867943302538
-7.14036238132327039
-7.17630442139483815
-7.38057206144153266
-7.39130863804610172
-7.40388975203486499
-7.41853950411012431
-7.43550155626902942
-7.45504879754356065
-7.47748558883865311
-7.73552739873172257
-7.74060639791496108
-7.74656270320703211
-7.75345014110059072
-7.76130544637776065
-7.77015381514584114
-7.7799258319989324
-0.338109983414303095
2.04644778184200504
-1.35706202341077242
-0.954044518565069666
-2.23223562144079679
-1.97304180311088562
-0.699246987170009326
-1.14552705070937755
-6.65073188298679163
-2.94560890997077562
-2.98807738186790717
-3.28011004480804047
-3.39938458099997076
-3.20625390088234363
-3.6594300380103939
-3.87676011180665636
-4.077200834399898
-4.0599905763198425
-4.15470299283585298
-4.09521007079604793
-4.22842598305539408
-4.40145031381384655
-4.55707063307734295
-4.58679041415144706
-4.4853830897224114
-4.64732757591981294
-4.80245058048731455
-4.8914278133607052
-4.96625821063055728
-4.8612028419570974
-4.98799574503493659
-5.10502043709156794
-5.2021548889887903
-5.29118384993264979
-5.24190462308977967
-5.32422611615952679
-5.41345956959199182
-5.50393917207062788
-5.60182504766114864
-5.6249395089212495
-5.68365127429446737
-5.75176144271195255
-5.82650558287196052
-5.91326647977909037
-5.99564777610767852
-6.04152213612477418
-6.09520500577721069
-6.15600303834371321
-6.22551878648309742
-6.35777258684375024
-6.39491106128272868
-6.43828856517917636
-6.48815780320105429
-6.54402384821583638
-6.66579775553903975
-6.68712625415364936
-6.71231172976631107
-6.74191197392790453
-6.77648977533165198
-6.81661812431841518
-6.8627651917988608
-7.02532270691736027
-7.04151071595282652
-7.06054764233261967
-7.08283883557196514
-7.10885054970444763
-7.13911505140809144
-7.17431731921535398
-7.38130162598300998
-7.39210601889701024
-7.40483655361292659
-7.41975587764222322
-7.43716402165359103
-7.45740751697378812
-7.48091444158360908
-7.73710997998108141
-7.74253795226065833
-7.74898810938438398
-7.75657713056746001
-7.76543727733808531
-7.77573697744650882
-7.78768896099026975
0.962151920202277466
6.55925741610622026
-0.367020716361281529
2.05785725873397496
-2.08007542211880292
-1.50208816514535304
-0.533809310141124982
-0.254045591935138759
-2.11742562884066388
-2.93965222421603745
-3.01343312011950637
-3.53668125256187516
-3.76254767798542566
-3.93015852407629485
-3.73444204804415936
-3.98045265814312188
-4.13154230507690468
-4.08109052470339595
-4.32431258855653855
-4.11152509126716481
-4.26031529822468702
-4.39553269067011776
-4.45801557534817761
-4.47317804365609994
-4.45371637476378535
-4.59063764743927738
-4.72325386915811229
-4.80398601990698815
-4.87719810362689188
-4.83658269113091777
-4.9382551224723219
-5.04557850485857795
-5.14287240490474318
-5.23891944443647084
-5.2336425007869094
-5.30408244578994026
-5.38467948871463165
-5.47070555341840326
-5.57110908982027198
-5.61776082578998004
-5.67163316208672619
-5.73498613611614427
-5.80555590936474086
-5.89160253242063003
-5.99036337152253662
-6.03364523316600287
-6.08412815299330756
-6.14101014137434476
-6.2066100342497359
-6.35405786078737389
-6.38953664856424819
-6.4306106398744447
-6.47706957378695236
-6.52750255554495862
-6.66506475281578759
-6.68577203600413839
-6.71021638165475665
-6.73887110300970438
-6.77213194671979757
-6.81020365024209351
-6.85287290023249085
-7.02534566886022294
-7.04126665515359385
-7.06001968696527271
-7.08199943797544229
-7.10762477798328796
-7.13732009020529734
-7.17152531757530642
-7.38209980500186091
-7.39294811883133995
-7.4057958789111149
-7.4209392647816923
-7.43872378381235322
-7.4595590329395014
-7.48396187817276548
-7.7387959379251221
-7.74457413871602718
-7.75151536270116903
-7.75979190864755175
-7.76962303945247346
-7.78131991543086166
-7.79532923180704707
1.45820168667861694
2.86810318618995552
-1.55497217466264637
0.666736239561487309
-2.03844117874586228
-1.06732922155978827
-0.142210128984755713
-0.390871412255293649
18.381497085427327
-3.00559100453662031
-3.04450837480721148
-3.67508408947549547
-4.04584307132271359
-5.03391179598609817
-3.79724083799944623
-3.95610982411173318
-4.0796183057071671
-4.08620854202827299
-4.33552020787739512
-4.14160192308678088
-4.25392972357662202
-4.32645777518069696
-4.3190770622972039
-4.19068571567806458
-4.4527384483097423
-4.5546832972491611
-4.65203031601868489
-4.7103536250625746
-4.75249591282539008
-4.83320791702469155
-4.91176710005917716
-4.99869826400147943
-5.08218345319674292
-5.16900915280381401
-5.22868166004450607
-5.28901500497317922
-5.35975664285277809
-5.43808661342540756
-5.5355124693170854
-5.61199807320735733
-5.66105913519233361
-5.71917737657168068
-5.78545192938887443
-5.87037205206182566
-5.98556488478463145
-6.02620400488377239
-6.07359391884439503
-6.12749030750594237
-6.19170372009108849
-6.35049205998937705
-6.38427429195902629
-6.42322151981402367
-6.46703564135833275
-6.51466811341432894
-6.66444820127040227
-6.68449131041053768
-6.70813162714665534
-6.73578988199167306
-6.76774281027916835
-6.80394189415862183
-6.84363771089425743
-7.02543618766139399
-7.04105727950629934
-7.05949000654946879
-7.0811184681184054
-7.10632711998284705
-7.13544532280880173
-7.16858487970619151
-7.38294026907636436
-7.39381512187784651
-7.40675937331723766
-7.42209444410645336
-7.44020485847194113
-7.46155933583412612
-7.48673773568652656
-7.74051216558323851
-7.74662934660105584
-7.7540403937031428
-7.76296508511519345
-7.77370230819901664
-7.78668845858967451
-7.8025822375128957
78.5489619559509151
120.979098709580867
79.1200091201800717
118.686262938911639
45.5779688272990953
78.1596586675780145
115.416640114620876
25.0065431945445695
42.4743460360066223
74.5394798597912143
110.602984405088222
79.1153318715280562
124.389616891727286
75.4669821705753066
117.118778128343024
33.2552648983302959
69.4524012546476399
108.476113817805839
7.34619697581649689
26.7947951930015762
60.825501476744563
98.0486146959345319
88.9493051575144449
128.114577636002679
77.7294419771118044
108.158170027559663
28.5724928824516553
64.0177910564212311
85.3567693816107749
1.14407645360993371
20.4914133253540172
48.3691420482878129
64.3354881584959912
104.768185431982715
105.292175039121275
75.8452219342535727
67.1714910180685365
31.108610327759834
47.4207524809716006
37.2564019167425613
1.56744334030916832
16.5599577958136024
29.7823299138887023
19.1222712711833083
89.29047495578493
37.6384838549371352
51.4616101951544351
14.6333383488195068
29.907815577695942
22.1808418384420065
4.14817001066563762
6.66790571181979885
18.1654938691032157
11.0197685154688543
-0.694121891122605916
21.0137355739913119
-0.33236113363034292
-0.206666376570751709
-0.137766248250361212
16.2786130329045591
-0.152277898017871394
-0.0414039359913573879
17.4931281538395069
10.2394267500458227
0.593926937773190389
-0.311885397053002
0.0897814790211857172
-0.15621876944330304
0.00544903353817760561
-0.298673710117156821
2.37417452278879182
0.0506119814086229969
-0.411327889731462504
11.2867452445477738
2.91435198255278749
0.0831747657417891695
-0.525705198648165117
-0.763490626770134018
-0.594870252050261117
-0.743338354611343455
-0.675820779238293423
0.377492801370560738
-0.876513093661182352
-0.781943901681021014
-8.02843694595674151
0.185836517525666878
-1.04455378513817343
-0.84339768030752027
8.53859220571263222
28.1225170253209313
62.8196526035266061
97.1604004798449523
5.00911504069080138
23.1853879126315405
56.4486727338457683
81.3027268554467355
4.10655674173526108
15.8842567204925444
47.8144080899249388
69.5677740278995884
-1.39172613683912516
-0.517512448031965278
22.8129426827375141
48.6886933590488979
-3.77439680672869748
-4.29172250652881182
3.06541387904316309
24.7689697971847522
-4.41454761305743393
-5.0075405127681023
-3.28817508033533556
8.6550795183298419
-4.92018848719351531
-5.22318149893421868
-4.64972777564478434
1.08025091708537957
-5.31683501355713073
-5.4199948486751568
-4.98043244386746409
-2.19768913144827849
-5.68629589675478542
-5.68773386647885903
-5.31449416516098516
-3.57201717385235895
-6.02180941828807192
-6.08218803926937213
-5.87197135709103613
-4.81797589637563561
-6.31997117855366763
-6.44535690597571431
-6.46076820485226921
-6.06411359017035778
-6.62049589376073921
-6.70971634992613097
-6.82545897335074336
-6.87389442057087852
-6.9200444180955758
-6.98073107429481965
-7.06100381506832875