/*--------------------------------*- C++ -*----------------------------------*\
| =========                 |                                                 |
| \\      /  F ield         | OpenFOAM: The Open Source CFD Toolbox           |
|  \\    /   O peration     | Version:  2206                                  |
|   \\  /    A nd           | Website:  www.openfoam.com                      |
|    \\/     M anipulation  |                                                 |
\*---------------------------------------------------------------------------*/
FoamFile
{
    version     2.0;
    format      ascii;
    arch        "LSB;label=32;scalar=64";
    class       volScalarField;
    location    "0.660000000000000364";
    object      alpha.water;
}
// * * * * * * * * * * * * * * * * * * * * * * * * * * * * * * * * * * * * * //

dimensions      [0 0 0 0 0 0 0];

internalField   nonuniform List<scalar> 
7248
(
-0.000315708612945151497
0.150656037495255996
3.87232344294986017e-05
9.26607611098587288e-05
0.000222087320729550438
0.000262295986109262126
0.000393789576070573588
0.000233598434690679023
3.73674886303321832e-05
4.72229514547578237e-07
0.000288309465919963683
0.000646505941845032647
0.000452431004101951572
3.66664770793221714e-05
1.19259769620871848e-07
4.69962070509490846e-07
6.19653777276510294e-06
2.2098962157234349e-06
1.03354153285378446e-06
9.32228230687259308e-08
7.31851149206912035e-08
9.9891447142126581e-08
2.46451381031811507e-08
8.4284404721090158e-09
3.18513930608668956e-07
3.02517446933911725e-08
2.89290752221069458e-10
2.06516303788961186e-09
5.89253340518770495e-09
-9.2514466819454531e-11
-4.1125066274502114e-10
-2.68682818968877073e-11
9.41392093231184191e-10
3.03376696143811146e-09
-3.18952987603254465e-10
8.65283939635899143e-11
3.72423712503596981e-10
2.86274813820233454e-09
3.34841224061311089e-09
1.24680923976753484e-11
8.97290204786079687e-11
1.32081729703717094e-09
2.32291627354473549e-09
7.65756302137171277e-09
7.75656591433693428e-12
1.05732893502992545e-10
2.13262069131737044e-11
2.09373323659387628e-11
1.52871719066418302e-08
4.41133923676665797e-12
5.18436120827911324e-12
5.81727113818830087e-12
5.38110241394223094e-12
1.3351142703157728e-08
-2.27387476629037818e-18
1.10751906891018675e-14
6.88305042969378401e-14
2.02124758098965431e-14
4.92762277661427805e-12
2.32926853317048147e-10
1.89054965982165589e-15
-3.30014119144931906e-19
1.18096758107252482e-18
4.93185274820623972e-16
5.14388213109914582e-15
1.2913401259151282e-14
2.14692563935422714e-14
-4.78284280577449075e-22
-4.80267441004324185e-20
-9.45672017983949716e-21
-1.32083472683878254e-21
-1.53725519753013943e-22
-7.43300183676557224e-24
-5.90577805971819624e-20
-2.29940645194297208e-16
-6.40007367969342278e-21
-6.14452713678499009e-22
-3.55228513398334954e-23
-1.61264320691203781e-24
-6.34607009832402927e-26
-1.29625922205824037e-23
-2.27329390115107584e-20
-0.00016135499974089608
0.228744523726016752
2.32911641168417607e-05
3.13517432022543486e-05
0.000375927276998961062
9.78538257766977673e-05
0.000105227798696596762
8.18103544061097969e-05
8.45297421836679033e-06
2.38938963101070366e-05
5.06358925786353441e-05
0.000203327115561372049
0.000240629307385226718
1.89257717463559511e-05
2.57667783703124811e-07
2.6222384950930822e-07
3.38458538194062202e-07
1.87277166068301094e-07
1.1740072430244861e-07
1.35849600872152815e-07
8.39940657508382627e-08
3.14393548471704592e-08
1.70796312978557341e-08
3.83916997067073189e-08
7.17956356179581832e-08
2.28184031547213897e-08
8.53184820938342221e-09
8.58691588967251842e-09
5.11938785862611845e-08
1.64355860860134556e-08
5.09470542183976667e-09
2.67968278898948785e-09
8.66532217804904883e-09
3.9386628275785154e-08
8.87337446091400971e-10
1.05719773478744237e-10
2.13371964481594685e-09
3.02548274535530996e-09
2.85944140127454577e-09
-1.92294019279945141e-11
1.04752920235460696e-11
1.54897122486499694e-09
1.09881355161533169e-09
1.2499031253601982e-08
2.89778875183294944e-12
1.37839704195867202e-11
1.23285366100579423e-11
2.03296415008979585e-11
2.67327225395318791e-08
6.8670004757490597e-12
4.54163998891342388e-12
2.41272836812988397e-11
1.7161916109648913e-11
1.81656994051856073e-08
1.56982877931335808e-13
1.17315752730380646e-13
4.32824968173869212e-11
3.90528743132405494e-11
3.07447130546732816e-17
3.99708411285327736e-16
4.95478223514050955e-15
-3.33784995321085123e-21
-4.37212721670429492e-22
-1.74028180139373624e-19
-4.57169259341287114e-22
-5.90787021812427235e-23
-6.24731585981365041e-24
-9.17176478566651633e-21
-4.22094002143803001e-17
-1.95060720548112254e-24
-9.97655236175930307e-26
-4.4695317765266421e-27
-6.16402274957083909e-25
-1.12259287013323007e-21
0.0250306710949150281
0.301581366763410186
1.55682799975499944e-05
8.45291611794004978e-06
0.000284287890722036965
6.19824138050074756e-05
9.45111518276667349e-06
5.65349561315705201e-06
3.25735092962751389e-06
5.2471549475556431e-05
6.58070099950426949e-06
4.01617471682487007e-07
3.51607017931964506e-07
2.1678278906924925e-07
3.97308994005866238e-07
2.84361181872621795e-07
5.07348159214983413e-08
9.01972007990471357e-08
6.1797850124143366e-08
1.99918196025616553e-07
1.05142048243450284e-07
4.25168285329978851e-08
5.0804324630330983e-08
5.48882793345719273e-08
1.12327116643944153e-07
3.14394797755972308e-08
1.31245673313007703e-08
7.05355967792448681e-08
2.49853348975517786e-07
2.28109066055315436e-09
7.11591631323139748e-10
1.88685769975449603e-09
7.25065681203059225e-09
8.89472571700887172e-08
7.44028672225745962e-11
1.04891713387776907e-10
1.83783374366434866e-09
8.76561122245888985e-10
1.09783495105642653e-09
1.39399112809416243e-12
8.87350582346773039e-11
5.14533786429463935e-10
9.38926580938981774e-11
2.50825210818736933e-09
5.58652911401749062e-12
5.71367379484155888e-11
2.82933307869374451e-11
3.0328481515620045e-11
2.50845686840443568e-08
1.07518225604709518e-11
4.53254646482241992e-12
2.46518619566743885e-11
2.07773555927940324e-11
1.12248355508384494e-08
2.22708235340339069e-13
1.56685424340192015e-13
5.44948273448828544e-11
3.12984767637617396e-10
7.96111319525295645e-17
-1.67181418783614298e-36
6.43929737260894446e-15
0
6.47974611334038648e-16
-2.95818158378154597e-33
-2.76864527733649816e-18
-3.92262599172141917e-19
-4.82808985241306691e-20
-6.19165398255240292e-21
-4.64835659589609976e-18
-6.53998080262587609e-23
-3.23458333172551078e-24
-1.39842973779437381e-25
-2.48181804161523383e-26
-3.83911688605692895e-23
0.0484105689670721526
0.347095983198699831
1.76921088901666311e-05
1.38766019804188148e-05
0.000116016692944831624
2.68592693842480709e-05
2.71464313683729081e-06
1.37092931429336117e-05
8.45297661498039858e-06
2.69971322155595143e-05
5.47994315676792991e-07
2.98813390325235905e-07
3.21155595609453221e-05
2.7644471885705856e-05
5.4846577289383602e-07
2.99059520641453113e-07
1.60599679810977292e-07
8.99606649589381023e-08
8.22067210403339189e-08
6.61315867996784122e-07
2.96039927835980751e-07
5.20920844388405184e-08
3.1069420005178872e-08
1.04729040384501842e-07
2.66513516759816058e-06
1.60797695997144373e-06
4.49190204035476387e-09
1.11123702870825253e-08
1.83894212018008523e-07
4.84452158881775201e-08
5.88158551377456432e-10
1.48061612787518324e-09
1.00953393957808902e-08
5.31343175561917139e-08
1.18654583120556813e-11
1.01760216214012034e-10
2.15569603855832971e-09
7.63884163198374959e-09
3.16414616662356638e-09
6.02703539548158114e-12
4.5686176253679636e-10
5.03580858487015995e-09
1.22640476265870979e-09
1.00302377744152127e-09
9.52196862488586329e-12
2.98085937841533982e-11
8.98865371603732572e-11
3.75433466006136453e-11
4.16100632757398253e-09
1.28633016612145327e-11
4.07730062680500217e-12
5.75182684799047369e-12
8.64603869745818529e-12
1.51151238723754943e-08
3.67794333402567521e-13
1.43447067276172745e-13
2.69352589462955406e-11
1.90223882960668482e-10
1.53507049922915149e-17
4.16692834731293184e-15
4.48587759853546178e-14
5.87981034446878691e-16
-2.37925105485278391e-32
-2.95985339796937865e-33
-3.35612812210606227e-19
-5.32660108787763762e-20
-7.42505619479510401e-21
-9.96401914791608283e-22
-3.46890196248916646e-19
-3.35432261274261428e-24
-1.83591674127136378e-25
-8.88416536229078529e-27
-8.19939866823931277e-28
-9.50000325979790037e-25
0.0700220081497857638
0.368262123614725878
1.42571273244816694e-05
1.89778683124464383e-05
9.13275532432210395e-06
3.77879871840975043e-06
3.18185303834509444e-06
1.55300541781553723e-05
1.44452469719675128e-05
6.50041314532070635e-06
4.05642915470140142e-07
1.06045587149581069e-06
0.000169743111708806245
0.000159034742990661545
3.31629846723608689e-07
1.57247536804003505e-07
1.66536641747532081e-06
2.37975436749499643e-08
-5.70706689528026945e-14
1.53132489435497726e-07
6.79775827346170844e-08
2.86927845016415631e-08
1.33699629587659577e-08
-1.87627524415682887e-11
2.50269674330584637e-07
1.86668890214859979e-07
7.40295281791349782e-09
5.24064580075230753e-09
9.504726693837022e-08
2.07779703348914161e-10
1.43087267448253387e-10
8.36004435161051874e-10
5.07194372653299781e-09
5.00975533907812139e-08
2.45167354282237052e-11
6.87206151328757951e-11
2.55067848070390214e-09
9.02958942422996006e-09
3.34181021787142669e-09
2.52350975699992695e-11
2.89753900045906078e-11
5.09877863592121188e-09
1.81081289430898743e-09
1.79113796130188105e-09
4.59719137411129317e-11
2.43761980281532343e-10
7.18206905601785868e-12
3.22423165602159499e-11
3.69470254230292895e-09
5.871542233436251e-12
1.09254360674426522e-12
3.87229689824400118e-12
2.85811372303362321e-11
1.52070845417482892e-08
9.65082949396943808e-14
1.42916838481234422e-13
3.4446814752587918e-11
8.62340570182899661e-10
1.37014938003574969e-11
1.23836666083901977e-14
2.40608375983726657e-13
3.43528215942931323e-13
4.50760023081414956e-13
0
-3.98583749237336646e-20
-9.64517318949484394e-21
-1.72117582959533648e-21
-2.63960314419007259e-22
-1.80228552579153999e-20
-7.52721020464009956e-21
-1.00597580982329737e-21
-8.13222652973485025e-23
-5.1917615010986865e-24
-3.08531081245257195e-25
0.0930571526536955324
0.386961951972254858
1.75104936889179053e-05
3.37964372513116889e-05
2.43004794868122826e-06
1.22964668564415786e-06
7.30123283093715593e-06
1.51382020984210194e-05
2.064778557664858e-05
6.0515567667189373e-07
3.38782720993283178e-07
6.1896593298608896e-05
0.000198549403840781981
0.000152306001409085442
2.64284831765000119e-07
1.38290877475339254e-07
4.81072664121621763e-08
2.19156846562986108e-06
1.98880141778776339e-08
6.26739550766926707e-08
4.41388427433342951e-08
7.52726160982647142e-09
1.07838564912246243e-08
7.13111122267100161e-09
7.44081935082522242e-11
3.13510847720511759e-10
1.06956380701208465e-09
6.33568066178362994e-09
5.97440813877687962e-08
-1.39285319495366833e-11
6.36852673485160107e-11
4.25524094116949114e-10
7.23703074231544042e-09
2.15871924768715703e-08
2.3773149930490664e-11
4.19794638441784377e-11
3.63757978556220275e-09
9.02958942422996006e-09
7.52484647216592851e-09
3.1870793155224915e-11
1.42593726368493545e-10
5.32145603456274257e-09
5.4458432772435873e-09
2.07628326009428353e-09
4.85214812360911629e-11
9.75292456913232905e-10
1.32847434885419418e-10
9.17653206860353432e-10
9.01409066067444594e-10
3.65087989950602195e-12
1.07768118721874424e-12
1.51750745411207033e-12
1.52096748950070195e-09
1.00970663664376899e-09
1.462307890663324e-13
1.20103753301536932e-12
2.05834955488501139e-12
3.98379552617022839e-10
1.37416284319538736e-10
2.16372782579040888e-14
7.51905736631803202e-13
2.47936968860155819e-12
1.15691056863150797e-29
-6.84775091337680879e-33
-1.64514871937083988e-21
-5.01919901587678514e-22
-1.26966597115781172e-22
-7.53402842578298202e-21
-4.173922810872712e-18
-2.28190746336378385e-22
-3.412527462665691e-23
-9.48138864321805618e-24
-2.59278924655644577e-21
-1.56897404063152745e-18
0.103647476751466239
0.408124139742695069
2.02659746312566175e-05
2.51962080170287873e-05
6.84029804327934232e-06
3.59427589746669034e-06
9.76402875896079916e-06
1.83666260611531927e-05
2.09789303624388442e-05
2.10182017661412458e-06
1.17857617480713685e-06
1.01340507055936544e-05
6.06930036266328039e-05
4.90105714644299966e-05
6.10308821341842726e-07
3.29724342289376516e-07
2.80760099588837782e-06
1.1880615485712455e-05
1.44192631223513374e-05
2.13800270124938705e-07
1.06378981342698558e-06
4.6528553461539153e-08
1.45747416485197729e-08
1.75912288798254457e-08
6.12772002793905711e-09
2.27386810150028016e-09
2.3969645731259129e-09
3.86603972671803463e-09
1.17556315258973619e-08
-6.05177186137048203e-10
1.34247807525768026e-11
9.42048584627542152e-10
2.43849038926367877e-09
1.21569866607414374e-08
2.43396906439344211e-11
6.43973788874498487e-11
4.159632619118451e-09
5.13916929869784228e-09
1.64726172480057396e-08
9.24090245341869189e-11
2.86663802741214917e-10
5.12318900277628413e-09
6.02488666988234692e-09
4.57359218920964646e-09
1.8508941342402795e-10
1.00982069820647841e-09
1.52553375106625567e-10
1.81080490285400773e-09
7.46347405362794316e-10
3.71607703773247851e-12
1.39248655626365632e-11
4.13233284126195689e-12
1.64017823017144165e-09
3.80533364276648882e-10
8.66567486213654252e-14
3.67007502084144045e-13
2.34841382607217684e-11
1.53374723145359081e-10
6.87607839033969274e-11
1.48297037950933274e-14
6.32731986371173525e-13
1.00141132761615521e-12
1.20722013862322589e-29
5.12711099378140887e-11
-3.09763576881689448e-23
-1.16121962992770107e-23
-7.91335621217458383e-24
-1.20037606226664638e-21
-1.58244088716818681e-18
-2.54568386281708303e-24
-5.04622967429536941e-25
-1.60965116442128265e-24
-3.67100614053865643e-22
-5.53886695422797144e-19
0.127911251928324116
0.439175939030376494
2.54213650347404714e-05
3.15388099241013393e-05
5.04075072857931657e-05
1.1949295272738821e-05
1.56739409722544275e-05
2.02620041674558771e-05
2.71049379895543178e-05
0.000183128038022574576
5.37824242505929874e-06
1.21024647462740816e-05
4.55197207972851965e-05
3.39657940704516363e-05
0.00015882780830485247
1.46247190354745778e-05
8.41134571435381992e-06
3.80418876402426843e-05
2.88509617695466193e-05
1.2118742108444735e-05
1.23934062221591475e-06
3.41504084922197194e-07
1.02019431673075948e-07
3.34529436340885998e-08
1.40091939200168522e-07
4.32411096095626232e-08
1.28166391462105696e-08
5.71044460235756794e-09
1.00038205604344529e-08
-1.74310763622846638e-08
-3.772715404939473e-09
8.39846655435695818e-10
2.0280348166255734e-09
5.99339945863082261e-09
-1.17050490737102218e-11
6.08244632919164592e-11
5.48405678960643796e-10
1.62850503054540379e-09
1.55624201245933077e-08
7.60677198974718784e-12
1.59838212976129412e-10
3.46085726288738743e-09
5.94345584474704369e-09
5.53946601351270055e-09
1.81443718755253171e-11
7.58611993021102448e-10
1.53584115575171358e-10
5.14736380032134051e-09
9.53338358260286632e-10
1.0788391915674683e-11
6.96837253380777349e-13
9.7831013746499606e-12
2.84060566541712919e-09
3.34971088478231824e-10
2.75860895007943559e-13
4.4877066732098955e-13
2.68386647273583333e-12
3.11667639615224533e-11
2.94850919299553784e-12
8.21016719662838203e-15
6.89337986095894881e-14
5.89259028221497404e-13
-4.49954248677305167e-31
4.47027751804054944e-12
-2.83904888084925834e-25
-1.13917612734332122e-25
-4.35681829360134535e-25
-3.3761665913140369e-23
-1.18191314630581599e-19
-1.18902787027718663e-26
-3.64485699713597394e-27
-1.19738725352845741e-25
-7.05656280603972847e-24
-3.67627777235021899e-20
0.0616783856607207998
0.109854465545720453
0.000197241199338821644
0.000308024472013632719
5.17413496150838517e-06
9.73401590962593395e-06
9.52163567449477554e-05
9.80182574031321705e-05
0.000111631084471660599
1.16385331264112626e-06
5.29535529575467616e-06
3.87087130420713064e-05
5.38223357510719786e-05
8.0236088596302409e-05
2.63912080617453839e-07
7.93550436086217474e-06
2.31717474511869214e-05
1.21536162970589358e-05
2.98597301741571332e-05
3.96118110755823913e-08
3.38511412786857479e-06
1.96506538629700851e-05
5.40935896135690404e-06
7.31353333628061541e-06
1.09386311504973979e-07
1.95351892313870242e-08
1.58306010088540559e-09
9.06447930014857834e-07
5.50059883362203284e-06
5.15313885217846069e-10
6.68303404684310891e-10
7.33799958765258935e-10
2.31022844717307793e-07
1.06079448248452039e-06
5.20276939388396164e-11
1.62456555369815157e-09
3.08146187593239137e-09
6.96702166599085897e-08
9.0343556634542552e-08
4.22849038546901906e-10
6.14328033010563363e-11
4.49351275556794107e-09
2.27462336711258387e-09
7.59436021721994892e-09
-3.51789793523131268e-14
-1.6460898713463362e-13
-7.55558144139253811e-14
5.83523822797006836e-11
5.23633751682832949e-11
-3.80867320778283605e-13
-2.91011165938981034e-13
-8.58320519918314101e-14
4.51089091087664452e-13
3.8701019254233389e-12
-1.45423896464373753e-15
-1.76665978095295778e-14
-2.80973707522148127e-13
-1.74520511521743604e-13
-5.02151126053006932e-14
4.3997622963042954e-13
1.63540504478455694e-12
-3.35030884781311983e-18
-9.00016875499054979e-17
-2.13120356710072135e-15
-1.17681504833492415e-14
-4.13792208113335766e-15
9.64557695365432773e-16
8.72270029771875888e-15
-9.83937706523151941e-22
-4.50881910281176971e-20
-2.00608731238423908e-18
-4.73733612566997512e-17
-9.92851259158631048e-18
-9.81114091609492694e-19
-5.62654933558291188e-20
-2.78150533585103692e-28
-6.27112797831878647e-26
-9.42521062886894793e-24
-8.72742732512572364e-22
-1.86381981517868155e-20
-1.09129604733346115e-21
-2.79577653972661942e-23
0.000209654554573799327
0.0614190700951680324
0.000205974644773628223
0.000107055948245734792
0.0001958765787655633
0.000299408634027995067
0.000285097384988767697
0.000203775760048592971
6.42333248471489699e-05
0.000249331936256717217
0.000159298786442205377
8.31134136952193863e-05
6.95733082252201877e-05
5.69989485941767112e-05
3.15107176305817401e-08
1.07693837374912005e-07
8.50148475886431986e-06
1.49131716744312263e-05
3.33171362909617721e-05
1.46187158209364794e-08
2.29065342770105067e-08
1.70234243222170999e-06
1.63525602524131008e-07
2.40900753406592634e-05
4.07901496872602007e-08
2.39582567229559521e-08
7.80358246792938628e-09
1.72979263309524286e-08
1.80428433047469202e-05
4.16572686935514857e-11
2.11800544619120996e-10
1.03178122473289377e-09
3.23275893704460624e-07
3.74450396912763685e-07
1.49512735518859112e-11
3.2817166148888159e-10
3.90927936346040009e-09
1.28538459374932735e-07
1.88467485886583339e-08
4.46324692580726821e-14
9.9491224316293588e-10
1.82154999009780205e-09
7.0206305538522759e-13
9.57070405273011405e-11
-5.38178439784112023e-31
-8.50571667817668952e-15
-1.57244794618422425e-16
3.17780746191145139e-14
5.03576561094750311e-12
-3.12709610181113118e-14
-2.38454783096760486e-14
1.12020699377260172e-15
6.02663419219154622e-14
6.65936122333290624e-12
-2.83833910140938683e-16
-3.99918833638944646e-15
-2.07296483237528991e-14
-1.29224818112951059e-14
6.11795863966103906e-15
8.29801913517730837e-14
1.99257349355293155e-12
-1.12412074292569698e-18
-2.67158487047816714e-17
-3.73701603313252036e-16
-8.54633444979495056e-16
-2.27944685378102813e-16
1.62568833512349903e-15
8.31512006334692314e-15
-3.09894188794406002e-22
-8.63222988585917177e-21
-2.22725133719472795e-19
-2.03986451442427102e-18
-4.88827835675970873e-19
-5.69256690387903144e-20
-3.68125276183271274e-21
-3.50921470621785767e-26
-6.66774803990027287e-27
-3.82995217508007988e-25
-1.52171731888066069e-23
-3.32562933034849121e-22
-2.09426726820885194e-23
1.44677615822887192e-22
0.000516258985313812328
0.0126363095037363565
0.000245736096161536938
0.000154047505157879405
0.000930217988030496504
0.000946433720142760958
0.000389493743497382455
0.000228677021975417708
8.65405978364116094e-05
0.000513028295284345269
0.000401405590209310647
0.000161965015678869307
6.16855910047816295e-05
6.48312709186984077e-05
9.55442545407193373e-09
3.53170734889215103e-08
1.17761691074806731e-07
4.01446854056463478e-06
9.87527088517696665e-06
2.74259598641919773e-09
9.54844355135857845e-09
4.05074543298575384e-08
1.18264145884837645e-07
6.59256541352600746e-06
3.3048621779890454e-08
1.12137733303657876e-07
1.51187796730576907e-08
5.36381798980329675e-08
4.06181048512997682e-06
5.21498822192963826e-08
2.25160635669235239e-07
9.77474690055168338e-08
2.05352314231366201e-07
9.61036303051613811e-07
-4.03699322823458246e-26
4.98288932836342461e-12
2.05731369499437222e-11
9.62225664741194277e-08
2.92797167232216321e-08
5.78681512300115095e-13
6.11629283389484317e-11
5.31794745785127667e-11
9.50376003274940391e-12
1.37182026260899491e-09
5.16093987492901468e-13
9.52364319834895823e-12
5.06210089628712127e-11
1.35970649993043672e-12
1.13724994809970535e-10
-1.22741489052361308e-14
1.89326617253042848e-31
1.50761647796200334e-13
5.07799524503767046e-12
9.87844746561935052e-11
-4.62961362743327114e-17
-6.0517073057642569e-16
-1.90719016054996079e-15
-1.14015646856568582e-15
3.17402792266780413e-15
1.97773097677490599e-14
3.72128407313799897e-13
-1.029309159507774e-19
-1.86717306186521515e-18
-2.84274844362653881e-17
-5.4077320202926435e-17
-5.20629566309186963e-18
7.34053315978501056e-16
1.14867994500179207e-15
-1.87367822317705983e-23
-6.85176625442805048e-22
-1.56340834348386108e-20
-8.35722300017029886e-20
-1.56270920540780601e-20
8.73549651265766347e-21
3.44688195884431926e-22
-1.70630926479354551e-24
-8.08504983209804128e-23
-2.24330336866788085e-21
-2.05519026035043758e-20
-1.58797262981725838e-21
-6.36422030157007882e-23
1.89190725402100976e-24
0.00348881757425868137
0.00222872275278535731
0.00059622290213421302
0.000719407180713631592
0.000946367414239241691
0.00106434313082474094
0.00099170543797196713
0.000523217614832600388
0.000582915187655585554
0.00055975944915085177
0.000885051033214834942
0.000361456842163567198
0.000207768060030854277
0.000117569792815994481
1.83628381115509321e-08
3.57015466387310203e-08
1.47757852967030713e-07
2.44654324214956076e-07
6.99988672352419344e-07
5.55499537229738538e-10
1.83628376656239883e-08
8.22888270986804213e-08
1.79244153274680833e-07
1.86350727721275727e-07
1.87931216600966891e-07
5.76207105411739357e-07
4.99138827102945355e-07
8.92909636734891843e-08
5.23144849552708306e-08
6.30630721277198624e-07
8.12678661216462084e-07
6.97636234172393164e-07
5.89727925016465028e-08
1.84249654936528828e-08
-2.88542075612647975e-11
2.03721990174949921e-11
1.203054007997612e-11
4.38730594582746997e-09
5.47362787224422834e-10
1.15105904881486364e-12
2.57678364831937807e-11
1.68496710925775618e-10
2.58016197774815117e-10
3.56820594318790686e-10
6.06498951334005736e-12
4.3296485978433045e-11
3.94737705223719358e-10
3.35410814867423208e-10
2.9770616687445049e-10
1.66591548797919249e-13
3.17547989363112596e-13
4.81456493578893617e-13
4.42148660567056216e-11
1.6632932278485248e-10
-2.87428560945482225e-18
7.53685719186864915e-17
1.59619760249731691e-15
3.85330337070637515e-15
1.44401842559071978e-15
8.38119231737046041e-17
2.65486795541544826e-17
-9.40209821850658199e-21
3.98909153259506751e-20
1.48176777541288158e-18
3.04715928468011284e-17
1.56281870875421583e-16
4.9781047549101095e-17
1.60598164395636846e-20
-9.95024329224290721e-22
-6.28685027307251675e-22
-1.79859209148252473e-20
-3.39041730215246028e-19
-4.29760519973304043e-20
3.8543400908822127e-19
7.43411437880515722e-21
-3.40407387212293551e-24
-2.07609754036651856e-22
-7.99553110514080071e-21
-1.51771201040156672e-19
-1.27479216252228768e-20
-5.68586311801163354e-22
-1.04318675670149229e-22
0.00329962748526025414
0.000680234533160813831
0.00147503900859266264
0.00102241196903152861
0.000391001238240894439
0.000928111369923957912
0.00112562234223672957
0.00125110598152816492
0.00107076580034030878
0.000640378622545267439
0.000873414374810731371
0.00076567700888467542
0.000714855553551598574
0.000602011243982493449
7.10776295018776511e-05
0.000199232690240944919
0.000242489056440508383
0.000149567917475413052
6.15577524890893572e-05
7.56171630262533486e-10
4.76505275010469535e-08
1.76759220053171572e-07
1.32622861020899646e-07
5.94652056285207138e-08
6.23749790456468321e-07
2.02029479237089171e-06
6.77026424664908125e-07
2.41556743926762588e-08
1.13556147522208754e-08
1.11621411559823784e-06
6.75137323860685609e-07
2.58117582601606859e-08
2.89579662091586286e-10
2.16185222127199771e-09
-2.65210867190476299e-12
-2.81682725624384006e-14
5.73893908171672084e-11
7.5569643004202683e-11
1.95629536408908874e-09
1.34932215695406009e-11
3.35355148328552297e-11
7.09163426852741589e-10
6.99476209064687773e-10
1.7022949181229749e-09
1.35013150245657084e-11
4.33991839280300207e-11
8.45691339956359373e-10
8.56650057523403661e-10
3.52407264678246276e-11
3.80089071881045243e-13
2.28236734441018785e-12
9.04229285407095687e-15
9.7303564175278041e-14
6.48649792923380067e-12
4.77240409547219044e-18
1.18786211973392792e-16
5.14721453172697375e-15
2.28340120979900541e-16
1.70404279731011977e-16
1.07910807216521699e-13
2.41380782105826021e-11
-3.41907428722422595e-23
1.68019456550925127e-19
1.40866681785790262e-17
2.15607935419510584e-17
2.49154400044741343e-16
9.74027543443323442e-16
2.88783349971744993e-16
-8.26706697724997728e-23
-6.98382627047408553e-23
-1.64715721950262464e-21
-2.8540180418519283e-20
8.6696713125044657e-21
2.75807129391504829e-19
-7.03656302407880474e-26
-3.30521307806970058e-25
-1.95008883892975277e-23
-5.19420264354124433e-22
-8.37237668892468718e-21
-8.41902069272613633e-22
-4.60695329134788347e-23
-7.72346527375730295e-24
0.000760886367048427574
0.000477498134563012454
0.00147865419103354948
0.000463245641914455442
0.000176332223197842226
0.00026297768856602859
0.000504131858154490613
0.00122672543254867344
0.000789788365431082456
7.22782383173874594e-05
0.000436094893333352322
0.000895682225718963236
0.000969392907673454537
0.000888957613727949653
5.79941813931853444e-05
0.000534654690942191124
0.000819756339198079824
0.000764191682430853366
0.000370529502012503808
3.37633565650900732e-10
6.92322146900743516e-06
0.000114496858318051178
1.42929544110445498e-05
-3.20379562305605795e-08
1.16466814834153355e-06
8.35280295364690184e-06
1.92464181943640281e-08
4.59115370824298607e-09
2.63521438116793737e-09
6.64569708505312937e-07
-1.55786544300722491e-09
-2.89460026666069937e-11
5.61419295547976109e-10
1.58208229294492392e-09
-2.03949290584526916e-13
4.55768409675340734e-12
1.8235878670093943e-11
4.12995932868354173e-11
6.93256728757340271e-10
4.42645986099979861e-11
9.74115992059717612e-11
7.09823972122459155e-11
5.09158138396705095e-09
3.03852289413534412e-09
4.92715705843259842e-11
3.39782172199793588e-11
3.68760174951889346e-11
9.65345180515160036e-09
8.54957085557536456e-09
7.20624008359982852e-13
8.50905233000902987e-13
4.24989278047490928e-11
3.72334169073741373e-15
4.03192624221645987e-13
9.34895170807639564e-17
1.60320727216001275e-15
6.90994387625416155e-15
2.52086426533068896e-14
3.18979775009260536e-17
5.7099765115577642e-16
2.40502498248363076e-13
6.99839526080628754e-20
2.64176379750149134e-18
5.02682034388543922e-17
2.86572073245524745e-16
1.47674587867603134e-17
7.67686953262598358e-16
8.60453367753114028e-17
-2.56522549890898834e-23
-2.26642533960912582e-22
-1.33830386860893571e-22
-1.05437429719190001e-21
2.26639347247004438e-21
6.3637008927160472e-19
6.39325127310083083e-20
-8.32084298050371541e-24
-9.54574957854379339e-23
-2.60628107432522381e-23
-2.77345388354567807e-22
-3.30520740426264278e-23
-2.19634088866746094e-24
-3.62481660109575762e-25
0.000419895458473171527
0.0068328562702506682
0.000427248582667546183
0.000193473434964730679
0.000240701358214997851
0.000478543049615612185
0.001011702217616736
0.000753235391707025425
0.000280665337745727853
5.13088885612573918e-06
0.000133643958807351054
0.000483577771571650384
0.000888957613727949653
0.000609147459084050493
1.00204272132956203e-07
0.000367753007860426571
0.00073050092346852954
0.000843383533178877526
0.000214773776933721919
4.56191385589127824e-11
1.40569880145559596e-05
0.000411487004110579809
0.00014060113518582116
-1.17375187253271554e-07
7.29680628575132626e-07
1.53114963053899768e-05
-1.64173846647938507e-09
-1.25882248968155156e-08
7.02466152535855145e-09
-1.01697727411121668e-14
1.4553219562888383e-10
7.60739331984479097e-11
2.74796258161437863e-10
1.83281670628597087e-08
1.88249128440866862e-11
2.83372478950276269e-11
4.25926480026549351e-11
7.63234529730957801e-11
1.00532967817019053e-07
9.18877055528674934e-11
1.87958906780016007e-10
1.82546956814668969e-10
1.89607956649160926e-09
2.59320188240506961e-08
5.34933926483691032e-11
4.55929352899821827e-11
3.25361894315421205e-10
1.05965208777589149e-08
1.42808739328946582e-09
6.42588147961657065e-13
2.42342568962544194e-13
1.39137722209447657e-11
2.89834244466280215e-11
3.74069969536125981e-12
5.72037513299666576e-17
4.63642654683628371e-15
3.04864074734577947e-14
8.81895682226325043e-14
2.57809536717389069e-16
8.00954308357685018e-16
7.87823378032994988e-16
-3.14838328585774029e-20
2.99490015554960256e-18
1.73474063416093613e-16
1.30720136014124177e-15
2.78763306610782689e-16
8.07338504607676489e-16
6.45622581236346746e-16
-1.80520024625821496e-24
-1.86808434244699878e-23
-8.27581676000417262e-24
-2.98949692562607636e-23
9.33593472499878296e-21
9.39902810317773006e-20
-3.75082755234706994e-18
-3.22947695166001625e-25
-4.3596575695481364e-24
-8.67219409389648925e-25
-6.92994953594500669e-24
-9.67402420670160333e-25
-1.18676462853952538e-21
-1.68333892146260291e-18
2.72288992001196552e-05
0.03405893901943121
9.06018327735361336e-05
0.000131513760043827855
0.000208722054504352906
0.00067564641952342578
0.000820374858166664483
0.000279110370851972994
9.18840493784626121e-05
1.96944737140027446e-06
0.000217795075979943323
0.000716471130700843803
0.000611379597914797753
0.000147177659743622083
3.39525569252372928e-08
1.10176923998854633e-05
0.000183855904329356239
0.000232721007995648438
9.19763983540099498e-05
5.06141571201081713e-09
2.24677819560802229e-05
0.000107221541780604926
0.000101362617645081831
9.51038494263456685e-06
1.67189252221133241e-06
1.07864260096252454e-05
-2.8783857728519529e-09
-8.33828049946296625e-09
9.54615299227988931e-09
1.17007005981385604e-11
6.19580576336229032e-11
1.08647846247272168e-10
1.67688435639954148e-10
-4.81797041857435284e-11
1.36223751607448387e-11