/*--------------------------------*- C++ -*----------------------------------*\
| =========                 |                                                 |
| \\      /  F ield         | OpenFOAM: The Open Source CFD Toolbox           |
|  \\    /   O peration     | Version:  2206                                  |
|   \\  /    A nd           | Website:  www.openfoam.com                      |
|    \\/     M anipulation  |                                                 |
\*---------------------------------------------------------------------------*/
FoamFile
{
    version     2.0;
    format      ascii;
    arch        "LSB;label=32;scalar=64";
    class       surfaceScalarField;
    location    "0.660000000000000364";
    object      phi;
}
// * * * * * * * * * * * * * * * * * * * * * * * * * * * * * * * * * * * * * //

dimensions      [0 3 -1 0 0 0 0];

oriented        oriented;

internalField   nonuniform List<scalar> 
20536
(
-0.00045542572509074241
-0.00029201581285335414
-0.000287058636438701682
0.000207099942207788736
-0.000841952539800724931
-0.000394434799821138449
0.000553812367771327595
-0.000172963365801287851
0.000298779147719915557
-0.000195274546637874181
5.49212782553636e-05
-0.000263448350440008937
-0.000342278423041052443
-2.34247851876252097e-05
-0.000285119369893773182
0.000107649220859304721
0.000164876302121242139
-7.58230335256358356e-05
0.000168196753408939687
-0.000185540253737744183
0.000141049959485114377
-0.000142781515400607718
0.000127907486431868682
-0.00011254849101899984
0.00023864964954649733
-0.000219743261779256367
9.0900068254835798e-05
-0.000147553849342232533
0.000435889064980509919
-0.000255266357046967599
9.83004595105221933e-05
-0.000235547923892885712
-0.000282130035675268414
0.000120515594984656481
-0.000286504827057124914
0.000541730832655388898
0.000485231076060095915
1.78368779781873008e-05
0.000324280854716317937
-0.000376737667625751051
0.000419029478757396373
-3.19052160995922005e-05
0.000268472931158635997
-0.000313147309532738906
0.000417127052437697948
-0.00014344795855582976
0.000185037269281552389
-0.000259429864311700755
0.000496418782059364306
-0.000235113570809579301
0.000125773039866163136
-0.000225216948074346548
-0.000285669731962248739
6.96339698437997814e-05
-0.000155592025501802408
0.000585917367649431441
0.000620269325103160111
-6.00822259762858049e-05
0.00020489757426515141
-0.000219890808743070272
0.000685341688064663199
-5.69479146573644444e-05
0.000218729485888428016
-0.000258758885626662817
0.000700829754548758363
-0.000119282070799755423
0.000191193153088744573
-0.00023084678148635316
0.000699356407891689328
-0.000215494987666576908
0.000122784401968513266
-0.000140929179295950461
-0.000306790859404296027
4.83967547811602839e-05
-4.44811621391313819e-05
0.000716562203166838294
0.00048732933623438446
-0.000175459332601747916
0.000115521098921648969
-8.61978870144776172e-05
0.000575998172813392811
-0.00016723148796657177
0.000138171190182686415
-0.000116556486630947371
0.000638275895045458969
-0.000204463603164782765
0.000121670931692097515
-9.87671006831863821e-05
0.000664516187028378873
-0.00027845877873821658
6.66216491999980923e-05
-2.98981060754734823e-05
-0.000358592772166386358
1.72335981681830554e-05
2.72488628850317926e-05
0.000671835353381452973
0.000412258603813776684
-0.000235162604393584004
6.76978359402164749e-05
-6.26009917912657629e-05
0.000485113393884932281
-0.000251797819895160718
8.05225003500121812e-05
-6.88111116188522655e-05
0.000543996874362485993
-0.000289051674571029265
6.54359815402821301e-05
-3.97314159123001272e-05
0.00057413887167344043
-0.00034337203713296217
3.82660816118248718e-05
-3.49474644321188846e-06
-0.000400791777109872551
2.3015486074264283e-05
6.09908979502446497e-06
0.00058722312678216983
0.000379331530002840448
-0.000270788090674352734
2.60513409635769916e-05
-3.18987414216309229e-05
0.000424172239903317159
-0.000296016579772921586
3.64940976063571533e-05
-3.71159291718086673e-05
0.000461084379166001878
-0.000331309897912045615
3.78773719476794874e-05
-3.25308841135780585e-05
0.000484269554289501242
-0.000373877117975296251
3.42726862423679168e-05
-2.69521959300175365e-05
-0.000419615082254207379
3.24558434400777765e-05
-2.63826307486197763e-05
0.00049701984351787124
0.000327708777934225678
-0.000301898403809101434
2.49238091369920901e-05
-2.58950444459806164e-05
0.000359547408372932575
-0.000328405290914991353
2.99050223399304147e-05
-2.93545539337225511e-05
0.000387060551088650351
-0.0003604560310598951
3.31054122411475994e-05
-3.147169444531678e-05
0.000407968973697173923
-0.000396882082632155932
3.54415715230320269e-05
-3.33443649576776021e-05
-0.000436635352581969585
3.95492559578297098e-05
-3.79282468924401742e-05
0.000423368143296786468
0.000276639987071415291
-0.000326219019424809134
2.61892316238058044e-05
-2.66614675918686919e-05
0.000300909009185707779
-0.000352578260748238361
3.00748302367635007e-05
-3.01706710609048975e-05
0.000322908114621820884
-0.000382481369382159354
3.43686761539585003e-05
-3.43421826865158758e-05
0.000341494724078661199
-0.00041534483356377497
3.93336110443658535e-05
-3.94575832497525027e-05
-0.000450948348534790553
4.62655207299165621e-05
-4.72246871762107033e-05
0.000356766170092296807
0.000228396101660134344
-0.000345078538660945728
2.4751112478760217e-05
-2.49614960473550071e-05
0.000246758777556309187
-0.000370448764945516111
2.8478444778695395e-05
-2.89708784229077658e-05
0.000263799409930397244
-0.000398553220779972813
3.35525389470377956e-05
-3.45218102405698586e-05
0.000279396948432970784
-0.000429254644092478036
4.03338618710665552e-05
-4.20220080037944912e-05
-0.000462529804365468644
4.97356875101996468e-05
-5.25247188231617001e-05
0.000293767371027664546
0.000181698175505625028
-0.000358732300072123894
2.23253559196191697e-05
-2.28434107179905808e-05
0.000195235887366650927
-0.000383111516922852665
2.63638877154520519e-05
-2.72395397350908067e-05
0.000207953561087690557
-0.000409861340386484811
3.20593985112911924e-05
-3.34690994563559529e-05
0.000219970955574608315
-0.000439012006901744005
3.99096382246830165e-05
-4.21686026346872967e-05
-0.000470663132542960294
5.06799865533608758e-05
-5.41896575149338898e-05
0.000231615786787579787
0.000116895645616731163
-0.00032761636099984978
-1.50131993528541064e-05
0.000127486136884270905
-0.000346926192270064567
-1.6686441206049403e-05
0.000137541750991144438
-0.000368209609144550323
1.88845113272291515e-05
-1.94632850583469086e-05
0.000146840949296223684
-0.00039147902806352554
2.27213781325109037e-05
-2.36531509261008291e-05
0.000155177796166153535
-0.000416737898404852172
2.82302940596943285e-05
-2.96892074252778476e-05
0.000162451420714891561
-0.000444037050598818529
3.59701084264455999e-05
-3.82159589178621064e-05
-0.000473477011637236673
4.67186391394955151e-05
-5.01385766718952743e-05
0.000168687815718377413
8.22926744565737788e-05
-0.000334944233383145434
-1.10715625041365073e-05
8.94082521818547122e-05
-0.000353723851992220929
-1.25419931277564162e-05
9.59662542244584427e-05
-0.000374250084465330905
1.43400671471218216e-05
-1.48574679864231533e-05
0.000101734463175324102
-0.000396448092979602407
1.74935881743921358e-05
-1.82919204831925111e-05
0.000106424966537510979
-0.000420217608487688478
2.20100932248852269e-05
-2.32189893759479494e-05
0.000109636596001472329
-0.000445447508851180233
2.83454016194377091e-05
-3.01442302346791759e-05
-0.000472012559256080959
3.71034052106267989e-05
-3.97866797488364302e-05
0.00011085717802167684
4.88709001721066662e-05
-0.000339183424867494114
-6.81629525465112884e-06
5.29583356044193058e-05
-0.000357580028178635235
-7.7958783858232864e-06
5.66294429932963996e-05
-0.000377563035763550572
8.9578327051575121e-06
-9.31547465592341676e-06
5.97083451351081607e-05
-0.000398988569525875593
1.10090308777237711e-05
-1.15467200797545662e-05
6.19494493994436287e-05
-0.000421659435889199039
1.39222872535040895e-05
-1.47207702801892029e-05
6.29807263967964697e-05
-0.000445303932841455369
1.7970920954929626e-05
-1.91446151134028316e-05
-0.000469570641216308828
2.34973578234282723e-05
-2.52214665420049812e-05
6.22642378597257568e-05
1.62263694947768637e-05
-2.30883688518079759e-06
1.75705729887141333e-05
-2.6527712445413681e-06
1.87671702447580578e-05
3.05257072855268976e-06
-3.17931863118248872e-06
1.97541854831182929e-05
3.7596649597367135e-06
-3.94766714912376471e-06
2.04433919429402282e-05
4.76041920957000902e-06
-5.03581920746722425e-06
2.07041343914132611e-05
6.14679662041468719e-06
-6.54848806631379582e-06
8.03854656803679144e-06
-8.62866185077494321e-06
2.03258257877802443e-05
-0.000392002279507672018
-0.000274526372386758454
-0.000306157043623593497
-0.000647424189188290644
-0.000312529212120979719
-0.000192887104475360097
0.000212023557371603691
-0.000165020955395842452
-6.5635859343385084e-06
-0.000260735034928334642
-0.000181632667352851947
-1.64569723490200735e-05
0.000369058413805618368
-0.00011081098415646729
8.92120001838445564e-05
0.000373188201268055979
-0.000156657864798657206
7.56286097745908212e-05
0.000433225123426898232
-0.000194039043204778259
3.61433427031643587e-05
0.000577670767418996586
-0.000209099043432228759
-2.06611794238510996e-06
-0.00024293320059784137
2.43032913576316797e-06
0.000677955146658247012
0.000542371193128339969
-4.50752137429109417e-05
0.00024092803719824761
0.000533197101513397526
-8.51402730591821325e-05
0.000206129900853135054
0.000540478005815877346
-0.000143802380694653241
0.000127520333849200372
0.000614173624373464582
-0.000208913502862789329
5.18926805563280861e-05
-0.000270623055495666711
1.78201671574684993e-06
0.000709715744365872845
0.00058232637153257682
-0.000126629528994538749
0.000210334292542983662
0.000657227351120658184
-0.000144567311315592486
0.000203255853743422181
0.000713212173570795609
-0.000179508578837993802
0.00017091485770184608
0.000749841217260341342
-0.000239870052765260577
0.000117112028509887566
-0.000313097374104385356
6.44106666635228358e-05
0.000776300975957330635
0.000455424585398938209
-0.000199162096088493107
0.000120887255404257418
0.000537850765752943241
-0.000223045949024579411
0.000134223514007939204
0.000610585657615945175
-0.000255131307652426017
0.000124558653196105531
0.000652852261804315955
-0.000303761771041304149
8.82464262186945833e-05
-0.000363301097262933557
5.07299246886391372e-05
0.000669558679310193927
0.000413003905992930312
-0.000226579522671370865
3.77526060936078249e-05
0.000474812780705319911
-0.000261787675095855662
5.74552910295225683e-05
0.000527523088781629195
-0.000300614205962209682
5.82087019489313902e-05
0.00056188315875074302
-0.000345961964358919803
4.61062281534801465e-05
-0.000395404976668839469
3.61505702475483574e-05
0.000580851292045683927
0.000382120171308309017
-0.000267279049734727282
1.97408057023491043e-05
0.00042415609961501125
-0.000298047745111802297
3.07187614084147856e-05
0.00045853554006146911
-0.000333009237860855357
3.58938049989424138e-05
0.000483088170608262767
-0.000372241641300290475
3.60002499078416547e-05
-0.000415181691904372156
3.628185091812495e-05
0.000499038274741169636
0.000332521473379287277
-0.000302480120774127289
2.79832450145298539e-05
0.000362541550333782801
-0.000329847800847820488
3.16857800494636945e-05
0.000389421467460478404
-0.000361193341880362286
3.44104339966111412e-05
0.000411592975687881466
-0.000395907513661255921
3.6936030667455351e-05
-0.000433773607280437616
4.08311832307007021e-05
0.00042890183173224111
0.000279874897058301174
-0.000326833054203812669
2.56978729203330983e-05
0.000304151493566381568
-0.000353109923144856019
2.90605265820695947e-05
0.00032679680955738816
-0.000382500954920132036
3.3030869355958892e-05
0.000346871597368666421
-0.000414435702042701532
3.77864567181572514e-05
-0.00044894878882318067
4.40980855251630661e-05
0.000364213365160841076
0.000231150586179407457
-0.00034598380043670006
2.38323075373455939e-05
0.000250663491828185202
-0.000371356179601115867
2.7211269884461812e-05
0.000269219679090653352
-0.000399268972635375059
3.17642136055662551e-05
0.000286837830020612481
-0.000429513232440629155
3.77938153238280937e-05
-0.000462182866237545887
4.60603605165333706e-05
0.00030374827946739525
0.000184956560113356665
-0.000360207236794648914
2.1267416867070165e-05
0.00019983507316105229
-0.000384639922437807441
2.47690721004923376e-05
0.000214289603486212548
-0.000411440470635656373
2.97780798833735419e-05
0.000228621441288652896
-0.000440603112216930921
3.66706203525690437e-05
-0.000472269342940700781
4.61752278827107053e-05
0.000243215071993792785
0.000140681516575096179
-0.000370152558937185221
1.77363648634679953e-05
0.000151348564293289167
-0.00039370341788415059
2.11190556934407808e-05
0.000161530813510581551
-0.000419368176322012587
2.5978992412951809e-05
0.000171317065535008613
-0.000447222862984981431
3.28070773128945095e-05
-0.00047740029888301605
4.22791433261163015e-05
0.000180889265897555705
9.8552791873667998e-05
-0.000376598302409443259
1.33750996762851242e-05
0.000105446010063760406
-0.000399265595803407851
1.6163914768904154e-05
0.000111642380520806514
-0.00042371088796174601
2.01588268279779572e-05
0.000116899948375141324
-0.00044989811816795774
2.57653507692231477e-05
-0.00047779289629563688
3.34755288465179697e-05
0.000120921495792056244
5.82964661990509743e-05
-0.00038016653583565252
8.3243618164995587e-06
6.20729794912584174e-05
-0.000402171676056030109
1.01388071865575847e-05
6.5235209555566877e-05
-0.000425668558727396954
1.27189065532532652e-05
6.74770052575399728e-05
-0.000450466295765743446
1.62990685762930521e-05
-0.000476313050177046076
2.11717463094413476e-05
6.83236414179344347e-05
1.93287486847726678e-05
2.8296147187942664e-06
2.05498007528248631e-05
3.45746687559305535e-06
2.15468792572665841e-05
4.34569269209129313e-06
2.22094197941240064e-05
5.57209771412026634e-06
7.23567696474508226e-06
2.23476719762124142e-05
-0.000392159109522103189
-0.000435656874450761344
-0.000244215275547269564
-0.000565706643735761766
-0.000250150852962822533
-0.000216215703345800725
0.000199103329238685205
-0.000213927191729200807
-1.0688147174720939e-05
-0.00022832375906359448
-0.00017942143615390496
-0.000140490540444254079
0.000533072219069745086
-0.000139612186375809023
5.30874032382015119e-05
0.000570139141498069769
-0.000235937290808326558
3.9692124895234812e-05
0.00065129826231965593
-0.000273147626888093199
-5.68850527759564397e-06
0.000753667102890764776
-0.000279392028715430964
-3.89695082764696045e-05
-0.000271646291133828804
-2.56257668277914739e-05
0.000825046007106605846
0.000560166199074033371
-0.000123713822369985816
0.000196415853173616142
0.000584152141678444259
-0.000198921877102535148
0.000145129023702979032
0.000626133440109284917
-0.000246084172084050769
5.84760278637125043e-05
0.00070359901083735907
-0.000274992034271360813
-2.99726429255734605e-05
-0.000316439343610192664
-3.83494681994351087e-05
0.000788523317017262009
0.000536211913155965319
-0.000167554577332885399
0.000208521654170253995
0.000591118212749000235
-0.000220846474842015391
0.000170274383111532315
0.000650653884919049881
-0.000261598253642097382
0.000126893276595862743
0.000709657340533454664
-0.000301133942515201009
8.42501372710142862e-05
-0.000349778756670308412
4.98875109476932724e-05
0.000757519145740348184
0.000448766552191870156
-0.000192775327218197128
9.08392026622541681e-05
0.00051478127554232915
-0.000240089848093765271
8.7451966920202407e-05
0.000579807947690786306
-0.00028194455400463829
7.98779378935754605e-05
0.000627779881300689403
-0.000323413895508320264
6.2553872628927758e-05
-0.000371072178842826576
4.67195558193572597e-05
0.000653082711127317764
0.00042667576878827187
-0.000219731997154438692
9.8464965803989241e-06
0.000478797958565590229
-0.000261073369918500141
2.63164716586876212e-05
0.000522956774370029022
-0.00030330327373563154
3.54085185831345614e-05
0.00055657874516889898
-0.000346676439663646933
3.57465185182151467e-05
-0.000392871840422629804
3.54814682782663438e-05
0.000579046653130698341
0.000388547473724623756
-0.000268624829677388175
2.54298927084176928e-05
0.000426720991668193045
-0.000300708016759430332
3.21802608675315425e-05
0.000459035587933141081
-0.000335505267073437307
3.57816542335341977e-05
0.00048423516755708671
-0.000372749049513302656
3.68732840990464503e-05
-0.00041336946390587169
3.85424606617640087e-05
0.000502471334595745961
0.000335197904376729886
-0.000303323183044864242
3.06654796417564596e-05
0.000364724135860980858
-0.000331098772872144478
3.25509273949950862e-05
0.000391527752257563066
-0.000361954213193006052
3.40562267700963064e-05
0.000414845063739421351
-0.000395379388076392484
3.62489451318815536e-05
-0.000431869599591429114
4.02157007006032804e-05
0.000433960009249923905
0.000282460651729829015
-0.000327683611635193014
2.46958301546146535e-05
0.000307098767303205301
-0.000353970030556563574
2.72939748836891845e-05
0.00033049060134819131
-0.000382957865937186769
3.06428597156952021e-05
0.000351992191050873554
-0.00041413882906217507
3.50443868792424808e-05
-0.000447676472765147005
4.0841698037838839e-05
0.000371055747608418441
0.000233799200037254667
-0.000347070801426486585
2.23164357467173016e-05
0.000254269705746743436
-0.000372358708214193387
2.51295177402426352e-05
0.000274132818870260618
-0.000400076262329673198
2.90201639166956296e-05
0.000293497977016946065
-0.000429935338067671672
3.42263295130062302e-05
-0.000462026144416292656
4.13570198301891712e-05
0.000312552325414175707
0.000187808197741083004
-0.000361657364206575418
1.95770767209264012e-05
0.000203905527960631533
-0.000386134954850143506
2.24485865717872826e-05
0.000219928615723474877
-0.000412978199596530644
2.66587193761892579e-05
0.00023631453520015389
-0.000442142899223897027
3.24940878937365438e-05
-0.000473819050316953456
4.06627898497730747e-05
0.000253620752287319923
0.000143463251750536601
-0.000372011728044961394
1.60381038510068969e-05
0.000155361321320006862
-0.000395798244440189601
1.88853893591383346e-05
0.000167160899545493316
-0.000421803827550752859
2.30070118384904898e-05
0.000179150157234379804
-0.000450130209795902088
2.88062698456632281e-05
-0.000480966871411083363
3.68946003305389045e-05
0.000191682174609576864
0.000100851479175869394
-0.000378803834820408045
1.19885206269590799e-05
0.00010874418728078329
-0.000401877404001158402
1.43511693262239223e-05
0.000116266392357020613
-0.000426912255270242059
1.77463842344352125e-05
0.000123322463203367517
-0.000453936710440031727
2.25164110317815607e-05
-0.000482987694558574543
2.90734242629515639e-05
0.000129744734923145367
5.97709625391830139e-05
-0.000382589474541808429
7.42945620109736434e-06
6.41703634415867122e-05
-0.000405105440738915909
8.9678554184311008e-06
6.81488246952292604e-05
-0.000429332023676089506
1.11614918566854028e-05
7.14526980482459487e-05
-0.000455147700701606314
1.42069293785175404e-05
-0.000482384164502571106
1.83382976680574592e-05
7.36818018674235774e-05
1.98275025394216008e-05
2.51790509717354967e-06
2.12561761371847201e-05
3.05245820724753194e-06
2.25237910623681826e-05
3.80918909359000929e-06
2.35364590733779139e-05
4.85103304697416543e-06
6.25562036456925913e-06
2.41277903293160852e-05
-0.0003566673378075794
-0.000462399475739217608
-0.000184474045581583005
-0.000492564329807914508
-0.000202210685200325356
-0.000222188518141911329
0.000153809385236243219
-0.000161706964316777431
5.62515830391632345e-05
-0.000156429225890689918
-0.000131060233275409008
-0.000230686740118992914
0.000608983389025941567
-0.000167470155797196996
6.08468836020306886e-05
0.000668119592221183447
-0.00023616432180054007
4.93222112641043074e-05
0.000775690625371376423
-0.000275081753156622725
-1.53929261789201898e-05
0.000857808276003752348
-0.000240958868171810937
-4.18348346918264325e-05
-0.000206791216449532728
-2.93770112210617521e-05
0.000911921509617682254
0.000525579118770909751
-0.000171779810671655533
0.000184931850685460844
0.000551646997919534371
-0.000235018359759979977
0.000117915725147932232
0.000587500632926014573
-0.000263760214438815536
1.13010532271782775e-05
0.000653717226435907299
-0.000263562887773794048
-7.35854219961131102e-05
-0.000280696552747178958
-4.87979444548620285e-05
0.000738070450118069729
0.0004967974485566495
-0.000147458908468606626
0.000152186615624949628
0.000539216441746996102
-0.000206148245291668046
9.89853484600196028e-05
0.000597763919015486828
-0.000254482406368686904
5.90675814847072092e-05
0.000668757673662194788
-0.000295140005065683275
4.48327347428850099e-05
-0.000340227764585987968
4.37790941489917936e-05
0.000734396274226346499
0.000464175577174633439
-0.000157782500950898928
4.66912143144885435e-05
0.000521276066948411971
-0.000216969689744464197
4.11725142613276256e-05
0.000577664201365096124
-0.000269959140557168452
3.89658507377635784e-05
0.000625043302038003372
-0.000316455435934421094
3.64893591495460363e-05
-0.0003643056682688639
3.97875584848308612e-05
0.000656052127415076062
0.000448967279707040284
-0.000216494369769439099
2.48450928804932476e-05
0.00049051831477469254
-0.000261604015146055821
2.9399525918809554e-05
0.000527604077675321238
-0.000305091202525344812
3.34545896925724978e-05
0.000558834393810756598
-0.00034737957349750164
3.54400194164042342e-05
-0.000391998834819264454
3.87236569941940692e-05
0.000583284601119893006
0.000394965802067281675
-0.000272809061356292005
4.26434252409234319e-05
0.000429501655228212067
-0.000304642617554184427
4.06833928017642562e-05
0.000459819525788707369
-0.000338054349388586381
3.84273828968897078e-05
0.000485774314682523218
-0.000373403540544935489
3.69426219846336309e-05
-0.00041198362789304473
3.81417257460534294e-05
0.000506159371727820349
0.000336383689934212566
-0.000303356879145777892
2.99312452265791132e-05
0.000365734709181433026
-0.00033167179787576916
3.02298024464204667e-05
0.000393140684999025269
-0.000362445213349171639
3.10417114158864971e-05
0.00041817110600010502
-0.000395331489447094521
3.31467300725914632e-05
-0.000430833903980466586
3.73597144827951045e-05
0.00043987738093041631
0.000284343966923570235
-0.000328784330928017399
2.38076579505177727e-05
0.000309746902750686608
-0.000355074142563517885
2.52939246736264218e-05
0.000334054877459418517
-0.000383740578730454329
2.76307259138676428e-05
0.000356998519341231667
-0.000414387915064091776
3.11576740801725261e-05
-0.000447143008462318192
3.62388792125883753e-05
0.000377911263513204402
0.000236065857693580367
-0.000348348056652940646
2.02676238282217975e-05
0.000257365618609226845
-0.000373469556121153385
2.22256427429527686e-05
0.000278381932069274535
-0.000400963842280577373
2.52278525196453194e-05
0.000299301861089474978
-0.000430521097347902478
2.94404430643795061e-05
-0.000462193805660441313
3.53554297345231428e-05
0.000320355086967779039
0.00019014675353889291
-0.000363074856750961801
1.71501367058773753e-05
0.000207329835636191204
-0.000387564901880218366
1.93616131082386608e-05
0.000224750532025182306
-0.000414431741801027983
2.27069132933973932e-05
0.000242911187554437752
-0.000443585985132265777
2.73986898502189726e-05
-0.000475276189765226978
3.4028490931550783e-05
0.000262627436894636006
0.000145797607679179085
-0.000373738309319464009
1.38012812814301399e-05
0.000158772621574348636
-0.00039770784017896559
1.60541694605523029e-05
0.000171972564510771678
-0.000423989756517302195
1.93657555243774948e-05
0.000185845661771988547
-0.00045269358047170965
2.40403456306549256e-05
-0.000484071478319097852
3.05981480951827175e-05
0.000200936211253257999
0.000102802774663276407
-0.000380798960089608356
1.02091839985414228e-05
0.000111553407173330311
-0.000404207798506808216
1.21011191707800334e-05
0.000120209299994029185
-0.00042973740818189125
1.48388096942298203e-05
0.000128806697651553741
-0.000457467967056594664
1.86932418837551574e-05
-0.000487493098909716222
2.40006372666930158e-05
0.000137300214752542575
6.10199200836694501e-05
-0.000384754736474058939
6.29097910942180538e-06
6.59546710064700455e-05
-0.000407702813422589181
7.52884430722325133e-06
7.06299825453884385e-05
-0.000432549738994309711
9.2996770090224125e-06
7.48408945604973278e-05
-0.000459232069805733686
1.17602826564567452e-05
-0.000487637000683104852
1.5081001214590335e-05
7.82410514076927035e-05
2.02521888576830105e-05
2.12718870844576872e-06
2.1858058559774522e-05
2.55864722343393439e-06
2.33543958555927649e-05
3.1704278286487509e-06
2.46603410598339844e-05
4.01006177530235168e-06
5.13287997047140559e-06
2.56305830393168859e-05
-0.000336102803888919206
-0.000478971722724902405
-0.000138673106084869044
-0.00047425122535679938
-0.000149733025015093551
-0.000215385841433568884
0.000136776924956778534
-0.000117788829988371913
1.45609597358669231e-05
-0.000145646465294097937
-9.11059373434624267e-05
-0.000231781974824582515
0.000555156952057203048
-0.000116969491277396813
-4.16118519353367213e-05
0.000643745158931095969
-0.000137950811772798848
-4.51194116580815372e-05
0.000759165950972242915
-0.000155025616812824707
-8.97004490473694231e-05
0.000807499552848081701
-0.000141557617915882849
-6.63994193086944138e-05
-0.000160590787197509061
-3.80351812720320029e-05
0.000831101775289552823
0.000575823323291530312
-0.000100845243519956059
0.000132068778854565528
0.000608447276209710293
-0.000134509857409620295
8.18513780480878428e-05
0.000612443279675850137
-0.000147498713917076934
-2.21910125902495536e-07
0.000598345644150016006
-0.000186734972161240782
-1.43109823483008184e-05
-0.000256509112270465744
1.33731726002779681e-05
0.000632091991925646211
0.000517093470734455475
-9.40540591829614467e-05
0.000110688634714674816
0.00055946842228261429
-0.000150689037796791948
7.27894440970771028e-05
0.000624765428340613303
-0.000202496091252277741
4.8767193431333277e-05
0.000692831597171252641
-0.000254271215971914213
4.43017910369786788e-05
-0.000326562075402233687
4.99870885906271244e-05
0.000756675409876521993
0.00049849562291904995
-0.000159014637316855939
6.66869938797728928e-05
0.000542597611051185693
-0.000212096574067858405
5.8477407114170354e-05
0.000590431442015692371
-0.000263180341650158804
5.18154386783353338e-05
0.000635801154093143701
-0.000310449759090866847
4.72974113320079423e-05
-0.00036261582975538869
4.48687799090076941e-05
0.000666772781744573309
0.000457911380682201501
-0.00023632093473976797
6.27767778994482224e-05
0.000494520701207796826
-0.000274255346430714135
5.49486520808254288e-05
0.000528970608560057408
-0.000311434130837724579
4.72583847267301496e-05
0.00056183567639197607
-0.000349292627356508447
4.14178517391253895e-05
-0.000391526610621746856
3.99239991453905591e-05
0.0005895457670013096
0.000392870446929544071
-0.000276331516851767271
4.61312689738739313e-05
0.000426375687768467554
-0.0003072495304923085
4.01727631834403886e-05
0.000457255715470139676
-0.000339582681650720843
3.56966010980488908e-05
0.000485387215786811047
-0.000374189543321046876
3.37086326870599385e-05
-0.000411986098472111903
3.5059597677123658e-05
0.000508928894731257905
0.000336514718370318849
-0.000305658368765211828
2.75857660469817562e-05
0.000366579547854441407
-0.000333681054938996988
2.6597322191360803e-05
0.000395073556971621564
-0.000363859656174521254
2.6825456764417242e-05
0.000421843538033948645
-0.000396129456348263812
2.83172301252099681e-05
-0.00043071364360464749
3.20867131357839295e-05
0.000445844473934931158
0.00028543880078879671
-0.000330442561456123637
2.15064755014128691e-05
0.000311613010555827777
-0.000356451960955771478
2.18912484591974208e-05
0.000336819572112129456
-0.000384715147551872459
2.32800459338961257e-05
0.000361063005613633753
-0.000414948615024449499
2.57337678027550222e-05
-0.000447267022668041542
3.0249834981460992e-05
0.000383606090062958542
0.000237659649759834054
-0.000349687885058070237
1.7167418328875033e-05
0.000259770920299633471
-0.000374627870352506689
1.82907436655016455e-05
0.000281823755290479413
-0.000401913102075529452
2.0373049284872793e-05
0.000304037021494208272
-0.000431224125579199346
2.35025887408732693e-05
-0.000462640015940120916
2.8257271060553066e-05
0.000326508294728232256
0.000191951889297233772
-0.000364421687649883026
1.3956218823778982e-05
0.000210072362908547727
-0.000388884872441124267
1.54985608626030339e-05
0.00022867523701700562
-0.000415747569587688161
1.79381991712273014e-05
0.000248263017553685913
-0.000444882330424557521
2.14681798650522736e-05
-0.000476547893235479306
2.64240370443549287e-05
0.000269774557266571507
0.000147654745568266704
-0.000375262975293069517
1.10269500524546713e-05
0.000161529104272685773
-0.000399364297251483661
1.2659537207366609e-05
0.000175890523741148078
-0.000425860987507659756
1.51173134540848617e-05
0.000191295096596471697
-0.000454855801384589488
1.86082803845836288e-05
-0.000486645355484971009
2.34843883399014524e-05
0.000208505753499968526
0.000104364609213615134
-0.000382509621427608543
8.06317302178589116e-06
0.000113824570718802851
-0.000406184698298196203
9.46193316555131417e-06
0.00012340466703050597
-0.000432110109568291975
1.15082240559885831e-05
0.000133260312647638364
-0.00046040536564823781
1.43871459363063638e-05
-0.000491216364694385525
1.83565199622017655e-05
0.000143475312744444712
6.20255591314724212e-05
-0.000386591996199747896
4.93751699106932209e-06
6.73959445472980433e-05
-0.000409887455548984983
5.86206360668652409e-06
7.26330922526719804e-05
-0.000435235831876214197
7.18930784365356692e-06
7.75768939938873184e-05
-0.00046261954486774879
9.03064959542169027e-06
-0.000491952263984483723
1.14876272933723893e-05
8.19053229238516902e-05
2.05945032439961098e-05
1.66616994597143706e-06
2.23443832701806429e-05
1.98930636252606818e-06
2.40245391132564503e-05
2.44877765360804927e-06
2.5560884347349886e-05
3.07677817368364478e-06
3.90876031638507494e-06
2.68225134972152298e-05
-0.000330075557267867255
-0.000552238872895554483
-9.89893017275898503e-05
-0.00045826083513103924
-0.000100029491447179651
-0.00021970471467662987
-5.75253567901878169e-05
-0.000208070435479514271
-6.49624263444092997e-05
-0.000220479399181791992
-0.000101707540931969228
-0.000284705141491291887
0.000580928639115603409
-0.000196360100987228397
-0.000102832595107746902