/*--------------------------------*- C++ -*----------------------------------*\
| =========                 |                                                 |
| \\      /  F ield         | OpenFOAM: The Open Source CFD Toolbox           |
|  \\    /   O peration     | Version:  2206                                  |
|   \\  /    A nd           | Website:  www.openfoam.com                      |
|    \\/     M anipulation  |                                                 |
\*---------------------------------------------------------------------------*/
FoamFile
{
    version     2.0;
    format      ascii;
    arch        "LSB;label=32;scalar=64";
    class       surfaceScalarField;
    location    "0.570000000000000284";
    object      alphaPhi0.water;
}
// * * * * * * * * * * * * * * * * * * * * * * * * * * * * * * * * * * * * * //

dimensions      [0 3 -1 0 0 0 0];

oriented        oriented;

internalField   nonuniform List<scalar> 
20390
(
0.000141491008652797409
-0.000102810582485844592
3.87268177523251327e-05
-0.000101635191641257698
0.000252328589157657245
-0.000113751520114038795
0.000140412816049117464
-0.000158880828908226831
0.000329177178751708039
-9.32567995269741301e-05
0.000188928363207415469
-0.000192096500370455246
0.000382887246994171638
-7.23115887552082344e-05
0.00021797381125994317
-0.000212700548582496235
0.00042803209907230598
-5.72156795528376804e-05
0.000235545629070566019
-0.00022749135946177024
0.000465095309253487623
-4.70928292261258029e-05
0.000248598661709087637
-0.000239636714075638999
0.000495570719758602627
-4.04213602704381954e-05
0.000258712528807089506
-0.000249606355627267308
0.000521086700510949626
-3.55415163012229296e-05
0.000267093890876727354
-0.00025764887590769552
0.000543307465994524686
-3.27327217933770387e-05
0.000273907757182568481
-0.000263813668042527387
0.000563113246729970074
-3.11473213802548451e-05
0.000279480131659147696
-0.00026841536161435601
0.000580959388080149537
-3.02962352060431654e-05
0.000284063369913493968
-0.000271724463464847869
0.000597445768301560769
-3.04021456887339121e-05
0.000287279818928236406
-0.000273618811246285421
0.00061315450113073682
-3.08774599910415095e-05
0.000288992577448597037
-0.000274045922197149912
0.000628255902244367307
-3.14109659737892379e-05
0.00028932322325742212
-0.000273202148240762768
0.000642704297180497351
-3.18872461922480876e-05
0.000288371151390070558
-0.000271167135901832107
0.000656349249058163714
-3.22326905661556495e-05
0.000286604718637909904
-0.000268252587551194837
0.000669437662762421815
-3.23826011569468026e-05
0.000283742841703538108
-0.00026472757257837683
0.000681543785113334212
-3.17471720595753e-05
0.000280240314434137704
-0.000260989714233963305
0.00069262333660730091
-3.09006694786260048e-05
0.000276443517389408358
-0.000257103349219105248
0.000702708799966965088
-3.014394174045049e-05
0.000272513434013811433
-0.00025304966262724803
0.000712938933853891552
-3.12567394932263586e-05
0.000268776786330264441
-0.000248510585805873771
0.000722502372115496052
-3.06059039222435702e-05
0.000264303701516305353
-0.000244187453282281811
0.000731377368512584015
-2.97664062200566117e-05
0.000259036442371689875
-0.000239187102946750515
0.000739298213753400608
-2.8863404018871223e-05
0.000253342805093779609
-0.000233646768460555611
0.000747962190788907587
-3.08142461481535093e-05
0.000248272803831968718
-0.000227766817074736958
0.000754567952466460344
-2.82733886092370429e-05
0.000242919632939763341
-0.000223364335980960756
0.000760315969105393062
-2.67449961327855956e-05
0.000237169039484156578
-0.000218812545322546537
0.000765358315931090479
-2.59153308394038073e-05
0.000231229072751030275
-0.000213619151606138683
0.000769856960166880652
-2.65615249596871522e-05
0.00022488503850275792
-0.000206665280570954437
0.000773880160718333401
-2.75333519708795816e-05
0.00021818834691607309
-0.000199521212560027498
0.000775796477771195582
-2.582934859245886e-05
0.000210693774377112588
-0.000192725748745022291
0.000775263721487948697
-2.26170492755271033e-05
0.000202685531240268411
-0.000186274947762840078
0.000770217684708275011
-1.70687951104186166e-05
0.000195474575700010998
-0.00018071130266188393
0.000760644255090018977
-1.48059258372951245e-05
0.000190386550463882067
-0.000174740359074372474
0.000720335847821822195
1.33068996180248034e-05
0.00018677573481322104
-0.000170625760481512195
0.000580002845576999514
0.000112563476208180758
0.000183769235390809243
-0.000168009088385205645
0.000281204326519350688
0.000270437600217083608
0.000177644384661982844
-0.000162094114220267301
0.000256477789401213956
0.000119635868126470926
-0.000108757536851650634
8.40650181959946266e-05
-6.96011261386211003e-05
7.99263476082671795e-06
-0.000121440441039425605
0.0001529475694194188
-8.35769048610299231e-05
6.14998343344019973e-05
-0.00016064531281231116
0.000221148459033297732
-7.605324364273477e-05
8.44841036418961309e-05
-0.000181192436889338179
0.000286290798171725299
-6.81205738563622824e-05
0.000112115619987189415
-0.000195565699130956905
0.000343256709315266199
-6.27182132573546921e-05
0.000141432343867750908
-0.000208235626710790551
0.000387470982033478897
-5.98016796147469242e-05
0.00016398389606433366
-0.000219359838138394922
0.000430281296107225405
-5.95597826176302105e-05
0.000191030433655334751
-0.000229393571091567663
0.000464380656737883933
-6.28384271437041388e-05
0.000209202512656356975
-0.000237585467370024094
0.000495100614512614351
-6.24819248367504903e-05
0.000224275871728540552
-0.000243591835047650689
0.000524126408787352251
-6.1061503677441135e-05
0.000237706174625296933
-0.000248130191963699654
0.000548882894482077919
-6.24635714836576934e-05
0.000247312905644575249
-0.000251313691632697319
0.000570971259655464209
-6.37235059483562085e-05
0.000254582221837357616
-0.000252871758495345957
0.0005904128508421062
-6.44832190491744959e-05
0.000258912730143735434
-0.000252773404045743017
0.000607010558446088476
-6.47141251408197215e-05
0.000260631402603818765
-0.000251042464780248833
0.00062061159533809856
-6.51097191444462798e-05
0.000259143992032418108
-0.000247840122833384833
0.000632543736041041868
-6.49858136059588656e-05
0.000255706105206282347
-0.000243653638326516895
0.000642897723931065289
-6.46662975603463924e-05
0.000252305711777345699
-0.000238875146617507434
0.000652013916953044534
-6.11669800967909742e-05
0.000247004841139792253
-0.000234180900941310526
0.000660169580509010275
-5.88299029971981494e-05
0.000242046012150927122
-0.000229579686462328406
0.000666066787584313836
-5.6469525344531248e-05
0.000237026436170950693
-0.00022534879445567285
0.000673908688298082781
-5.49173395310831834e-05
0.000233957868013139416
-0.000219896749358488913
0.000678780981734335674
-4.88833636037883332e-05
0.000228888529443420184
-0.000215745556828944785
0.000684626146053815988
-5.01746094162371981e-05
0.000224962625189315457
-0.000209984070241727176
0.000686650733205088027
-4.59802413187179485e-05
0.000219647030887917827
-0.000205563238614508032
0.000667055975828853868
-4.02824193058011991e-05
0.000205086975062857842
-0.000199463657826254065
0.000643170056216089492
-3.30643288993193537e-05
0.000193101939858927928
-0.000192949659166739271
0.000644919153048039394
-3.08337361120488533e-05
0.000187260850125113446
-0.000193469713685728232
0.000668652457680092007
-2.76972631588877366e-05
0.000189231232490706799
-0.000192306343700550711
0.000658158540097910239
-2.52187203536171136e-05
0.000192330547999101307
-0.000190052833226207122
0.000615309087412297209
-2.07963655491494004e-05
0.000183539191208477144
-0.000181000179917670912
0.000518610536943745837
-1.78390417003400192e-05
0.000164169758052450543
-0.000157382378415482941
0.00045719999767015291
-1.397334660781285e-05
0.000128932521153817426
-0.000123534962486972758
0.000549299952855446835
-1.02931725382486077e-05
0.000140735022026913293
-0.000143470030272604471
0.000530131546199459668
-9.21263612077198779e-06
0.000140733965892017175
-0.000149100647598999754
0.000432166137584732339
1.31897911421886298e-06
0.000113627334124089333
-0.000122513359076882768
0.000397560406603206435
8.66847648524055438e-05
0.000112913549008757016
-0.00010877214945307571
0.000309600403741442179
0.000350772690489061607
0.000169802615519177143
-0.000163496740276246073
0.000536684166209911448
0.000190441499314161078
-0.000176408655622912265
3.36339771696600088e-05
-3.61081462250174194e-05
-4.94662500106738354e-07
-8.96943687343240112e-05
4.99779250420542132e-05
-5.01668539152748483e-05
3.35270878379789823e-05
-0.000116242920494191859
5.79451629712213179e-05
-4.79985650769298793e-05
4.12656531725692191e-05
-0.000101996677611829715
6.79785692514381747e-05
-4.28668029548018298e-05
4.07835302338384499e-05
-9.96043643350887542e-05
8.00240177402953217e-05
-3.70220721609913062e-05
4.21181530051489345e-05
-0.00010992419447625304
9.68858662743751005e-05
-3.30675671570890615e-05
4.74050726073375864e-05
-0.000122539359627548864
0.000116897156219624234
-3.01798244530986869e-05
5.36008173993211503e-05
-0.000139569722978041968
0.000167505552514307936
-3.01977131270348567e-05
5.70798298800716855e-05
-0.000149206892308662432
0.000194450547615176089
-3.002807884726346e-05
5.84210232901723235e-05
-0.000154016660394735517
0.00022654413650812752
-2.97540205126533198e-05
6.03468437871300663e-05
-0.000163550982796256802
0.000271095422477304231
-3.09369557848046916e-05
6.86489523954040616e-05
-0.000172729150571904546
0.000300645775082898138
-3.18387140390952145e-05
7.89722333927199882e-05
-0.000178538268350095323
0.00032180855853999505
-3.20355580601617556e-05
8.81366482639121124e-05
-0.000180703650220025738
0.00033495064314707139
-3.1364457970184399e-05
9.81037696144109839e-05
-0.000172977019389625181
0.000339824089442655232
-2.99811605860044716e-05
0.000105516302105450015
-0.000169315328226138395
0.000332603330975299902
-2.82208692031739861e-05
0.000104391234397389706
-0.000165051738969000916
0.000306626562232221772
-2.63852530625563827e-05
9.79174525496822896e-05
-0.000150366151689009853
0.000289729724877078464
-2.29500768379010919e-05
8.88295488708117423e-05
-0.000132823655796160661
0.000284736652028078183
-2.03007478256256995e-05
8.87409310381334648e-05
-0.000124264037663007493
0.000265419402681630148
-1.81708470867176686e-05
7.94176774535232128e-05
-0.000131670591693991619
0.000212521735300486074
-1.71439086069510422e-05
5.91902825419818025e-05
-0.000129874626043276068
0.000195021465184863505
-1.40614247083158501e-05
5.10776526931881311e-05
-0.000100737173469001351
0.000210967855077730791
-1.25551178252165745e-05
6.78651515691204425e-05
-8.64834401510969852e-05
0.000183956905855087161
-1.08161957404835204e-05
6.28865695511817102e-05
-9.46235454478259357e-05
0.000111504069089907225
-9.46444594808476575e-06
3.80999910764518994e-05
-8.33616679932984016e-05
0.000102962497433948532
-6.36056242628559452e-06
3.46459797515811255e-05
-7.94788730029960387e-05
9.91930423532765091e-05
-5.46660270471092741e-06
3.39336275341156767e-05
-6.89984245078389751e-05
8.62243746078862486e-05
-4.10117279393286586e-06
3.28703141783170518e-05
-5.31821497776446123e-05
6.21908233157463208e-05
-3.10405603191655394e-06
2.86936709227057669e-05
-5.11379403228866893e-05
5.19820987081508293e-05
-1.50497841527116504e-06
2.46825169944365108e-05
-3.26956732905054725e-05
4.1746922618504263e-05
-1.1447433969759358e-06
2.04854020377390829e-05
-2.60101034572286578e-05
3.33525103040117091e-05
-7.7894149076391648e-07
1.6444132505057308e-05
-2.03991802659259613e-05
2.75402240659744374e-05
-4.7447111152393037e-07
1.29626090524015864e-05
-1.61034876516657572e-05
2.21722412851325639e-05
-3.34429740637680887e-07
9.79392547187975734e-06
-1.29384256764988923e-05
2.68710433422743605e-05
-3.06784925953057633e-08
8.26994348093608615e-06
-1.14402153321011767e-05
9.30040740820961629e-05
2.25422513245373824e-05
2.95108464156490025e-05
-3.25201566097934594e-05
0.000181875906478864237
0.000198016395991548521
0.000113775480736137287
-0.00011646260166169617
0.000688981821296039392
0.00017860099999056448
-0.000168051989124399148
2.15159224051357489e-05
-2.87977646533834944e-05
3.07075330584101289e-07
-2.99189585963802631e-05
2.9392959616523494e-05
-4.07423197214995439e-05
2.12997475807693911e-05
-4.12789872250193915e-05
3.28256776229960635e-05
-3.43197907825960362e-05
2.74105598397944164e-05
-4.6916075773584289e-05
3.53375627044342607e-05
-2.60880480385560855e-05
2.63223921295277349e-05
-4.71743302528727099e-05
3.78201288411173748e-05
-1.9287084175216097e-05
2.36405295641042623e-05
-4.44304297200878484e-05
4.11344979050446709e-05
-1.52789660484640955e-05
2.18220381828050949e-05
-4.31171101201921269e-05
4.46172172257165573e-05
-1.3029476379925084e-05
1.97734959492771552e-05
-4.06279137114150984e-05
4.66612633407990023e-05
-1.17205339932477332e-05
1.82586748916421618e-05
-3.91882308487657605e-05
4.77486515772410596e-05
-1.08908267452650509e-05
1.71637649238606327e-05
-3.81400349027209018e-05
4.90823281576364628e-05
-1.05064671202141971e-05
1.66523292921918612e-05
-3.8203176224671635e-05
5.01946066437038794e-05
-1.06091612558723903e-05
1.65113977935809409e-05
-3.8845746180012647e-05
4.99393870060508064e-05
-1.09656720176051774e-05
1.67857071155047501e-05
-3.82906300472799809e-05
4.84326207138887217e-05
-1.11814512614497776e-05
1.72958243994911264e-05
-3.79543892288623056e-05
4.59170024690994634e-05
-1.04436174228161189e-05
1.75260414861288036e-05
-3.72500365453938922e-05
4.26790230703740981e-05
-9.2732647379810362e-06
1.75874185647975776e-05
-3.62272517702517794e-05
3.8825857309169695e-05
-7.91823415034310621e-06
1.68762065442701234e-05
-3.42708498660099865e-05
3.39524375638697499e-05
-6.67297223461030775e-06
1.54076200066265075e-05
-3.10799374629055402e-05
2.95783628602376325e-05
-5.49536432991001708e-06
1.35633162791430415e-05
-2.73173662325240126e-05
2.58598856896574429e-05
-4.52599668224198205e-06
1.18898251056531818e-05
-2.4375799712041986e-05
2.27180925689322677e-05
-3.79345621762020014e-06
1.04022890256892034e-05
-2.18340719762179965e-05
1.94760895868068767e-05
-3.42859691769869273e-06
8.93004110745741493e-06
-1.95861612428481498e-05
1.70160001471552383e-05
-2.983213137416942e-06
8.15761585966499082e-06
-1.70346844286493113e-05
1.45682740125823217e-05
-2.46075698154924997e-06
7.55747934623656137e-06
-1.53461351983799793e-05
1.22717608139551152e-05
-1.8749472439825057e-06
6.67535824201538085e-06
-1.3319763486987647e-05
9.91092803049851582e-06
-1.52151429913764757e-06
5.61034092643335043e-06
-1.1239173603415916e-05
8.36567554878438473e-06
-1.02292608092270659e-06
4.79849297103553124e-06
-8.66476489569395361e-06
6.60420232407808519e-06
-6.94624380849811231e-07
3.86230432614253371e-06
-6.9039273317587139e-06
4.90361782987872397e-06
-4.46096174784809426e-07
3.06626663851849521e-06
-5.03832737234639103e-06
3.1716637149778639e-06
-2.93531515348442354e-07
2.2559264005318896e-06
-3.43233143320668042e-06
2.30270280727368874e-06
-1.69024500629203316e-07
1.56727557811176593e-06
-2.00409601029041386e-06
1.60269612520616882e-06
-1.06160712585280954e-07
1.02638169193895847e-06
-1.31459857340584725e-06
1.10266209107311659e-06
-7.22988603912707229e-08
6.51026383951882373e-07
-8.30322935688340893e-07
7.77458699836821509e-07
-3.94552341001961097e-08
4.18211238560060754e-07
-5.28464358817172907e-07
5.33822806378433793e-07
-1.0334997642836958e-08
2.77881383666616185e-07
-3.50556618636337893e-07
5.48445902346168788e-07
3.64352720342195511e-08
2.01800397866505101e-07
-2.76446078535121248e-07
1.68026258076248672e-05
6.98185397768555484e-06
8.60270190767030212e-06
-9.24932767223432077e-06
7.87551318278209718e-05
0.000106750350935036991
4.85425293516274228e-05
-4.91053949949945694e-05
0.000730712227456818144
0.00016710709494550862
-0.000157089064237100055
1.40559733659989589e-05
-2.41501681835603037e-05
2.32662079353598575e-06
-2.16504749487959135e-05
1.54504331455069795e-05
-2.79627881913031093e-05
1.35526477537995156e-05
-2.84144920062674562e-05
1.41979214752551849e-05
-2.06231558641478845e-05
1.61723375174449657e-05
-3.02596678868924821e-05
1.29899231631379581e-05
-1.3495373369529586e-05
1.28372736023922115e-05
-2.51445795345299151e-05
1.27885673510810328e-05
-8.90061520951734694e-06
9.66363938108701117e-06
-2.02795836722755541e-05
1.35406243944309828e-05
-6.17039016434101603e-06
7.25794475917290213e-06
-1.72940560448803869e-05
1.45149105615201107e-05
-4.53022899232317312e-06
5.70827001215997668e-06
-1.51536179589510344e-05
1.53560761206171779e-05
-3.70447833675956201e-06
5.04250450405315114e-06
-1.38034844583804586e-05
1.58531684300207838e-05
-3.38800699536647438e-06
5.05855864080135505e-06
-1.3061141176142817e-05
1.61426871406579777e-05
-3.41614696354092794e-06
5.20920361191047032e-06
-1.27805682260686891e-05
1.61035512232354845e-05
-3.6474443215760012e-06
5.40025346854171226e-06
-1.27042865120288362e-05
1.55894663714959391e-05
-3.87866130192540206e-06
5.4285731774369898e-06
-1.24800702332889645e-05
1.42625966313986609e-05
-4.11726162064232929e-06
5.57908661670404216e-06
-1.19810914756233858e-05
1.25276881097111217e-05
-3.82022177713662724e-06
5.50270085927956884e-06
-1.11080438004156897e-05
1.08768992251012874e-05
-3.26107175691305666e-06
5.06674864827607979e-06
-1.00709933702752502e-05
9.24266671035756668e-06
-2.60492902808429935e-06
4.64308548503796426e-06
-8.86761417117473302e-06
7.67918895198875886e-06
-2.0305907770210225e-06
4.02657969259693645e-06
-7.53871551233640916e-06
6.32111717984567694e-06
-1.57082446555478941e-06
3.40199438051681815e-06
-6.30340436021779696e-06
5.26451758655345239e-06
-1.19411855135987972e-06
2.83969960168034981e-06
-5.3052597571423374e-06
4.51297591044346822e-06
-9.28013747494370405e-07
2.37212615623336788e-06
-4.52723055115055249e-06
3.87373214068078323e-06
-8.01085724834736817e-07
1.99961094398070224e-06
-3.98677000059580648e-06
3.27135851440800793e-06
-7.18082099715130991e-07
1.76627753104000479e-06
-3.43629973517965995e-06
2.66635150840072818e-06
-5.8300305813141128e-07
1.56595309257590195e-06
-2.84306931381898335e-06
2.14083418734327739e-06
-4.39438473332823639e-07
1.34573030598338049e-06
-2.25459101368033251e-06
1.62305624198601724e-06
-3.37936771867093077e-07
1.07526189951367515e-06
-1.71199881108930047e-06
1.1867442868776493e-06
-2.25278848722842875e-07
8.24948406692070572e-07
-1.19227461237323683e-06
8.17262048835739846e-07
-1.36377356191195743e-07
5.72751224606705172e-07
-7.65440889734540301e-07
5.35698954394060403e-07
-8.30416568509421693e-08
3.60483334568709759e-07
-4.38940267002699707e-07
3.28741966495268319e-07
-5.20299785462327902e-08
2.0683383803187195e-07
-2.35251061806715108e-07
2.03175575450660822e-07
-3.17307870626713818e-08
1.12642562360530135e-07
-1.18350354678878601e-07
1.26544993193064432e-07
-1.79651455016486512e-08
5.87452241596044193e-08
-6.18603369655497846e-08
9.56728587623118386e-08
-1.56966230482479798e-08
3.59901281427168669e-08
-3.57061050019118585e-08
7.47198140275587169e-08
-1.05025199129341011e-08
2.73234284026376276e-08
-2.69223290095883039e-08
6.48890745188656854e-08
7.38199361547836531e-10
1.88845265103151272e-08
-1.85820809812676678e-08
8.58717138155492826e-08
2.57257199852720442e-08
2.10819925432637321e-08
-3.01013178045825853e-08
5.06721715546657458e-06
2.39170481727063371e-06
2.59815644980654843e-06
-3.03761703471356268e-06
3.70291374594455873e-05
7.4193811613071481e-05
3.34686442692334207e-05
-3.50407855927071821e-05
0.000696315938169990455
0.000156227782874669111
-0.000145544772297260297
7.73524627382360624e-06
-1.84232370160352295e-05
3.10396450125245577e-06
-1.67253238842060454e-05
6.79402280968201963e-06
-1.68833996200032474e-05
8.0414286053186539e-06
-1.90732603052684208e-05
5.09769167280926437e-06
-1.08123319326876561e-05
7.52535549354018107e-06
-1.66351553452971448e-05
4.46073153632848908e-06
-6.99579588940013732e-06
4.60377386549220855e-06
-1.11268602392060082e-05
4.59863354330241758e-06
-4.76069528656940949e-06
2.60277599356399089e-06
-7.39963446603701845e-06
4.90511624379298081e-06
-3.02704933877986919e-06
1.53507908827440128e-06
-5.44603281838025455e-06
5.32504086433983962e-06
-1.66129883223964286e-06
9.44932034029213741e-07
-4.47141139493234326e-06
5.89939381349460722e-06
-9.12233608533335005e-07
8.90086518079444034e-07
-4.30901327365111839e-06
6.59642331812633174e-06
-5.4610925154012977e-07
1.16485664822948042e-06
-4.53135268892560101e-06
7.17869496329391453e-06
-4.99746335680642117e-07
1.53375069139105986e-06
-4.8173030266926453e-06
7.23781403206925643e-06
-7.30280781159446937e-07
1.86349533021824379e-06
-4.89850298175933825e-06
6.85880165660459725e-06
-1.01282743673824878e-06
1.92298419999438027e-06
-4.72922903224267223e-06
6.0340436320845441e-06
-1.29132401302672304e-06
1.92639997162745182e-06
-4.40721599092446161e-06
5.04759380080812377e-06
-1.34786676472823867e-06
2.05185056573671318e-06
-4.06272730328435375e-06
4.08551652623384983e-06
-1.08643798688348293e-06
1.7390613501994286e-06
-3.41237301327064055e-06
3.20987582489885944e-06
-7.73659702038746713e-07
1.466516743248833e-06
-2.79509269994003761e-06
2.47456879292681527e-06
-5.0769698565543896e-07
1.14478170698207769e-06
-2.20742799520038454e-06
1.92548124802309539e-06
-3.1880480784185423e-07
8.56350412754193134e-07
-1.72887010528032932e-06
1.5407378889015225e-06
-1.78907808518080815e-07
6.480565823202597e-07
-1.37844596477295895e-06
1.30166710362979267e-06
-1.00900968815274586e-07
5.1008957823635405e-07
-1.14941957392480044e-06
1.13098804557557053e-06
-1.06137063106510816e-07
4.80890038311179568e-07
-1.02397482837719798e-06
9.557183162783964e-07
-1.42073721475351289e-07
5.19258696389146563e-07
-9.03239066973115635e-07
7.41619386535515871e-07
-1.53471689697112479e-07
4.94965318930245571e-07
-7.61400344417765549e-07
5.5892050367494529e-07
-1.09735058909464869e-07
4.1599418241161681e-07
-5.64330636940766463e-07
3.87459513059267355e-07
-7.90582386657598054e-08
2.8486162222393892e-07
-3.67092776159292114e-07
2.41239272734979132e-07
-5.07827807365031364e-08
1.87406468035077813e-07
-2.06920360319898839e-07
1.35965454648855394e-07
-2.7570626920798402e-08
9.80767261547979022e-08
-9.85001041589745138e-08
6.96399119062247494e-08
-1.69025845760207181e-08
4.61217372747679787e-08
-3.97715153663201185e-08
3.75249991782321399e-08
-1.25928218607069788e-08
1.97245416098238607e-08
-1.41080175547598548e-08
2.36278219629670853e-08
-8.73219012699196988e-09
8.040752628089551e-09
-5.56884181012576617e-09
1.90612064429988838e-08
-3.34376886999989087e-09
3.01457282364814279e-09
-2.63032857657467387e-09
2.04910887079412794e-08
-1.23046991809412567e-09
2.24209665608079629e-09
-2.04231763736706205e-09
2.62268751349424306e-08
2.88668085412716645e-10
3.18446781756865445e-09
-3.37494326277794048e-09
2.33878408808779082e-08
4.69371460631799863e-09
2.82034838971296435e-09
-2.77352075832505586e-09
2.96936458435201068e-08
2.31409186538306237e-08
4.02751708461593085e-09
-7.81845379342870681e-09
1.51004184473165574e-06
1.13999570018148439e-06
8.95035642074532778e-07
-1.09049247939244425e-06
1.73251755810081925e-05
6.16360803492330492e-05
2.27335039581399361e-05
-2.3629632170412989e-05
0.000720040181588500771
0.000138836535643364662
-0.000136261802115936377
4.08396902715170421e-06
-1.18051340894210153e-05
2.20666562767783591e-06
-1.29021276596429134e-05
2.65924198869700154e-06
-9.23430855442383088e-06
3.90925715042171376e-06
-1.08106090571186765e-05
1.7501842827542779e-06
-6.08744212129531735e-06
2.72860776264075375e-06
-7.06928560926350349e-06
2.13744216525833703e-06
-5.25707461409989531e-06
1.17834370956441687e-06
-3.77307625349457753e-06
2.50198241268620519e-06
-4.43430613790813089e-06
5.41168412821487259e-07
-2.01928993109045326e-06
2.5209980353780785e-06
-2.85082181484906585e-06
1.07778125107448132e-07
-1.05627734560338502e-06
2.50290539388565148e-06
-1.24758839637747088e-06
-4.03216080972257135e-08
-9.6610316640735106e-07
2.69835288391946543e-06
-2.06703686051738012e-07
-1.23170628981708379e-09
-1.31444022545168602e-06
3.11288905588135524e-06
2.77251963060855874e-07
1.92014855775976325e-07
-1.65118313196325674e-06
3.53259787858035139e-06
2.96914795114150772e-07
4.95872574189700889e-07
-1.85183669792434951e-06
3.75135890321497218e-06
3.34174628513301e-08
7.1171775623223307e-07
-1.8188787397644156e-06
3.60582520818046399e-06
5.56493254095082083e-09
6.84609706101787558e-07
-1.80949111008867751e-06
2.96536107010996609e-06
-1.05743731314045235e-07
6.84497411171177418e-07
-1.78405538238585668e-06
2.25723428467098226e-06
-2.86209767654842622e-07
6.47427559807581177e-07
-1.46485497461936328e-06
1.66596888304903803e-06
-2.31236989072675117e-07
4.88121647013475128e-07
-1.12132539099803918e-06
1.13715848728345276e-06
-1.01791625713899067e-07
3.59991096429541354e-07
-7.86412225093887021e-07
7.33406317865289453e-07
-4.47522964151820472e-10
2.14007062263455495e-07
-5.00955717704906042e-07
5.17837951998387109e-07
-1.19633482004465215e-09
1.13949364045268359e-07
-3.03277691005474839e-07
4.4968300361558027e-07
3.26045670253890259e-09
7.63521729031179464e-08
-2.29921811816321903e-07
4.70341051634697261e-07
-7.03552666675905038e-09
8.40498452389744329e-08
-2.57531883736565033e-07
4.6379235358236915e-07
-1.51564774458430909e-09
1.34102405001351791e-07
-3.30799097233613729e-07
3.63329098894986839e-07
-1.53511241346172285e-08
2.0020701078263078e-07
-3.46228498586113343e-07
2.32058197583259528e-07
-3.73481825649909437e-08
2.30410768347343479e-07
-2.19379501796053594e-07
1.44739618280630673e-07
-2.4278833046282805e-08
1.27399843534122515e-07
-1.25733249310686002e-07
8.20694548459683569e-08
-1.74058635093928062e-08
7.05806136829778467e-08
-6.34621693351538315e-08
3.80640926907952109e-08
-1.10742047503788375e-08
3.29567214863669294e-08
-2.25072890972650221e-08
1.61592556515685782e-08
-5.84743613049653724e-09
1.10469146285735303e-08
-5.48963671572947282e-09
7.72734616998442946e-09
-2.70748232868204081e-09
2.51133128245268623e-09
-4.82034181884348814e-10
5.92939242183282747e-09
-1.13311775996714176e-09
-8.90772862309151337e-10
8.18932084782121419e-10
7.44516583829689542e-09
-2.97746901885417849e-09
-2.01758464754872078e-09
1.89357014960620346e-09
5.02335022712417427e-09
-2.32604822386656869e-09
-2.82337760047926088e-09
1.79394323148965264e-09
4.04192003790159934e-09
-2.64577709338005148e-10
-2.48245171291420715e-09
1.6902161795927088e-09
3.39793487079764081e-09
1.02661648576493059e-09
-1.6981523699458544e-09
1.21563530021840433e-09
4.87561090530776752e-09
3.776754964378822e-09
-1.66681806212650814e-09
7.46334228937286709e-10
9.66002408368128944e-09
2.05065105088608653e-08
-2.17442303966877219e-10
-2.45048501579795436e-09
5.75344246296638574e-07
6.65923859329093363e-07
3.97186177847633627e-07
-5.0832129860577365e-07
5.25099952290129892e-06
5.41879787429703656e-05
2.09287743739333544e-05
-2.05083986346717005e-05
0.000763751242776836625
0.00014207326506569649
-0.000136241946667030735
2.02843118658425683e-06
-6.04443395447852557e-06
6.31148048394197484e-07
-8.38174174225044028e-06
1.0511780785367204e-06
-4.61707115131695071e-06
1.46661059322817803e-06
-5.43507041505246586e-06
1.14752130153711895e-06
-4.75908625696482898e-06
8.33267207464811318e-07
-2.4843861714745932e-06
2.0611691284046523e-06
-6.06095490393395088e-06
2.60615490468511882e-07
-9.77846965036426639e-07
2.44902544715172674e-06
-5.31706255852363684e-06
-1.05167510735228544e-07
-1.58312639981982988e-07
2.3722381182214444e-06
-3.15836196822343142e-06
-2.44710851395146947e-07
3.26256963238889674e-08
2.12271502510891933e-06
-1.2155214127979042e-06
-2.47168684106575697e-07
-1.0916074648349559e-07
1.93399336319090915e-06
1.169085168558711e-08
-1.57067295882987932e-07
-4.36185903425687159e-07
2.0265060615348461e-06
5.01701141615261448e-07
-2.0231762600110719e-08
-7.25256117873273413e-07
2.35172384341347327e-06
4.39022570280172904e-07
9.96251960391174539e-08
-9.0191293034187361e-07
2.41119942803973255e-06
1.683454958407849e-07
1.80098465526521737e-07
-6.18240008714423201e-07
2.3487501014401196e-06
6.03364940224986348e-08
2.3613605130163205e-07
-6.69756238701159893e-07
1.59224796353870618e-06
6.05998241576373811e-08
2.97140787022329028e-07
-5.88643556161562632e-07
8.75499819358452594e-07
-7.79976969662683165e-10
2.11100523270182806e-07
-4.22455796424200276e-07
5.5435681331634317e-07
1.63454507078750703e-09
1.39738413622387177e-07
-2.77626436495082202e-07
3.06458729588016996e-07
1.266424253471811e-08
6.79731912305281566e-08
-1.27712619421704612e-07
1.61289259520060199e-07
1.65912771746635391e-08
1.98263184929475563e-08
-4.6998271214012402e-08
1.08602852622767451e-07
1.53052583405671558e-08
1.8339786590075567e-09
-2.59502571788559831e-08
1.1364783257056748e-07
1.17807588024211748e-08
3.3843688776882088e-09
-4.14686123154740672e-08
1.62296476471772595e-07
-1.73239536092536152e-09
1.49287264454308169e-08
-8.88626001188116418e-08
1.94655870222478151e-07
-1.29809966708642201e-09
4.7060379354038329e-08
-1.36392063014826556e-07
1.34585453241162363e-07
-6.02935895979553075e-10
8.59756624104520424e-08
-8.98715592038458513e-08
5.22757857554932086e-08
-4.83789934669165e-09
6.14135203219211473e-08
-4.5283917656241185e-08
2.4898173040135635e-08
-2.88303091357713288e-09
2.7717719745951599e-08
-1.80024223432897085e-08
1.07290061249493356e-08
-1.10615641916497069e-09
9.37013871367844231e-09
-3.93638538455761006e-09
5.16525136995113743e-09
-3.87214871310844316e-10
8.77177886591305405e-10
2.29429668256608039e-10
2.29302515026286972e-09
-1.64860919413615568e-10
-2.02522716219401449e-09
1.11707288536522452e-09
1.12899032135494544e-09
-1.5362297478217336e-10
-1.42566794331674034e-09
9.15745173502475506e-10
7.72274693861894488e-10
-9.09140417217401575e-10
-1.47964527839819764e-09
1.25951139351891743e-09
2.20342036146450733e-09
-6.16534405222762115e-09
-2.96995193281566219e-09
3.62942393954246887e-09
3.59245245864833656e-09
-4.8338925726825242e-09
-7.57033514496894301e-09
5.45897658603353456e-09
3.10663494757697993e-09
4.90397913489325217e-10
-5.76185007091799141e-09
3.12357002258177492e-09
2.50719403611578371e-09
4.4507529493954727e-09
-5.92903246836419718e-09
2.59131488477384713e-09
3.47682968601746402e-09
6.58703473356851871e-09
-6.31078401098715721e-09
2.19201863819035028e-09