/*--------------------------------*- C++ -*----------------------------------*\
| =========                 |                                                 |
| \\      /  F ield         | OpenFOAM: The Open Source CFD Toolbox           |
|  \\    /   O peration     | Version:  2206                                  |
|   \\  /    A nd           | Website:  www.openfoam.com                      |
|    \\/     M anipulation  |                                                 |
\*---------------------------------------------------------------------------*/
FoamFile
{
    version     2.0;
    format      ascii;
    arch        "LSB;label=32;scalar=64";
    class       volVectorField;
    location    "0.570000000000000284";
    object      faceForces;
}
// * * * * * * * * * * * * * * * * * * * * * * * * * * * * * * * * * * * * * //

dimensions      [1 1 -2 0 0 0 0];

internalField   uniform (0 0 0);

boundaryField
{
    inlet
    {
        type            calculated;
        value           nonuniform List<vector> 0();
    }
    outlet
    {
        type            calculated;
        value           uniform (0 0 0);
    }
    top
    {
        type            calculated;
        value           nonuniform List<vector> 0();
    }
    bottom
    {
        type            calculated;
        value           uniform (0 0 0);
    }
    left
    {
        type            calculated;
        value           uniform (0 0 0);
    }
    symmetry
    {
        type            symmetryPlane;
    }
    interface
    {
        type            calculated;
        value           nonuniform List<vector> 
104
(
(-0.0114103996337035531 6.40420347186051519e-06 1.59512000902432301e-06)
(-0.0013437608982234592 -7.91844977403963542e-07 6.41744778864471393e-07)
(-0.00125337674043396485 -2.05963900158082157e-06 1.20940605522659281e-06)
(-0.000281280327147090739 -2.56463514884399505e-08 1.15590641418737223e-08)
(-0.000126945427542312858 -6.37675436827519681e-08 3.70467129006864378e-08)
(-0.000453651916797034784 -8.51601415517959324e-08 5.24084805870691218e-08)
(-0.000859612055376790659 -5.28016130240817796e-08 3.35988525026396752e-08)
(-0.00110375523641096382 -3.46836487548564016e-08 2.10226768727733173e-08)
(-0.00119627812091550076 -1.25934191594212177e-08 7.99317066337700089e-09)
(-0.00115031222381872821 -9.45757344412879103e-09 6.03451766043901606e-09)
(-0.00105353653551137189 -5.52237647867367725e-09 2.81075766097311579e-09)
(-0.000980669176686792135 6.80219633519820597e-09 3.7012349297600687e-09)
(-0.000924977111145799382 7.3403888267297283e-09 1.04983870306182472e-09)
(-0.00752933688158713681 -3.08639181167960613e-06 1.78027176892464742e-06)
(-0.00162394565588440919 -2.35433840566169472e-08 -2.59801832070550174e-08)
(-0.00163322161401780906 -6.41976489022349452e-09 -3.57981790590782467e-08)
(-0.00163705918365378289 -9.14104529887395256e-09 -1.50269584912897066e-08)
(-0.00163673394530105751 -9.90790701466284863e-09 -1.53177580965814404e-09)
(-0.00156607769963662026 -1.25519948327430103e-08 1.82365757125224869e-09)
(-0.00144510287918040272 -1.25838296355500247e-08 1.94454928255145511e-09)
(-0.00134615691132284601 -5.84512106921452975e-09 -3.11686340037165285e-09)
(-0.00127973895036298979 2.90931311243289013e-09 -9.73517962551217097e-09)
(-0.00120790452755467257 6.09555708432141425e-09 -7.99278544820946774e-09)
(-0.00111215206222079507 8.38346371537384348e-09 -6.77469154623979118e-09)
(-0.00101103294775725097 6.88392342722067699e-09 -5.24082481257883878e-09)
(-0.000927307389509416735 8.40860165696273718e-09 -5.21352032743214851e-09)
(-0.00272710586587102122 -1.49875437753276969e-07 2.73418071377937485e-07)
(-0.00182102366671805854 1.13839805299061434e-09 3.16601686656034142e-08)
(-0.00170137820812172203 -3.18392241423080931e-09 -9.22608826346186009e-09)
(-0.00166601312820250855 -4.13345394909873425e-09 -1.15278769156247365e-08)
(-0.00163728072009720091 -4.37788844798335888e-09 -7.83996544833003398e-09)
(-0.00158149897457258146 -1.96400367933389761e-09 -6.32186744633674155e-09)
(-0.00150723071229052997 1.92938185548625844e-09 -7.39706807729834179e-09)
(-0.00142033637560555611 4.6769378334000182e-09 -7.12974102043497523e-09)
(-0.00132655791977295389 6.16621801714971769e-09 -6.43197839349484307e-09)
(-0.00123646728013039739 7.32670474394458152e-09 -5.96697536180097983e-09)
(-0.0011418926807526225 8.67281182017391824e-09 -5.75911724800056199e-09)
(-0.00103796680164113387 7.83441862620298437e-09 -5.82337464882662502e-09)
(-0.000945694995937675933 8.77070148866593194e-09 -5.37414854149337058e-09)
(-0.00254933187707798376 -2.23904572601285265e-07 4.81477990557561617e-07)
(-0.00190087903789166643 1.11834574480568363e-08 1.16632780033047287e-07)
(-0.00173990243162474201 5.17015712189268876e-09 -9.29647118800854135e-10)
(-0.00168362508844045354 2.83648048908706601e-09 -8.40451416201811171e-09)
(-0.00163488848238327084 6.1963118216460608e-10 -6.71966097435475429e-09)
(-0.00157657401706041565 1.68280494938433707e-09 -5.66982445152345818e-09)
(-0.00150791473300090494 2.97014932246130941e-09 -5.14825496368601033e-09)
(-0.00143201960867837103 4.30194587188611823e-09 -4.8931421188085868e-09)
(-0.00135135085110980402 5.6071002340360849e-09 -4.98121448684199312e-09)
(-0.00126751168252034908 7.00618166260327206e-09 -5.04380009213543094e-09)
(-0.001179416496589467 8.43805986603628674e-09 -5.19785607603344685e-09)
(-0.00108544931527706774 8.36304103520705019e-09 -5.63229659403668522e-09)
(-0.000995715937312493995 9.02457074856919532e-09 -5.5029931413392883e-09)
(-0.00271655970984009286 -2.4486610393535799e-07 6.76904739318929152e-07)
(-0.00192689094485223715 1.97770983231484465e-08 1.3831543840850687e-07)
(-0.00175344496155415688 6.01353694158723791e-09 2.90581635401919561e-09)
(-0.00169685601590020699 3.52952955534068891e-09 -4.69251372698332135e-09)
(-0.00164179767738676578 1.89231925681395996e-09 -6.42513294361915009e-09)
(-0.00158192200112068095 2.4724081808900421e-09 -6.41974451708882952e-09)
(-0.00151695061037126046 3.48674069755768153e-09 -6.12906110130382056e-09)
(-0.00144718155267303263 4.63912083977506314e-09 -5.76583656217607892e-09)
(-0.00137277650951474813 5.87515621499532105e-09 -5.40091725577761168e-09)
(-0.00129518564768610085 7.23272408366949334e-09 -5.05102085178062792e-09)
(-0.0012153041441362786 8.55199938848607854e-09 -4.82650798731165024e-09)
(-0.0011338339742610168 8.8130641135564594e-09 -4.88998201642266554e-09)
(-0.00105306192378396913 9.83286530798358779e-09 -4.67644482189933324e-09)
(-0.00259883238456330885 -1.52060073545751269e-07 5.83792331903477582e-07)
(-0.00189000592369682318 1.43262142881261309e-08 8.63400788585794978e-08)
(-0.00175039036324613748 7.49140440701892917e-09 5.27177065119732128e-09)
(-0.00169271191894024568 4.60198372850125103e-09 -4.9212050024407071e-09)
(-0.0016421184351719997 3.772939420952493e-09 -8.01553954612546293e-09)
(-0.00158755356025149039 4.43092815277615995e-09 -8.22933159427410551e-09)
(-0.00152665232219433293 5.31819396057338141e-09 -7.69961307370679885e-09)
(-0.00146017944002622578 6.34457612184112879e-09 -6.9592572545776363e-09)
(-0.00138895765928991077 7.45801872032495164e-09 -6.14163141546435047e-09)
(-0.00131418205031244052 8.56584349749539321e-09 -5.35010564165016976e-09)
(-0.00123759462275921774 9.68011922608394578e-09 -4.72144127874192953e-09)
(-0.00115884615746969836 9.96335607495964538e-09 -4.4266124837063471e-09)
(-0.00108170665397742233 1.07485553256610812e-08 -4.03763637361901763e-09)
(-0.00260084576511531015 -2.48763941159608855e-08 2.23848017270856059e-07)
(-0.00201865856822439462 3.26734750015077915e-08 8.8033683780792821e-08)
(-0.00177464616623077107 2.22746672359421382e-08 5.35939486020034085e-09)
(-0.00169196166395646367 1.21957313261010051e-08 -6.96895315377100659e-09)
(-0.00165102903513923813 1.16512404675932359e-08 -1.05305419485183133e-08)
(-0.00160408057282627396 1.20115833606905408e-08 -1.14077201982045239e-08)
(-0.00154409899585378685 1.15954177177751069e-08 -1.02660329543013496e-08)
(-0.00147756987152203333 1.0631918429817043e-08 -8.051702914001694e-09)
(-0.00140600052135462865 1.08623888152572337e-08 -6.73698400117013638e-09)
(-0.00133041181991904811 1.11491429616561771e-08 -5.57471671153473269e-09)
(-0.00125247480844779477 1.14454163681913565e-08 -4.74240247246193696e-09)
(-0.00116993825312979634 1.09367873161116625e-08 -4.68544788377598711e-09)
(-0.00109411066193248769 1.12588657222445562e-08 -4.81038301104000183e-09)
(-0.00293331588977376349 2.34101288526804669e-08 7.71828950138396051e-08)
(-0.00244541746813410317 7.34061714162731646e-08 7.46947767911471589e-08)
(-0.00201985081494612372 8.09263126886087088e-08 3.08178391448672013e-08)
(-0.00182536492171480615 3.56967256737545837e-08 6.49773805241874698e-09)
(-0.00174412189541697945 2.62686700351979967e-08 1.07058923298082454e-09)
(-0.00167506098014787424 2.31633821048945085e-08 -1.88534193330111377e-09)
(-0.00159568965213989955 2.00071189673292113e-08 -3.17206269994981158e-09)
(-0.0015126597152765541 1.74948699355403167e-08 -3.2828192013504623e-09)
(-0.00142928058087634377 1.56938988367686106e-08 -2.96722353866120535e-09)
(-0.00135090700931522799 1.40080299608474506e-08 -2.47175854168164026e-09)
(-0.00127726495143368982 1.19803468642676423e-08 -2.11341396720830033e-09)
(-0.00121278558255957054 1.08134648488167751e-08 -2.00372319376842903e-09)
(-0.00116720680474232991 9.88655513247209652e-09 -2.33144030566583074e-09)
)
;
    }
    procBoundary3to0
    {
        type            processor;
        value           uniform (0 0 0);
    }
    procBoundary3to1
    {
        type            processor;
        value           uniform (0 0 0);
    }
    procBoundary3to2
    {
        type            processor;
        value           uniform (0 0 0);
    }
}


// ************************************************************************* //
