/*--------------------------------*- C++ -*----------------------------------*\
| =========                 |                                                 |
| \\      /  F ield         | OpenFOAM: The Open Source CFD Toolbox           |
|  \\    /   O peration     | Version:  2206                                  |
|   \\  /    A nd           | Website:  www.openfoam.com                      |
|    \\/     M anipulation  |                                                 |
\*---------------------------------------------------------------------------*/
FoamFile
{
    version     2.0;
    format      ascii;
    arch        "LSB;label=32;scalar=64";
    class       volScalarField;
    location    "0.570000000000000284";
    object      p_rgh;
}
// * * * * * * * * * * * * * * * * * * * * * * * * * * * * * * * * * * * * * //

dimensions      [1 -1 -2 0 0 0 0];

internalField   nonuniform List<scalar> 
7236
(
88.8761581338494437
205.994268271866616
315.26297991272088
327.963197271635465
315.926100367711342
314.419909136022113
317.234934893459638
319.219169644649867
322.605921411330939
326.464670714705164
330.77103744127146
335.766178718837637
339.209878034512883
340.020624946430416
338.871138860545102
336.150924703886176
331.667505600176867
323.986796939987187
314.816600175310214
308.524351475286778
306.543466804889249
297.988767544809434
286.411049544882189
280.048648275288883
280.801031332600076
268.121034023675122
255.43256186371957
246.96053080827906
243.610204784353726
237.631202941315024
227.99526555635677
211.047733884901589
191.243844327713475
230.223724370124216
310.928615887338594
607.895294215894069
1437.47006587489113
2440.68287565238688
27.5402982421494613
117.860789840149266
208.304426536108821
238.419718387775788
244.448726890533749
256.709232331329986
268.209669529399321
283.326873440340933
297.268361579704106
308.747123787146847
318.085353948862405
327.33732385753143
332.717010170105539
333.624658277193475
331.832295425610994
328.887549067696909
323.820577955069552
313.443441030524468
304.635447226146027
299.584627671403325
301.671161955706566
283.38719518486613
272.690811581361402
269.418838494280749
280.257770905437042
257.289921179005944
235.226838029767464
221.053648759847562
228.8966876102279
230.85914342898792
213.509030496556107
170.840737165050626
100.874780713906929
183.049417449072962
188.635250109722165
266.855029085281842
1021.33075138436152
2284.94701418236127
76.7089599615213871
75.649427141667374
101.911572205622875
102.790913605710458
111.86867489534059
138.493528538036259
169.029383713158381
153.459009868136718
185.027790967170091
200.146413511267838
215.826681628439133
238.746032478185953
247.281758108028896
239.844628023755206
235.431111698947461
234.117581825103315
233.461006163561279
197.881722317953091
173.459203198185463
174.956911962633797
210.959829434354589
141.241621955017365
85.5902149523141844
87.9939466666809409
143.813450969426981
53.3128818390418573
46.7496974370893312
21.31315658990221
32.1899004606047612
-2.12498582706897832
-2.11065311215468476
-1.75313859326275434
-0.791364629462056879
0.297738709184042993
1.77151336294714978
31.8514693115709697
539.799616133980521
1713.05902236686688
-1.33257499923803047
25.0196533027956178
46.1305277799349014
46.1755539259800329
39.93798734212033
34.6684071888971417
29.5882767646758218
25.7480373342837368
22.9713780107084773
21.6988079533694247
20.3883545812949833
18.8066400383657246
17.6333121051100683
15.9254496568497821
13.7467495951938528
11.6078832153893661
9.95901334500301516
8.57381837783440837
7.32170042885172911
6.50053396048102705
5.59857688086212857
5.30697774183566651
4.56590648068265814
3.30743969040233221
2.3481197780366232
2.40653380530866912
1.87266537647508846
1.70086501600222872
1.20000165473809584
1.09409073338364538
0.976237640005901963
0.985755477074650832
1.16030696712358705
1.4046444944015215
1.84196030969221569
3.76152400110493534
141.69306674657949
1100.48564709406855
-0.377266335265406261
17.2974305312522105
30.710216239330375
30.1536426140882554
27.3608708110822789
23.6050624149184216
18.9960827384599895
15.4210580565491178
13.4064172402524502
12.4758339656280111
11.7844803220652317
11.0325835286173337
10.3467888843027023
9.29755575625781816
7.941363508646619
6.69508060870983623
5.62999085544432809
4.86436536039880529
4.28713850395754914
3.91206406370033744
3.66173357884024187
3.45412706906995748
2.99669388764846767
2.52210191689271745
2.06485249391684489
1.97401421998803972
1.80374368685889808
1.66340447819191906
1.52204059992638063
1.42714235166593584
1.30034858464667158
1.21629491016091662
1.2424690280095918
1.35614089807072036
1.62988848439165146
2.46290647319247835
28.5769339207723441
764.401545448351158
1.50503236564313347
16.444013960800401
21.7081909957147445
22.4826212284617242
22.3454029232034124
19.7221001137721146
15.0062942821942968
11.1770666952198869
8.75110531023721805
7.48989386477446129
7.16007440143346496
7.05288421615634142
6.82086272019424822
6.19341039688692785
5.27707040385550119
4.4658506785905141
3.79953287718010468
3.25572806267550208
2.99365659115019289
2.91585361597030879
2.83948508282636869
2.74493284609250354
2.42610334761767099
2.03673342531064172
1.83581070300774529
1.73331244779701921
1.6718574632613814
1.59947034865403181
1.52358374407873343
1.43980511487593832
1.30670319971149684
1.21204838042906871
1.21798200466507511
1.25688990836385384
1.45122129022453139
1.91371245412139412
4.51457902186081572
540.755900404755607
4.24245394744545301
14.3697790087199238
16.0514144310749032
19.1409466549731846
21.1592924981153701
18.4672598329826805
13.7396824724145628
9.75118680099311774
7.30147058881876632
6.00059640517674531
5.20873165795796655
5.00421580855081327
5.54692865715210903
4.86747288723397542
4.1383435385982974
3.51881673694172825
3.02368593377291583
2.59715547728203244
2.40816166095643203
2.48430449566469624
2.79385069830006216
2.6669452855394149
2.16506015681330988
1.79746714737667945
1.7039991489788604
1.65697215913451656
1.62628486731457933
1.58731505019878738
1.53726865144073854
1.43784353837040357
1.30497156995842833
1.17899834662470826
1.12550249760195875
1.17863706301719073
1.2884219409568185
1.58963503250059923
19.5772101413949464
435.025531487459261
6.95225581549667204
11.4420190359345089
13.1878956979075106
18.7947820953486122
19.808622491466469
16.3541593533130509
11.9210348764857681
8.70131524422062519
6.49030828365295775
5.34449571733399864
4.51327697619638091
4.85615389943052023
6.16580546460959411
5.17014865129644097
3.53599015444922671
3.14269401644548108
2.81684875195849393
2.35531913678968952
2.15871250281194049
2.2229962981388347
2.43614505387105407
2.19054999972993514
1.97676472703223993
1.70753717399944804
1.65897406022081428
1.64166155235393219
1.62829943851607895
1.59526068513581643
1.55067486996939197
1.45986836704860701
1.30849606363658744
1.1613787239672646
1.09090272492228157
1.13005498889752576
1.15436033638229518
1.62781687967198629
34.0842502801944036
552.062273996123849
7.90938155496636508
9.25490514902317152
12.1695270083366047
18.8229211280916289
21.1303847230883939
16.6675316589716473
10.6651165463862085
6.83403732462195457
5.31634283065928503
4.46077628545646476
3.91592010626262832
3.97582972366629583
4.82200108721714038
4.19104715747713286
3.27025769122852639
2.61391490122628811
2.35921752197269363
2.15923343092732045
2.01126297893541439
1.95682308679389783
1.95290619310430746
1.92573242293251101
1.85481690837766977
1.69985755235878022
1.65458484608929335
1.63784481754508637
1.62580488423823399
1.6138134329347682
1.5852533043086916
1.50259946884453632
1.33826446291277312
1.19735703146453676
1.06546023401603551
1.09914047665754278
1.04723548158388313
1.44623671434825729
51.3063782203336345
591.661570111052242
8.48307072420815445
8.53473758726359044
13.0363332679629558
28.4688787775386771
25.4343426694897019
19.1073619551793925
10.2723515110020891
5.10617170820102739
4.12547762387480166
3.63202065833331034
3.29806105271525007
3.10786512886500654
2.9270926868621876
2.91437763834235586
2.60143805411632423
2.38659596143210173
2.20088147889136732
2.0478852746454046
1.92205037322820393
1.82869592082628696
1.75238739020920997
1.70179060048236952
8.55661250968827503
8.72186298785586267
25.316125268774492
32.3265159113447424
27.1428235545851138
19.2111197079352216
5.81211104474209783
3.68264181120203515
3.07507460657785803
2.84471171202805095
2.77989959167855938
2.73077779770446893
2.65394179548682674
2.54713757337196611
2.37084930255611015
2.20959305269306627
2.07223257346705836
1.95573691712312514
1.85689550218587596
1.7807071984777525
1.72316963379218602
1.68373826446533381
8.46491819964942849
11.4030621572141939
43.7122589860841515
37.5001220036143792
29.5207110938501671
6.30949783326199931
3.55704207200128897
2.62947581799444174
2.40756678004172997
2.37069917461695612
2.3847977888401517
2.42053860090488548
2.40868204270463737
2.31972985615990801
2.18898261510938719
2.06752876236153815
1.963211169998623
1.87601540240197662
1.80297658379168801
1.74402761211387092
1.70055372614289957
1.67043625990382671
8.4729852718894918
9.90935714349583563
53.1890190119213599
43.8761581040694395
12.0368950480835313
4.08899332696050788
2.49105489484803089
1.83142266523868957
1.83981679863947134
1.9411642175733721
2.05170505099398603
2.14116848119980885
2.17207055633814505
2.11230303343011006
2.02596377933276184
1.94328902679767901
1.8702673708068267
1.80746924324360148
1.75398465473103382
1.7100425279481779
1.67676358798785352
1.65285305416977102
1.60968119495716766
1.77812711117095934
1.89619955613082936
1.95274513407027306
1.92943370087338684
1.88245237400870913
1.83365495552387125
1.78712157323495013
1.74435244521529209
1.70624893176159032
1.63387207058708572
1.73033158325466285
1.75920674415099398
1.75490034013782714
1.73670436166368214
1.7115705076646448
1.68476758609434052
1.65898331069365534
1.59778984579649741
1.6335096502379931
1.64443236215297794
1.64014563729063001
57.5011289060549942
127.054659068825259
182.939763303044003
199.272608120805415
203.413013545692081
211.294294146831476
224.226734965110694
236.633673540585221
244.287047138759362
249.519442714844558
254.38640274757222
259.431399693608796
264.792065522460973
268.737490825907855
273.152115055230865
275.85292583532447
273.971219879666251
272.559256780968099
267.397375298919144
263.373180698818658
256.932977744428001
250.859825623485762
248.448491402003668
249.666539932066598
243.468384710569239
229.883184155069074
223.305434590846517
221.768268025856287
222.915210138055357
215.452994851998284
209.778003485599726
203.840049661996375
195.328014639190314
215.095494679996079
274.560421279737511
550.41354485339923
1346.88698908712581
2338.29092712292777
9.91226849639430618
24.8054164442256351
60.3156968927700916
88.6113673645071884
112.556620470172263
134.817670824763411
160.475143297711384
188.06882853370567
202.108938585406321
213.095419551634393
222.47587700997596
228.191301412134663
236.339813569339753
244.49862637971782
253.334586421663204
260.069457023355881
253.351976039230067
257.487853531593203
250.709846835615423
248.881318789311109
237.718396048535283
230.789544767167399
228.209023969004704
239.157782445311284
228.014240965924159
195.083447332434815
187.815391382018021
194.207392747619025
209.024554121451814
181.716323081810231
173.129112973528521
168.877469534636901
138.578106709305104
161.814261350584104
138.689995501591625
210.402897122892398
937.824730307681648
2168.03021756985527
9.74137774401230061
13.8940493179085287
36.8525674028718697
40.9910440528906221
36.4035993357807399
33.1219039891154807
29.6426138011029394
26.000116105106418
24.3805081052285573
23.585589404896723
25.4594024297540535
37.5629960400610301
50.4516373198972516
53.9501323633256575
76.8345960162697423
81.7316198660474384
64.7157788922450408
62.7680009137866648
51.1726429797456106
45.8168503100514783
13.3508864780180652
10.7483944732389727
20.9041482850730844
24.0483574425717066
0.924932642160364415
-0.972889976650689325
-2.07468495765161887
-1.42943489392046619
-1.54669289522310138
-0.379924484794334882
-0.0918554949648399538
-0.341649329072957531
0.0254983786464104238
0.722310974986996035
2.0250292242726613
23.5513497418987612
481.836425984832886
1592.59364798795923
9.8590947540665379
13.8373380555524719
24.7227528003992205
24.9924637116480106
23.2794923979369983
21.3846061090926725
18.15787967884512
14.8913310916973245
12.9511829744240909
12.3021611210326061
11.9187226194017679
11.698178962852289
11.5821919796313679
11.1393957895735802
9.58583869267651068
8.29023684241399117
7.17322698396481062
5.96118609052302872
5.22044595149649648
4.66777573307665428
4.41074344408071806
3.9470772299333694
3.42951481324316676
2.85473135677145073
2.26243916241790322
1.74263759574456012
1.5038310770978276
1.340258013416465
1.3298380324722785
1.16231103268828462
1.1644901299780992
1.16561422127303826
1.21842588486657988
1.49042552539766193
1.9721351276281196
3.85760147401015985
102.430576128434197
1008.836841287281
9.48779164642989592
12.6710502089432566
17.1051794671187523
17.2611001711340108
18.1577022002693056
17.4692796078296624
14.7758533822557645
11.3365853463860731
8.86782368908156293
7.63217032694069264
7.29407810795053813
7.06971166399813278
6.98249177398721077
6.95526125377904503
6.20674878114872275
5.34907844000832977
4.63831035721042539
3.98598282613040533
3.50953703324704103
3.22116237289000384
3.13954755565480026
3.10087394266624194
2.99303590133691966
2.70665395135474096
2.28799294319148094
2.02691611277878403
1.85189375225435571
1.73938097851953533
1.59458723263565627
1.47144740596261592
1.3502035824690366
1.26036387442249942
1.24030244050238148
1.41255621129216458
1.75942535318838744
2.44294431555602687
14.1502240890731787
702.854767892238556
9.0178888211047159
10.4368281454566318
12.6093793272278436
13.5679237526347194
15.6766955261789303
16.0637009812015776
13.5933430944784011
10.1914563705828236
7.38108950399234764
5.78799499015159924
5.15943169947264924
5.0596348688399857
5.02707160810598008
5.36272878514231799
4.6110536061500591
3.99582438433607834
3.54501967775301363
3.11315721840160631
2.79591356136032321
2.54909333676554306
2.56052132729176707
2.74117005380945056
2.75837551947544535
2.49715036836175308
2.10113516709068193
1.88144358636200848
1.76893099343418125
1.70258716877084271
1.58800370717364947
1.4721693095762205
1.34611479695443359
1.24181010668610248
1.19619606189826966
1.28864834666474715
1.55297263151253739
1.85290753715456447
5.468191394661579
484.366241809027315
8.62671572384047813
9.93989943873742554
10.3960824231209514
12.0508235357250069
15.429884239272214
15.7071331575543702
12.5742178114648517
9.20095929291550974
6.89107508493639465
5.3900619483439689
4.47044799456170505
4.11134011468921567
4.55250471253906941
5.37017535268290569
4.45644538133212897
3.397318816502223
3.02692125093298214
2.81173443058743366
2.58081567186309924
2.30028466700884104
2.24450013525576564
2.59901431224925883
2.68539426407359461
2.16054009766965027
1.92311368182610698
1.7737335533498082
1.72506648651557359
1.6724936441362821
1.58985175598539374
1.44689440820057214
1.31065330227059951
1.1574617452157947
1.08554941767725999
1.17972741169632078
1.34433113666710224
1.73561678069774117
15.4791872835688924
487.423223242530241
8.82805165050152851
9.29173260658525457
9.70182651336807389
12.114916115181174
15.7707844286541352
15.8512899700080538
12.0562654141103067
7.99518031598582724
5.74925530361236348
4.69760120181679142
4.03173158414086785
3.7171785170389664
3.95482304374068594
3.72650659773205106
4.04813342875195126
3.34649583010464635
2.6381915296644296
2.37636057647148657
2.18405489293348554
2.06405881291551285
2.08823101970338287
2.21314271513402616
2.21641109617521526
2.10387377916536833
1.86098704623657851
1.76709930022594142
1.69624512692487772
1.63773438337664956
1.57412734689429556
1.47169003423825595
1.30925983090263265
1.14664805618984578
1.04220796563586249
1.11905374435892702
1.16758775923599623
1.80155293275446904
32.8096199910818456
561.85412540791458
9.17103856588929922
9.13781848195131907
9.39910715230162985
11.3878656646296648
20.8785223005650273
19.3171541924824659
14.1989954962558667
8.32080315143297966
4.10554017040053854
3.63712943539416944
3.43458009224450445
3.32989743478135258
3.20835325632955248
3.0727202962331619
2.92806513656350642
2.67081825324437716
2.45075877414587406
2.25058663839325845
2.08632983796403204
1.97216630886465349
1.91033793426247001
1.87214070458101389
1.82206170940321477
1.77328527443665984
1.7193187925555975
1.69563184825068358
1.67943068943246354
1.65433993813971525
1.60729772093814849
1.50872533452523117
1.38219417790987498
1.29564266254657978
1.03432052729868196
1.10943432642276085
0.984102619778947307
1.60923099254544688
48.2650402977329591
608.867105083705383
9.27924345106811366
9.1053737622647315
9.44738254419573131
25.3040647523906514
24.6153835348281937
19.6247354205530158
14.2253270933096427
5.02739816341843859
2.91234180790016461
2.80566186112249172
2.87770513214942136
2.95458798387940913
2.92050872060989031
2.82890218919579883
2.67767545294854248
2.48389176738141604
2.30260325011603584
2.14375849980030386
2.01006376357468097
1.9100769494583032
1.83750970591443208
1.78073627561222469
1.74068711158612754
9.22148586097329037
9.0985106578393804
11.1290742767561781
31.7668657794542995
27.5770572662838305
21.1255629509319114
5.18838891826642712
2.62898780848883407
2.19696344146852907
2.27105100524170567
2.47633436097589366
2.63320642921953185
2.65793010836815347
2.59770890402649801
2.46605567936070891
2.31295429733982028
2.17148665549174513
2.0481849342453029
1.94509229872527123
1.86275728680449593
1.8032934871364148
1.75977156071359975
9.08517150610470559
9.17171312920492987
30.9017339880391368
37.4130291709988754
30.2965973549268277
9.13668117678379055
2.78874967336319957
1.82104518734669818
1.61803484160898381
1.8558106002083099
2.12366722593220736
2.31258248535139366
2.38962243835469312
2.36651932056313008
2.27404602688093593
2.16445068103117766
2.0585813120953933
1.96539452813627791
1.88639004447137615
1.82115790385018128
1.77344609731273284
1.73969509721839266
8.99738768903633712
11.7408076826457837
53.3975729024617607
45.2404748511578347
26.9074643311925179
3.80022023209154192
1.82049050029755843
1.1834814697148015
1.22655866988973039
1.53048269246010049
1.82356297690403601
2.02725418419109626
2.13830168945432497
2.14938206413255006
2.10141144085162512
2.03106266329721086
1.95753604183499474
1.88996053096590177
1.83070229881180424
1.78134808090665953
1.74386084925895357
1.71752234625485212
1.29993895113202829
1.59100582471002849
1.79636302455284969
1.92434602763289697
1.96405330352392604
1.95016321683417937
1.91251966085865988
1.86629878824085593
1.81965601276608324
1.77668771657592472
1.57792377102861892
1.71967804432956206
1.79447976299760947
1.81557508570619497
1.80709550453778367
1.78318651466098621
1.75350067180073066
1.72414101400200193
1.64185491246109994
1.69184001811148277
1.70862824517643141
1.70489119444217407
16.9243931889952854
45.3213071319397116
86.3935113005709212
111.803543613122315
133.307335756225797
139.039275711095485
143.69145656974635
151.256851124629037
161.800029943844123
175.883571399606609
191.407447863177055
206.827041187893059
220.833952362257264
228.448643116020605
231.92478125283202
232.904787671013366
235.361829382826471
238.01212531662992
232.19868363220553
229.888763849270816
227.116023869708812
224.736398995788136
223.948810627075062
227.025243550174196
217.588619623622151
210.871376057562145
211.520288008800549
208.423054815216403
200.235499046284218
200.134024193107138
201.51771764328609
193.864721880555294
195.638899404866493
190.872958651471322
241.529526847604302
511.485667759560215
1273.14582049930982
2239.66094179751553
11.71920706986851
17.2036170525422563
32.4944510949736198
33.8169116929285067
31.990666883731059
31.5971772997280134
33.1684891004911009
49.8207677889409482
67.4514186397489652
96.2342698167853285
128.274112675498174
159.355836604043787
189.948080824247171
204.309496601213027
209.707860942849493
204.565419809630043
212.518981680676092
227.118312222761261
205.901066629722607
203.818107815579054
199.142361060938725
197.565081715639337
197.087000578515358
215.53618460848017
180.35151960560313
170.126506155393542
181.065556061747088
180.667492191122562
149.550436274865575
161.127732662565762
174.925628327525288
141.99549229733293
167.21031714450902
105.646715400696834
84.8643170195708905
195.724238102828821
869.435817425788287
2059.62269744678269
10.1972888085516651
11.040691680104036
19.9653203825274055
22.5084294748811224
21.4433986874949554
20.4768529351091217
18.7493257413511927
15.9460269138675468
13.1164172369942627
11.3600733654106794
10.6730536599729788
10.5084054699128231
10.2710305308279306
9.99853427597891198
9.2891180550792054
8.06904696125948462
6.52830558655311943
5.44949845503616359
4.56048442398839082
3.75967833777922644
2.73341119985295133
2.41129203957727478
2.2924345791416294
2.09343449464004605
1.7295009009489255
1.09887685905381915
0.871218763606279034
0.439609276268001004
0.872957701794249363
1.00656553645468727
0.717788666754565541
0.76151833801030222
0.744826077699815681
1.60182648067101696
2.50629089953265627
20.3180378970595683
434.340073874035625
1492.75365095912707
10.1437960222570052
10.0583658068263997
14.249147903102811
15.2378290694458158
15.1658721495172539
14.8862083553782707
13.5234642651634527
10.9286009927019983
8.61472044386016123
7.16716629808686356
6.72646537544096468
6.63289173133940224
6.61266414529429358
6.64136364203418506
6.22861158740908127
5.46504017634602146
4.57744850008793325
3.88607528399031299
3.49710852864668675
3.07966767763272831
2.82345827247138237
2.64563401121981912
2.63405819828398657
2.46621404599304572
2.26899023891592044
1.96970684443741217
1.73649842685506717
1.6529973423218407
1.53527813557283244
1.47031119524741971
1.35953719596167821
1.31480808989559095
1.36809442888669963
1.74609337177113888
2.36973869430966966
4.35783393486057413
69.2601123358192865
942.286945888905734
10.0627731316241373
9.98954027177456716
11.9217355016537709
11.9465880622087841
12.9464615924239776
13.6457466763347508
12.5085534720951479
10.0077845001552266
7.5326829870918397
5.83138401746870905
5.08133104164671412
5.03791189695914277
4.88239261579544781
5.27626122264083097
4.92032411645208434
4.23959405363651243
3.73966609891612167
3.24569911558553148
2.98670404004493628
2.79848061902399792
2.64704707152517882
2.63255666881945727
2.69502931661435285
2.5927199267389307
2.42846027184280056
2.20329883400007942
1.97119354404570291
1.834200638277941
1.7068789114245877
1.60600660248741578
1.45853097943188548
1.33020846692880923
1.30237061965179102
1.6009202307086603
2.07943301236133316
2.88493669669074704
26.6413340354980512
659.407659839470512
9.90397232669645433
9.86288730380906031
10.2727016792271968
10.7051542184877473
11.8418868181835109
12.8844220231729096
12.1091117072071661
9.43479834250643101
6.95491923469592521
5.33962336999265652
4.43801701327780762
4.19690237431049162
4.15801691834924814
4.60654288620084351
4.8371492740606179
3.66589083129317794
3.24925631841357987
2.8639116551057171
2.64011128297518161
2.51506629021272055
2.47141569210596845
2.52730577354398189
2.70370022095420781
2.78974406691234789
2.62803802509042361
2.24468087500282154
1.91978029285888696
1.78094352351163487
1.68514314572327151
1.57023286488525127
1.45910851273335052
1.24479664893387931
1.18292808497189839
1.42568974218926736
1.73417633994510423
2.46505499064109213
5.78736179382662552
565.142458135449147
9.77005711387261044
9.55999401754573519
9.90903531840113061
10.4238901814518226
11.7488584110308452
13.2758313643421122
11.7638832497914638
8.83264840172829757
6.31109573049430495
4.87941094191729441
4.12409090996870642
3.77548331348188926
3.66079071639170639
3.87219607793023712
3.67862928403947897
3.83894421314589929
3.30861702779248201
2.73707151063946297
2.3777932619109996
2.19851487485598929
2.12834171889720825
2.21759154448583429
2.34352065968304402
2.47624268732371355
2.26364801458392817
2.07106465529212747
1.90720119717450798
1.77423655369153344
1.60874171738877103
1.48064805236612584
1.33844755914046898
1.16315386161785406
1.07618747683746019
1.24535533551336108
1.38941167707460123
2.2757915179324435
9.74913448437819419
554.639723745516676
9.66251772136064879
9.63556427616582134
9.70166531352253969
10.2341159038431453
12.0814093686276127
14.9066049638683946
13.3113443516605994
9.89784672909553542
5.65260267045271103
3.94839905646765388
3.6213588697131085
3.50705777038340649
3.39372807512536889
3.25828321154091283
3.14365039537570334
2.96680082200481809
2.6593028840483095
2.40989013831201637
2.2357599597240938
2.10368608563763893
2.0165882337328167
2.01459814029858286
2.08401088610621166
2.05821876801503745
1.98181185662442383
1.83471997760545658
1.74006289214320287
1.6778108839141932
1.59942432610357366
1.49630851974542689
1.33478586680440947
1.17684649790219265
1.01760290482919769
1.17000594264671287
1.11289357986692261
2.40204768398537283
19.7001753176623389
542.443109115550556
9.54338319814752722
9.52063512474182616
9.57155044796198062
9.68900405029704714
19.0020156218871534
19.3228546863942725
15.0634294797232648
10.8315596092817685
5.21034449595553006
2.83441212699914491
2.92181383579708909
3.09337999983964718
3.11797954322455873
3.02552917316326608
2.87034949744819379
2.67460204879120722
2.47953022808503531
2.30344993078233218
2.15354512624566663
2.03731124323588242
1.95495735214330835
1.89461432236705352
1.84347178665417544
1.8026608690062178
1.77241972449913265
1.75085459529042908
1.72421705586835228
1.684402247478475
1.62298818134800649
1.51762826231773973
1.56375141439843346
1.18932131421595977
1.14805110976658153
1.0943828672534035
1.00983844132021328
1.97987641628152589
56.1469061531600246
638.224408339032038
9.47501730188385061
9.40211803081450981
9.49134801578722609
15.9099049788982061
24.5537171422958167
20.5550719679098286
15.2748439157397691
7.57156183126214266
2.62377132014238823
2.13955269939507131
2.41092290889687444
2.681116599276538
2.81683882036253186
2.78826937559180799
2.67111138682710081
2.50909085457008718
2.3485548248771142
2.20419198064601574
2.08010016105199069
1.98155551661250229
1.90981143781225637
1.85804819794240861
1.81955140255074777
9.41116147588248353
9.33872556782710994
9.97435480784493578
33.6297807388669554
28.0551246668453054
21.8004471675188825
11.1246464102058091
2.23472340272211234
1.70263384400453077
1.73881785396872357
2.07302471927312038
2.3666401699822619
2.53287847871964322
2.54781688312420762
2.4693178710767536
2.35021544716014708
2.22566397130190197
2.11170816257127525
2.01236833865775866
1.93151754359345307
1.87135080716528912
1.8284955498487514
9.32908966996685862
9.38315767452597882
19.3906954517918493
37.9937697018069898
32.2015348319637127
21.5057794042738202
2.93361474020017265
1.50743576192276363
1.16209779684867121
1.37732708079764099
1.75824461567052448
2.08133468675690914
2.27229020973965312
2.32471769201839829
2.2871428510609495
2.20632459830494154
2.114666592158716
2.02750438255119914
1.94996611609653847
1.88510577541655366
1.83612443357330113
1.8016176613023005
9.26143342221725696
10.4252196875128931
48.0344523619098069
46.0180335389669395
36.4634564735807629
5.83810501407230475
1.9213959093180295
0.969016613396694537
0.830792871019071399
1.14991236393345986
1.52795486912347678
1.84519734033399718
2.04503017846713409
2.1242307618045575
2.12093864605556037
2.07497528660417219
2.01290395031196345
1.94913977382619308
1.8900703798378633
1.83961911907124498
1.80119043494768238
1.7744645133179906
1.02051864269777814
1.37003889935811185
1.66190558324692494
1.85946342416898025
1.9540310830626797
1.97613320944047977
1.95776191487575657
1.9197416141868815
1.87552100415920053
1.8323209553499531
1.49254879024190967
1.68519627283588558
1.79931261106089813
1.84622496205080888
1.8514771154119074
1.83359187125141632
1.80589672456241201
1.77671677848498288
1.6594588205654528
1.72633629400995603
1.75230886415302356
1.75278391145041623
15.8572438366003983
19.9479198262486612
29.8284153743249121
50.6478155825360616
67.8844323378339567
92.7429280642392655
110.789478995785359
115.41694332471873
117.741945311093858
122.803500602335575
130.538169727367091
140.515726226869134
152.705401158387929
167.393616517197216
177.334468310181194
190.226651488892145
204.38530791384963
206.584400566279527
203.983136510538799
206.44376491507947
209.07022525795395
206.497438072582412
204.948409456687898
200.770152421272968
199.929433433917978
198.324430849684774
200.106781497285169
186.696101101837485
186.378222492073718
187.663995808584161
182.965087582856199
190.20226598247649
175.235504590831198
174.549726975976711
231.126279487356101
482.082814666219178
1228.4578524721037
2152.66777095076168
12.5684324443169988
14.9369665264624079
20.5011687874469253
20.973275696717856
21.0194786419061721
20.0167119790173089
17.6050207566894485
15.3766520292966611
14.24517311181833
15.1811831038339786
24.0161461509759704
42.0085425113271356
60.4829118772490801
83.5115347220620237
98.9546492397800392
130.307955787264746
169.187627666206879
161.562344771394123
151.222965773551437
161.981324210184596
174.131074210359174
165.647327238643726
166.404560518855249
147.919248538672321
154.633470772949096
153.638849745671308
169.89197970339572
119.5520747410078
134.304894382061377
143.868271079779021
123.302241139797431
166.633526756650696
104.648022596989719
80.0699369223904114
108.547602945779929
163.512477330440646
827.707174438973311
1970.99591079596939
10.4584679093194239
11.5545363091214988
14.4636780163298404
15.2027173528397466
15.0601281288308648
14.8558472601336931
13.7602526203735831
11.3197625946180214
8.99304762064184793
7.81976262908598407
7.4096560079950784
7.29102449356759053
7.35846663911575227
7.24734106399422018
6.99541517518191558
6.37754595257644485
5.53007245941242509
5.04626072660519487
4.42461213603704007
3.76352748059690922
3.35289852729856053
3.18053497560972875
2.97366385233347241
2.97632173342385276
2.61743345672234895
2.36547947437072681