/*--------------------------------*- C++ -*----------------------------------*\
| =========                 |                                                 |
| \\      /  F ield         | OpenFOAM: The Open Source CFD Toolbox           |
|  \\    /   O peration     | Version:  2206                                  |
|   \\  /    A nd           | Website:  www.openfoam.com                      |
|    \\/     M anipulation  |                                                 |
\*---------------------------------------------------------------------------*/
FoamFile
{
    version     2.0;
    format      ascii;
    arch        "LSB;label=32;scalar=64";
    class       surfaceVectorField;
    location    "0.570000000000000284";
    object      Uf;
}
// * * * * * * * * * * * * * * * * * * * * * * * * * * * * * * * * * * * * * //

dimensions      [0 1 -1 0 0 0 0];

internalField   nonuniform List<vector> 
20390
(
(0.587282293332879179 -0.152336343175766997 0.505641192874904277)
(0.535897332839618379 -0.259107404771887706 0.455395424704174712)
(0.20628503490388525 -0.163098207094559688 0.274392184593362787)
(0.748986659531539534 -0.0938299786134606933 0.343459668324266221)
(0.95089498628980873 -0.132741019881562727 0.676267309185153653)
(0.937972201663659244 -0.25778744771396056 0.692395104175293596)
(0.640638584985458559 -0.190047001231500534 0.678077218259787284)
(1.03584672913968534 -0.102888645599031422 0.52611502856006942)
(1.1875234531328358 -0.0848139843685353362 0.735293690091932572)
(1.14836834640808738 -0.191156010291246264 0.771772793272973767)
(0.95926382976740554 -0.141031795338716848 0.778873626881222636)
(1.22451486842176882 -0.0755900556443051819 0.633190082803529064)
(1.34474764376722344 -0.0496043115558378184 0.775318431834650656)
(1.30824806529016846 -0.138156387099296479 0.809855828419603019)
(1.1697170407745312 -0.0887487096307402468 0.817319070532872782)
(1.38035611191135299 -0.0482226936966724321 0.698230493190926227)
(1.4642858122508382 -0.0309702825740978786 0.806367915410597713)
(1.43536742598150191 -0.106929958325001837 0.829997651011346149)
(1.32127920327468162 -0.0540039494917013696 0.838236922604508217)
(1.50226846255726576 -0.0325027114469441034 0.743915175707284049)
(1.56196848942543975 -0.0220260787831473431 0.832418845766423887)
(1.53567720680626207 -0.0869906538738690477 0.844938930134399135)
(1.4374068731989591 -0.0338746964636595579 0.856434822920078442)
(1.59482217744005128 -0.0253322913647883903 0.780136189847269179)
(1.64486089574189065 -0.0176803087506552936 0.854544698371316414)
(1.621721020007727 -0.0734314228612134162 0.858077464495822229)
(1.53344204388433969 -0.0233775926878582833 0.873943190864356234)
(1.67101364379482686 -0.02252658946817521 0.809972746697397605)
(1.71632018837672384 -0.0160498768487959478 0.873048046768653663)
(1.69821678294883749 -0.0636297269857937081 0.870283473845136157)
(1.61711817912727418 -0.018095895504376399 0.889930545260380845)
(1.73746255558957774 -0.0216078413730549021 0.834130379717140102)
(1.77992932031631845 -0.0163070336204944738 0.88820449620338715)
(1.76683903829739486 -0.0579045886940737775 0.880678407447758715)
(1.6915278930530393 -0.0157641966574064464 0.904808126607274499)
(1.7965067044888936 -0.0219661461642568362 0.852608079677236508)
(1.83732049480570425 -0.0176774791893196011 0.900278727666357637)
(1.8293439366631512 -0.0544159304494142154 0.888970945595033424)
(1.75839951304964481 -0.014897876155213513 0.917866981559752881)
(1.84956670206933182 -0.0229626457937757295 0.866426296817673802)
(1.89021998008276548 -0.019883617053270599 0.909232844554138775)
(1.88610973543060179 -0.052463646610463717 0.895477907904739245)
(1.81922477283581108 -0.0151280535303289845 0.928445298542228237)
(1.89846019498139751 -0.0246101040877788856 0.876417494129276942)
(1.94069558861181468 -0.0224962379176938711 0.914555871456589564)
(1.93870318334991376 -0.0522726819107043467 0.899394712537923802)
(1.87575098190490674 -0.0162038896084689549 0.936273080597106899)
(1.9451566523020003 -0.0266684886174914058 0.882203328847898094)
(1.98952217323168878 -0.0249593602769727502 0.91589350204949227)
(1.98862386945448422 -0.0528862907809704019 0.899636303961855122)
(1.9294420983664311 -0.0177992548681329826 0.940497029085056058)
(1.99081876115053591 -0.0285780259813012971 0.883551034278541647)
(2.03688111058957633 -0.0269640632392172085 0.913178840304013306)
(2.03629140892862592 -0.0536897696469683661 0.89611021775430344)
(1.98088569459536257 -0.0195611389009922587 0.940972462051380187)
(2.03569557501377796 -0.030138872375821673 0.880951860162447531)
(2.08297017560301789 -0.0284132690571590497 0.906773580150702307)
(2.08166512477997445 -0.0544003662591968293 0.888312656740455564)
(2.03049816466924726 -0.0215146528435041333 0.937411864809886697)
(2.07970869697872551 -0.0310525205589484016 0.874700194562730293)
(2.1276883573672416 -0.0294073565816139644 0.897672989775480157)
(2.12498340220152837 -0.0548760885468323606 0.877379501928966965)
(2.07879526174321771 -0.0232148643055595967 0.930760730352993004)
(2.12273380279786039 -0.0315273693498770019 0.865726729458511812)
(2.17116578271342853 -0.0297329579826649398 0.886748637869374634)
(2.16733683261130894 -0.055395497343714982 0.864918984763403675)
(2.12552635654856781 -0.0241370984183421552 0.922201971015265243)
(2.16462295029249718 -0.0317062078781839909 0.854888394886800573)
(2.21221101017932442 -0.0294905979213749905 0.874844502561227477)
(2.20806132599195593 -0.0543405621289781912 0.85160774463804334)
(2.17015456574941989 -0.0245247267557426075 0.911109955341037558)
(2.20491409094297452 -0.0313410397274359528 0.843474054051184585)
(2.25043845962055133 -0.0292810058186980596 0.862593011367193352)
(2.24548129798267126 -0.0529658203988484788 0.838454422209940375)
(2.21204144356506971 -0.0246465821436103391 0.899397273328454316)
(2.2430668609192792 -0.0307591088215171428 0.831693083221914931)
(2.28622289170444493 -0.0298791971879626833 0.850201548616392855)
(2.27935385602000551 -0.051880304137184613 0.825727396174566586)
(2.25114998367772223 -0.0250016395327496907 0.887481459689431151)
(2.27916910775810733 -0.0304395116507944867 0.819505291186879314)
(2.32357999960139239 -0.0303424081106688365 0.837717299200419485)
(2.31287381919110491 -0.0539637497232338184 0.813976017961233866)
(2.28889124280578349 -0.0257022944962041061 0.876593954291050248)
(2.3145644481651626 -0.0310173092831352547 0.806023573821794015)
(2.35966350603578467 -0.0295832923097573627 0.824141850178727653)
(2.34687535400887448 -0.0531151895329801532 0.80293525640412311)
(2.32571598130007784 -0.0255033476445245266 0.863652726208235078)
(2.35061206974247439 -0.0313518708342161237 0.793505863074484341)
(2.39383255610182299 -0.0284397170012802292 0.808528930531137613)
(2.37865375053792372 -0.051723906330859791 0.789742279527972491)
(2.36103663471541747 -0.0251706176437281257 0.848311577505763803)
(2.38640053651981843 -0.0301657158285592378 0.779032819996390402)
(2.42534168028395136 -0.0285021572107524816 0.792021153991764315)
(2.40721072568921146 -0.0502553648362635066 0.774305817984416667)
(2.39494838321927128 -0.0251076569259979857 0.831702336213140936)
(2.41989375021467179 -0.0286396303938967374 0.762700733049160307)
(2.45999215493651091 -0.0286641489125933624 0.776893103280592023)
(2.43507488293774044 -0.0532643744860458457 0.760204642731044045)
(2.42895209309095517 -0.0260084589506249242 0.817244510540932501)
(2.45185670327557803 -0.0288515296722196626 0.745366239023561139)
(2.49100462481913842 -0.0276913207355353568 0.763261800998698225)
(2.4633391957876718 -0.0505757849706846493 0.750106092084087961)
(2.46190334672507172 -0.0249016366141157804 0.802524750147256216)
(2.48327757963388773 -0.0289429042152139146 0.732385654384326013)
(2.52088223528011568 -0.0268386341485445448 0.749350940452824354)
(2.48806954627245336 -0.0483051021450033521 0.742084404703416523)
(2.49227262689623519 -0.0239977960595015929 0.786851914845132061)
(2.5140627094776522 -0.0290096702874435494 0.720119324713152431)
(2.55018701895569544 -0.0268734089599703477 0.733330504614405521)
(2.51140945722494413 -0.0467803860157707668 0.734741577943517798)
(2.52132042312913462 -0.0236487619059143825 0.770780553080353314)
(2.54538396543652246 -0.0294995226821213839 0.706524565840248919)
(2.58110918534599865 -0.0278015566567368297 0.715182482256883079)
(2.53515329052741389 -0.0484462223004092293 0.723823521451662955)
(2.55093415461580131 -0.0250016473950579986 0.753990278426245997)
(2.57741798021263824 -0.029173358947961029 0.688019998784796805)
(2.61276014698500525 -0.0284652937855371935 0.696450919467173968)
(2.55994875379331255 -0.0500179667574420297 0.711941820697569061)
(2.5816936589928634 -0.0260489371315235606 0.737094172967053818)
(2.60941496728522626 -0.0292635421330861255 0.668709198741096023)
(2.64386593324621444 -0.027743267042778897 0.678050815010712737)
(2.58404517510663734 -0.0497690723400661048 0.700016397692943215)
(2.6124008382367192 -0.026310361403098996 0.71877991894867066)
(2.6407275887722399 -0.0287239788994314918 0.650347558605374854)
(2.67134954015144865 -0.0235650764667007483 0.660727329119758511)
(2.60809659606041189 -0.0459036170970286289 0.688899857584697739)
(2.64173808663404674 -0.0258776939383944457 0.698843805293529741)
(2.66997985614457223 -0.0267502177637478807 0.634520177110818095)
(2.67770777926159331 -0.0186241168765088998 0.645734079279761564)
(2.62498649825026087 -0.0324193463318712821 0.6774463963402233)
(2.661963588492962 -0.0212345661305420527 0.680089389789227616)
(2.68880190513800432 -0.0208426373010296637 0.621608937045377896)
(2.67055325675621535 -0.0058025522561996265 0.634613993431268231)
(2.63190589342189085 -0.0275942456313688772 0.66900522391294992)
(2.66712948244701797 -0.0182145677992744219 0.669193956641371601)
(2.69038541831837641 -0.0166142485168058844 0.606850945215885229)
(2.55073459818882187 0.0466106039949700512 0.627509512174925232)
(2.60206706060953152 0.0273367648182465603 0.662033813172265728)
(2.62188003284672044 0.00346046412442902254 0.661918284075031393)
(2.63807552721164518 0.00733686197174820195 0.59677315749182358)
(2.0680874989704976 0.165670532698149381 0.61837860286052182)
(2.43496736287636173 0.209680647525439356 0.658935376685235052)
(2.40884879358158877 0.0834558800106702386 0.655204758675132393)
(2.412779159513605 0.0931379096703584958 0.59191895602681055)
(1.01576464384067466 0.244026697706031276 0.516643464916806128)
(1.94278344499894051 0.494544943420252514 0.661094455064435205)
(1.78333856608533292 0.238975274560750628 0.641976308605896606)
(1.76588872035062394 0.249027082765228142 0.57874334606629696)
(0.852223103781565516 0.485098309366561065 0.583660737090469617)
(0.659090280282842333 0.24592354103033634 0.443528811234235043)
(0.632005608477222314 0.242796955304655643 0.397960820768882895)
(0.820190718919394102 -0.378568555056742029 0.642149336004563587)
(0.706404132382308703 -0.478313516452778975 0.584137480015872623)
(0.325004297764097949 -0.407889200634163951 0.0902769252824894841)
(0.865441321720457735 -0.259638838403655647 0.472055450605232185)
(1.11730223198321554 -0.355131340021645037 0.78790058826311371)
(1.07485157997339753 -0.502228943821673601 0.80208677610716983)
(0.906584195304768081 -0.447209801058390755 0.818890817118783976)
(1.15527353488393891 -0.30179559488451535 0.627119380967312012)
(1.2870372142542128 -0.278894581486164417 0.846334931600643992)
(1.21206794428837417 -0.406784286442903709 0.888067452917896349)
(1.12607172719437743 -0.333489990718213725 0.980164977929887771)
(1.30561224045425495 -0.263827418261735613 0.718643430960549168)
(1.40545838344870844 -0.219338210483999568 0.864535047596298512)
(1.33695622094886324 -0.321190974018203512 0.916273418007434448)
(1.28155082709202173 -0.244780408727759496 1.00528077862842258)
(1.43328034072362098 -0.214008856652477819 0.757632781238919528)
(1.50529557104214451 -0.178316512430205937 0.868568665735147682)
(1.44974508559243187 -0.261948109211115443 0.918574834042111155)
(1.40196112167773079 -0.195685814032823591 0.987687727705132912)
(1.54046657360987638 -0.174555784280817139 0.777488606874990773)
(1.59400627270623585 -0.14880766232962872 0.870597548863797366)
(1.54316789635988805 -0.220150510809248745 0.915066602371956694)
(1.49491558864199403 -0.165131064103011926 0.971066758708375111)
(1.62766093381825261 -0.145394516448215882 0.793457732996114551)
(1.6761470592675709 -0.126183819560139354 0.873816239969641972)
(1.62627453352570162 -0.190148428109143203 0.909920155604983294)
(1.57677170681806578 -0.143830061278603427 0.959332949136014301)
(1.70428710115332582 -0.12442379119471722 0.808039713098958057)
(1.74828036409728416 -0.109383791297702898 0.87791383452424121)
(1.69736136285542671 -0.163920560744286375 0.905478754884907699)
(1.65211366454316311 -0.126486926429965313 0.950537598816967089)
(1.77406680369366221 -0.108451306856127846 0.822089231914607144)
(1.81631324146100415 -0.0978230865328172938 0.8814448568394051)
(1.75796232683858866 -0.148599733640933956 0.901346742589351879)
(1.72276226096273444 -0.113318233101224033 0.94520496197950632)
(1.83763480177842697 -0.0973128365048344518 0.831847553783506277)
(1.87806762442622377 -0.089529644531186503 0.884170125833415144)
(1.81227709957832483 -0.136311516879715655 0.897814834186804855)
(1.78946954610463482 -0.102349142964129072 0.940792837366779988)
(1.89541693930640265 -0.0889981191688708345 0.838756056489674884)
(1.93423231913936355 -0.0843588712093594484 0.885639775888524161)
(1.86011021005021049 -0.127454422639694254 0.894803985918006139)
(1.8514536257324985 -0.0934547340608390953 0.937260610202360289)
(1.9472347786546893 -0.0839260452357484671 0.843443761785408475)
(1.98652924930613328 -0.081862188330781252 0.884475145043189248)
(1.90346186335005307 -0.122925258950324232 0.891795888189850117)
(1.90919956808509861 -0.0869783377321679957 0.933611269079267059)
(1.995032916928144 -0.0819184354689224542 0.844603050656703269)
(2.03554887318267497 -0.0808874849218047809 0.879853019666666292)
(1.94411437070775417 -0.120619587480765705 0.887364438184350401)
(1.96373578792277814 -0.0825667178068382329 0.928154093151154602)
(2.04045205197704727 -0.0815791187460045003 0.841707123725403794)
(2.08106245442648952 -0.080674819842419726 0.871244034190745587)
(1.98187275445137367 -0.119164490808595577 0.881392234742550906)
(2.01482819045885986 -0.0796470633901860819 0.920453647741168668)
(2.08403377418282121 -0.0822393385999317938 0.835017780005192667)
(2.1237333444679205 -0.0808223162187047539 0.858918578518720111)
(2.01670889622963356 -0.118223770688687849 0.872394993812712793)
(2.06224308677814783 -0.0786189316457777676 0.909163874485639512)
(2.12567101450351581 -0.0824251147477900042 0.8241879418578133)
(2.16430329698452395 -0.0813143915124109745 0.844625496916890595)
(2.04883829331892731 -0.117757119439046376 0.862133371253274716)
(2.10680897506258979 -0.0784852845991779041 0.896062819839873237)
(2.16547496635230852 -0.082290557944324938 0.810870693773282802)
(2.20481220341754991 -0.0806946384564824759 0.829778091532072271)
(2.08002869064024454 -0.118889943955449467 0.852858199853515186)
(2.15075726267991385 -0.0780521910737415336 0.8827268401223759)
(2.2046277096746687 -0.0818917258283327343 0.796246842774108621)
(2.24171487598658103 -0.078337106201291834 0.815217664286756238)
(2.11101625016289818 -0.11512086124438245 0.843989704424116027)
(2.19318086268536572 -0.0764252046840989963 0.867327389962156414)
(2.24258173172672182 -0.0799568807932650033 0.782669468841924787)
(2.27467916712590723 -0.0759226991368291415 0.801588807017313831)
(2.1403901277082138 -0.111085954681111487 0.83525617979393596)
(2.2315076647194787 -0.0739827755940549864 0.852580737971121105)
(2.27731612162881136 -0.0771484213431914284 0.769304781673790794)
(2.30397804771817016 -0.0763889798818782884 0.789501865519407486)
(2.16636638645318191 -0.107714233537759371 0.827479818136579781)
(2.26538860475798076 -0.0721034042740392317 0.83910325308492828)
(2.30859573896296233 -0.0753551248845062555 0.756734304407846281)
(2.33742812353411011 -0.0777097282192788646 0.77919397516493738)
(2.18940192576552262 -0.113983469729566439 0.822906037996007589)
(2.2979417049575166 -0.0723948983616575087 0.830016019045476838)
(2.33842815943437277 -0.0771023105908431039 0.743426680193506773)
(2.36659468842824072 -0.0767224614729333787 0.768535685753367948)
(2.20977399874767189 -0.109468011968692353 0.823422537609035388)
(2.32873638588643894 -0.0713164330701078347 0.817736148256172357)
(2.3693197759898097 -0.0798173398099115139 0.734197082867220407)
(2.39264082689204027 -0.0749459099027240255 0.755519166981251433)
(2.2227990440223917 -0.105276231541600013 0.821944425505818366)
(2.35599506435547967 -0.0704333671013701035 0.803478093381776559)
(2.39998429986921602 -0.0787080803366954629 0.722419589104099091)
(2.41322152477605911 -0.0756853400756327815 0.742489306723696396)
(2.23523148172913988 -0.100082104083137627 0.81741324830808515)
(2.38029304838279998 -0.0700021028855948718 0.788577888527136728)
(2.42603455882341335 -0.0756328350952256284 0.709505116959295967)
(2.44178414638508423 -0.0760071047029707847 0.733417631534539982)
(2.24723672517173867 -0.109630252139760243 0.820665632553676527)
(2.40421626072470973 -0.0720398916064044631 0.78022492302086488)
(2.44743380355548901 -0.0760055680610343537 0.696055802217723563)
(2.45980240293953445 -0.0732343150683170546 0.728928695788806147)
(2.26803900994793528 -0.0981767754041677071 0.830892400254528818)
(2.42786551263641615 -0.069365124389995092 0.769468996407492445)
(2.46850675631450356 -0.0754623661556273889 0.692285283513894178)
(2.47911226497338122 -0.0707594942343624245 0.727475042194109744)
(2.28062436699822735 -0.0941752764712062984 0.845912389107948748)
(2.44671057426891103 -0.0668899497373231927 0.762591464337346148)
(2.48692430507916118 -0.0749251587209102676 0.690160981412255015)
(2.49483336992209281 -0.0702557961147113053 0.725234594780775454)
(2.29059364315616287 -0.0876277832164141235 0.86524917483006214)
(2.46267428036112035 -0.0652115734417240273 0.757693617317834911)
(2.50637309706474909 -0.0762010677901847761 0.691719923657418301)
(2.51442202525445158 -0.0716459665409077684 0.720582859892348937)
(2.30529894932845902 -0.0931822577572471583 0.872136340954885014)
(2.47884025310061196 -0.0668687103738957178 0.754816462611462957)
(2.52783250080626098 -0.0754965607099979952 0.684933040020479722)
(2.53110320899911345 -0.0727226688965620094 0.71550729892333842)
(2.31938944394910074 -0.0929698189665644076 0.873738249300332059)
(2.49602245792933708 -0.0682578369147847641 0.750375439512818709)
(2.54773564429441546 -0.0756854846380141111 0.681152913007798788)
(2.54859797452745607 -0.0715275125972705678 0.710865440266928328)
(2.32365784058463509 -0.093299349390989661 0.865816917941633735)
(2.51092518970815126 -0.0683552382402157904 0.745511420767487776)
(2.56589237370262335 -0.0748948281314549685 0.675945629372816104)
(2.568693971357626 -0.0639475181914781615 0.705618924805162306)
(2.32304333552778797 -0.0882042602727873826 0.853249452424540866)
(2.52613192064074354 -0.0673060989859750741 0.738512376903108225)
(2.58469525230600317 -0.071644600965302091 0.674007089282782634)
(2.57447839710345239 -0.0563050809658622586 0.700717540973411546)
(2.31767655809580431 -0.0627439912909430186 0.836578768131710837)
(2.53953990382275085 -0.0583638062328092136 0.728969993927100823)
(2.60112126320015991 -0.0613759243675488717 0.674105136690768436)
(2.59671008079216881 -0.0345148139554859179 0.69642504365394764)
(2.30460710485273079 -0.0679035922695048755 0.816955354030878822)
(2.5516315771425262 -0.0546737117767404288 0.727575944077642256)
(2.6136117653894555 -0.0566924992093075092 0.669188943440673589)
(2.57526679621742716 0.0744639594159270807 0.693459677682575437)
(2.26196755882652223 0.00757117708332507612 0.806577110862280233)
(2.54556033856001651 -0.0138386344088574642 0.724155367820076612)
(2.59788767308543278 -0.0142085354553874114 0.66318091944410229)
(2.26244021524856542 0.379052873737016127 0.701651228889148881)
(2.19707072970129147 0.335591943020564054 0.748600231236697944)
(2.42865209167498453 0.160550495807752214 0.722687625402343548)
(2.47805164274165035 0.166489290361358039 0.661683667516153595)
(1.39807015698872417 0.688345992032488252 0.728111727238098361)
(1.93542912640535869 0.898366586763388209 0.74300368606860534)
(2.09355076892595093 0.589572575922924114 0.736211543678723879)
(2.12064861571892838 0.596786865268819078 0.679484855056930126)
(1.06139860759396365 1.14636606035965727 0.775477367273235241)
(1.05980438048105308 0.786474844031065823 0.781829883294008043)
(1.05237977974765151 0.774647735140682525 0.706295369710992715)
(0.922509191871158651 -0.565522529998085499 0.744074920118476979)
(0.706011355625280723 -0.614739802708994421 0.680699932075515379)
(0.354664189331697743 -0.525423991884561681 -0.111640997552253166)
(0.977699511025096002 -0.425457939224950177 0.538015715334544398)
(1.14517561997902129 -0.550021909636728257 0.902253640761952358)
(1.02647913104193389 -0.699751175260717617 0.922699997474347278)
(0.911794796616851366 -0.677915124623491794 0.887914367499116564)
(1.21956785004291546 -0.502448957420249642 0.715536403253487885)
(1.28185465597861792 -0.456858640607242517 0.958005939324686806)
(1.12742037093327552 -0.604251162156581589 0.992724473695815735)
(1.0757901120001514 -0.554172325082768147 1.05719226908628627)
(1.31108732544559303 -0.455028299326389996 0.798937595597395744)
(1.38783630648514755 -0.374112769823551072 0.970313204453247202)
(1.24901529282895285 -0.501473033072532659 1.007212964468716)
(1.21404991676558538 -0.432923427593325194 1.09285610211608231)
(1.41258957562072007 -0.377806652110935171 0.838273649093691842)
(1.48534315650522464 -0.314067117164474774 0.965072770678920167)
(1.37647480986304238 -0.425182818803481133 0.99368955710219864)
(1.3411554840197264 -0.35870238574482205 1.08525203412234861)
(1.51159951846897656 -0.315342372616412958 0.856289454435892994)
(1.57328020859501083 -0.271030281866370959 0.954389209113142734)
(1.48801951517178854 -0.365285274005847649 0.972214166105275113)
(1.45020386861767347 -0.307901755586323267 1.066750360889136)
(1.5951685790943686 -0.269384328591168509 0.864417863066251124)
(1.65016137775472971 -0.237699441134405692 0.941582670520249021)
(1.57880747620854933 -0.319676203997893538 0.948136626546476458)
(1.54755297266927161 -0.270568922462313677 1.04595374948261721)
(1.66955079870258594 -0.237280637075404977 0.8637793449545349)
(1.70588240926216694 -0.213223203208536438 0.928911662950018369)
(1.64577053998114331 -0.272108937990857558 0.927928958566640261)
(1.62515412794642433 -0.238177044607083499 1.02081759902663305)
(1.73241162439669805 -0.211814760742636499 0.860161863881936273)
(1.75414142278815599 -0.196886158799279481 0.917716719936751746)
(1.69315786978097083 -0.247507786237848332 0.92144731605286212)
(1.68250870424568633 -0.213992941287682203 1.00298402880344129)
(1.7846826821685382 -0.194684023350094576 0.853426935445705026)
(1.79408195598410902 -0.183835845594664871 0.908448694271396073)
(1.72502396528720636 -0.227165529083169254 0.918955283293261815)
(1.72676115809059638 -0.19304536836793515 0.989736088349252308)
(1.82930536321242276 -0.180216988650320875 0.847968603213762329)
(1.82891657291413923 -0.174877522905542676 0.900960098219332095)
(1.74555181237521606 -0.212912114884425546 0.919747473569271334)
(1.76151508905235854 -0.176229892483734635 0.979688789044405151)
(1.86756533629416954 -0.169946506031367239 0.84360803176148913)
(1.86098037706922548 -0.169704531455363017 0.894685181331011159)
(1.76123055061293243 -0.205217897688805134 0.929773961889490796)
(1.79108048474030124 -0.16526804295239661 0.971404270536645575)
(1.90269472167390719 -0.164320938397887389 0.838882808377567013)
(1.89067806436868779 -0.166387372183046556 0.888903653260234905)
(1.77521335374208333 -0.20073435371533152 0.942459865896984161)
(1.81949963497500078 -0.159087655796698813 0.963831681697966514)
(1.93654279756625902 -0.161482336706853052 0.833299845159011565)
(1.91742711930709575 -0.163747104812155542 0.882543194364518113)
(1.78873817308830363 -0.19710263361569641 0.953618766988323041)
(1.84474108631605516 -0.154351797775415189 0.956620903075566686)
(1.96770163757864713 -0.159982982131949669 0.827493674227464449)
(1.94195119510320247 -0.161584125904927656 0.875609786547267399)
(1.80278613256979314 -0.194209100401953938 0.961630641856331181)
(1.86732993055287899 -0.154042918733884038 0.947911036045357425)
(1.99564678080577829 -0.157798272192422623 0.820464445281628652)
(1.96379814063829405 -0.160969025761558082 0.870366074189899419)
(1.81617871694572242 -0.192799269375026977 0.96844711436573605)
(1.88972950600264067 -0.154774718843140036 0.942415679761266722)
(2.02149089072636201 -0.155628363016988597 0.814178314487085553)
(1.98741774730139165 -0.159633439302721392 0.867069812745558832)
(1.82823590118415291 -0.197012171418809556 0.973307569209686418)
(1.91065184300108193 -0.153826243189567696 0.941893650856422959)
(2.04784421549779827 -0.154287458234561414 0.80926879770314486)
(2.01012808858673031 -0.155557573542214916 0.86402821993129586)
(1.84230993205246185 -0.192630168176596117 0.973790238118294682)
(1.93204311816980634 -0.151948237570475014 0.938775099227518228)
(2.0748904729437565 -0.150774337246654566 0.806466835354697986)
(2.03235054046178965 -0.150235543934193666 0.861147190913202021)
(1.85446034556168216 -0.187243181554103466 0.973516942288063847)
(1.9549330746895317 -0.147762477515874957 0.933130398453533183)
(2.10034248980355365 -0.145502223715850865 0.803038417720243536)
(2.04807302952613757 -0.150166447137812631 0.860883990613179773)
(1.86331391799199886 -0.180610189356306544 0.975833564189945379)
(1.97707579155288182 -0.143553543522593752 0.930834774077520799)
(2.12094237695319521 -0.140660879662092869 0.800765375942068203)
(2.06471068787951095 -0.151344405260432496 0.867134600440105596)
(1.86341487312727216 -0.195343127329779709 0.985137961084975755)
(1.99401476463825911 -0.140818622890268391 0.94628218472600889)
(2.13478221835509263 -0.14307794042191388 0.800200546234146604)
(2.06734966383660002 -0.146897745838853344 0.876831277361485695)
(1.86180964731501142 -0.181166806660365498 1.00605113361069209)
(2.00057537202899516 -0.135679774747492321 0.952705952201679529)
(2.14261276589791194 -0.145578114376245266 0.81194734954638681)
(2.0665858300539881 -0.13958425472407171 0.883838506832651971)
(1.8621636831870747 -0.167279806546410198 1.03464145888962666)
(1.99933112072589547 -0.13369944285413185 0.946724389346418227)
(2.14400567824558985 -0.141978746715780313 0.821953414351142886)
(2.06006752877076016 -0.140399287190204863 0.895589574138065059)
(1.87104469888798741 -0.156166782690404016 1.06128539466247918)
(2.00182543536921775 -0.130190325770705967 0.947557162360592287)
(2.14462413341304803 -0.132524478824116471 0.828869518501052505)
(2.08437467905604512 -0.139693706027521042 0.918140401273665474)
(1.88214425910198746 -0.193741271130164761 1.08617818102064545)
(2.00173227683613764 -0.133545863564254963 0.986177679060928347)
(2.14365696673589312 -0.134364272554373526 0.842262812074945133)
(2.08345243360335708 -0.13007973169482645 0.947876093573671308)
(1.9042223396003406 -0.158456254789287876 1.098441239728839)
(2.01417432875689784 -0.123751075612263575 0.99689439076071984)
(2.15110858550681527 -0.129574805606159638 0.875413206805990329)
(2.09514646913143698 -0.122522341171068819 0.983686521743900921)
(1.92112743385882156 -0.158100959221992771 1.11180473808634228)
(2.0230590734345637 -0.116665579477864323 1.02088409263208169)
(2.15563153060339063 -0.12697699262455367 0.904726771697358489)
(2.09542854511907217 -0.121333070361569234 1.0121509210041717)
(1.92890635088944173 -0.135400797266344797 1.13096981955144105)
(2.02971072314303802 -0.109204834748611188 1.04354669050116411)
(2.16060318951748354 -0.130077895734422577 0.948282735336491545)
(2.11733618541257407 -0.123483683938684585 1.02529173036286836)
(1.9290375975729539 -0.162193842746226224 1.11944452560403662)
(2.03874715209229995 -0.114635441438508567 1.07284750475727519)
(2.17368097008284256 -0.128851818292145009 0.956731965263904249)
(2.10850389204417166 -0.1224821140679931 1.02404786831862715)
(1.92182056379141208 -0.134460750740996476 1.0817769452312711)
(2.04588305542869175 -0.113727985674594662 1.06886754801727579)
(2.18044551233998396 -0.127403922811847176 0.97705337465588904)
(2.09804686253392703 -0.119043380130444645 1.00820093009924605)
(1.89488242062350976 -0.135690452856355281 1.02158258459538054)
(2.04120893438729079 -0.111125346750041334 1.0588725605371796)
(2.17402912699923867 -0.123405793496401295 0.963633302924141844)
(2.07486364088526853 -0.0995346063128137726 0.984209295751088953)
(1.85793815861898959 -0.125384582294075342 0.956628710530098902)
(2.02255098526563559 -0.109903923482093727 1.04169942144137484)
(2.15354294784383882 -0.115785368099981203 0.94415554341816077)
(2.04535568211853969 -0.0816084436929618712 0.952816581189178335)
(1.80533551074708143 -0.0913827944867975361 0.897595868497003457)
(1.99514585454325521 -0.0851811156033310396 1.01437923152298493)
(2.12399099877571462 -0.0903601655110886637 0.927593686076836121)
(2.03783671323672833 -0.0460119857732833315 0.927107421239211082)
(1.76583083369553551 -0.10265775952005253 0.834500455328332169)
(1.95839651992456965 -0.0811667624261628307 0.973092627376256569)
(2.08707566115190923 -0.0818147117137386637 0.896065386752489923)
(2.03113355595567624 0.172690141237490741 0.861717664416403073)
(1.48307350579023023 -0.0278349441036276277 0.80171594885772679)
(1.85952096122082966 -0.0142100377544458045 0.956882424857404157)
(2.02635914884623114 -0.0100545101397180557 0.879367099339623759)
(1.80890208774947814 0.688305244105437031 0.789952688416154736)
(1.55262694367133358 0.418377513369497023 0.802105443818686759)
(1.8934149798848976 0.357970367113516319 0.830358838153013701)
(1.9802970698646809 0.359533369170363493 0.773698561991018607)