/*--------------------------------*- C++ -*----------------------------------*\
| =========                 |                                                 |
| \\      /  F ield         | OpenFOAM: The Open Source CFD Toolbox           |
|  \\    /   O peration     | Version:  2206                                  |
|   \\  /    A nd           | Website:  www.openfoam.com                      |
|    \\/     M anipulation  |                                                 |
\*---------------------------------------------------------------------------*/
FoamFile
{
    version     2.0;
    format      ascii;
    arch        "LSB;label=32;scalar=64";
    class       volScalarField;
    location    "0.119999999999999996";
    object      alpha.water;
}
// * * * * * * * * * * * * * * * * * * * * * * * * * * * * * * * * * * * * * //

dimensions      [0 0 0 0 0 0 0];

internalField   nonuniform List<scalar> 
7340
(
6.25824234010256975e-09
1.57786663445243586e-09
3.67367824905205178e-10
1.07301416521504157e-10
2.38425147821721732e-11
3.43376637684083163e-12
3.96147533823148629e-13
3.90770019010210347e-14
3.30765552687206613e-15
2.38119033970012753e-16
1.43569346503881845e-17
7.07985592277951039e-19
2.75170621460110409e-20
7.92736058384677649e-22
1.5046899878670904e-23
1.81029214771119965e-25
2.34404874999224518e-09
6.12049684180421915e-10
1.86319787003015871e-10
5.26207029068442186e-11
9.47085617588930611e-12
1.29401191873482535e-12
1.49449228935399123e-13
1.4855931273613628e-14
1.26785454990432956e-15
9.20502623374127243e-17
5.59995938802727196e-18
2.7884878778299938e-19
1.09557534291585705e-20
3.19547309043945745e-22
6.15957178490784085e-24
6.92129406250274387e-26
8.8730891268834538e-10
2.76798222485638084e-10
9.32075897696450615e-11
2.13258481053950559e-11
3.48292519506669487e-12
4.71059653274402547e-13
5.46934665751554055e-14
5.47586352751681492e-15
4.7083877703695896e-16
3.44521330832988855e-17
2.11337241907276597e-18
1.06185270723491561e-19
4.21370861953559684e-21
1.24298032656860487e-22
2.42943876676390504e-24
2.56852106433029256e-26
3.44652637779972417e-10
1.33788443598785754e-10
3.92434131520424052e-11
7.7426770675491971e-12
1.23118176753304528e-12
1.66724518558118033e-13
1.94692064336397353e-14
1.9619218051210797e-15
1.69845633137979805e-16
1.25171885791804498e-17
7.73722511164134372e-19
3.91989978209476309e-20
1.56983920237348394e-21
4.67886596846155985e-23
9.26001979247662249e-25
9.24165439930144689e-27
1.76664510744477687e-09
8.79018245229414065e-10
3.55152758069288382e-10
1.58351702712946545e-10
5.92610694429315665e-11
1.42255022025922584e-11
2.67651886146889729e-12
4.23469174736398471e-13
5.75527455936231035e-14
6.75635816221105912e-15
6.84801200384735732e-16
5.96497767490147435e-17
4.4248761291080584e-18
2.7544012036183978e-19
1.40614242097292639e-20
5.67888916450983622e-22
1.7086272224536965e-23
3.4186995826106836e-25
3.39872308108300475e-27
6.7130441189257161e-10
3.21579764913785113e-10
1.65778007838565708e-10
7.42200683973900552e-11
2.16993947784616156e-11
4.85974868640989451e-12
9.01768205591580063e-13
1.42714516621528133e-13
1.9465213665760693e-14
2.29551704304033108e-15
2.33846657187112082e-16
2.04814410125797148e-17
1.52837636996889269e-18
9.57532393144975874e-20
4.92284542847157119e-21
2.00371736662986411e-22
6.0815948752235867e-24
1.22897282828463304e-25
1.23815213912837586e-27
4.57124100834234585e-10
2.99366235771976492e-10
2.16976436590469252e-10
1.32599601572087969e-10
7.06926677700221465e-11
2.46173824784997172e-11
6.5801394023641318e-12
1.44122389492214544e-12
2.66858201194230404e-13
4.23608851368291866e-14
5.80206105086869842e-15
6.8721713324793251e-16
7.03008388539269272e-17
6.18123423989423702e-18
4.62883077059033369e-19
2.9090075420640344e-20
1.49958240463805626e-21
6.11725434872548988e-23
1.85996015456816209e-24
3.7637635868653045e-26
3.79764868680702639e-28
4.25151812865676783e-10
1.3530878892704196e-10
3.40313456160629289e-11
5.58249123461441101e-12
7.22254434986466623e-13
7.97299834056057731e-14
7.59072363518586564e-15
6.20904576387929821e-16
4.32240933376617383e-17
2.5217447794229598e-18
1.20407667107965176e-19
4.53434560754688074e-21
1.26663753216919638e-22
2.33851636026586766e-24
2.18117313695456967e-26
5.54056405386538149e-10
2.05963571097632133e-10
6.58812221671853032e-11
1.35099846776323202e-11
2.08017618588161704e-12
2.68811870809725175e-13
2.9913638150335315e-14
2.87315435226856139e-15
2.37121191478542893e-16
1.66587249031994953e-17
9.81252102574630425e-19
4.73369390195934214e-20
1.80288947191871056e-21
5.10084930697303685e-23
9.55940440296941672e-25
8.86495348111856879e-27
2.59456030324311098e-10
1.01318410965264165e-10
2.65327486410724752e-11
4.91881185304976562e-12
7.4709209272801411e-13
9.70522570468273304e-14
1.0884350482897323e-14
1.0539122315273203e-15
8.7699348832213574e-17
6.21390689320108032e-18
3.69307181324068339e-19
1.79873527797795662e-20
6.92285559065885139e-22
1.98173766391369296e-23
3.7640639440940732e-25
3.5483481175633211e-27
1.27381045119955515e-10
4.23260474335731966e-11
9.54583834450910916e-12
1.71627904296271155e-12
2.60841655449881809e-13
3.40953980666873504e-14
3.85111489530977412e-15
3.75659174882772582e-16
3.1498202763999892e-17
2.24948209012072338e-18
1.34808209728478673e-19
6.62460686624862947e-21
2.57447058392233083e-22
7.44945528290535366e-24
1.43230510439154274e-25
1.36928903150998979e-27
4.40345533088540388e-10
2.48077576773902873e-10
1.3260559180046758e-10
5.50615363439240401e-11
1.51937283994617849e-11
3.26005869855410788e-12
5.82517830969649069e-13
8.88629105371020746e-14
1.16834261869082495e-14
1.32813111209775109e-15
1.3042394716886724e-16
1.10122402589431618e-17
7.9220605953528925e-19
4.78428115638975493e-20
2.37050192321223675e-21
9.29516838901707621e-23
2.71637579101339563e-24
5.28121482057792166e-26
5.11434294879498185e-28
1.97639170128535726e-10
1.2033924609667504e-10
5.91023128595411443e-11
1.99244276756263745e-11
5.13199327516048647e-12
1.08485190322697379e-12
1.93834496523657725e-13
2.96828409307795689e-14
3.92230586625421743e-15
4.48374455067427209e-16
4.42948613146112218e-17
3.76373381431803319e-18
2.72577505361368298e-19
1.65793234949771471e-20
8.2779360073816506e-22
3.27313677074683809e-23
9.65375588623964065e-25
1.89633805847099359e-26
1.8583790406512052e-28
1.68442200564251037e-10
1.25229744995948022e-10
8.77262929844653182e-11
4.85276622828004309e-11
1.92274093985714704e-11
5.95400422847882751e-12
1.50095681311555998e-12
3.16480358354564052e-13
5.67299098192874398e-14
8.72997181265573633e-15
1.15970893276281775e-15
1.3326870891658778e-16
1.32316424851048715e-17
1.12953840080405812e-18
8.2151878039441737e-20
5.01589591396752796e-21
2.51279315272705437e-22
9.96421172643492247e-24
2.94584152664278905e-25
5.79811110462571315e-27
5.69227212541352622e-29
1.28072002863219175e-10
3.58434188841183602e-11
6.61677119776118819e-12
9.5876130620259079e-13
1.18208777303463703e-13
1.25881924684409256e-14
1.15818575762967785e-15
9.16133440947746668e-17
6.17083849784154407e-18
3.48526745556574746e-19
1.61184058792254397e-20
5.88195412757757246e-22
1.59298436538937556e-23
2.85350116932535069e-25
2.52776601413690305e-27
1.68844282099543211e-10
6.05998773741177155e-11
1.40492126379502552e-11
2.43623818986996443e-12
3.52627423253575007e-13
4.38514565220845494e-14
4.71394136975750099e-15
4.37802192213905378e-16
3.49591932483728683e-17
2.37763549702772885e-18
1.35649065776608931e-19
6.34116747563671723e-21
2.34130054872580647e-22
6.42445300129746401e-24
1.16824653372250563e-25
1.05350682625556273e-27
8.18499445824293985e-11
2.40361893584961668e-11
5.0501700178600517e-12
8.64423113422474248e-13
1.25832818908263412e-13
1.57793725726666601e-14
1.71099864221210683e-15
1.60298816154891998e-16
1.29137517521142734e-17
8.86293924472484489e-19
5.10459756297740836e-20
2.41036762139408837e-21
8.99721715394787827e-23
2.49882323675976738e-24
4.60661091466159024e-26
4.22181142989290205e-28
3.31934020328080154e-11
8.52068899574787841e-12
1.74091241394741994e-12
2.98281414126071512e-13
4.37085003959449923e-14
5.52313586229169142e-15
6.03644129778861708e-16
5.70112452670773754e-17
4.63080693345175537e-18
3.20528476310672069e-19
1.8625091913829186e-20
8.87772241538820604e-22
3.34757935101788206e-23
9.40159422024830333e-25
1.7550067487205964e-26
1.63192118469163296e-28
1.32590778919164261e-10
8.39706222602155683e-11
3.72431287382621879e-11
1.16828053730382121e-11
2.87489873727162452e-12
5.84197066528188229e-13
1.00484932312511072e-13
1.4815865384383842e-14
1.88508254279319612e-15
2.07512709769226925e-16
1.97441996798701559e-17
1.61602125548572558e-18
1.1274236985939126e-19
6.60553042887179209e-21
3.17624194700924861e-22
1.20901597926756505e-23
3.43061672800582273e-25
6.47776062097629704e-27
6.1011727546100846e-29
6.65061202976465398e-11
3.43202161935601335e-11
1.30644965186198509e-11
3.89580684359204054e-12
9.46674416561195655e-13
1.92356345690805516e-13
3.32142336420032329e-14
4.92325387619884274e-15
6.30163157119029676e-16
6.98145299726785345e-17
6.6873798998772147e-18
5.51195288344626083e-19
3.87370223294597586e-20
2.28715170614626562e-21
1.10881778862037467e-22
4.25802263981978403e-24
1.21990363235111845e-25
2.32810296843889202e-27
2.21855905663238075e-29
5.82682383780177015e-11
4.09378078592198932e-11
2.33030024304719647e-11
1.05902941974671351e-11
3.83478429832279801e-12
1.12487534282473779e-12
2.72735692445518549e-13
5.5594703369191282e-14
9.64976403890074136e-15
1.4388916527942176e-15
1.85303561034273165e-16
2.06526998129192924e-17
1.98958285354444773e-18
1.64862165352638753e-19
1.1642934282321657e-20
6.90477053230199403e-22
3.36062928064539035e-23
1.29495898215627588e-24
3.72085868619075476e-26
7.11885789337660811e-28
6.79424135942671833e-30
8.86435248485942852e-11
2.73796612235834701e-11
5.66089186932206667e-12
9.22079445050201631e-13
1.27270783157925751e-13
1.51438473396889465e-14
1.55951974618083582e-15
1.38853994058850975e-16
1.06351194660578377e-17
6.93997216972195336e-19
3.79905482224750703e-20
1.70352595188487355e-21
6.02924015920954667e-23
1.58403776522887394e-24
2.75309947230591709e-26
2.37013503033193176e-28
4.06457012525845079e-11
1.04923987083770027e-11
2.05901255225245561e-12
3.35628927378627867e-13
4.67534353249910562e-14
5.61863687339531403e-15
5.84336481545904869e-16
5.25392446179989381e-17
4.06395083493251125e-18
2.67878206495814984e-19
1.48185020767134042e-20
6.71902642530861552e-22
2.40692536271048543e-23
6.40911354409354758e-25
1.13113762501769989e-26
9.91281136920679138e-29
1.55434754351272184e-11
3.71781273336942823e-12
7.22837207242835526e-13
1.1857327699814488e-13
1.66628979045413056e-14
2.02080807370890542e-15
2.12095181813426759e-16
1.92460377906476069e-17
1.50259477083491666e-18
9.99912009462066793e-20
5.58626169940930527e-21
2.55954682899059705e-22
9.2729020823425693e-24
2.50003113553576849e-25
4.47446781650683742e-27
3.98370199725507029e-29
5.4079091235951941e-12
1.26787325618663848e-12
2.4698251949222422e-13
4.07917410724492296e-14
5.77827087126924146e-15
7.06612474610251147e-16
7.4792732750419671e-17
6.84529691652379828e-18
5.39112668495018308e-19
3.61980724111948834e-20
2.0411863931532396e-21
9.44459462120362811e-23
3.45783914102146182e-24
9.43034069760152458e-26
1.70957242450915865e-27
1.5438684634725547e-29
3.63851232320273725e-11
1.74918769314250667e-11
6.31562247034324893e-12
1.80412819119461036e-12
4.21551884743292003e-13
8.24387766844140738e-14
1.37004355020010228e-14
1.95455493760256422e-15
2.40824220113899254e-16
2.56893210813731762e-17
2.36995303410763569e-18
1.88175492565915743e-19
1.27411904467194263e-20
7.24758338874154675e-22
3.38438790771011919e-23
1.25129555521045585e-24
3.44909673310357003e-26
6.3266780441473738e-28
5.78830546484052648e-30
1.33955122485181215e-11
5.93292610898473728e-12
2.08071630522222136e-12
5.89220025295952644e-13
1.37670321139340321e-13
2.70177885111042761e-14
4.51354712455227556e-15
6.47880527937044612e-16
8.0360873001319667e-17
8.63273451611422004e-18
8.02239232061845893e-19
6.41807618751339685e-20
4.37977649299100333e-21
2.51181307801614099e-22
1.18310206897633831e-23
4.41473192467653963e-25
1.22908975161960414e-26
2.27937311877435773e-28
2.11050618771621163e-30
1.14521758354070612e-11
7.42400432375157356e-12
3.97642837368342828e-12
1.71381143617687813e-12
5.94223463006190859e-13
1.67935013169826427e-13
3.93467283781317468e-14
7.76135902403653158e-15
1.30472444177358574e-15
1.88545139423605359e-16
2.35460235389490252e-17
2.54624150012960289e-18
2.38119148926350361e-19
1.91627256758348581e-20
1.31482163164913716e-21
7.57795200904529305e-23
3.58521193607663151e-24
1.3430670109041579e-25
3.75190762438974238e-27
6.97870742828283833e-29
6.4743140896488556e-31
1.46106145430774768e-11
3.39541087873958426e-12
6.2734623236103664e-13
9.75870840159158164e-14
1.3015141201486162e-14
1.49942371359578296e-15
1.49625471818974758e-16
1.29179231229781727e-17
9.59967326447424003e-19
6.08094810194004025e-20
3.23266074304643446e-21
1.40805722144417847e-22
4.84143942653876814e-24
1.23566758740085952e-25
2.08587337636744543e-27
1.74354076320857345e-29
5.44099266080922359e-12
1.22121601829795856e-12
2.26369463702270484e-13
3.55531348653349001e-14
4.79044478904032046e-15
5.57535789744901565e-16
5.62003349439442047e-17
4.90115700475718328e-18
3.67931621929433894e-19
2.35494928324544212e-20
1.26545502931986718e-21
5.5752538780932617e-23
1.94085511433735924e-24
5.0221463668980737e-26
8.61155345943516979e-28
7.32921502021913954e-30
1.90069353692841262e-12
4.2498958910443792e-13
7.93165965216164428e-14
1.25684668298997029e-14
1.70936101742325256e-15
2.00832879660197845e-16
2.04370199769642318e-17
1.79932795662346309e-18
1.36381877253380806e-19
8.81539328419639092e-21
4.78560273252088665e-22
2.13122686185896982e-23
7.50565945362817399e-25
1.96704435517350212e-26
3.42153626868892284e-28
2.95936904981488012e-30
6.4257575982774815e-13
1.44102300131954596e-13
2.70733990112179542e-14
4.32411154535516223e-15
5.93098497295931533e-16
7.02934840347027413e-17
7.21671349959846349e-18
6.41088087750392329e-19
4.90352168808662324e-20
3.19912220376716013e-21
1.75351661076206948e-22
7.8886627979216825e-24
2.80846544372880157e-25
7.44769435828930263e-27
1.31257920744156538e-28
1.15188931373769589e-30
5.37236223016239463e-12
2.29913021543324974e-12
7.77650220573662588e-13
2.1223141130290936e-13
4.77630563836605467e-14
9.02542459290023193e-15
1.4515949422097539e-15
2.0062783230049571e-16
2.39690421662121118e-17
2.48106864023627401e-18
2.22254469678976831e-19
1.71453864545498457e-20
1.12842602856938042e-21
6.24155136025880953e-23
2.83478246013050467e-24
1.01949460312423784e-25
2.73335720338490876e-27
4.87575312468430624e-29
4.33619053767006788e-31
1.78452732881991355e-12
7.51991943464468825e-13
2.52732580827569151e-13
6.89290261375406012e-14
1.55545199789885456e-14
2.95295809208149717e-15
4.77756101521984753e-16
6.64758918148382602e-17
7.99916365381867353e-18
8.34239589155621545e-19
7.5312019916027339e-20
5.85625956105729094e-21
3.88612914216309205e-22
2.16795410889368882e-23
9.93522328721759117e-25
3.60736026404771796e-26
9.77174086725942458e-28
1.76282670731711078e-29
1.58707874673632342e-31
1.53442973628951004e-12
9.80213554955840342e-13
5.1096287407094644e-13
2.13086633898733021e-13
7.13920658777715749e-14
1.95043080155267354e-14
4.42139889213207391e-15
8.44575192061673469e-16
1.37608208887365122e-16
1.92893624977892657e-17
2.33841253112657381e-18
2.45639673123347326e-19
2.2328015574564791e-20
1.74740948800818633e-21
1.16645819127799513e-22
6.54268463252590297e-24
3.01304669254317357e-25
1.09876183152233471e-26
2.98771031218029891e-28
5.40802747700116061e-30
4.88009431433928893e-32
1.34648700978863478e-12
2.86311575764388516e-13
5.07537512040331159e-14
7.6428769976019234e-15
9.88665015366839707e-16
1.10584547080347541e-16
1.07229008400378406e-17
9.00242728687859109e-19
6.5096680042195499e-20
4.01447670864409496e-21
2.07839423495512291e-22
8.8181186006755575e-24
2.95326559018831162e-25
7.33959763866118819e-27
1.20566279814510293e-28
9.79639461261594103e-31
4.80085709296301796e-13
1.02654536302708662e-13
1.83706110539928766e-14
2.79465194390008395e-15
3.65238746869174483e-16
4.12735013314299833e-17
4.04315247741823901e-18
3.42924278745201922e-19
2.50535799119187942e-20
1.56140523162697777e-21
8.17289910179918773e-23
3.50814888271452923e-24
1.18984271673234719e-25
2.99888695150654674e-27
5.00591211329583378e-29
4.14350429847878479e-31
1.66097017182067703e-13
3.57524128273232011e-14
6.45258704084526282e-15
9.9066711409308893e-16
1.30707420873480909e-16
1.49131797994425972e-17
1.47507043526493831e-18
1.26329779191507244e-19
9.32053951383941518e-21
5.8674245290136252e-22
3.10336366078784358e-23
1.34682438071049298e-24
4.62236109737994341e-26
1.18028855317911532e-27
1.99927644924392916e-29
1.68243905043388128e-31
5.60420848530056567e-14
1.21339656757907457e-14
2.20615441596268735e-15
3.41511920741424777e-16
4.54534521964919838e-17
5.23273654164587751e-18
5.22295466537536701e-19
4.5143713973565715e-20
3.36185597704833653e-21
2.13661429085616396e-22
1.14129918923089458e-23
5.00478169999683155e-25
1.73682711331858177e-26
4.48879085773952905e-28
7.70631193485568652e-30
6.58232275640461578e-32
5.27260505720150333e-13
2.16055012008401815e-13
7.02560815068952727e-14
1.84934212965147916e-14
4.02337353173795987e-15
7.36161838810042845e-16
1.14797524814168518e-16
1.54010823537653046e-17
1.7877879683468937e-18
1.79966699451719472e-19
1.56901490598752616e-20
1.17877838229949907e-21
7.55956030301916776e-23
4.07589447569113677e-24
1.80490616802261155e-25
6.32906968098096939e-27
1.65421046703090099e-28
2.87527283122605304e-30
2.48966310314480367e-32
1.72567541078607475e-13
7.01929859053891418e-14
2.27675961492652101e-14
5.99971825014133066e-15
1.30998959394833865e-15
2.40948023845942162e-16
3.7813452360766222e-17
5.10910449879444196e-18
5.9756245716029322e-19
6.06261896789776756e-20
5.32833948837767652e-21
4.03631294402166981e-22
2.61062051869242866e-23
1.42004799952508611e-24
6.3467596747248593e-26
2.24750388175267929e-27
5.93664508598323629e-29
1.04387120558697096e-30
9.1531448528261824e-33
1.51818029648203445e-13
9.57565478897349699e-14
4.86917611771845495e-14
1.96907467946910013e-14
6.38473224416336992e-15
1.68829573340667967e-15
3.70741738826088364e-16
6.86742234548979264e-17
1.08616827816286693e-17
1.47943273402428304e-18
1.74427187919661054e-19
1.78344471278703119e-20
1.57902756268776163e-21
1.20441584131654358e-22
7.83979081844643719e-24
4.28940069372995544e-25
1.92723827852665972e-26
6.85688493299204854e-28
1.81873139442817456e-29
3.20980766166932839e-31
2.82177536161240735e-33
7.83129875347737758e-14
1.60772181997376581e-14
2.76658327431898849e-15
4.05140652141076811e-16
5.10245778491881178e-17
5.56225731280900332e-18
5.2612719796427973e-19
4.31224123081245623e-20
3.04616617100908699e-21
1.83609880503127449e-22
9.29415302023873608e-24
3.85582917495859025e-25
1.26248637435952959e-26
3.06579123646055974e-28
4.91580716789485434e-30
3.86361453217481978e-32
2.80000596691139523e-14
5.79685024876540771e-15
1.00697771550758689e-15
1.48926266336432352e-16
1.89456948573518542e-17
2.08627875102346478e-18
1.99346231099927777e-19
1.65058153877064796e-20
1.1780522986779411e-21
7.17637896240083092e-23
3.67300646949628684e-24
1.54186252698646685e-25
5.11362069130136853e-27
1.25971345455411727e-28
2.05341646415624041e-30
1.64739434939546469e-32
9.7251547717556697e-15
2.02802359119237777e-15
3.55267347171062887e-16
5.30211501131923686e-17
6.80896360786333803e-18
7.57012216446372518e-19
7.30350230033760334e-20
6.1064320173187878e-21
4.40153548966797824e-22
2.70859086023888142e-23
1.40099092870334909e-24
5.94705672248563634e-26
1.99623985131771133e-27
4.98338532044477469e-29
8.24609850778428709e-31
6.73679133126733274e-33
3.29159288673897344e-15
6.90624881523448848e-16
1.21886254196051788e-16
1.83416626958335663e-17
2.37615780214622296e-18
2.66569832812860108e-19
2.59545343996375505e-20
2.19025325165240855e-21
1.59368256677109723e-22
9.90224535645417158e-24
5.17338218107262716e-25
2.21932092261283916e-26
7.53416839468399884e-28
1.90415662260692296e-29
3.19446695020448235e-31
2.65244769582495125e-33
3.43148431506300489e-14
1.3598254689094306e-14
4.2731494532985585e-15
1.08850589368589298e-15
2.29552902510104788e-16
4.07777665317785041e-17
6.18239864624695432e-18
8.07431561977014141e-19
9.13477205990536756e-20
8.97106140718210912e-21
7.63724356036975154e-22
5.60697392722580648e-23
3.51595060736678418e-24
1.85441355488461322e-25
8.0347983929080886e-27
2.75670934397875928e-28
7.04756485873594949e-30
1.19738278364445906e-31
1.00907860589936698e-33
1.12166663968312096e-14
4.41639168236546377e-15
1.38574119876074438e-15
3.53607115684910503e-16
7.48692279604295022e-17
1.33731134140503415e-17
2.04090593988922294e-18
2.68493223289647889e-19
3.06108710152888899e-20
3.0303796816754878e-21
2.6011188203756078e-22
1.92581112165092905e-23
1.2181399419371281e-24
6.4829216896240592e-26
2.83555090965278007e-27
9.82663095150292328e-29
2.53946590744662837e-30
4.36588957089834638e-32
3.73115120155201753e-34
1.01859871411566075e-14
6.3175125206368426e-15
3.13067854876579919e-15
1.22852812764782525e-15
3.8610447134045344e-16
9.900428111126408e-17
2.1105484568629233e-17
3.79991609822139716e-18
5.84880957200328665e-19
7.76171953626539677e-20
8.92544864353256244e-21
8.90931258376547293e-22
7.70741517699339175e-23
5.7483111884988756e-24
3.66066767244247888e-25
1.96028478300051872e-26
8.62213196962395145e-28
3.00297936133107206e-29
7.79486834201333091e-31
1.34540578707795187e-32
1.15514598189000763e-34
2.32764552761574747e-15
4.67318858210295366e-16
7.85284001488993035e-17
1.12431791827706499e-17
1.38591144967505906e-18
1.4801747337439514e-19
1.37293398012297802e-20
1.10434016000792485e-21
7.66094584828264977e-23
4.53704269456989838e-24
2.25717925894582397e-25
9.20389474593336935e-27
2.96106538624932592e-28
7.05998869448228557e-30
1.08215581732658652e-31
4.18686040785451797e-33
8.41029057526761666e-16
1.69885767529527146e-16
2.87937735761690454e-17
4.16058494772626812e-18
5.17766361874454722e-19
5.58369705210079656e-20
5.23021084465573003e-21
4.24904846292682142e-22
2.97772061530586205e-23
1.78212623053389845e-24
8.96456648990132352e-26
3.69894615232092073e-27
1.20557681666429388e-28
2.91674840991886126e-30
4.56779338805322066e-32
1.54493722670922315e-33
2.9458042971453645e-16
5.983070189276691e-17
1.02204765659647726e-17
1.48958473361965756e-18
1.87057483850231255e-19
2.03609224602854898e-20
1.92527944161085105e-21
1.57916803121372319e-22
1.11755630720085598e-23
6.75623891565932361e-25
3.43460475149702168e-26
1.43317304198654363e-27
4.72829519019912718e-29
1.15952656851554871e-30
1.85077964634298498e-32
5.53627588870159791e-34
1.0031526298342593e-16
2.04831815204162421e-17
3.52388396170636542e-18
5.17698042507259469e-19
6.55673617017527358e-20
7.20020776945042196e-21
6.87003185370088669e-22
5.68697798234762725e-23
4.06251508454358784e-24
2.47982869636553331e-25
1.27337965919411573e-26
5.37023413612398826e-28
1.7921010821729823e-29
4.45026643618562719e-31
7.22561211455015419e-33
1.93106014337955096e-34
1.22135849787573787e-15
4.41602627589525692e-16
1.34481493890319664e-16
3.33173045503405293e-17
6.83666443939313513e-18
1.18363951733511957e-18
1.75168651648048277e-19
2.23628057328816241e-20
2.47628799962391572e-21
2.38305648394453195e-22
1.99002116101450161e-23
1.43435489211653576e-24
8.83646446658506764e-26
4.58102716745727005e-27
1.95146395787428781e-28
6.58246749709966953e-30
1.65377764920683391e-31
2.72748892882930822e-33
6.57026018917827928e-35
3.81437466052849908e-16
1.43826029573051258e-16
4.37998418739459543e-17
1.08599803906574185e-17
2.23728801589048601e-18
3.89456046640317044e-19
5.80131241337224244e-20
7.45998699979160294e-21
8.32438563163041968e-22
8.0752993113570283e-23
6.79921843127981608e-24
4.94236044313421528e-25
3.07148709042047033e-26
1.60684826297730327e-27
6.91057034355040441e-29
2.35478466313023087e-30
5.98147502819242484e-32
1.00212900253209507e-33
1.90679217136025571e-35
3.59346629129625532e-16
2.16362849884882794e-16
1.03607335827540933e-16
3.96980771765946552e-17
1.21286514843129191e-17
3.02552923927945134e-18
6.28248352532183344e-19
1.10333053945403474e-19
1.65882059452054001e-20
2.15311030399305617e-21
2.42464380979413061e-22
2.37276362545503375e-23
2.01436236112230055e-24
1.47553608168625007e-25
9.23505842256707319e-27
4.86264627829302583e-28
2.10352143459298518e-29
7.20523526681459014e-31
1.83867930245207358e-32
3.11463968255471693e-34
3.03157661584612706e-36
6.87731515391535389e-08
1.69496237095676743e-08
3.60374839836661235e-09
6.74103336833658358e-10
1.18022663311747147e-10
3.17358373990341046e-11
5.53447239331906345e-12
5.78113678807123759e-13
4.99224330326299952e-14
3.58892635959302941e-15
2.09674738904672325e-16
9.58375080153293525e-18
3.2186921134266351e-19
6.78793947975632921e-21
3.63354615436932958e-22
1.09359233006649333e-07
3.06682378458416548e-08
7.43144966104417465e-09
1.55938643502854794e-09
3.10710074826038622e-10
7.65510965066442439e-11
1.76917812432461655e-11
2.41392596843121991e-12
2.48315380116119714e-13
2.14848533514308255e-14
1.54881099987070632e-15
9.08513037731771269e-17
4.17772032357221894e-18
1.41555079972189965e-19
3.04542901843224452e-21
1.42241149802090509e-22
4.83705391362152713e-08
1.32779281964367807e-08
3.16620827934379406e-09
6.92787798088906072e-10
1.59461711812616027e-10
4.54251147761508215e-11
8.20763319025963049e-12
1.00726477250058353e-12
1.03183101119358882e-13
8.93416921868200741e-15
6.45208469488723338e-16
3.79682514612606154e-17
1.75483246361755057e-18
5.99123219373149326e-20
1.31078104965976615e-21
5.39299402968560988e-23
2.07592552267460309e-08
5.59207428038380823e-09
1.32045140276561319e-09
3.00363418630929614e-10
9.21477378012788786e-11
2.25364848562700021e-11
3.37810457753172372e-12
4.06383679018331468e-13
4.15319840546518324e-14
3.59583876928109833e-15
2.59969222565935316e-16
1.53362372749837187e-17
7.11821061903309117e-19
2.44599772717217317e-20
5.42795951001652442e-22
1.984240613868937e-23
2.14868819454256909e-07
8.34679459497386194e-08
2.87007016922061215e-08
8.67205563906877863e-09
2.29260869254759817e-09
5.76074062777760332e-10
1.66170713633101601e-10
4.97990996446449175e-11
9.44415569464819956e-12
1.33291919340751499e-12
1.59030951409332696e-13
1.62175996717658375e-14
1.40320171549361245e-15
1.01501057489032508e-16
5.99890272663820892e-18
2.79402421756996519e-19
9.6534837720982241e-21
2.16883738143005998e-22
7.09656131093790717e-24
8.14110720707828873e-08
3.18903561021233187e-08
1.11446319487438344e-08
3.43745809344888883e-09
9.68747550542753147e-10
2.6189196119619318e-10
9.09022079393910927e-11
2.21879405243915529e-11
3.69040043071236628e-12
5.10868811468962123e-13
6.06301772976811457e-14
6.16752926169903323e-15
5.33008469071890982e-16
3.8556333494874931e-17
2.28177758704183133e-18
1.0658079075748822e-19
3.69981091861698465e-21
8.41858104435210759e-23
2.14969519072112457e-24
8.39143581059655368e-08
3.76711216316891894e-08
1.61385576680115057e-08
6.42901401404661407e-09
2.42248384226488528e-09
8.91776201112282084e-10
3.08789641153591846e-10
1.24241142994443411e-10
3.99663146382445314e-11
7.87085374657651702e-12
1.26120282380456845e-12
1.72912410865719358e-13
2.04256411377332493e-14
2.07008985817244525e-15
1.78289285449922641e-16
1.28540977244048217e-17
7.58178167222419406e-19
3.52942756381958588e-20
1.22087012818634091e-21
2.79532940107849325e-23
3.69018471542583941e-25
6.51655041343913625e-08
1.59702266559128363e-08
3.37600296782121425e-09
6.32973882082568075e-10
1.12099081686192109e-10
3.0157017642712007e-11
5.12134706456035838e-12
5.29182382544363917e-13
4.54719326806383084e-14
3.25388820737624787e-15
1.89283008696349315e-16
8.61757627341929804e-18
2.88406626942342607e-19
6.06783094268402854e-21
3.2240108901268807e-22
1.04232656918646328e-07
2.9057471589842164e-08
6.99931368902257898e-09
1.45989903259633601e-09
2.90261188767416014e-10
7.28171995517132535e-11
1.65899065582411103e-11
2.22155100617279264e-12
2.27202607936395159e-13
1.95631815568121301e-14
1.40390421887416456e-15
8.20019676881689437e-17
3.75607625517324661e-18
1.26823896027956618e-19
2.72164549126941293e-21
1.26273567901530879e-22
4.61033975378399647e-08
1.25773957515240409e-08
2.98052843553901529e-09
6.52195981680505264e-10
1.53435768180720949e-10
4.31844942370821025e-11
7.60618485597454763e-12
9.26278207499669716e-13
9.43851048501650786e-14
8.13384907386232018e-15
5.84828529443947181e-16
3.42723181930183009e-17
1.57792596095076149e-18
5.36857501814418726e-20
1.17149018591469179e-21
4.7910895215293001e-23
1.97794965344532495e-08
5.29399616814725048e-09
1.25180209979700513e-09
2.82305157867161607e-10
8.83141445910370309e-11
2.11726493142465388e-11
3.12406654206890188e-12
3.7355431255556047e-13
3.79849640786058827e-14
3.27366939944846071e-15
2.3566990160009219e-16
1.38468048055337583e-17
6.40274519767961136e-19
2.19262195123156628e-20
4.8527430542520096e-22
1.7644172110502656e-23
2.09006351220663956e-07
8.05484766905483687e-08
2.75050373180605299e-08
8.2560183934564609e-09
2.16852822933543144e-09
5.43406100512327843e-10
1.5933022400781614e-10
4.72036881007145181e-11
8.78917830486643132e-12
1.23152892129797426e-12
1.46140145087155058e-13
1.48312065862972988e-14
1.27756771585954244e-15
9.20345125919798031e-17
5.41834926606116732e-18
2.51440706974563898e-19
8.65827463169021715e-21
1.94004454417593781e-22
6.31898474799738049e-24
7.94393888382703306e-08
3.08414683662093958e-08
1.06977122441785603e-08
3.27730910692113005e-09
9.19181271050197807e-10
2.53422529848572377e-10
8.75367192488289451e-11
2.07953480530461539e-11
3.42783954214745227e-12
4.71703864749606137e-13
5.56993243804476474e-14
5.6398288987437597e-15
4.8533605395308971e-16
3.49707537950416815e-17
2.06197416303885436e-18
9.59749168322886823e-20
3.32076710437093916e-21
7.53594140941102807e-23
1.91816138472574025e-24
8.46316988259792843e-08
3.75043881944059736e-08
1.58681568215502823e-08
6.25596558241227127e-09
2.34712017504240098e-09
8.57300855023730478e-10
3.0216149329150121e-10
1.20793238220841222e-10
3.77305856719761038e-11
7.35042753169834664e-12
1.170002343718739e-12