/*--------------------------------*- C++ -*----------------------------------*\
| =========                 |                                                 |
| \\      /  F ield         | OpenFOAM: The Open Source CFD Toolbox           |
|  \\    /   O peration     | Version:  2206                                  |
|   \\  /    A nd           | Website:  www.openfoam.com                      |
|    \\/     M anipulation  |                                                 |
\*---------------------------------------------------------------------------*/
FoamFile
{
    version     2.0;
    format      ascii;
    arch        "LSB;label=32;scalar=64";
    class       surfaceVectorField;
    location    "0.119999999999999996";
    object      Uf;
}
// * * * * * * * * * * * * * * * * * * * * * * * * * * * * * * * * * * * * * //

dimensions      [0 1 -1 0 0 0 0];

internalField   nonuniform List<vector> 
20856
(
(0.114351684051337693 0.125112771013334817 0.0914679465774109746)
(0.109476657925683646 0.134230039400903445 0.095336674042289335)
(0.122078409458764164 0.142559846651964695 0.101410647307940388)
(0.112371776996221667 0.108915591922892296 0.0764073502242089281)
(0.10990284085082308 0.117922269900212651 0.0803785927909210357)
(0.106460120281335571 0.11019135356933496 0.0812321251912518083)
(0.12156076003567505 0.123343722754615581 0.0850650852422416559)
(0.107087710377471182 0.094883767775008121 0.0631055574880340642)
(0.106549939205224528 0.103287240465048183 0.06688260476703968)
(0.10346640607072928 0.0965522638254609766 0.067532204658506248)
(0.11679678085731994 0.106382876769724591 0.0704224926213690566)
(0.0997953489417727907 0.083195401989830553 0.051741883183540005)
(0.100669835639990421 0.0907743448942206488 0.0551549783422296963)
(0.0979831965681572936 0.0849561860404437069 0.0556321980316840103)
(0.10936587510644602 0.0921840085232196738 0.0577931354552575424)
(0.0914288145988431944 0.0736665083120134345 0.0422548093433804187)
(0.0932677138521365301 0.0803822642776704371 0.0452330310378366574)
(0.0909813771117459341 0.0753543657833205677 0.0455758446259813474)
(0.100481569232994769 0.0806378140817676364 0.047189696537506369)
(0.0825890228504804758 0.0659814064555843127 0.0344562056307129647)
(0.0850651932796167992 0.0718896629484842287 0.036990981463960057)
(0.0831561611496398484 0.0675174793905111703 0.0372332601152785547)
(0.0909641620306566312 0.07138238258983573 0.0384442965616254365)
(0.0736331758513900786 0.0598125545509127499 0.0281160109885981654)
(0.0765200861950596223 0.0650054547578107489 0.0302328529045930404)
(0.0749520234382498873 0.0611660864356144904 0.0304018850397760575)
(0.0812991146918630447 0.0640059955222265359 0.0313180172369124793)
(0.0647563475400963762 0.0548724536635424587 0.0230069515501013962)
(0.0679027657970640575 0.059449027659511211 0.024746542204466572)
(0.0666331720570161046 0.056036463646553597 0.0248630282027453471)
(0.0717474169877664603 0.0581377855786364695 0.0255632650602852091)
(0.0560529336680793827 0.0509272252762300939 0.0189250608447034986)
(0.0593623978761553817 0.0549796293671628855 0.0203319276433524959)
(0.0583482552406807548 0.0519056117186614263 0.0204110719657601032)
(0.0624341210541486114 0.0534743408848313076 0.0209528613141541295)
(0.0475574051027541841 0.0477938738606842328 0.0156969912171587046)
(0.0509712956891489877 0.0514021486979737569 0.0168133323397472931)
(0.0501726689837078549 0.0485944434740446865 0.016866134262486468)
(0.0534038395965011209 0.0497786171389357004 0.0172913424521758362)
(0.03926957329049615 0.0453325490933892336 0.0131805950707570684)
(0.0427547695778036085 0.0485636639748453988 0.0140432067414837918)
(0.0421366134959836255 0.0459633406899736738 0.0140775661682140899)
(0.044655473487043025 0.0468700640421463935 0.0144170253831740255)
(0.0311696970374552747 0.0434383002895607148 0.0112626653600532388)
(0.0347102218841061072 0.046347032126602912 0.0119015843782475702)
(0.0342431306472682565 0.0439056860865135457 0.0119231783959216353)
(0.0361630569639856334 0.0446134477907107474 0.0121999843577973617)
(0.023227241522141142 0.0420339736455365709 0.00985583692544008197)
(0.0268188915530037791 0.0446643766208226628 0.0102938545545410605)
(0.0264792567440032336 0.0423416248570946327 0.0103068045069986611)
(0.0278877424886521293 0.0429090868232673631 0.0105386718810016669)
(0.0154058138683884193 0.0410647526046832578 0.00889563728598079251)
(0.0190516155087682125 0.0434515620985657935 0.00914812845138876854)
(0.0188215232355725993 0.0412129006152895591 0.00915549510551567913)
(0.0197831644402204909 0.0416851982416211464 0.00935645184496228938)
(0.00766579719453327861 0.0404385087380139882 0.00832791285438244308)
(0.0113776445092200248 0.0426640919258956045 0.00841292466762146203)
(0.0112446775209839502 0.0404790606747435222 0.00841707946120369942)
(0.0118036968751980588 0.0408924325096720193 0.0085987319589111641)
(0.00378053024694587981 0.0421539304131393969 0.0080351781605112263)
(0.00373696908971746233 0.0400035830207764107 0.00803837304878236326)
(0.00392025706404901166 0.0403882655169025551 0.00821033842430904208)
(0.10635770243480358 0.126875127807163229 0.0842473202557994377)
(0.101724077811511257 0.13500303473055017 0.0875903472293347307)
(0.0984326077450573683 0.127157331069594204 0.0886089515622629359)
(0.112948754092636522 0.142648173226612079 0.0930756403186025483)
(0.10513162452610815 0.112083993537494014 0.0708538473337517183)
(0.102571236690325404 0.120252018221177717 0.074293333943407952)
(0.0995943198317441325 0.113237466675696993 0.0751529010178987739)
(0.113027601344563161 0.125406108293261209 0.0785822233673833526)
(0.100868308504467458 0.0989598537162699188 0.0589320256212351595)
(0.100041498628570508 0.106724481734822629 0.0622326175896205994)
(0.0973969847040237896 0.100540614525573571 0.0629145841976343767)
(0.109346677822152766 0.109836145123294426 0.0655218757002197921)
(0.0946194517045701594 0.087757897550711908 0.0486461261965264319)
(0.0951150819836756589 0.0948852670840671236 0.051662264266355104)
(0.0928201653791267678 0.0894757926059230185 0.052183257361251012)
(0.103125218462953624 0.0964561094997277713 0.0541528866378353374)
(0.0871967325751067113 0.0784256619885796147 0.0399692031584164692)
(0.0886422514308768533 0.0848388558400986204 0.0426305944981226273)
(0.0866881395409246358 0.0801074834739649994 0.0430183628832877182)
(0.095378729766812026 0.0853076981789373939 0.0445060492604352625)
(0.079160890521023819 0.0707594730044407844 0.0327676287378402126)
(0.0812682587585030897 0.076472703499559036 0.0350560269042878569)
(0.0796335389529889831 0.0723157109817859217 0.0353395670110421348)
(0.0868449241996765847 0.0761815922037251403 0.0364675986398480534)
(0.0708701489622602654 0.0645114929554800459 0.0268633841204614712)
(0.0734283539814733349 0.0695821780199560175 0.0287915770418877733)
(0.0720829495983449642 0.0659006092928213494 0.0289963188047726375)
(0.0779943345904732244 0.0687797328760959281 0.0298573464149584911)
(0.0625376627147840314 0.0594462064001898619 0.0220715182977177272)
(0.0653988747023873801 0.063947424471238995 0.0236679556563967816)
(0.0643077764892988762 0.0606527258244803219 0.0238143048468083436)
(0.0691049568437897138 0.0628069498173833562 0.0244774331256596735)
(0.0542802766793785765 0.05536129224584381 0.0182201991383963355)
(0.0573454578159907011 0.0593668401757781738 0.0195190495966298116)
(0.0564730365105357082 0.0563831220449567128 0.0196226967874868763)
(0.0603283899446473981 0.0580062746092103454 0.0201390401776411071)
(0.0461536300796553389 0.0520919503285833807 0.0151595478640723941)
(0.0493591174032790431 0.055669276043411639 0.0161947796767648207)
(0.0486719151439068271 0.0529328598423791929 0.016267512604129012)
(0.0517356870942224656 0.0541676085717227723 0.0166749088898120006)
(0.0381755818200172695 0.0495083717063891718 0.0127641960489742832)
(0.0414826348730286051 0.0527159149682219913 0.0135663016089341108)
(0.0409509256985087361 0.0501737231527647695 0.0136168691374833305)
(0.0433487391512336548 0.051125356835627557 0.0139435694951811576)
(0.0303411674457842312 0.0475109144733513039 0.010932773572735378)
(0.0337284596861663205 0.0503976175455940825 0.0115270808643205287)
(0.033327022105501071 0.0480052737048011144 0.0115619623575114738)
(0.0351604268322598182 0.0487522312271376282 0.0118293766189223465)
(0.022631826352694475 0.0460251113567239981 0.00958614608048973145)
(0.0260903717058650966 0.0486309022743288827 0.00999201230400483149)
(0.0257987605675978338 0.0463508749214439214 0.0100160465613720068)
(0.027147023787098417 0.0469525909800757799 0.0102407562055625324)
(0.0150209545882384419 0.0449974637187602333 0.00866541583302942071)
(0.0185495729489175733 0.047353990545451155 0.00889579854849095394)
(0.0183521452488183134 0.0451538734324093832 0.00891267746792685084)
(0.0192742892468049064 0.045656604757811553 0.00910792128997019515)
(0.00747710514011235092 0.0443278665311503534 0.00812018997375024698)
(0.0110838901665564569 0.0465237029799893467 0.00819134730595117572)
(0.0109697783993672263 0.044374622045807853 0.00820400200144802069)
(0.0115064533753708037 0.0448158594656798415 0.00838080648449801568)
(0.00368397267100905711 0.0459756304831322668 0.00782868626050574334)
(0.00364654169477231357 0.0438598075970823148 0.00783983402125199708)
(0.00382260930554777049 0.0442709565075297198 0.00800736656779289097)
(0.099124425901484764 0.128249448872166855 0.0776363609169433699)
(0.0947511714460991389 0.1355225888135978 0.08054480849386772)
(0.0918470057926381311 0.128461256844692728 0.0815192838710098872)
(0.104800063785901787 0.142552321651603725 0.0855144750610875026)
(0.0984424925375798621 0.114721172796556414 0.0656721041992767152)
(0.0958660149338644296 0.122135561868889256 0.0686659269476922324)
(0.0932800498602352895 0.1157674930678914 0.0695132459073194292)
(0.105282614656852985 0.127020009167062048 0.0725944171947400518)
(0.0949908132493269552 0.102467407243809122 0.054962856234740301)
(0.0939638821856348255 0.109631342772626358 0.0578551215241797714)
(0.0916931525602278086 0.103963896347903331 0.0585490605137555034)
(0.102429328630050692 0.112714299322987793 0.0609072347835780681)
(0.0896217765141091166 0.0917900361602453779 0.0456467325679513133)
(0.0898195676156880035 0.0984703980760371911 0.0483140938756015381)
(0.0878590815792390095 0.0934553961734378436 0.0488599918311471704)
(0.0971944652482496507 0.10014722877491461 0.0506577726607737519)
(0.0830317178333482009 0.0827249367882514353 0.0377174182439941469)
(0.0841485546090313397 0.0888209670690159464 0.0400939145891510626)
(0.0824825856135442403 0.0843860279417686099 0.0405113842129360552)
(0.0904258258340866761 0.0894554050503269527 0.0418826142863699888)
(0.0757319428207939016 0.075153296360835356 0.0310799752083355148)
(0.0775175796602762812 0.0806484303949033948 0.0331422140143176613)
(0.0761251011448452891 0.07671383927060485 0.0334555299349454521)
(0.0827725383916383395 0.0805380112155784922 0.0345047951447367551)
(0.0680691457336925765 0.0688948606013852077 0.0255961485778231704)
(0.0703308521193015818 0.0738182659158842236 0.0273480470422615696)
(0.0691851717972454955 0.0703045955937428163 0.0275801250507524028)
(0.0746762489902082771 0.0731886883066127925 0.028387600481609869)
(0.0602638904508298809 0.0637618096590527733 0.0211154869553089181)
(0.0628608624991854048 0.068163914138631071 0.0225761160235946855)
(0.0619320686427804398 0.0649978259754144805 0.0227463375598262948)
(0.0664180918964763639 0.0671789168874627057 0.0233726673470673156)
(0.0524477628602219026 0.0595830252946669761 0.0174936301349983697)
(0.0552815428586728996 0.0635206869247795514 0.018688733477569705)
(0.0545394804288120774 0.0606375450859007112 0.0188126361485911539)
(0.0581653777835097474 0.0622958591113513815 0.0193033223616296649)
(0.0446924949782605066 0.0562132261958922727 0.0146015334216265235)
(0.0476968066775459026 0.0597416906776506926 0.0155580977502725922)
(0.0471130641712949258 0.0570859076074373903 0.0156477544843028338)
(0.0500082657908238679 0.0583571443432703563 0.016036948840061932)
(0.0370308444007402329 0.0535343968475519155 0.0123291864242803372)
(0.0401630651917038936 0.0567034388019620195 0.0130721867970387314)
(0.0397122242517261095 0.0542277312106190026 0.0131368222339535833)
(0.0419870062213823433 0.055213971166848945 0.013450341997207212)
(0.0294707523033993606 0.0514538003813233141 0.01058631959558997)
(0.0327053859744430991 0.0543061945054494968 0.0111368663337275704)
(0.0323657181571792782 0.0519703653790238515 0.0111834926524939891)
(0.0341105359693231885 0.0527489004533068101 0.0114411171636096612)
(0.0220045735254170288 0.0499009173623765762 0.0093016647720060297)
(0.0253286201049528863 0.0524721236083956835 0.00967598898380730293)
(0.0250823821769733252 0.0502416897474734225 0.00970996906699498653)
(0.026368639758302552 0.0508719008454801072 0.00992716334741777957)
(0.0146149117074243686 0.0488245320420504225 0.00842173002141269854)
(0.0180234971326310514 0.0511428217973186883 0.00863056908458121989)
(0.0178570075141853551 0.0489876410441787979 0.00865608540889954182)
(0.0187383207232872107 0.0495162866957318329 0.00884529807963465621)
(0.00727812916156687483 0.0481174286083347891 0.00789984359270667034)
(0.010775903496734197 0.0502772261557382846 0.00795776850688411155)
(0.0106795989290782729 0.0481701525459443392 0.00797820641633088627)
(0.0111931102939340239 0.0486354946358099408 0.00814987173948827741)
(0.0035827756408295993 0.0496954922063668689 0.00761070728894825289)
(0.00355111106717498695 0.0476199784496310619 0.00762916402974362848)
(0.00371968058411785256 0.0480541857196014541 0.00779198565110855203)
(0.0925502813561216997 0.129325109056685289 0.0715743745246166241)
(0.0884460952136127687 0.135862645447729469 0.0741191994910688629)
(0.0858741048504499532 0.129489385039801563 0.0750476438563172227)
(0.0974852021052180495 0.142341544358063621 0.0786300082306346376)
(0.0922575906164506687 0.11691994134970074 0.0608489442725952817)
(0.0897183896313315798 0.123670138914077785 0.0634667333027921915)
(0.0874639170991875908 0.117884789662465295 0.0642929151664818482)
(0.0982260304944787693 0.128280923351222764 0.0670658129939807612)
(0.0894542809747470441 0.105490433536087599 0.0512063591650408767)
(0.0882958810344409706 0.112103012454585343 0.0537477227566147547)
(0.0863396958922094809 0.106907016586963804 0.0544400601910897258)
(0.0960086951562385688 0.115117969502761083 0.0565765323132592576)
(0.0848263111702052958 0.0953553653750089381 0.0427612758968012457)
(0.0847937553377023923 0.101607272970209828 0.0451226030840474607)
(0.0831176766028985103 0.0969622221695415898 0.0456794194956164634)
(0.0915820347680107449 0.103341609944198665 0.0473219308221332277)
(0.0789668793002755026 0.0866058961154087259 0.0355187103594745562)
(0.0798119026527170788 0.0923838635573511341 0.037640107508884163)
(0.0783951994674236818 0.0882355869488483657 0.0380753658938410705)
(0.0856517045173635361 0.0931400138898856172 0.0393388455129721273)
(0.0723355227912002158 0.0791871060751250799 0.0294102858482438237)
(0.0738429422317776196 0.0844526909916147456 0.0312662042417014632)
(0.0726632647463335973 0.0807392059629354064 0.0315998389699014351)
(0.0787817000019339075 0.0844884306790884138 0.0325745436886826015)
(0.0652597252574787373 0.07297482971162772 0.0243280144880331506)
(0.0672562904687733637 0.0777350384874098965 0.025916413549467214)
(0.0662885328773950566 0.0743925041024826594 0.0261686187368958302)
(0.071378060520730327 0.0772533278968425691 0.0269243545720745242)
(0.0579595380167566773 0.0678236351527473358 0.0201493625458554898)
(0.0603137997258902103 0.0721098391241037917 0.0214822533277070175)
(0.0595314203404172584 0.0690776930756455548 0.021670996246588782)
(0.0637154153530497674 0.0712632410187578752 0.022261125243893308)
(0.0505749109972485483 0.0635920515513077045 0.0167532010928439293)
(0.0531913604024841086 0.0674460427172078603 0.0178495726019830513)
(0.0525681541334746261 0.0646694992157360177 0.0179898149348328151)
(0.0559683211596349456 0.0663458285531575431 0.0184548662033586115)
(0.0431891191583797032 0.0601545762203621742 0.0140287511256847793)
(0.0460008678910155816 0.0636202330492951218 0.014909746637616678)
(0.0455122899329188577 0.0610510823869395564 0.0150134786664496596)
(0.048239802567157708 0.062345919190517643 0.0153842433817227755)
(0.035846787223405556 0.0574059312052855944 0.0118798667064859385)
(0.0388088503636456125 0.0605246360794944108 0.012565695075477527)
(0.0384329326204023228 0.0581210753442474651 0.0126423255524208515)
(0.0405842081249399023 0.0591322812432259134 0.0129423450903579217)
(0.0285668324145848668 0.0552613655542398136 0.0102265357219449102)
(0.0316506260988599006 0.0580697223957632597 0.0107345789587987902)
(0.0313685224330306767 0.0557956380866796442 0.0107914297711156487)
(0.0330237619376800989 0.0565984933104618781 0.0110389261078363329)
(0.0213513481418342033 0.0536552931691383211 0.00900489329638247925)
(0.0245405971141475637 0.0561841593454643282 0.00934857654930099091)
(0.0243368332603419897 0.0540081457710826912 0.0093913656854285113)
(0.0255600383273599518 0.0546612815622737752 0.00960071788829441712)
(0.0141914560224497138 0.05253961214197269 0.00816660757005263638)
(0.0174781051663367194 0.0548136799530242608 0.00835466183953232321)
(0.0173406513703133688 0.0527079586099556685 0.00838793289594862851)
(0.0181802757934022771 0.0532580850033510522 0.00857080810770811594)
(0.00707089619122326478 0.0518010114352880496 0.00766863220312568455)
(0.0104566478500224044 0.0539200015488026652 0.00771406076051154785)
(0.0103769079158006865 0.0518592898574878197 0.00774155194158567678)
(0.0108667098794803831 0.0523450002209797233 0.00790778806150621918)
(0.00347831283550154328 0.053309300388323641 0.00738293864105897622)
(0.00345163088239929189 0.0512782021259392262 0.00740805498499923134)
(0.00361251655444029844 0.0517320805438651263 0.00756587756135100337)
(0.0686019678259556231 0.162013218199247744 0.0983419459798386408)
(0.0613165182087000507 0.164859340846794267 0.099611084192324742)
(0.057800920475121427 0.15760614598954889 0.100078157905709508)
(0.0688418661688407069 0.175557928520615802 0.10679284064274043)
(0.0777864147381529675 0.152656397522221793 0.0872911694334257693)
(0.0713740003499113429 0.156890697913403487 0.0889950501724797449)
(0.0683218404085410291 0.150112582670485911 0.0897688260920830733)
(0.0794597994910757194 0.166203533622942046 0.0950416669277359683)
(0.083753274017560414 0.141719013630857232 0.0764111144875997683)
(0.078551301304945545 0.147012162491230308 0.0784499278610605727)
(0.0759063577084404806 0.140722477285176284 0.0793433208686981084)
(0.0868520175881845463 0.154681086757085029 0.0834667305235861356)
(0.0865526778237532407 0.130147725002412784 0.0660115582692443609)
(0.0827187960237188297 0.136072181896925881 0.0682501507470926055)
(0.0804310320762881975 0.130281275707885169 0.0691334009994520188)
(0.0908791621379413939 0.142020985471700417 0.0723493105934189112)
(0.0865405026087604362 0.118757458910999286 0.0563655117868117131)
(0.0840726695867611701 0.12492793844498834 0.058664064605691707)
(0.0820988485881256336 0.119652060331211729 0.0594625119281361331)
(0.0917803379862009022 0.129255887698415145 0.061962761453874915)
(0.0842541840820382054 0.10810555423861691 0.0476639666756211375)
(0.0830137389801036546 0.114217263038772124 0.0499029300933216055)
(0.0813253235457469109 0.109445096200061265 0.0505835509205329187)
(0.090052816277715067 0.117132182271705479 0.052522492424097858)
(0.0802477932542723926 0.0985150129748324083 0.0400014346961304404)
(0.080038647147605349 0.104362882326681269 0.042094334841570602)
(0.0786069871525313657 0.100060333931417195 0.0426517141934716071)
(0.08628859533844839 0.106114416754252566 0.0441534682406243342)
(0.0750263987499155266 0.0901120709591062968 0.0333876013911110422)
(0.0756475730786955319 0.0955779540299684649 0.0352811723090502433)
(0.0744474858029757214 0.0917025917105106503 0.0357248851835303138)
(0.081075115821918925 0.0964181715727617378 0.0368888669973158959)
(0.0689981136533974054 0.0828894443343036885 0.0277723319429248813)
(0.0702658114653483684 0.0879203736821463078 0.0294408385484936884)
(0.0692732801233142681 0.0844228940830228924 0.029786996699739967)
(0.0748984754352441939 0.0880715483246666264 0.0306916002437973429)
(0.0624667081386238096 0.0767686285618460196 0.023070652389141081)
(0.064227150200347527 0.0813549103259062906 0.0245082604460120472)
(0.0634177361065415834 0.0781835547961987759 0.0247744177951543555)
(0.0681266073459497468 0.0809979825734488956 0.0254806655922064779)
(0.0556460710481741089 0.071641029695914793 0.0191824633838346449)
(0.0577784154933083313 0.0757984645304473348 0.0203959746093436076)
(0.0571277739025406392 0.072903076978428849 0.0205985019597968305)
(0.0610212416264751534 0.0750739007381102247 0.021153465782039145)
(0.0486794075106105409 0.0673925363292889185 0.0160061181467557913)
(0.0510927404104833463 0.0711498669677945866 0.0170091814505001632)
(0.0505775079702642169 0.0684840728595297044 0.0171621972209637028)
(0.0537577940411858163 0.070163215232715459 0.0176020087315408684)
(0.0416575807852728811 0.0639168959653434315 0.013446690587409384)
(0.0442859624835601276 0.0673076918338436914 0.014255619797912485)
(0.043884544853219902 0.0648298614270459289 0.014370768863855958)
(0.0464469728657496486 0.0661365329336947305 0.0147231743441850697)
(0.0346342719414249392 0.061121861588567819 0.0114204073277903786)
(0.0374316255353657756 0.0641796133316255846 0.0120513448497047895)
(0.037124796429899326 0.0618530018007243804 0.01213799269514685)
(0.0391534132990278838 0.062880154690836576 0.0124244258052076187)
(0.0276374857959063129 0.0589312760927499027 0.00985661978615488127)
(0.0305730881062387001 0.0616866127127519495 0.0103236919776796068)
(0.0303443629217616043 0.0594789822712648991 0.0103892854035511281)
(0.0319100072231633669 0.0602992258881209359 0.0106264982696855914)
(0.0206778464442838004 0.0572851506451908105 0.00869834509245082446)
(0.0237328113170212768 0.0597643511471693464 0.00901248792345547833)
(0.0235686160489150601 0.0576473064826857756 0.00906295494661468921)
(0.0247284069237238453 0.0583179528616921197 0.00926428453336711373)
(0.0137542839514767732 0.0561390452026150066 0.00790211502999123468)
(0.0169177783087854118 0.0583632009851193442 0.00807026753549562083)
(0.0168075107643273595 0.0563113605932417521 0.00811039904599832398)
(0.0176050354857905898 0.0568785958210664896 0.00828675072144051048)
(0.006858018508759927 0.0553744164149678267 0.00742836719844483344)
(0.0101287134416268975 0.057447910423599112 0.00746209210787936866)
(0.0100646032740404415 0.055438045310668288 0.00749588728761647286)
(0.0105304012791310516 0.0559403958519730515 0.00765650877501509747)
(0.0033662430189849899 0.0568141528693187833 0.00714706748504539881)
(0.00334980874837924368 0.0548299689446157396 0.00717818145569512275)
(0.00350290969427071493 0.0553001068760756026 0.00733082556070471878)
(0.0647738200544992759 0.159805625236977333 0.090264188384965971)
(0.0582520209818018359 0.162474173805331579 0.091474633960267962)
(0.054943939989215658 0.155861229631635428 0.0919662735889182487)
(0.0651918686767163497 0.17213590840365206 0.0979331649298489509)
(0.0729717082722195209 0.151261953264144544 0.0801538086001144928)
(0.0672122911444215515 0.155144648198342255 0.0817047989339356739)
(0.0643747033771361332 0.148962966308520239 0.0824539566752279102)
(0.0745689524959506356 0.163541387186194792 0.0871592834600323774)
(0.0783996272307601189 0.141334729033390505 0.0702889641205534377)
(0.0736735456136534683 0.146145770370140149 0.0721027690460122744)
(0.0712509026353047581 0.140415404550122663 0.0729543539024726795)
(0.0811785275751603919 0.153104588578594936 0.0766481262666534324)
(0.0810669549333086353 0.130789850827207926 0.0609026570835399308)
(0.0775159451179883857 0.136185303888650994 0.0628755147503401446)
(0.0754563034714096081 0.130906394546440652 0.0637195075858458249)
(0.0848889885937884336 0.141649957272260874 0.0666106795182668521)
(0.0812529423605068829 0.120303246783248496 0.0522014829122015508)
(0.07888938511731243 0.125965578917568488 0.0542237454745965047)
(0.0771447967674892127 0.121138801308008387 0.0549935933413177036)
(0.0858800163370261604 0.130013858154216733 0.0572519950650668477)
(0.079375582995398819 0.11037302540901768 0.0443332982592708341)
(0.0781022769315550536 0.116038304720802288 0.0463086727772059753)
(0.0766316543405184125 0.111641433580297531 0.0469730957888553416)
(0.084525080867503169 0.118825509029448689 0.0487348391578504292)
(0.0758901023937266495 0.101315244274446659 0.0373740724544904049)
(0.0755581657012143332 0.106793882488527975 0.0392301897570596775)
(0.0743270989420306838 0.102798944866313455 0.0397819456945122177)
(0.0813049100082808285 0.10852374452158059 0.0411555615204738934)
(0.0712248207689850643 0.0932749002882708039 0.0313344094664329137)
(0.0716710128664064805 0.0984479699824855198 0.0330242440925584205)
(0.0706510762278899224 0.0948212249452602129 0.0334698534496707112)
(0.0767042124955584631 0.099332317435367426 0.0345418750894430984)
(0.065738476851944519 0.0862790688737231082 0.0261767670515808473)
(0.0668070773450156474 0.0910841816550304884 0.0276753632039236017)
(0.0659723456163099353 0.0877860555846089602 0.0280280186452499455)
(0.0711397092311258916 0.0913147991006296733 0.0288668137933868439)
(0.0597092067922429734 0.0802853734583352657 0.0218335826662145564)
(0.0612654217661214584 0.0847001604475582648 0.0231327026871237171)
(0.0605913356142268947 0.0816886730649605264 0.0234077042667083408)
(0.0649415640164307667 0.0844379580215173647 0.0240667889625718855)
(0.053340928198159554 0.0752163653088795819 0.0182226926760092021)
(0.0552752920509418863 0.0792439683806896444 0.0193252787072264315)
(0.0547386454621032331 0.0764776060198603669 0.0195374639528202027)
(0.0583546944744829793 0.0786173940326470033 0.0200584484163489063)
(0.0467761719027580194 0.0709824029702541687 0.0152586831016568603)
(0.0490036773438445455 0.0746404539442666465 0.0161741657584306905)
(0.0485829066325866449 0.0720800139028860559 0.0163367196527643144)
(0.0515507551514004514 0.0737485651207763354 0.0167518395922084951)
(0.0401100948160841783 0.0674953128450832829 0.0128602740602078523)
(0.0425671137809266534 0.0708082705883933683 0.0136009949680643456)
(0.0422426705466862132 0.0684178771142849862 0.0137250684064742709)
(0.0446439922726561272 0.0697257073244576531 0.0140593168856791347)
(0.0334029312335720682 0.0646756519336477709 0.0109546294995940176)
(0.0360434796903053994 0.0676698167729671007 0.0115332884655021707)
(0.0357981486933676846 0.065417255610143471 0.0116280466052312535)
(0.0377060514941997896 0.0664519737706815855 0.0119009145254134006)
(0.0266899879401257464 0.0624560667658042093 0.00947956011498021604)
(0.0294821396784095344 0.0651564923457978173 0.00990746864133060061)
(0.0293012403749849729 0.0630130779571032584 0.00998034055830516152)
(0.0307781021110615088 0.0638441326412825944 0.0102072017210239913)
(0.0199892105077530136 0.060782540857863665 0.00838441036650026429)
(0.022912173513510433 0.0632111357237586102 0.00867032149402760348)
(0.0227836163216799011 0.0611512900561940395 0.00872732429128824511)
(0.023880226834277804 0.0618342151501716647 0.00892052322270778242)
(0.0133064112549835349 0.0596150680210098885 0.00763024461338374874)
(0.0163474101443874878 0.0617891068418029224 0.00777951763976129397)
(0.0162615005953923274 0.0597896950007873809 0.00782558918444704009)
(0.0170169103319913403 0.0603697508549009693 0.00799529418555587103)
(0.00663544755063792766 0.0588384375471937976 0.00718079239447993751)
(0.00979831094193982406 0.0608603868407435605 0.00720370163853703387)
(0.00974473723320662226 0.0588989829230950404 0.00724301667594841325)
(0.0101864555023589275 0.0594142749030145065 0.0073978952460297745)
(0.0032518683872958319 0.0602051415426440098 0.00690486080888686599)
(0.00323517879122152451 0.0582842430889750282 0.00694116117301915581)
(0.00338046203145148235 0.0587673167980847025 0.00708849872319909906)
(0.0404068762611859075 0.167355828294366848 0.101741341072754454)
(0.0299121010120503711 0.16050447433510201 0.101919455838274428)
(0.0394695321746929076 0.177529543266559398 0.110184765169576843)
(0.033553096730008225 0.167446979913762006 0.102517596644757472)
(0.0517637086776985139 0.16374239968150725 0.0923156857384956758)
(0.041925548315408942 0.158595409595982145 0.0933179897968040295)
(0.0514887153975893547 0.17463965312109031 0.0999661794222940214)
(0.0450833352449574037 0.165136124100551118 0.0933382556927449675)
(0.0613059235066837072 0.157764515390266424 0.0829152445092377899)
(0.0523454520461801159 0.154230339135653483 0.0845786853919950482)
(0.0618545171000123573 0.168968647398079985 0.0898773100048102513)
(0.0550598280263471379 0.160352421051888211 0.084201866205565426)
(0.0686373749814180173 0.149961414287894002 0.0736537593798335111)
(0.060819694156433908 0.147895703729417544 0.0757964231702928926)
(0.0701640130911102833 0.161093133500593705 0.0799916128649305613)
(0.0631254140528256791 0.153576865804743085 0.0751820356720166866)
(0.0735609543086558765 0.140930282099431814 0.0646893196757991062)
(0.0670507808079252171 0.14009586840369781 0.0671220314746888841)
(0.0760776903545542088 0.15161979520138108 0.0704288090747562379)
(0.0689889167271338088 0.145338121908234114 0.066400074656751823)
(0.0760689462865753591 0.13130060645121136 0.0561966031413965311)
(0.0709329365442395998 0.131418147689474629 0.058746658843497862)
(0.0794725019375734087 0.14123714903652565 0.0613461498668881958)
(0.072553050723817486 0.13623214401931355 0.058011429162218589)
(0.0763799864912686616 0.121640562315988118 0.0483309353396008945)
(0.0725870209830616481 0.122426157647734166 0.050854228752459478)
(0.0804875585161827917 0.130608924211035815 0.0528951447982855885)
(0.073933537047278175 0.126831781427031248 0.0501663871843563147)
(0.0748226959277414061 0.112398146720186415 0.0412055642749947076)