/*--------------------------------*- C++ -*----------------------------------*\
| =========                 |                                                 |
| \\      /  F ield         | OpenFOAM: The Open Source CFD Toolbox           |
|  \\    /   O peration     | Version:  2206                                  |
|   \\  /    A nd           | Website:  www.openfoam.com                      |
|    \\/     M anipulation  |                                                 |
\*---------------------------------------------------------------------------*/
FoamFile
{
    version     2.0;
    format      ascii;
    arch        "LSB;label=32;scalar=64";
    class       volScalarField;
    location    "0.600000000000000311";
    object      rAU;
}
// * * * * * * * * * * * * * * * * * * * * * * * * * * * * * * * * * * * * * //

dimensions      [-1 3 1 0 0 0 0];

internalField   nonuniform List<scalar> 
7340
(
0.0127256679459743244
0.0141186196918667607
0.0152355411299164474
0.0163435142926144847
0.0178073032429472422
0.016133069113560234
0.0127546900772031371
0.0101078523970831134
0.00965171195712864922
0.0105429087954484451
0.00964990686231401162
0.00808814573685438798
0.00716945381599054347
0.00285128838605878824
8.50930648352767619e-05
7.73130299548847369e-06
0.0124592975394566836
0.0139004724858888852
0.0146511530892140217
0.0151308580346373577
0.0167416715638738674
0.0136070423594284763
0.00920865406765662697
0.00547455220064553636
0.0054940928453385586
0.00724748565175113192
0.00678327116553065733
0.00656659529275067499
0.00721836026955513087
0.00343416385974386817
0.00010926223666840731
8.24626018339027829e-06
0.0125328997067404302
0.0134097477011250014
0.0137047562237710887
0.0145986301114892896
0.0154308925782733683
0.0108452943891501202
0.00506270343303633422
0.00253460814167263482
0.00343491473419554622
0.00470051238460235474
0.00482650912612217747
0.00569800453338535715
0.00757313954647096527
0.00425871742450375634
0.00010345094758227604
8.77911189774533711e-06
0.0124233667704538742
0.0128280217903142535
0.0132345689635114238
0.0142744006323065505
0.0135265572413486596
0.00798997606411388887
0.00336282220905840352
0.00190082918785254291
0.00248660858262361902
0.00324908971669963945
0.00353663528051714575
0.00523958981157795697
0.00810143880175346297
0.00485070241466928256
8.93668128957923031e-05
9.08227441019962828e-06
0.00973422135421376372
0.0107117168024827153
0.0116528541995471469
0.0121973891519299507
0.0124599658040365855
0.0128957980585625766
0.0135819639668105716
0.0116673751922461624
0.00660925410025405783
0.00253607216477769746
0.00161575253228162939
0.00177246244462845996
0.00213860463775075293
0.00270757931344415117
0.00506490974951475086
0.00860549261949208194
0.00518664128140467352
8.239269887681679e-05
9.4247804043370933e-06
0.0101402933877626136
0.0110464129539141077
0.0116970866166781658
0.0119661713207142653
0.0121685094142466206
0.0123426197003386768
0.012343326395782556
0.00984222506998770966
0.00525200592570034333
0.00227409650215330611
0.00157033924651040326
0.0015536971035752592
0.00175986572625814867
0.00243434272205399552
0.00520885474565221159
0.00916272944807455803
0.00512050930599540315
8.98083538192482374e-05
9.87407328583791761e-06
0.00917440864967284872
0.00981410200216349671
0.0105413139797914494
0.0111928919978986456
0.0115849702859060575
0.0117741447306517061
0.0118092445276200622
0.0115909126817388616
0.0109451575951217354
0.00840441228259746625
0.00360322845752735757
0.00178985911438682725
0.00149979518772833153
0.00165222307683422884
0.00180485130352028389
0.00253937854236504362
0.00606779647401110758
0.00728811288531290569
0.00170302390384129317
8.54817681360154236e-05
1.06173570931963688e-05
0.0131880255283699146
0.0146359161908822654
0.0161489504484034034
0.0178768465673190755
0.0191250606696903441
0.016492193344344909
0.0132406281205247472
0.00922408618477156723
0.00695497177969217704
0.00445274482473544553
0.00285324947771716008
0.00312386491210641043
0.00186076163845228263
6.5943836754375968e-05
7.86308065660839356e-06
0.0117096066287941704
0.0132134975394326264
0.0144048963262701779
0.015349962213364543
0.0176107885066684317
0.0174599559684450178
0.0140823256913290718
0.00828379631560998211
0.00529616505798008973
0.0038448084027651935
0.00284125727050543947
0.00222490102776579926
0.00313303749901030527
0.00248777292558284048
7.66319259226616822e-05
8.2198855570383171e-06
0.0120813801489604872
0.0131063097349468603
0.0137596963131500251
0.0151148436676047208
0.0175073066183856416
0.0147484042955755602
0.00940329747704586431
0.00394822485913081788
0.00256298829711096255
0.00223772841330711946
0.00196662904563352312
0.00188115981288808137
0.0033581394237139758
0.00329836917060617046
7.90568463208415293e-05
8.51308787971619223e-06
0.0121739736953206668
0.0127438501148771696
0.0135021116740841936
0.0152526019800366796
0.0157655602688345636
0.0113777666590718345
0.00563740635848009736
0.00210187068116823297
0.00133607773503260875
0.00120832358700017771
0.00139999809190183549
0.00164163605851540013
0.00402715972528642097
0.00351442047522047309
6.92456998786523524e-05
8.79872886213289949e-06
0.00947467041606921481
0.0105013435046059644
0.0114636339819504472
0.0120834291991033949
0.0125492703340388846
0.0133773194941713917
0.0149614689430288862
0.0131757761210880894
0.00850094694754240619
0.00352105459030798091
0.00140727828105165578
0.000848876935601971475
0.000630609439289684238
0.000887589482660919738
0.00145029639227576483
0.00489866377009712597
0.0030252852521716533
6.70667108453316241e-05
9.17985345159732488e-06
0.00993605480393145758
0.0108862315957164307
0.0115894453297470511
0.0119617694448414993
0.0123652019929714318
0.0129978983021768659
0.0138992115497705033
0.0106628174655542425
0.00640386106648809742
0.00300225889812759947
0.00122746816310081715
0.000727271490621374294
0.000493027879798854695
0.000672932809617506067
0.00140684448310164135
0.00577427435383997753
0.0034569212274829929
7.5094882698927023e-05
9.82692027021931116e-06
0.00898499052092237467
0.00963116591492776085
0.0103881254119182007
0.0110794185698836357
0.0115182326460675655
0.0118163664742596593
0.0120695508599277298
0.0123225137378021547
0.0123344309943283006
0.00848200648490637053
0.00459980239740703442
0.00208219232048467359
0.00108605388226891354
0.000710897018553507303
0.000542774802780288633
0.000778754275602894014
0.00174320563699419074
0.00638612619469504372
0.00322599251187094494
8.51495578306326592e-05
1.04875826253363239e-05
0.0124816659182312214
0.0140592387077777079
0.015800700617198845
0.0176612850975682023
0.0193734810067944345
0.0188870915575869991
0.0160721297893383283
0.00976371472133404431
0.00448712927562803978
0.00183762923810601355
0.000964124298431814756
0.000862950426188463233
0.000788153821357597158
4.62954512333217069e-05
8.15602038334696022e-06
0.0115528770493593478
0.0128525450783531052
0.0141744906658735764
0.0154420707293836858
0.0176583007615750479
0.0196914231816267132
0.0185022502476928745
0.0132193342636703869
0.00605306943167717351
0.002476327315902257
0.00119171697156857537
0.000726028090737352617
0.000753562939401805957
0.000875873646897243883
5.38415594323806912e-05
8.44050922996035943e-06
0.0120526477006946912
0.0130022064995947966
0.0138187171883932085
0.0153677444814257179
0.0184919303019325243
0.019053080386416562
0.0169289705489224299
0.00906190927643396246
0.00295995825953507524
0.00129537378298020135
0.000801843362920193464
0.000572653457778151439
0.00070096282861386043
0.00100408732626546156
6.29308752855814771e-05
8.76481547627412628e-06
0.0122335510773093452
0.0128502373793163583
0.0138131193894447703
0.015789194613229373
0.0186696785012334006
0.016240249635284771
0.012041245817546788
0.00434227255397812931
0.00137530690782434973
0.000641861471387605896
0.000475286668053292159
0.000413103140722857905
0.000684592032697993653
0.00112127154346836544
6.1174762645952596e-05
9.06461573650739297e-06
0.00958480009521309358
0.0106237047397246855
0.0116071994064061868
0.0122612153795267284
0.0128695380892412739
0.0139284154145789887
0.0161482422393160949
0.0166359827500675815
0.0123843933916748267
0.00726834306633696546
0.00225343586204978597
0.000676053016834476982
0.000370058530728287097
0.000256175391863179417
0.000286665202374324188
0.000665509450506171756
0.00108435295858075775
5.49141116240204886e-05
9.39590018805232837e-06
0.0100808644280401451
0.0110266511628587388
0.0117713047035530021
0.0122524519882882023
0.012841636126003534
0.0138951332121864859
0.0159436062231093807
0.0136650300232321886
0.00907385295780615588
0.00515377118245091085
0.00158798900068979777
0.000524775102061285099
0.000305632936329127477
0.000211494292045851564
0.00025464749963132003
0.000756819099595903186
0.00100987904931293501
5.06080513712250574e-05
9.79164517411248699e-06
0.00930939443728471226
0.00983071868143243349
0.01056717536835583
0.0112594648406271133
0.0117314487095008923
0.0121671162322682935
0.0126847279184373329
0.0135673577737845073
0.0149686287825793168
0.0106219247363520605
0.00630391024532356639
0.00351707694210242824
0.00124670327052451343
0.000482269935352422428
0.00029327150888289118
0.000236257236073094529
0.000336455619462926907
0.00103374279873983104
0.00114899906381848559
6.02869908583151753e-05
1.0348667108069855e-05
0.0112365532347385166
0.0121933362144145997
0.0134830006409269038
0.0151048364799298233
0.0168702395928318101
0.0182003039775338535
0.0183847613835806563
0.0172207605305045759
0.0110163520444579548
0.00358486958653011795
0.00111633436086404489
0.000431814686436930825
0.000220252311297447527
0.000191066971083217869
3.10878258971809425e-05
8.67982219867122676e-06
0.0116150511611491369
0.0126105181758566637
0.0138355319570641171
0.0153758315833452466
0.0170768205793680392
0.0182259648969362378
0.0175871886031796452
0.0153566245747788904
0.00728495196359473483
0.00224460432718014179
0.000773007731242033973
0.000314785397053495431
0.000173423672467770131
0.000184951888824789605
3.02915654239592727e-05
8.86094481064170524e-06
0.0121000109515721384
0.0129599396701347794
0.0138976879264852502
0.0154437171710215104
0.0179036796339456863
0.0200221431669945632
0.0180160141419874603
0.0128372408083956609
0.0048228571647292804
0.00145489769753058247
0.000516974867553174062
0.000227347775119076864
0.000139455816650732687
0.000172345371531007122
3.43290655666792251e-05
9.31455549435695012e-06
0.0124877337282683493
0.0131717643684264099
0.0141794714082901369
0.0159138254987022179
0.0192348565965537489
0.0209578528358762076
0.0187912267432490607
0.00941766945510593041
0.00261535267697857047
0.000760446794976484724
0.000274520985814133824
0.000140498729527150816
0.000116322348751969471
0.000170597562835130126
3.40061111727329451e-05
9.60400781796669896e-06
0.00977217077823407457
0.0109137005828710276
0.0119936978246591944
0.0127533057664599488
0.0134479712649470326
0.0145534898710642895
0.0166533909687573041
0.0200217623240782523
0.0181274424829680064
0.0135615085270872592
0.0052034652996321689
0.00127602774505569975
0.000402049554484147479
0.000164844642526922248
0.000100468426338710701
0.000100549142254524663
0.000190440171118290462
3.55624246401906686e-05
9.86259227401356518e-06
0.010373835378200481
0.0114326176803012693
0.0122744796744919775
0.0128835762525364578
0.0136252744490396697
0.0148544443102467585
0.0173051913172789784
0.018372529824407232
0.0144410869877421542
0.009516493191722682
0.00315570073884222264
0.000886735814976571295
0.000278707435053016886
0.00013397016890034314
9.71093385949302459e-05
0.000109313013808515219
0.000198032821220690494
4.30066730089245718e-05
1.0290715808448649e-05
0.00959067398671953342
0.0101281493259937003
0.0109193040543344635
0.0116890395734956989
0.0122802880499607511
0.0128824979505768236
0.0136410433529329782
0.0149813491582511931
0.0175880398821161334
0.0151760849368852268
0.0104267633414605338
0.00628697918152224151
0.00212642903752270542
0.000694808747714932714
0.000243700212629753392
0.000136215239582139957
0.000110101305600326696
0.000171074894967749902
0.000213939489851924065
5.62189557932488574e-05
1.09723860263977109e-05
0.0114234996291467817
0.0122183431428140657
0.0129256268482280008
0.0137016049858504334
0.014582185891421795
0.0152467094364127503
0.0153058599508930429
0.0151153756115142649
0.0127559388524926265
0.00494464047908189323
0.00135330565157961509
0.000354005555115848481
0.000116014372675238763
5.47497003234084028e-05
2.32352989065661384e-05
8.68757203462359628e-06
0.0109456206597406576
0.0114516317300910019
0.0118830452998347543
0.0123290140049067964
0.012788546806964389
0.0129975622066887883
0.012865661215519502
0.0120992657178719144
0.00951611156118713566
0.00354337728463840866
0.000991108674592599539
0.000270211683200404526
9.1002456736335351e-05
4.2835834534457685e-05
1.71826483484235996e-05
8.89490622254164716e-06
0.011280085378494004
0.0118444298393081491
0.0124056883701885012
0.0130480961264918989
0.0137497957611278868
0.0143634216822850474
0.0140881193715036608
0.0129727339289871062
0.00886629255325685657
0.00272865529535618349
0.000711592437947563888
0.000195313480374545011
6.79946381575036066e-05
2.931463264769779e-05
1.43456025741038502e-05
9.39957854547928445e-06
0.0123232990545034393
0.0132593632960004044
0.014376330342570371
0.0158076097364739689
0.0176716908377693438
0.0195129097175209404
0.0195395933723732478
0.0180566472502086961
0.00810985660249794946
0.00173371238992831847
0.000432933401448389976
0.000118070075206449195
5.08403143953107373e-05
2.75078790420690371e-05
1.62055937882486781e-05
1.04184959906224366e-05
0.0101200410081720704
0.0112343533100414759
0.0124780485740136147
0.0135391012727136099
0.0144204832325769642
0.0155414321927962208
0.0172444938106058182
0.0203373587938140039
0.0231919299143593938
0.020863704845071173
0.0169039013182880025
0.00460892930392256799
0.000958968279443502773
0.000245603826986440482
8.32939698655759428e-05
4.56497428212144878e-05
3.99293821549748777e-05
2.08725526311857057e-05
1.10516770473817085e-05
0.0109160208593715481
0.012097817643842981
0.0131673466659998992
0.0139988248573798546
0.01489241726211709
0.0161707672478193648
0.0183329728984271412
0.0222428377483291778
0.022007493907854319
0.017277058459668513
0.0112216762880327156
0.00267599191646791974
0.000592820519992487091
0.000183399922241748325
6.41059109623356592e-05
4.97276013182865322e-05
7.05163570841547803e-05
2.99303263614306711e-05
1.1503418418066877e-05
0.0100975488260008003
0.010719269813118255
0.0116149220490785795
0.0125083155200315377
0.0132442441510032087
0.0140528036004983863
0.0150362226511328665
0.0165750917774611164
0.0192568549890900984
0.0217075965268619005
0.0182197804271590873
0.0122033066185178452
0.00715095051526625381
0.00161154460702331629
0.000422713883307996316
0.000156627157591147112
6.71236792307100348e-05
5.96227467304865128e-05
8.94177983442165147e-05
3.93765853732619045e-05
1.18197135567329911e-05
0.00801685533102126924
0.00810043866095605872
0.00811769443945943581
0.00826407536371929173
0.00848358177316668564
0.00863137617870321332
0.00872598268893893386
0.00855744990968473201
0.00814428999430855463
0.00729080865276335918
0.00456906457046517191
0.00103820627416196447
0.000176269176589784302
5.02832039403336482e-05
1.41329452238490727e-05
8.66850371465175016e-06
0.0074865871558535595
0.00731509390026834853
0.00711193852309341748
0.00701468338975303959
0.00704617096013491692
0.00703359751796794452
0.00707663622310053184
0.00705847732193568694
0.0067224739342943143
0.00556977230659106044
0.0035662764009116131
0.00072475178522903006
0.000139493358822959546
3.53183909631783928e-05
1.15498681073575976e-05
8.91709668842701598e-06
0.00793277547261777086
0.00773386543648285369
0.00777910188765115057
0.00789886461346120221
0.00768210585511500121
0.00781769436052162647
0.00792304124415479927
0.00772502418777197292
0.00741958746040426859
0.00587820723079095827
0.00286449281930333281
0.000441971879462897134
8.98400072415231842e-05
2.17020409866902515e-05
1.13402085198071254e-05
9.12223137353744905e-06
0.00930152127366545151
0.0096281323469059963
0.00997334750633749843
0.0107193244889834775
0.0117635520724745524
0.0133293319944969933
0.0149025159527026111
0.0153719790937507112
0.0139434797181551256
0.00776956265091035495
0.00177714318622261471
0.000269901942008680333
6.3934861700720911e-05
1.75091504898184569e-05
1.20403302590991566e-05
9.6604799463350303e-06
0.00939149589743194096
0.0100939076525753749
0.011003257111027627
0.0121055357158785151
0.0133127453454938774
0.0145910095834249996
0.0158811236077847674
0.0174105772341899626
0.0187201556919149061
0.0189785781237079773
0.0172025645655290646
0.0139204923910689511
0.00622902116253087196
0.000905316136270092734
0.000178894918889056152
5.46446922022814292e-05
2.01015121850025532e-05
1.26500068719528096e-05
1.03204565400286035e-05
0.0106883529080190245
0.0116276921988490677
0.0128673807107286039
0.0143718242213458254
0.015893377681317062
0.0175087283319064063
0.0190790014315267327
0.0204506340222474249
0.0210884296859718962
0.0198010387549476287
0.0145199147981785858
0.0105735230634147713
0.00295810233063187409
0.000508296144014344924
0.000126538868429397825
4.63268692172836432e-05
2.0754374352087562e-05
1.34589936857742441e-05
1.11231190434566007e-05
0.00970225877947311632
0.01033361212424669
0.0112093507738441293
0.0121966875637296093
0.0133617635356183418
0.0147832040534480891
0.0163754544031196082
0.0181463133433841101
0.0202349695980664317
0.0220210728277253145
0.0217710603045925752
0.0168503692220172592
0.0109583512199295883
0.00798578824070073599
0.00141174978801779437
0.000302503029247342531
9.65597944616758842e-05
3.65685610346930202e-05
1.86879780388717966e-05
1.44642144607919503e-05
1.1961687244140273e-05
0.00231705955786395751
0.00221258083744497449
0.00212843713406760462
0.00216430031919551211
0.00227191934084781206
0.00236008091875675218
0.00226296959796113556
0.00213135244781364466
0.00210538482016847054
0.0021005209552196172
0.00186596081036949336
0.00115378219419461601
0.000614644702386195449
0.000134172710023949007
2.03259803295203467e-05
8.67357822326752492e-06
0.00186183343419448681
0.00163866341464911761
0.00148359758492548513
0.00143053095972857044
0.00137801369868628025
0.00133317703896742397
0.00139941907970345916
0.00146232602027719389
0.00155918921136993099
0.00166949523332963036
0.00164234033340243885
0.00121173360659432251
0.000704819866171820224
0.000118991272623579825
1.62980679266145747e-05
8.87554464816358594e-06
0.00241540891405765071
0.00221863956780010349
0.00206653159071220911
0.00195008951182362136
0.00189943834824850429
0.00193212720050842178
0.00209261326908835197
0.00238810628551423907
0.00274915329773914177
0.00264519179371425174
0.00174405917317469058
0.00130520920661570295
0.000581826948928759594
8.87825579710374476e-05
1.29166392330975931e-05
8.99185671573540591e-06
0.004791417957207212
0.0048216445762289074
0.00493339312487928779
0.00503265881175506743
0.00530785004917509826
0.00550517564157992217
0.00580642208768054804
0.00612960024919481129
0.00550169918457890997
0.00346170452907227982
0.00205666828610433878
0.00140277980364669438
0.000376244973197910251
6.84777302511492249e-05
1.17070902831458816e-05
9.54885567692127867e-06
0.00669431618887533861
0.00672978873614287453
0.00658154486861414149
0.00657780341204561043
0.00680187237589173228
0.00721500519653165643
0.00765888872510574453
0.00805105852520521248
0.00827575521250545516
0.007951672916203004
0.00716206493007928279
0.0055229270170391127
0.00339228252489812534
0.00230082408568663133
0.00124333391910797257
0.000225674927175645269
4.97192959546040341e-05
1.19886411198314616e-05
1.03435006573548521e-05
0.00570525654168017784
0.00578874586762704191
0.00571268208248210032
0.00571417389064539545
0.00575676074047648968
0.00582461661625776651
0.00597315552215073407
0.00605078160482189296
0.00603784614382280212
0.00593738535947865506
0.00575478715275990361
0.00450806593987890421
0.00327692381067794204
0.00239876740543953264
0.000731644546363466449
0.000145847544461574134
3.59906767770358675e-05
1.22339727844016e-05
1.10514806793792292e-05
0.00460876552929611726
0.0047565383761915634
0.00504497031853279581
0.00519816656504266082
0.00518390890527959444
0.0051644257720562638
0.00514007448311649788
0.00508495000163127018
0.00518593423681275485
0.0053566979099484921
0.00544843184408250452
0.00572113575122338344
0.00571940690353430013
0.00439502886285173932
0.00353801113172173875
0.00187904203794457916
0.000362319291309592224
0.000102288773866902885
2.68195014164028867e-05
1.28702236816368289e-05
1.17443341453898342e-05
0.000301693191857536327
0.000271613803503729348
0.000245690333324813295
0.000246615690110240759
0.000249585659765071545
0.000252673199276060685
0.000253487322105019246
0.00024079883862842031
0.000226670827778809064
0.000257395122969672312
0.000485283111743049095
0.000397565970300458422
0.000275867995164114478
0.000137796218567936597
3.25287568718023038e-05
9.57048562604532923e-06
0.000364652007494491333
0.000335478761707037074
0.000320543457983852459
0.000319003008766996564
0.000323647004740000533
0.000330045038191532729
0.000338018728079375423
0.000329531346493070441
0.000348777753535000875
0.000452794983332828916
0.000637490043608371251
0.000502669767049419283
0.000343461968561649704
0.000180345913593621431
3.22379225978380076e-05
9.86295157823727146e-06
0.000596340167390373588
0.000579897052798652936
0.000575473597381356578
0.0005753238001420985
0.000619826682659568601
0.000633982619552768737
0.000697226120695932966
0.000762022456708590762
0.000846594216389916394
0.000943001712865076274
0.000708791168410970347
0.000600192936087434823
0.000388727600324333437
0.000217361551514164939
2.79319270592000101e-05
9.43741915920529981e-06
0.000941056003145792123
0.000954789183217668409
0.00101100956540009805
0.00103610343060963261
0.0009853266918003231
0.00101601556587942849
0.00104859779249771097
0.00105345210511711084
0.000949591607645312386
0.000916198750451408927
0.000814275189907203399
0.000685372753580476297
0.000471746399404961408
0.000186108146360494892
2.00190783270311498e-05
9.71026135172063202e-06
0.00119147096280273796
0.00115108026022283836
0.00111529176116596904
0.00111868879636052576
0.00114997326457242288
0.00118063703105941958
0.00125824803036433323
0.00124844652294255737
0.00125026819876429833
0.001266556729648249
0.00129152569109698234
0.00113813803252334265
0.000998034754471808236
0.000930786341249661736
0.000780409000282867508
0.000501533004609290025
0.000136057890182183692
1.6014052509166448e-05
1.01407212499547676e-05
0.00143251763852552598
0.0013870606743254959
0.00135212611772318205
0.00133849359255716442
0.00132917464795186103
0.00128045405174927011
0.00138416558638029472
0.00144864320893263259
0.00149251981665069985
0.00143560598505159558
0.00132619509262569516
0.00120130844348271789
0.0011467113419281695
0.00107517786810556386
0.000941656623568046833
0.000354173992154580225
8.31882318943965655e-05
1.43949625801434345e-05
1.0664189597743189e-05
0.00145281530339213833
0.00153930429406707431
0.00173166952474130675
0.0017049879607183582
0.00167172084723292576
0.00163813437957788743
0.00161878377664548528
0.00157088440548627437
0.00158383182049615209
0.00168461460929300762
0.00167275634279382118
0.00151720806046658999
0.00142867612035489557
0.00133040046327619521
0.00134153475857693122
0.00124998878115473991
0.000805771647963597322
0.000206875438292563186
5.65239612210399387e-05
1.37416054716218966e-05
1.1499986122001757e-05
0.00383163754030955549
0.00512751920639841104
0.00646091349575098322
0.00802590748408911307
0.0101336100946469269
0.0131385500544323915
0.0169983845244888222
0.0210193185030640613
0.0236659770987195685
0.0252481738090184621
0.0239219533841777549
0.0114627530849924723
0.00232878491195338691
0.000124807859997311265
8.05028078137077203e-06
0.00394950122972978577
0.00547626060323377472
0.00717529241479029391
0.00923851020950389006
0.0120609217485413561
0.0159471472948741234
0.0203341477969797152
0.023544209224836174
0.0250116675935072343
0.0251161513346280854
0.0242227745539325967
0.0245679994724997512
0.0122021365719255995
0.0029970898499704305
0.000113887059884962307
8.25293154848844313e-06
0.00559384376163718847
0.00776652772579274758
0.0103624980024616571
0.0138984126174236614
0.0186066083764515298
0.0232359991582054767
0.0251848000521094732
0.0253333596969531789
0.0249550591721801884
0.0243045420983936562
0.0232211350127142883
0.0243538677675007725
0.0129294005997435141
0.00393955580081029738
9.91899309336479335e-05
8.40427563925714267e-06
0.00820182399963894672
0.0113247830817662116
0.0155175186278176079
0.0211170819356741798
0.0249145049129734369
0.0258157236580253066
0.0249767815529483295
0.0238581072080942362
0.0230525865180506127
0.0226936756730838976
0.0222658886986261094
0.02358168048644416
0.0136029928572278126
0.00461623047973998887
9.83347842266171687e-05
8.79590280941943489e-06
0.00271783771081565836
0.0050789667316125239
0.00835912841221238788
0.0120350335169390945
0.0166954870868450851
0.0227485146310464001
0.024738479337063024
0.0245558216234291089
0.023875853728654587
0.0228999886414027465
0.0220370186748679517
0.0214485970776477457
0.021278400388382239
0.0210524579551355367
0.0222039461943119541
0.0141579773250508027
0.00482420980043937221
0.000115895695106143002
9.14333250295416116e-06
0.00444940431459362861
0.00823785915658816967
0.0124682393347295174
0.017436328113857525
0.0228802915382791926
0.0242639672735964172
0.0228439567022878098
0.022543429766906091
0.0220198422037674105
0.0212212172353219326
0.02055187354957589
0.0201068647393970248
0.020040205831188828
0.0197256502238679909
0.020408008688978841
0.0148360812961072907
0.00534888259580927616
0.000141730733225233879
9.52249735233983514e-06
0.00190720513315802967
0.00378649234603897896
0.00771027350849867645
0.0124851597944409046
0.0175408415815372955
0.023044072898547683
0.0232765468562388701
0.0215194988143298065
0.0211968855126640869
0.0210340331963788998
0.020572386273592938
0.0198779776690231023
0.0193574360111543574
0.0190234712336995737
0.0189591493473113062
0.0187161456018994851
0.0189174590762984061
0.0159025691294042947
0.00598893385758676039
0.000151739653470689797
9.87935943163238265e-06
0.00791367469573006459
0.01020007097197787
0.0119561695529003479
0.0135576480641885766
0.0151843242964034859
0.0167275846591391913
0.0182118641564759827
0.0196420020427207666
0.0208574097814661005
0.0221414928159880189
0.0215404339113260505
0.0115800268844363733
0.0028555191418561986
0.000108061132494388881
7.90971974700864779e-06
0.00928401925391239037
0.0118471240839967198
0.0137414456446502808
0.0155599172754174921
0.0174503330525339166
0.019081614570174564
0.0202397699226722419
0.0212286964660985192
0.0216972381495952292
0.022318647610818098
0.0214850123075109589
0.0217690254963356228
0.0120960629653684305
0.00371951386925995419
0.000108161287428902724
8.31278526143015812e-06
0.0130378749104200116
0.0152285296575052458
0.0173681985930292833
0.0196640372642330336
0.0214115264972028138
0.0218473507935582172
0.021783076047914799
0.0219251131895505554
0.0216496395467576409
0.0217517919164757489
0.0207466431780661507
0.0217952471759602501
0.0125225221940989031
0.00454867974182633465
0.000121054213826118714
9.40278604779370449e-06
0.0164830506342239606
0.018966104047721144
0.0214889440121756349
0.0225702866774586432
0.0227864972838061688
0.0219409893066816707
0.0210848721024298885
0.0205825101799965784
0.0204135513620134594
0.0205634605905671078
0.0201501130738633016
0.0216479604287204627
0.0131773554919347967
0.0050391857703271925
0.00015614903407037487
1.04905894735896588e-05
0.00949632343223550529
0.0139334911091978011
0.0174478053257025277
0.0203654650817072548
0.0217551196322915349
0.0220915879425118977
0.0214029470158121383
0.0211185506460348088
0.0205263235856811832
0.0198141512552636595
0.0194432265011678755
0.0193201928736950156
0.0195255660652062062
0.0194564996339598867
0.0204034036064883635
0.0138253041044493364
0.00575024408751236178
0.000207658656068692614
1.01779678727553214e-05
0.0131360849987026077
0.0178306777897384375
0.0209628793890639063
0.0218845132823232841
0.0206652718329442958
0.0200312344576133762
0.0198198722096965159
0.0196437073324559827
0.0192561099647673463
0.0187395388522782098
0.0184603414404982472
0.0183854473371515628
0.0185961976711211258
0.0184912550801902657
0.0188142985806734192
0.0148566269858851855
0.00642228095644607148
0.000214953030101582671
9.42138783492805402e-06
0.00677394392074889048
0.0114465775077590218
0.0171481941309068256
0.0206927842790340828
0.0213544717858601754
0.0197532807801942684
0.0189542867361156796
0.0188214452253609062
0.0186917724546828423
0.018592844453510355
0.0182702693861208285
0.0178355280975873338
0.017619875350046825
0.017579833773424338
0.017740312663175422
0.0176041289815739299
0.0173830525291313771
0.0168694466796323779
0.0071943706930224522
0.000183438503552249283
9.87758312245397288e-06
0.00958580315680868968
0.0128216492070756909
0.0153036343684794778
0.0165240341554032978
0.0169378404173581472
0.0171570280199646805
0.0174386306797453053
0.0180416438205497284
0.0187023614467696116
0.019553924610621682
0.0196234853556835932
0.0188569877411573633
0.0108482873603448198
0.00353096735730464972
9.86560220063349176e-05
7.9064639466479081e-06
0.0140311010203256446
0.0173644825939851914
0.0187613739389947791
0.0192099097095080745
0.0191164958250443565
0.0189380206689315246
0.018746537491764248
0.0189406389387297633
0.0192269817314909969
0.0198736936653483472
0.0189770657766490554
0.0192045978633139137
0.0114538485820171922
0.00415009511143722438
0.000101670856241763683
8.11358650912341842e-06
0.0180600625410851055
0.0198646818805752606
0.0202770516816342464
0.020299339236964576
0.0197561056958533814
0.0190176562759328781
0.0183581915637414106
0.0182153108262746513
0.018513682547732755
0.0190751905028391372
0.0183837999059708393
0.019337250620246646
0.0121680003205202857
0.00325095188391687955
0.000121106833861667042
8.64934147190732445e-06
0.0194725016321144473
0.0201441648407041235
0.0200608383445066117
0.0196510591718629217