/*--------------------------------*- C++ -*----------------------------------*\
| =========                 |                                                 |
| \\      /  F ield         | OpenFOAM: The Open Source CFD Toolbox           |
|  \\    /   O peration     | Version:  2206                                  |
|   \\  /    A nd           | Website:  www.openfoam.com                      |
|    \\/     M anipulation  |                                                 |
\*---------------------------------------------------------------------------*/
FoamFile
{
    version     2.0;
    format      ascii;
    arch        "LSB;label=32;scalar=64";
    class       volScalarField;
    location    "0.570000000000000284";
    object      alpha.water;
}
// * * * * * * * * * * * * * * * * * * * * * * * * * * * * * * * * * * * * * //

dimensions      [0 0 0 0 0 0 0];

internalField   nonuniform List<scalar> 
7340
(
1.72380565482415159e-05
8.70878498018233199e-06
3.85335254857767102e-06
2.39923059495012158e-06
3.05377849231300303e-06
5.0748256175885644e-06
1.49310080894093099e-05
8.03942025395717059e-05
0.000351417239702656568
0.000136310370016032517
5.94915167423029628e-05
3.08822224869092875e-05
2.6924979206574771e-05
-5.79151276636165457e-05
0.0273095200973197186
0.509573528022529754
3.39077044302088978e-06
2.23743567209317084e-06
1.59500065135921366e-06
2.02766720218260242e-06
3.59496808306798524e-06
9.52626348195589843e-06
0.000170694879788584584
0.000683610978675613934
0.0013515867185074006
0.000197057453216343572
9.1066908713306749e-05
3.47599755875508998e-05
3.12677288489588312e-05
-2.8620576789502496e-05
0.0241415062359757598
0.406254408802738776
1.5921933609684219e-06
1.10388768616544008e-06
1.0621413011984619e-06
2.07034312294975501e-06
4.62850412761304101e-06
1.97946657471883148e-05
0.000561200022293001626
0.00204260148675225808
0.00240042360722076071
0.000319084879178536637
0.000128695847259463367
3.79436063436077277e-05
4.42641396155215788e-05
-8.83863742062381707e-06
0.0607363058844977294
0.395918673031722235
8.02172655589628249e-07
5.83490657401705051e-07
1.0726287819878217e-06
1.94341902882269588e-06
7.07098642673356381e-06
4.52065207744630976e-05
0.000698122701465540623
0.00323103029179113051
0.00221199427068173669
0.000508575217932836859
0.000175964700835305288
4.22639599042918816e-05
3.05813631225329148e-05
5.05356500296111821e-05
0.0572590688276138418
0.468863420966608713
1.28213851800438714e-06
7.64885829949263285e-07
5.61469338745029632e-07
4.01122537607911284e-07
3.8493146050379624e-07
7.83058553151467349e-07
2.1004103188333938e-06
1.12420314740131558e-05
8.27681727349883589e-05
0.000604084376391154422
0.0025118014770621833
0.00167681082127671671
0.000728596576963384595
0.000204249680190344603
5.0084040695559922e-05
5.87470487597141467e-05
-1.74606748462043619e-05
0.0664486663928535171
0.432012347948690756
5.41924693457843068e-07
3.3069813987994419e-07
2.76745937656878463e-07
2.0716434276044933e-07
3.3000402341249435e-07
6.58472908130724507e-07
2.71123570988933401e-06
1.58826580665924239e-05
0.00011061444929662201
0.000490518990055472618
0.0016498558374935478
0.000904396646462840093
0.000654101079243648458
0.000203398563830444986
5.96082717525581895e-05
9.93432444797155527e-05
-0.000100190589837686859
0.0286854251443205491
0.412979296344757663
9.93937356796684153e-07
3.56985845543135987e-07
1.57500576329832194e-07
1.19386471850158336e-07
1.19622762346886404e-07
1.24309475055365151e-07
2.6923404255616589e-07
7.15096382508662074e-07
4.07500291613767837e-06
2.34978827002098332e-05
0.000169307849772096952
0.000588400089217934572
0.00163541274788955469
0.000751803986744322642
0.000567527755294363907
0.000164992661935268705
6.46416340630631692e-05
0.000167068259948294234
0.00017205439071260088
0.061807834361182111
0.356070088277827601
8.36743561185730686e-06
6.26127342729136742e-06
4.16067559285952013e-06
5.06818070848397507e-06
7.87608779483337142e-06
1.53942930669092774e-05
8.46863264086956946e-05
0.000713748479742097337
0.000602367772389586238
0.000172474453422836294
9.42678617155805209e-05
1.59084925255717567e-05
0.000309858869741992389
0.0534489733817891943
0.50360840270011864
5.68866103661076154e-06
4.4693076066220343e-06
3.07701770113561768e-06
3.61355382966232188e-06
6.50971769343588594e-06
1.21001082842868405e-05
4.00195225002854875e-05
0.000717208547856364002
0.001733478154481534
0.00121752251240942757
0.000277220033837256299
0.000119402543209422098
4.8670351176822817e-05
0.000264938208974661025
0.032997141086561689
0.454436895428709298
2.97586989062152864e-06
2.21443517014163134e-06
2.07747298821515894e-06
4.17080965011828731e-06
7.14199385486957199e-06
2.08377577986543772e-05
0.00017962708347180051
0.00235269776432762198
0.0037895747031844217
0.00192816521577678915
0.000433257659705389806
0.000140802727222798376
4.0690430248958204e-05
0.000154576659874432188
0.0561700613422830147
0.489700480865015608
1.5640098764697378e-06
1.21189897789176072e-06
1.99552989816561445e-06
3.35228963791881948e-06
9.01194441262309249e-06
4.46763707884375959e-05
0.000591682641831988983
0.00333351567586260937
0.00667918914827674275
0.00381519955661954171
0.000696646897881605639
0.000162111441644977662
5.58197194640167328e-05
6.41707646072747968e-05
0.0658949918431646769
0.487876636050360746
1.33325590769622809e-06
1.04705703656511211e-06
9.98984954501020134e-07
8.05548340258091969e-07
7.94682838529121144e-07
1.55513046872913881e-06
3.27038851380710826e-06
1.47048777833590878e-05
7.82532864566985286e-05
0.000496810932040313183
0.00393988130132824025
0.00902614206534143801
0.00851331765702450539
0.00240853780468400312
0.000184235838853822139
9.83922058492007112e-05
5.53275957248986448e-05
0.0575818874322859137
0.466158202900087415
6.63963871655113847e-07
5.59583061460287205e-07
5.63142278858003086e-07
4.34680392256709075e-07
6.82972000628595044e-07
1.25530359679323195e-06
4.12965693662866372e-06
2.26810904720311002e-05
0.000108115756168720918
0.00038332922876295277
0.00337607680075793261
0.00878418089199752006
0.00632072498995892712
0.00152755740147792873
0.000166504024641921062
0.000203110795704002089
0.00023416697220589994
0.0417789740176461866
0.396512496994603447
9.49123008488580857e-07
4.25648508199149825e-07
2.82715220907213213e-07
2.60173344849492877e-07
2.77019314909513937e-07
2.74795576849284935e-07
5.9403741388078417e-07
1.34784340097189167e-06
6.54459150343870227e-06
3.64011338775363145e-05
0.000155371464686259781
0.000883229751255470074
0.00421436530279380162
0.00637839841781154618
0.00254312312372126977
0.000798480886327136317
0.000163562834761828987
0.000260302255523931782
0.000288639467420003133
0.0319104837836143504
0.406091871041217523
1.52484973559354569e-05
1.14740333695643772e-05
7.81253883894771702e-06
8.07151905777048374e-06
1.27928786228937745e-05
1.88467056056753684e-05
0.000131009543571662364
0.000595029690331665053
0.000487538503302544749
0.000502030004563245712
0.000569226552723557828
-0.000267816338966044779
0.000235800672279234735
0.081063540202495829
0.494059699804000607
1.02036087877110814e-05
8.28455345093651411e-06
6.19404020402257772e-06
6.46965284398343173e-06
1.21900483504692076e-05
2.03130082526645092e-05
3.18588142741719127e-05
0.000303318820208631928
0.000873750056573341892
0.00116792288475293764
0.000849357470948434242
0.00140202215873932393
-8.01883994369078648e-05
0.000456779237284832447
0.0210684583371597567
0.481695342191750087
5.65054990863626291e-06
4.43789144534080338e-06
4.15512395054811342e-06
7.21275844823438232e-06
1.20551491030074072e-05
2.0233335767657836e-05
6.0589986645868439e-05
0.000266111786348924967
0.00287598814731644583
0.00531704417985078438
0.0013181558988370457
0.000701137300640164354
9.46445074934983941e-05
0.00097800988276252037
0.0269666901479654122
0.462900903781551243
2.96770676556166528e-06
2.5234276354355069e-06
3.42644116413496809e-06
6.21394847161213386e-06
1.07535013527486266e-05
3.19370513076047197e-05
0.000156264908292049734
0.00122989793268237662
0.00578015263086788939
0.0126463675998746521
0.00642785073794534256
0.000977233197597844215
0.000217931722099552175
0.00106186407636379293
0.0529190148165943341
0.47231767263569624
1.92684574900229859e-06
1.78501560744554783e-06
1.79873987211615028e-06
1.57789716750893144e-06
1.57893042254907033e-06
3.24498595821965634e-06
5.16501332683525829e-06
1.33290228332789355e-05
6.41235382233226633e-05
0.000293528250818544305
0.00157910099739872129
0.0118036454144276933
0.0180294855789588683
0.0215221724370074294
0.00407189330724162107
0.000198188477423008944
0.000734082699851230838
0.0725396456788831856
0.455750167092395575
1.25399925429122562e-06
1.05028963148780638e-06
1.00470674394732916e-06
8.90558571924156733e-07
1.28876262627982814e-06
2.33724409500296061e-06
5.12724962747773033e-06
2.15789417803638071e-05
0.000103749300207280217
0.000400000223960380588
0.00164985513191953778
0.00991021715657603927
0.0175674431805883761
0.020678355334122614
0.00513034336758504649
0.000256701287895415482
0.000842731923881902397
0.0915303490319698404
0.447999936318261516
1.14904368778257322e-06
8.20298422009063252e-07
6.66968205484490666e-07
5.60404325958840854e-07
5.69150678708634866e-07
6.01072251943641271e-07
1.40995440172999727e-06
2.6073031873769515e-06
7.8665413167421503e-06
3.80762715112798145e-05
0.000165240294275233206
0.000548792652113084547
0.00166662943831431733
0.0106270825810608135
0.0162857709101876802
0.00741943030943285377
0.000802429792285666013
0.000450342832933915314
0.00107471357131109016
0.0267022281094894121
0.41314503903867128
3.01917507607939151e-05
2.57785602720688272e-05
1.96353352672885689e-05
1.53055411034548965e-05
1.48537241356354964e-05
2.17577898010805325e-05
3.04315489402473845e-05
5.93638959997230253e-05
0.000145360504633457231
0.000551362019216129241
0.00145704954101351109
0.00159040723481632725
0.000513513438629462993
0.000859567816063316848
0.0851008050408333383
0.480475729490693615
1.70147507860226837e-05
1.49742234725505767e-05
1.34164358285857808e-05
1.38575572601494256e-05
2.01160257410573588e-05
3.33840534171662566e-05
6.20450337019269436e-05
9.63262364698782778e-05
0.000256230595919773683
0.000941113047084931914
0.00227716258820795858
0.00196624805674391976
0.000871373943215421613
-0.000586631296331828218
0.0560405616022020756
0.46007798082974577
1.00709420455899868e-05
9.29178568850780926e-06
9.33692810926280693e-06
1.19808633464450876e-05
2.03738423531456705e-05
3.58762223931510682e-05
5.10842148944510641e-05
0.000119792660373184122
0.000517262034798127808
0.00178970644300894492
0.00690512139811511657
0.00413488186308547719
0.00152207938528275749
-0.000271125585498781284
0.0833677270451670949
0.398767537847840914
5.67066923779258131e-06
5.534200133831228e-06
6.21410935396340075e-06
1.08927100266928226e-05
1.76476472478326573e-05
2.53266153856284664e-05
5.32995789149973533e-05
0.000295269410901491131
0.00104108018231291325
0.00791539728654414541
0.0248258882177355283
0.033175352774159117
0.00931270557443037751
0.00298495629126179851
0.105829683623611934
0.444682829328667761
2.99845452298263334e-06
2.88562366167575708e-06
3.18598339318656522e-06
3.19435307773281331e-06
3.23453226413416859e-06
5.29778620533749536e-06
8.50715465839234662e-06
1.31686672126116068e-05
3.11310948577253773e-05
0.000123644178002471687
0.00055659974977198491
0.00275821218291105079
0.0201218051207462043
0.0366949165346298831
0.0545000863717751763
0.0190995245581381812
0.00353363206381024277
0.0849347548404762037
0.453124391407029314
1.91863325016887323e-06
1.77713986112394841e-06
1.87088286425036753e-06
1.90990823646730971e-06
2.36708261709162833e-06
5.26001008978129652e-06
8.37605171141964045e-06
1.59199315453714919e-05
5.60676326902728367e-05
0.000236706255240151897
0.000783246492519551756
0.00229221219091178645
0.0191786862720857293
0.0337158430911559809
0.0371384036889449987
0.0180536236117527504
0.00319431293891137696
0.0365841965961057614
0.426447603717252544
2.51413743698173919e-06
1.60661735763299849e-06
1.24739374994667028e-06
1.15692357997933756e-06
1.25636116056440969e-06
1.4099032337336502e-06
2.64543869762574664e-06
5.3431063783389544e-06
1.01005929196729437e-05
2.75716647720036231e-05
0.000108962376677763353
0.000398109027433398604
0.00104115430756555665
0.00265095834510277765
0.0156968364317029256
0.0282561974218441606
0.0230614563683518986
0.00102609044167867769
0.00265702205190120316
0.028306948500227011
0.377767633389579749
4.43804914051192789e-05
4.18005513859110231e-05
3.67078156656073284e-05
3.53152991229896187e-05
3.79166567173558236e-05
4.85594213736661033e-05
6.64413113927413547e-05
9.50560093458823233e-05
0.000243137536642311602
0.000586104965055327912
0.00143209587380897633
0.00370770327837177801
0.00620006461677139863
0.0301426890426287168
0.135160804824774383
0.464085578838832724
3.15766460117674808e-05
3.34532113923669423e-05
3.53014005069466512e-05
4.01598434979538973e-05
4.80529444143168579e-05
6.41126802212577915e-05
9.74199474477740275e-05
0.000191962426793556283
0.00030044522051728671
0.000680209636686406592
0.00194997519989589373
0.0046883286662749964
0.00647742393071927807
0.038732772851282328
0.316591276396771371
0.471983308118314793
2.26588585088492554e-05
2.57773372741187565e-05
2.5929388190320253e-05
2.85025748840222215e-05
3.55434515183700373e-05
4.7485596927648116e-05
6.40928100718366454e-05
0.000109121674244326184
0.000182341360051282552
0.000819860991628902093
0.00286581912262145024
0.00668652446239319329
0.0212544396626026429
0.183294953805063637
0.431191580338077585
0.460872640896050012
1.27158870251861816e-05
1.39733922404525203e-05
1.42884524975625481e-05
1.75900971131143329e-05
2.55479823687524774e-05
3.94591161386431729e-05
4.92547567224486794e-05
6.33496901598652989e-05
0.000122070319166687954
0.00137313064192608495
0.00487806563827376197
0.0488561117868672318
0.0830873696151646773
0.0929699217240831099
0.309468178700565533
0.355748870982629861
5.31887518342082914e-06
5.64648436619163898e-06
6.61816163949456293e-06
7.26221649281805659e-06
7.45394946064666663e-06
8.45671888504255882e-06
1.32918757939567808e-05
2.23510310985635335e-05
3.07765096796185357e-05
4.22471808407630226e-05
0.000101945461464002468
0.000415432769669094384
0.00225425674786841569
0.0241196129405661097
0.0738223482781777962
0.0869831968224689112
0.0132822253170889817
0.0519805152321607122
0.423035398844344102
3.6233656992931133e-06
3.86289402264896321e-06
4.40748532858570452e-06
4.75704250979495173e-06
5.14628944280830045e-06
8.40266725775470398e-06
1.62494690879172522e-05
2.69552904514081592e-05
3.75958349778603875e-05
7.28053384772293363e-05
0.000195318806411229421
0.000845222216248110747
0.0031741042805955447
0.015463610765268223
0.0722142974796098625
0.065377850475178495
0.010496912612450263
0.0472976881479659286
0.407818173837235676
4.51898704275293231e-06
3.2038766110526845e-06
2.87429415294425424e-06
3.15410737395202985e-06
3.62577108150891656e-06
4.08389792735682341e-06
5.29281447569703745e-06
1.0205582729365585e-05
2.19739022703108007e-05
3.49012878707408457e-05
5.4455712500800526e-05
0.000130467043530933384
0.000328761448259797559
0.00135285352050981515
0.00382924369464458531
0.0148317247981854718
0.041601037720244774
0.06030885000740073
0.00905846488506004306
0.046124706072327798
0.339429320479341934
0.00013748547306931979
9.80660191655557316e-05
0.000103734923252858015
0.000114230352793336586
0.00013350161916786163
0.000160364841562197911
0.000203316505424027923
0.00024888187711288401
0.000277455896790613143
0.000438246701547885368
0.000868113275690282128
0.00162214220729974684
0.000312372945364929565
0.0134540422796623656
0.345805931226627949
0.476351377071751292
0.000364356827489538404
0.000270182907877302195
0.000226376481183963038
0.000249281651069451296
0.000280251315406464588
0.000404446420137338477
0.00056890608082689855
0.000581414162339802883
0.000569959209460827679
0.00117423301196641896
0.000770897504755003191
0.00170967305115224356
0.00103623253644146741
0.0859321137529873297
0.477035650689695001
0.497323423490685701
0.000274550541733637637
0.000319702682342959204
0.000366811091221603061
0.000377912144891874861
0.000400684475839857698
0.000363440285305778382
0.000317624460560718489
0.000313642927953793711
0.000252226887543120196
0.000287518981530542723
0.000275506063242995057
-7.78993740801732851e-06
0.0179217255488943392
0.354696885249022542
0.467461242290189816
0.505180591014658176
0.000148200219056914451
0.000156051622842347238
0.00015594843754802989
0.00014063173415277525
0.000106332964361939531
7.15712654235107354e-05
7.89813371772735368e-05
0.000114713600642804521
0.000149574816860963177
7.44417086237478568e-05
0.000156602362665475819
0.000393326507027902134
0.012597919664640217
0.287837060511059561
0.397773111553517245
0.482776717992337345
4.80632917176786697e-05
5.23321665540985292e-05
5.44935572508830734e-05
5.758535008961186e-05
5.32521757078929353e-05
4.45923995266319547e-05
3.9721419502354432e-05
4.52895788066187157e-05
6.20127610454262248e-05
9.18033700103797727e-05
0.00010123671818858669
0.000125538279819645119
0.000252414244044689364
0.00111979169746471291
0.00191001142368738171
0.0204077674476563636
0.0419161283101982737
0.395270845071226895
0.455228619348601815
4.77753543429881747e-05
5.34742138955172412e-05
5.56819056895366778e-05
5.82033308752029737e-05
6.26831834113063073e-05
6.62303805072035531e-05
6.85466500094007735e-05
6.83809027972848388e-05
9.86139686625372118e-05
0.00011735618766242002
0.000129307346336673045
0.000221302018637382236
0.000741438534000257938
0.0011295251297982296
0.00787107624132446504
0.0235802083061950538
0.18706302130437269
0.394719794517158107
0.421810333374572632
3.51902654887507755e-05
4.01441601253560022e-05
4.51288110046010329e-05
4.90487069514998245e-05
5.69647955607271783e-05
6.14064062877010206e-05
6.6749740287915435e-05
7.33645692360526875e-05
7.77821267603959437e-05
8.51717514054169204e-05
0.000128834799765901732
0.000133518055189985562
0.000170883360140130971
0.00031897529496905698
0.0011802875825901349
0.0033894575188982679
0.0119662349608543935
0.0825854219573338988
0.294643891146442516
0.391397053733518185
0.398384916198709194
0.00252613574308154691
0.0022249358703104764
0.00214659378394299258
0.00216501929630785999
0.00229028356339554956
0.00262868400123681236
0.0035913611178010332
0.004103815011583389
0.0039857803956780619
0.0032438677558132168
0.0018909848176482235
0.00354674952269234695
0.00257607354994230904
0.0299371017390760927
0.114673141999353106
0.445111435434362712
0.00348974646084934149
0.00452124350005973352
0.00509075816485231661
0.00552225372210517988
0.00616823490248548899
0.00639792400596673333
0.00531698003363061111
0.00492885408163787255
0.00441175406442769358
0.00356146884671129302
0.00325860662752869377
0.00388181529634035313
0.00260135851420325312
0.0379524869726480113
0.306414930589220924
0.490875731122820791
0.00224156155649618766
0.00219230373329805817
0.00232693656135118379
0.00256555685607180294
0.00263958900428234782
0.0026617470032239748
0.00266925034927631422
0.00224930456825189968
0.00152235774963611404
0.00129838915732105684
0.00256999059153332956
0.00325932994044351478
0.00098921434831660709
0.0157164798481659075
0.41876906563643812
0.51253143283439373
0.000877987975586884493
0.000857133986964040816
0.000784066350137311435
0.000750590184520616324
0.000791311392463408397
0.000898168727772113594
0.000832129704010457706
0.000581656097944151977
0.000365713994243438325
0.00108555611879830247
0.002345464309687672
0.00290383097435736653
-0.000649573206069820139
0.0068256751963677708
0.380533886842805869
0.437959786639031567
0.000441912138219683888
0.000486940941035906801
0.000524650005085835168
0.000582172263000848688
0.000581786840400336821
0.000534739811162336307
0.000493885816978836259
0.000474170072163479289
0.000462466445714116575
0.00053087874283495786
0.000480663372245770113
0.000426223109100091525
0.00127471417807816824
0.00208823296295782826
0.00242389908882323975
0.00320496401003928649
0.0162908540443282394
0.405481630105042845
0.421427559176429434
0.000665224789454822436
0.000731846462785630753
0.000802841227378664609
0.000859986327554973463
0.000920141319376174133
0.000989275413427540863
0.00108717810222036049
0.00117503816770525701
0.00122415958789676583
0.00121773362085413842
0.000956274532392001483
0.00117921695995463821
0.00159061031528809913
0.00198415302717102476
0.00168312172398627337
0.00693167959309319397
0.0528725991832614331
0.419304546361965624
0.450767894457691443
0.000524792525023890302
0.000568656983435864385
0.000617268995589484145
0.000671692338261646333
0.000751393969852494478
0.000833207187446536571
0.000943771980524177843
0.00109237441951884253
0.00118566477508212295
0.00120254229043591275
0.00112696250159013576
0.000814544127149312942
0.000500813013341924046
0.000800352924578075827
0.0012342975777766788
0.00160070899723108954
0.00330813742168888959
0.00969130192859969999
0.1324014681568072
0.394026384930933615
0.439634430845980528
0.00920455287545607868
0.0112804884548539253
0.012166130947056113
0.0120957739836409141
0.0122148977741537174
0.0137546556085352788
0.0169275784543254822
0.0210430946206475247
0.0235368178260523739
0.0173547539055317508
-0.000278474353241210931
0.00147079415408885809
0.00679259859395749295
0.0247025433133369055
0.0453924134749187635
0.468335825903466452
0.00669153570180704583
0.00867112799861020217
0.010477606221133225
0.0107740826759631075
0.0110037645069455264
0.0106368860286276592
0.00977572478393480548
0.010417734878436254
0.00687542623107489405
-0.00120770325158522755
0.00149462909925100664
0.00332033279205593695
0.0103133355528166951
0.0212882475407090641
0.0419601249835569456
0.443358305983981349
0.0011503725202531693
0.00111714818049715552
0.000934450744353693889
0.001528131844034756
-0.000648884187723545221
0.00107072835531444644
-0.000156462222540806103
-0.00139030469782192977
-0.00303794957070044596
0.000127234117586638501
0.0026179928680041889
0.00408052713139101398
0.0119787437499954165
0.0105029410609799347
0.12602227401241306
0.468751375820415261
-0.000482519674102864558
-0.00100534578966079242
-0.000960422080544829217
-0.000957632894135028098
-0.000416101970097967335
-0.000881786812255393009
-2.75887862188624284e-05
-0.000188528183257982284
-0.000376633433263600802
0.0018559047833134946
0.0028215643916337913
0.00592786499060230648
0.00785906265885740786
0.0178984817929695554
0.351491935376054665
0.456648855021047684
0.000297689864797510148
0.000264244951924885827
0.000265595221538281732
0.000135265665518116229
0.000243032722129167512
0.000254676952136588931
0.000577061775469119281
0.000525251334155121992
0.000696510194117014249
0.000877137276978686136
0.000439352824938633304
0.00100340012893165137
0.0018562464733425754
0.0028011450073366119
0.00675842049890275354
0.00790944591208098471
-0.00161872866966241737
0.280551954198183184
0.456704756450904803
0.000848864531761892287
0.00092252539746456733
0.00111498456185989549
0.00131595890338464952
0.00143688912675231373
0.00164811209034199796
0.00159597773740205017
0.00159748006402144773
0.00145515111562258444
0.00145515111562258444
0.00175655219700647123
0.00184222873524417328
0.00196180062455166004
0.00283334587440100746
0.0046830679540192403
0.00619570133309126601
0.0129073062446578967
0.233013306778226015
0.438384476406569079
0.000738000937147548306
0.000794985817641194123
0.000841231514383988755
0.000911033026987355713
0.00106913854867050537
0.00120653214463893664
0.00122522884212817977
0.00122784825670837778
0.0013867578784879128
0.00137295049181865888
0.00136419541571806144
0.00135345207373411755
0.00157819268905672267
0.0011766252250772621
0.0016969942855510141
0.00319888272115116884
0.0043948156043245902
0.00729587962603015384
0.0242413407069826323
0.360830268733128401
0.399353103975203683
0.000279316068488366881
0.000114660844816597487
3.89402260187119757e-05
1.10389386516445751e-05
2.44222051309429538e-06
2.39532593064343291e-06
3.20975935602289457e-06
4.76640683036163162e-06
7.4169866283831711e-06
1.36732959988860254e-05
1.2739321274253384e-05
7.64446700444745234e-06
-0.00017269516325462824
0.0268735843269284451
0.577631163012376603
0.000128995054281464598
2.94470998626663246e-05
1.67568339229249636e-06
-1.77525923863495995e-06
-2.18391627940038976e-07
6.98966247295032332e-07
1.70917740362229262e-06
2.80384090346644494e-06
5.47060373837605424e-06
9.16504606055821772e-06
1.19674675526717575e-05
9.94906065567427916e-06
9.19110989484146759e-06
-3.01519266803216467e-05
0.0609773856692250177
0.566385920139887977
-2.56612953718345457e-05
-1.67995936070037746e-05
-7.30742897012755084e-06
-1.20282232104434484e-06
1.35534974849956681e-07
6.99392626133732064e-07
1.62241516103874727e-06
3.47566820302113727e-06
4.54346815615151037e-06
6.63907675590397405e-06
8.31423019014663113e-06
8.59997553662836633e-06
8.62939419959639139e-06
-2.65350505000195875e-06
0.0680281616961786739
0.553633046523541505
-3.34050473864711266e-05
-9.57853839351047595e-06
-1.51161563156747027e-06
-8.40219192759033738e-08
2.25349317309053365e-07
6.68013008601464719e-07
1.96025168117146282e-06
2.66737896788846272e-06
2.83585955898695588e-06
4.01838518850575701e-06
5.29196501403917256e-06
8.57045074350277513e-06
8.16914617400966491e-06
6.80808297089403389e-06
0.0698352038701826328
0.514971777969876365
-0.000191001978844638966
-0.000115384080445709751
-4.78625766798735624e-05
-1.30458576131482928e-05
-2.04006376174022326e-06
-1.49370035708886362e-07
6.2865525720712038e-08
2.64420927953850322e-07
9.2639604325170524e-07
1.37410167193602978e-06
1.30930464285650448e-06
1.47767579653820445e-06
2.47085870620038539e-06
3.32198596101716673e-06
8.46103916356962356e-06
6.63347814563050837e-06
1.34815888286867662e-05
0.0437427103676039652
0.523505512631643022
-0.000196138581972604763
-7.21858935589162457e-05
-1.7373299716994866e-05
-2.55245730186093755e-06
-1.62210273780565192e-07
5.08406349930397197e-09
7.57028548862226598e-08
2.60429228529968572e-07
5.48295490879082084e-07
5.32851435944445999e-07
4.39593266730435497e-07
7.75345986022651106e-07
1.43759169878955135e-06
2.56867424976611816e-06
7.10634220568292004e-06
3.58750868281913963e-06
1.05694346957557619e-05
0.0271256044684011974
0.515004293473049657
4.97146043132654905e-05
-0.000231408410295417437
-9.50485113910713237e-05
-2.29323920900709787e-05
-3.02918316346822346e-06
-2.19698155620919321e-07
-5.58235719260311303e-10
3.79769171477044521e-09
1.45549611214806359e-08
5.91004971664733237e-08
6.41283638370511108e-08
3.06647147280066716e-08
7.16801908173332374e-08
3.35852084817908906e-07
6.15147083100540752e-07
1.6079600441655509e-06
3.8193459037880627e-06
1.95473365086869834e-06
5.12191517883595697e-06
0.046244087556437094
0.49812154031980499
6.07188028270743549e-05
1.51593739925124166e-05
3.48970691474617388e-06
2.13373127288461701e-06
2.50863723325481702e-06
3.62918763736676681e-06
4.41578701805939676e-06
5.71937497162561746e-06
7.31940880099785004e-06
1.43121527966165132e-05
1.17986556625904791e-05
9.95473786888826344e-06
-0.000143435769709506796
0.0195452501489490234
0.568758573120501598
2.70392091826206506e-05
6.56562239961171694e-06
1.62579480097295683e-06
1.22717701227370421e-06
2.00864023736973611e-06
2.02836558254836215e-06
3.29061653124991477e-06
4.14229080787001584e-06
6.39047554832459052e-06
8.48330003886420324e-06
1.08227148717728473e-05
1.62742535864195771e-05
1.23667613494726463e-05
-4.02301695484810824e-05
0.040033408097240028
0.508813214576998463
2.5198034207249896e-06
1.14927702875789845e-06
5.58523130018322672e-07
1.06572622156232183e-06
1.87183655085237946e-06
1.97000215174573507e-06
3.61822946038229569e-06
3.78805309835035454e-06
4.33028150296844823e-06
6.23599343825917706e-06
9.50450323008363379e-06
1.50039293690133439e-05
8.21497160775110576e-06
5.0039635512900083e-06
0.0160146159383172081
0.26671364257457747
3.29814789171471518e-07
1.79746869897225078e-07
4.71880345238743166e-07
1.2380198004417032e-06
2.01971921787158679e-06
2.2770230329982102e-06
2.45346988703113653e-06
2.26867215140169295e-06
2.12882445305573597e-06
3.54342117472702593e-06
6.9044440596648194e-06
8.42117829089387023e-06
5.68779008724105978e-06
7.7276596564864755e-06
0.0140973602704699622
0.329734245345890908
-4.29273859519732116e-05
-3.84295794895271536e-06
-2.2939051715670373e-07
-1.73175473269981226e-08
1.30820442135823445e-07
4.21216969017273621e-07
1.1810673824320866e-06
1.31583381078371237e-06
1.35555992999268641e-06
1.02608388195863704e-06
9.35815052931509418e-07
1.11458795531191218e-06
2.25260104942309225e-06
4.00012594709519997e-06
7.05066388871959809e-06
4.21383058705436034e-06
5.35616848754730377e-06
0.0116807666546932375
0.506110206068601132
-9.2166442798516283e-06
-7.53889040018793803e-07
2.06195102300016503e-08
-2.04044737054687019e-09
7.15238202514253006e-08
3.64519683626945094e-07
5.0848763297214364e-07
4.98278232491784449e-07
4.29106031951485514e-07
3.32437247385410046e-07
4.0100137933946193e-07
6.97705606715255599e-07
1.38032131227783883e-06
2.3046433060257499e-06
5.7547928756615099e-06
2.54114671510675861e-06
3.61626120273217113e-06
0.0202613137565382934
0.498121541119610878
-2.4770729157836105e-05
-1.2961526732628387e-05
-1.1392219570247401e-06
-8.1815609949088553e-08
7.0181497479904186e-08
1.84023682464673977e-10
1.87438872453356148e-08
4.20093444418896899e-08
1.79338485120979698e-08
3.05582251211331134e-08
6.53266945723655751e-08
9.2664690584912067e-08
1.3945844393752007e-07
3.25360558916050895e-07
5.2150268500669961e-07
1.11087601059034367e-06
2.9607246676880835e-06
1.03714900381281618e-06
1.91442622860503066e-06
0.0339675031216381054
0.47439555518247184
2.86791394701794115e-05
7.25953167344246601e-06
3.4729059954626266e-06
3.10594894858715592e-06
4.35686176709174009e-06
4.75815932170830225e-06
7.15125645336109771e-06
7.30998700805983587e-06
9.87086954778610966e-06
1.10529261800050265e-05
1.53150290224829896e-05
5.6462446534620187e-06
4.13702376636457608e-06
-0.000199651143334122312
0.0331367521374797136
0.547618021594050264
2.27457177826084476e-06
2.11563395069400356e-06
2.64446146244757265e-06
2.46730816366206439e-06