/*--------------------------------*- C++ -*----------------------------------*\
| =========                 |                                                 |
| \\      /  F ield         | OpenFOAM: The Open Source CFD Toolbox           |
|  \\    /   O peration     | Version:  2206                                  |
|   \\  /    A nd           | Website:  www.openfoam.com                      |
|    \\/     M anipulation  |                                                 |
\*---------------------------------------------------------------------------*/
FoamFile
{
    version     2.0;
    format      ascii;
    arch        "LSB;label=32;scalar=64";
    class       volScalarField;
    location    "0.570000000000000284";
    object      rAU;
}
// * * * * * * * * * * * * * * * * * * * * * * * * * * * * * * * * * * * * * //

dimensions      [-1 3 1 0 0 0 0];

internalField   nonuniform List<scalar> 
7340
(
0.0161444100712538202
0.0168540275286603904
0.0175846725470440342
0.0175937547082657617
0.0170930132008625599
0.0174373286648579692
0.0141215223845656372
0.0112553594238927693
0.0109980239323667055
0.0140553006001830766
0.0140942246877603598
0.0148164814199093046
0.0104812971606172856
0.00534485231132991994
0.000127875764360171462
9.35414787976038707e-06
0.0157103791767004876
0.0164132973072066424
0.0162732101126224354
0.0158773640121926858
0.01605124424014703
0.0160223604935021448
0.0110108294765255531
0.00721222574848392767
0.00692777233561387828
0.0107265595491225201
0.0116594053530470476
0.0131692393852571726
0.0105985489433888091
0.00595523030466847247
0.000113198943307161274
9.97546339332099258e-06
0.0155317163152279818
0.0156300888861298087
0.0154131546972713623
0.015396235710616879
0.0155976441921538925
0.0147884209887375849
0.00829210156910073493
0.00471904030451753605
0.00479230775857199254
0.00769020685514729217
0.00902921171954947262
0.0120072183471688111
0.0105970362690999704
0.00506841495125950458
9.94810533106812463e-05
1.02094051712565293e-05
0.0152833988845940232
0.0152139219546412151
0.0151613559141543387
0.0151510142213430142
0.0150850240933286615
0.013956978989728629
0.00727095626141691532
0.00372017081622060637
0.00427680659165406707
0.00570484808255139215
0.00711245586307654443
0.0113057412455900598
0.0107641973304545245
0.00483267356729762815
0.00010598402200618841
1.04818371532991243e-05
0.0132033517711902647
0.0140459688608228876
0.0147851403261484611
0.0150940170936192299
0.0150528986478923234
0.0149650802255563188
0.0148196311340471516
0.0145080645194275611
0.0135155114652426318
0.00737144933168261841
0.00383181416373011303
0.0044872842772956641
0.00495856222413471655
0.00638640565839414254
0.0113229944453856462
0.0105691288469746038
0.0039717195966221773
0.000121174811711389986
1.15443975190430784e-05
0.0133550196108523731
0.0141446877173155901
0.0147607022314106256
0.0149534435932208321
0.0148560819622143656
0.0146663444288245917
0.0143590991884219692
0.0138581486993962794
0.0131150081692432124
0.00778658884664715917
0.00464420551637656932
0.00584727628688768396
0.00527077558202419458
0.0067123816964390539
0.0123605531906553628
0.00889474464602351723
0.00202009998190613932
0.000122272068034159806
1.24645159455608734e-05
0.0119907172803341931
0.0127528308298861456
0.0134911953974486722
0.0142209716388348936
0.0147052821849598843
0.0147618424326112722
0.0145852848396115856
0.0142758755232023533
0.013768763928687134
0.0130037375492289223
0.012036092407736499
0.00743152124759378398
0.00495314123955491094
0.00648471206085338408
0.00572533851618129298
0.00795156505864915916
0.0139541823069212097
0.00818356391591981529
0.00151273887044037713
0.000110069264818654452
1.36224313960758283e-05
0.0159562640793832894
0.0167739537360550445
0.0168968552477589198
0.016804681928200834
0.0181092587377881115
0.0158253430673155164
0.0120044741333670442
0.00873219247458695801
0.00851228900568629619
0.00774030291759469045
0.00764300701963942404
0.0076600084542958885
0.00514400404345807544
9.96043089720561551e-05
8.93105410405194544e-06
0.0150121944168990617
0.015646458863861578
0.0156431563609518293
0.0156247361905099066
0.0163847026487766272
0.0172016898940812041
0.0131005547991327864
0.00736495245693821222
0.0047868967509525984
0.00486126157741548735
0.00520702022784235927
0.00612584912295440192
0.00839339024416277564
0.00577587264265611976
9.92401440739900753e-05
9.51533334939136558e-06
0.0149646401777342539
0.0150878650156013767
0.0151361698411862089
0.0154897880386583569
0.0163790942815529757
0.0154007766050149823
0.0100951037177846679
0.00422343112852176152
0.0027136939255098763
0.00284295714569358666
0.00366994804522241449
0.00517903616541029021
0.00901244466183157705
0.00389866759053858394
9.10863586885952932e-05
9.94595573102063433e-06
0.0148879982435544504
0.0149442895363739638
0.0150903812475266189
0.0154485400834314147
0.0159846133960417983
0.0135826937350912343
0.00758163068717357391
0.00309931613134497566
0.00195348279026371242
0.00169232173687602406
0.00250028012217030785
0.0045231910238590859
0.00899810791380964078
0.00308234801129703834
9.31833240879448136e-05
1.0559814754552396e-05
0.0131570983977126656
0.0139473706379211349
0.0145928430104093499
0.0148628126772607227
0.014909188353389842
0.0149943289564004167
0.0151915202476927223
0.0152776446154502376
0.0124869016851191662
0.0072484035189004075
0.00269578282742206736
0.00169021026264283059
0.00130244569933531834
0.00191152021583949894
0.00449520178447814032
0.00960398591805608492
0.00352113299886144121
0.000109469061114033462
1.14031096347244124e-05
0.013308461181994349
0.0140860982969676571
0.0146361646701579414
0.0147862084330865479
0.0147619430656311616
0.0147327156960026621
0.0147264732416950306
0.0144591638678237388
0.0119087462186807172
0.00735960540734955596
0.00289982192944425194
0.00182088073538162775
0.00156538274941961483
0.0021253509779371473
0.00510273220884629054
0.0100275700585310493
0.00355228638584762771
0.000125103128785401558
1.22519578790026114e-05
0.0119152391355799372
0.0126931246499026526
0.0134450036312014753
0.0141926740250403281
0.0146125706517816339
0.0146105906781323694
0.0145028158095752337
0.0143384615686265177
0.0140648235295928545
0.0133445168401954625
0.0109519182074594192
0.00619224884492227626
0.00267635486119245994
0.00219322465024925388
0.00226375254233932705
0.00285593858697810602
0.00657071942991853918
0.00829527588999313947
0.00190744016766781848
0.00010984625714597276
1.28526228574282876e-05
0.0154580020862315742
0.0161430686481332207
0.0163449071316645461
0.0167511097302485597
0.0184248600171993925
0.0189671319897601887
0.0147119260955683173
0.0088044745177419427
0.0046688173656474069
0.00304043681317078124
0.00227430163269017136
0.00245761116078346354
0.00198329936188479643
7.59220483029115253e-05
9.30536041481950486e-06
0.014857807586740596
0.0152241712319346641
0.0152845695303519234
0.0156620895213031991
0.0168047304703739346
0.018907404114728351
0.0168953956230230747
0.0110321134998162436
0.00499108101105337314
0.00240739507154226007
0.00183722433712445827
0.00169360051744686397
0.00239322318065895209
0.00244123518815156284
8.26972613364655951e-05
9.85496609871981975e-06
0.0148158529034227004
0.0149118723479977084
0.015192169727043528
0.0158412645577253354
0.0173109024016587405
0.018000105223779931
0.0139273069676139616
0.00814731232512034068
0.00235354279190430095
0.00117272372684083478
0.00107400004110084612
0.00136512189856726807
0.00237094783656909176
0.00226622232660062201
7.66383924576684213e-05
1.0292381423040456e-05
0.0148937784501137968
0.0150386899060546211
0.0153586025791453418
0.0160645733081746372
0.0174912891647703295
0.0156888219846372801
0.0106211825187695584
0.00462726248416535889
0.00141287148438072022
0.000718506734353931338
0.000573664687078702731
0.00100216678733046523
0.0024755231669346075
0.0015472342132896561
7.01232335955299154e-05
1.06769001951323618e-05
0.0133845868179605035
0.0141974174680240383
0.014777010647946582
0.014991556408135126
0.0151162742999138757
0.0153858996921297665
0.0160248217727199382
0.0171288170616005
0.0137281336914173904
0.00876581198093749105
0.00342609500392336997
0.00102811030885874787
0.0005788715274245435
0.000431073211709895516
0.000832407887488913591
0.00296195028444551497
0.00147127827175086239
7.48722404402930392e-05
1.12551990475572925e-05
0.0135272545618452325
0.0143546172884291504
0.0148507834076500086
0.0149467023806736862
0.0150205707387239262
0.0152180618679345313
0.0157346358484431251
0.0164561674529667967
0.012372843167163439
0.00793322437882346826
0.00335957733236492409
0.00113699120797788487
0.000622068667111480024
0.000524734420696917523
0.00105122825153927853
0.00382193498588682783
0.00179088160905116174
8.99255759920129463e-05
1.22241431635395477e-05
0.0120337636233090375
0.0128467116331511793
0.0136510080972577323
0.0143988091043563155
0.0147583008688374397
0.0147698177765347334
0.0147820167103687936
0.0148815304475872698
0.0151680021167373991
0.0152635050333900495
0.0107964753299924256
0.00688530898857165393
0.00328502078521939215
0.00120636442221086493
0.000676858731978568487
0.000849023632887452371
0.00172954050053586374
0.00456947454579494268
0.00211263177443773292
0.000102525292442897344
1.31614030832923231e-05
0.0147804598584322308
0.015284277073045657
0.0157809363233407801
0.0162034940102548028
0.0171006927336450031
0.0188933869379785679
0.0210063801354934861
0.0181471341419085809
0.00987812192723604154
0.00331443666827807484
0.00126200035466787742
0.000616426529593814545
0.000449585561309558417
0.000375178260437145908
4.86353389450971659e-05
9.9806875537626482e-06
0.0148018288296317465
0.0149499167822785082
0.0152894971393138877
0.0159711818705063104
0.0171985414898429487
0.0193771930768781991
0.0201297357801621946
0.0154018652823231846
0.00582365729056449725
0.00192310768849638107
0.000753447357447196596
0.000432478308021660616
0.000394545738001487014
0.000387100027249524662
4.84215032216101231e-05
1.04447928303607098e-05
0.0150100413166733421
0.015174026153066093
0.0155894809728604981
0.0163539038307100315
0.0178288712629438469
0.0202702591965724759
0.0187164641200371629
0.0108145096856505796
0.00325791790176222689
0.0010064238774932135
0.000433820731096720669
0.000298554955463500664
0.000345692649579679417
0.000396687512728152692
5.05735267957513134e-05
1.08623192984755926e-05
0.0153464408308280637
0.0155504203893917451
0.0159866369341335954
0.0168323741001035095
0.0185908366387985587
0.0196662434434641126
0.0155588964229373614
0.0065621177733551448
0.00186259199979871564
0.000540108621073179512
0.000270887186129358437
0.000189227415951506619
0.000298718521646891056
0.000399634628304583873
5.80814650341227769e-05
1.11358892024586565e-05
0.0138592078977777915
0.0147693092929387891
0.015356054167649626
0.0155493550607496873
0.0157601320216510001
0.0161909117727696457
0.0171174595531907586
0.0190827760681802003
0.017490136896665006
0.0125859997205966072
0.00448684062749619104
0.00125276561983507593
0.000390060250779081111
0.000229012615121826585
0.00017420287885986353
0.000313177579872504872
0.000443091182290068677
7.12006946174110171e-05
1.19923614794862124e-05
0.0140113085298943629
0.0149206595637129662
0.0154167805125178473
0.0155224827842868791
0.0157215219593016368
0.0161450105960189542
0.0171319318025825104
0.0187433112931441673
0.0154934117477309903
0.0107644995991847021
0.00368153077564369264
0.00121926833039748034
0.000423991933854895458
0.000251606652222464814
0.000236031764462954708
0.000474342469312332533
0.000522517056272748409
8.99880009353881802e-05
1.29247638177195653e-05
0.01234679699240618
0.0132258730034132549
0.0141179310177090272
0.0148758621870146834
0.0152169381212652437
0.0153174723657712349
0.0154979185190438785
0.0159140786531764937
0.0168892164546323095
0.0173326236771757687
0.0131766766032193235
0.0088804240737157536
0.00303358400829623152
0.00111140914368828636
0.000467229871159205261
0.000277457913907964765
0.00037953617296370497
0.000892888088146348937
0.000632885958500290446
9.81502411975375562e-05
1.38567858480482279e-05
0.0147482372812151111
0.0151453057339251754
0.0157144947260310017
0.0164558179784264694
0.0172775876491254796
0.0180866898271299231
0.0187478257060443333
0.0177776519124524073
0.0110676526150322013
0.00353343815307283031
0.000996636457551607676
0.000333009675810205916
0.000139877192282136261
9.34576356008028482e-05
2.35574881991711035e-05
1.08421443880482881e-05
0.014715731627684317
0.0151154552078462366
0.015642420863322147
0.0163199233338401639
0.01711533462688428
0.0178164699174653239
0.0179386931473861887
0.0168764064812605315
0.00831917635201533459
0.00235646490096066193
0.000673016194071888682
0.000235030065412851003
0.000109675137705544582
7.13010084978170068e-05
1.98001348173655709e-05
1.12177430445720463e-05
0.01553890567515194
0.0159023891287147674
0.0163850078825084726
0.017143283420067202
0.0183098173292289765
0.0200497038776433628
0.021769368956239394
0.0182377094404362165
0.00620494214156126333
0.00149247664590750214
0.000444188900849032235
0.000153128709114546313
8.65577914627308214e-05
5.9938515180401365e-05
2.24966411857353378e-05
1.17003915606910143e-05
0.0164193132967055712
0.016675754502138776
0.0171680903262763328
0.0179829576515912713
0.0194476590985907041
0.0220605708155066291
0.0227628620349418394
0.0162440950244300657
0.00409442050908471068
0.000902107586262484171
0.000279044515347680159
0.000107266310998924272
7.59575936263872818e-05
9.31283483651458192e-05
3.52549456065232917e-05
1.27725495120271213e-05
0.0144405774020823219
0.0154418246645027634
0.0163224350276148129
0.0167978132330646839
0.0171053384934757823
0.0176509111269363868
0.0186251868750633744
0.0204913622640365591
0.0222346091654555475
0.0200553178563431314
0.0121487478429676155
0.00266937269902974613
0.000654002969293412777
0.000197880905003793771
0.000100649208000379051
8.46269714695275425e-05
0.000135983305009291264
5.47338989553645673e-05
1.34594467700946927e-05
0.0146130772696562508
0.0156479381074036139
0.0164008251062884719
0.0167214984917995052
0.0170571008017423725
0.017675351536478829
0.0188481615876102647
0.0210326855533149032
0.0203150013415492395
0.0174139729113367975
0.00916852163779166215
0.00201040907242938357
0.000555373409543986137
0.00022235648997538356
0.00011706914998977452
0.000116121623385785763
0.000150636811511829793
5.61764628993909905e-05
1.43260089155137009e-05
0.0127566801394142192
0.0136871807416839176
0.0146520727314057662
0.0156025579716743915
0.0161630068607641619
0.0164055758641516516
0.0167910291104032203
0.0175007058558766943
0.0188256265829450688
0.0203334849432951735
0.0183118428414229539
0.0143052976406710369
0.00638126742340266659
0.00146216604031690974
0.000478870962804492655
0.000213049229202748184
0.000130925695767120836
0.000157134183138463775
0.000168019790486354805
6.35651005881428689e-05
1.53592936951094106e-05
0.0108301862768553307
0.0107726427681435616
0.0106695315673739979
0.0106491460150510055
0.0105895699343736133
0.0104967160773102933
0.010349499303266738
0.0100080794892755207
0.00929048419276987981
0.0080243038206983322
0.00207802448349775088
0.000472297436030690932
0.000134446345016592641
4.32075195951134576e-05
1.47935829554917054e-05
1.05899126415820205e-05
0.010459405332915464
0.0106463744352932686
0.0106908710103853308
0.0105806796678135015
0.0105420816033857771
0.0101290414516078363
0.00955876141627641854
0.00916970623570836051
0.00845519672514305487
0.00576793619086663715
0.00138734521851925619
0.00031977882477191564
9.76885636149653851e-05
2.74694070602819194e-05
1.42768883454171773e-05
1.09819573897454156e-05
0.0122652597712437691
0.0122073651510090191
0.0122216114488173256
0.0124942355776582626
0.0128398969349681792
0.0134719636678787748
0.0140165156976426366
0.0136170543194959921
0.0128391469714515503
0.00498220148853015417
0.000911909708264978486
0.000230868736574383666
7.39458313337116121e-05
2.39840313570209763e-05
1.60570301833180495e-05
1.15671575197345535e-05
0.0150835701211434747
0.0157318570896612907
0.0165466216536738001
0.0177214260885980683
0.0193966692708112919
0.0210365493228799293
0.0213823646554676949
0.0205900087755718775
0.0184241152995221029
0.00315845620648196003
0.000630324879130808005
0.000178050695501354687
6.96507765380648065e-05
3.28096197352791103e-05
1.77604532841315764e-05
1.24105850535616406e-05
0.0139230631997583273
0.0147688704855499595
0.0157010024511569958
0.016697204286658985
0.0178425506285457419
0.0192361985151986298
0.0208670257396234918
0.0222653949887259769
0.023489198987297219
0.0224745787586317324
0.0196168204584741511
0.0135114473374030753
0.00201734779731018278
0.000445009204362166303
0.000146112355355743285
6.61220096471262526e-05
4.3029316661630766e-05
1.90980544418699667e-05
1.34521546907569462e-05
0.0138921763406594356
0.0147370624712649164
0.0156763535134972175
0.0166971573232178212
0.0177684996012537691
0.0190290311162787072
0.0206695432266615492
0.0225786785559738933
0.0231241276170901441
0.0206342364812204943
0.0165900094436605312
0.00842293889922115374
0.00132672013849219838
0.000350822360488466101
0.000126787955871224815
6.18938377778876706e-05
3.36989478831831331e-05
1.98590765571910887e-05
1.46736781914873726e-05
0.0121599307917830707
0.0129684120647269585
0.0137850813648271436
0.0146447977661183816
0.0155403138034906144
0.0165945761756582204
0.0178080974949616777
0.0192551405000355065
0.0210234604107173359
0.0236167648174756307
0.0222989767874528858
0.0196684396100401671
0.016039745526602877
0.00474148874344512087
0.000897390392727789388
0.000266810300918645499
0.000113311737204914586
5.43683829808730131e-05
3.36892372385030417e-05
2.28620695154221177e-05
1.62141634775690241e-05
0.00267935268167412543
0.0025479639808293781
0.00242011992773403855
0.00231325761644114898
0.00220374980575166902
0.00209575098054439043
0.00202868850159361328
0.00198772197672208517
0.00196135710879958344
0.00195391471348850976
0.00173149526448324194
0.00133029835949160244
0.000590085665489646963
0.000100255734644989205
1.68866930724678865e-05
1.10181251553667325e-05
0.0028991492437230133
0.00263145112539116483
0.00243210053017193194
0.00225435463911490041
0.00213878857577460765
0.00211221329238648562
0.00227790784543597863
0.00236237511922557418
0.00235285799577476112
0.00211385260473099948
0.0016801848804162895
0.00135891932769680208
0.00041688055548790362
6.9762531449293685e-05
1.43800332740618992e-05
1.14487888676209793e-05
0.00438436940064459123
0.00445392216579837408
0.00437130713975669022
0.00417581541295372182
0.00409008714395741203
0.00409593384084240564
0.00414040459804388902
0.00433542558533786104
0.00424938502373757316
0.00299930278636079085
0.00200208597754843133
0.00144472372650239489
0.000288450598440446603
6.44654324677664187e-05
1.49321063472573964e-05
1.24699295658803165e-05
0.00635686806212274001
0.00650541966646947523
0.00672054323431361782
0.00690399692412091339
0.006899694302131755
0.00686981357301559657
0.00689603699512074397
0.00666418038588875196
0.00544614426656091048
0.00325472594602385038
0.00227463917017716333
0.00111886829554104224
0.000200554830724605998
5.46934125694109802e-05
1.54387678389528273e-05
1.34743505386302205e-05
0.00661987351664438794
0.00656521866314200859
0.00648773233949234869
0.00644720506129142345
0.00651401829077400026
0.00663342130576351913
0.00682020154428630756
0.00692968096377228303
0.0070577726160010049
0.0068031283303513785
0.00646068878113920022
0.00504359105843081752
0.00342894933443668422
0.00246754300898310288
0.000725843179914789118
0.000144463660213375942
4.2807102507094276e-05
1.56697199228398943e-05
1.41666162769411656e-05
0.00646612933777631228
0.00640400225931219737
0.00629323835955463741
0.00620011278783373729
0.0061134704519815149
0.00600274905255758582
0.00589092524491640224
0.0058773140928738395
0.00588400829160247874
0.00594511095203237219
0.00587919455554326495
0.00436364512334893196
0.00352794431418525147
0.00220865112066069525
0.000436689451593132009
0.000108223866159939085
3.45896658337321543e-05
1.66747118403128706e-05
1.50445469609409255e-05
0.00686077394105146909
0.00691731636252376682
0.00694502769806039626
0.00692229778454654145
0.00683679854204338657
0.00671809261653910899
0.00655747206151906063
0.00637554972426334233
0.00631387775900787464
0.0063772867846668491
0.00654194702527811922
0.00700949960079733005
0.00678986374323918562
0.00488733046372052862
0.00375006547761652089
0.00132777651925736011
0.000256253256082400417
8.10833375102967656e-05
2.74840534999238241e-05
1.84864772162972733e-05
1.68637177233696427e-05
0.000500138755864151883
0.000457093494228937394
0.000431419114649402653
0.000417521351570681275
0.000404039163243767271
0.000388092121744130602
0.000370452686766090729
0.000353341353903180325
0.000346285507637193399
0.000428397833088837239
0.000486366048934228372
0.000419656624751714685
0.00026583038547423266
0.000153402596672333415
2.88423230142741446e-05
1.0849831347970705e-05
0.000768670661141748822
0.00071658243419928699
0.000664924025017656246
0.000634530709840567739
0.000608598246010446297
0.000625764496038023923
0.000641516205909698758
0.000665230234524995072
0.000668787588981184793
0.000711059005449690609
0.00059008190705099584
0.000511806514874883572
0.00031652250403485906
0.00017515525997071531
2.32700854090007667e-05
1.17180852275980268e-05
0.00127512155435296516
0.0012694738447581338
0.001285859060359824
0.00121508124849563945
0.00114588498762910763
0.00104980800979362029
0.0010333491670486319
0.0010348303878777033
0.00103355999264683287
0.000842814518633885727
0.000709162597293529792
0.000587164511264852982
0.000391122902511531045
0.000151988876397961942
1.85672260994231198e-05
1.23077155409791302e-05
0.00146642332944446076
0.0014289844394590643
0.00138601993489780723
0.0013673826273315991
0.00134746374811045631
0.00137474752687157865
0.00126789861343697108
0.00118233309087263888
0.00118055813319194462
0.000958078555869445753
0.000848014385975920078
0.000626642610019569426
0.000433211452601619726
0.00010602386208242835
1.70163227851950209e-05
1.31476303795958431e-05
0.00182633214364463043
0.00175138442405097395
0.00164765901185483644
0.0015860125289294362
0.00152758362984722982
0.00149504529131633149
0.00147459497031492939
0.00149311497267814552
0.00154972187406005176
0.00156029908433475599
0.00146941775290857619
0.00133673559965894395
0.00116336133061271962
0.00101106077052565396
0.000750714867870233126
0.000332948504234570287
8.80206161480905438e-05
1.94867356518465781e-05
1.40230679154114346e-05
0.00214444982098669756
0.0020075343224909498
0.00189120393166877158
0.00179851786814000142
0.00177879277225022792
0.00178657469529343023
0.00180474346664747233
0.00169654908737041396
0.00165415398891930062
0.00158223472267359682
0.00147017121806927351
0.00147617493727012069
0.00138355377513006499
0.00120697103511384135
0.000809434017070935854
0.000222426775539803236
6.47837759987369001e-05
1.85035730592625006e-05
1.53512433410247216e-05
0.00267214178705475671
0.00270474725905241534
0.00262856262333201066
0.00248476228698743572
0.002369749176120563
0.00222649866985942871
0.00210152109455115496
0.00203441567968763856
0.00214502442445449904
0.00210705490808270682
0.0020433855392417515
0.00190666010699618222
0.00176874036792159313
0.00178058589178794829
0.00166227854575850143
0.00140295502878932878
0.000555355750695337596
0.000141934864500386479
4.74840393925713461e-05
1.74504069486899804e-05
1.72864082036442029e-05
0.00254489022733354843
0.00365888270518878803
0.00494099887345593979
0.00644813578541711657
0.00849408942702145967
0.0116391823173264703
0.0160930573737928344
0.0208588470753522937
0.0236889543389734586
0.0258037339835871828
0.0230657598150748808
0.0117249274663618081
0.00279602544608790029
0.00012151498713846292
8.52219844120194628e-06
0.0025893029665090975
0.00387285497197164142
0.00538097003169942575
0.00726267335012490117
0.0100153330970167796
0.0142803837890252243
0.019664254771618938
0.0237389015301561826
0.0255577594836977652
0.0262603740370568745
0.0265775418146293844
0.0242378228055482696
0.012672317580094317
0.00359670046624699152
0.000110595505674839195
8.95813420768178692e-06
0.00391226835416357693
0.00569433928227925778
0.00803954252179170728
0.0115458393734407631
0.0167135987945873851
0.0225707950678945349
0.0260918123232451483
0.0270529142889957067
0.0268364388004284742
0.0266161790358699774
0.0262668610065644806
0.0261055951530982724
0.0136662639821292335
0.00425119440300338308
0.000120579549764917047
9.39422971368703381e-06
0.00582858074818742421
0.0086458766273797092
0.0127832617768458782
0.0187770445749249303
0.0240834731796760876
0.026242246749832325
0.0268265880245480773
0.0268423177152915214
0.0259368772499283182
0.0251563570948013307
0.025211471064813331
0.0258949832298550689
0.0144816033537603812
0.00468660453331411035
0.000145591322591204924
9.8638149085358523e-06
0.00181801042455744639
0.00333315577279716608
0.00566343672263516004
0.00890752410624020066
0.0135161044135533471
0.0201200369542200441
0.0253095199970043601
0.0258414789472587031
0.0261331421705639846
0.0256792106464604417
0.0250537949354623923
0.0242867017001869023
0.0238035050493486632
0.0233513690375302188
0.0233592100646152732
0.0151601100655513014
0.00529624519064129159
0.00018712625201005548
1.03047797025522903e-05
0.00273176574629284971
0.00519285919377244966
0.00883280254987235842
0.0137660319704973905
0.0205658194262659001
0.0250907919792585365
0.0256284597465219859
0.0249840880846506457
0.0245141399174112345
0.0241447280829663533
0.0235474586979731657
0.0228431590497491198
0.0225539697851510831
0.0218498553092192072
0.0217719066613890483
0.0165490401409278121
0.00603402173523373293
0.000184487625181059398
1.10011917368886361e-05
0.00121448408406706521
0.00213470711989852298
0.00448383159856893376
0.00839731922785062757
0.0134423496197606969
0.0202532780705639466
0.0248802415668275094
0.0245830264534876893
0.0239601895914682041
0.0235420225108456775
0.0232009687104380719
0.022837468164533227
0.0222624660028897178
0.0216377509218197324
0.0214038669371845632
0.0207170143181045069
0.0203082196104812131
0.0181593214527870569
0.00678100466699636285
0.00017081195206764796
1.17665114061897625e-05
0.00553160082513871453
0.00767807654689206358
0.00983589642121020929
0.0120432835406543235
0.0142585215205272894
0.0165016424873088534
0.018508643282806745
0.0200212530331174872
0.021024236348210764
0.0229166184466628245
0.0223978458369752179
0.0121775225220224787
0.00314848806889775823
0.000136697404881338386
9.07887916384905177e-06
0.00652374004773944097
0.00924752204513232777
0.0116483766528271276
0.0139783985243720765
0.0165613308388483649
0.0189845027603412209
0.0207389187011245528
0.0218385429436332053
0.022792836437644428
0.0235500723825200729
0.0237277649156277769
0.0235357030021793312
0.0129509477621221128
0.00386700056330996703
0.000155550956015797112
1.04869286789275608e-05
0.0103999485681686207
0.012905263335073346
0.0154852540178300729
0.0184206863009972778
0.0209961957629261411
0.0226986697262427338
0.0236817522762127093
0.0238712170588698848
0.0240664908516962373
0.0241149766346663678
0.0233017502825829427
0.024207033242373735
0.0138272559768764427
0.00455967867829087069
0.000203354650614513482
1.09321717027426168e-05
0.0137068889085148696
0.0165088688504217325
0.019877313650335432
0.0226858259299025262
0.0240830941357367753
0.0243535678237773931
0.0245277518525188303
0.0238582908609102917
0.023362451374026514
0.0229375946598951407
0.0228403230734401004
0.0233869343379402052
0.0148223649274226883
0.00541942992971354651
0.000228923865302568845
1.04373496652684079e-05
0.00642424789213305505
0.0108129843618993641
0.0141864715693893004
0.0171793106279851705
0.0209336527146380784
0.0233823168471632495
0.0236864563475131414
0.0238078187386360947
0.0233230941440052963
0.0230304846644940504
0.0226103177807928206
0.022165079315834349
0.0219142097758743271
0.0216632941020546317
0.0214587758274720174
0.0160189290540181765
0.00629521874639972501
0.000229540881545850181
1.03505123667925302e-05
0.0104180745983799491
0.0144967112157017904
0.0176668883175031717
0.0215388651902961061
0.023243968649961335
0.0231210609630352476
0.0226668557687960612
0.0222735040007392589
0.0219979966595383949
0.021817835210917038
0.0214853428898704006
0.0210694067536453221
0.0209375645323411318
0.0203125007677513666
0.0197256024941263562
0.0179499029845234352
0.00737062101323429902
0.000193246504190184204
1.10895987144911553e-05
0.00525243999029125549
0.00931695930021412058
0.0143443237912509979
0.0181818995089064982
0.0218910068450936281
0.0231013711488034582
0.0220667696460297436
0.02175863805688261
0.0214807883278117472
0.021229234440276943
0.0210367705225418117
0.0208641942496723548
0.0205269091197082566
0.0201192946728416637
0.0199917849561928596
0.0192704572618820034
0.0183256285830485748
0.0182300501866736187
0.00825932006237324948
0.000172088229487784173
1.19875924470827412e-05
0.00740195065640842764
0.0111299607081561877
0.0139674452006811056
0.0156204306106110646
0.0165297609672243051
0.0173149876139861263
0.0180658350083905545
0.0188654113935577752
0.0196420935502827146
0.020536751050168469
0.0211921629362395517
0.0203856222256192307
0.011466889283803669
0.003965976033502603
0.00013140945406011175
8.71650000413151363e-06
0.0124005711464014699
0.01592189316053573
0.0176654770073402904
0.0186279132818930326
0.0194664581880494604
0.0202643654433746559
0.020886878031866736
0.0211307412372095001
0.0214825891208825261
0.0220184986246704691
0.0208936650360563581
0.0211342453238746592
0.0120666801787653166
0.00445503556063202213
0.000163916718639413745
9.9542744059462738e-06
0.0169078153410905097
0.0192509786204796973
0.0204167745736030318
0.0214337351175942076
0.0217999269026375314
0.0219719914351116721
0.0220017413361482256
0.0216080620059643652
0.0214384550275602374
0.0214635888459727801
0.0206227418775744437
0.0214866486480852527
0.0126516177774961547
0.00484408126404865802
0.000221492264646411474
1.06013990832040469e-05
0.0201480071812540629
0.0214940450363660975
0.0221792328339024576
0.0226362480340876436
0.0222864510704360759
0.0218400404941443867
0.0213371093885476176
0.0208993599385438981
0.0207422784780604899