/*--------------------------------*- C++ -*----------------------------------*\
| =========                 |                                                 |
| \\      /  F ield         | OpenFOAM: The Open Source CFD Toolbox           |
|  \\    /   O peration     | Version:  2206                                  |
|   \\  /    A nd           | Website:  www.openfoam.com                      |
|    \\/     M anipulation  |                                                 |
\*---------------------------------------------------------------------------*/
FoamFile
{
    version     2.0;
    format      ascii;
    arch        "LSB;label=32;scalar=64";
    class       volVectorField;
    location    "0.179999999999999993";
    object      faceTraction;
}
// * * * * * * * * * * * * * * * * * * * * * * * * * * * * * * * * * * * * * //

dimensions      [1 -1 -2 0 0 0 0];

internalField   uniform (0 0 0);

boundaryField
{
    inlet
    {
        type            calculated;
        value           nonuniform List<vector> 0();
    }
    outlet
    {
        type            calculated;
        value           uniform (0 0 0);
    }
    top
    {
        type            calculated;
        value           nonuniform List<vector> 0();
    }
    bottom
    {
        type            calculated;
        value           uniform (0 0 0);
    }
    left
    {
        type            calculated;
        value           uniform (0 0 0);
    }
    symmetry
    {
        type            symmetryPlane;
    }
    interface
    {
        type            calculated;
        value           nonuniform List<vector> 
104
(
(1.23923950986616638 2.07966087675260526e-05 -2.15914718601534255e-05)
(1.19146079094678425 -2.02461077149050181e-05 -6.83852788924297954e-06)
(1.32256687013898544 5.56552441857249408e-06 -3.69648909260046022e-05)
(1.47198189889928943 9.60416045425805134e-06 -4.5773751736652565e-05)
(1.63712490146098189 1.14007654099454001e-05 -4.8744870251104448e-05)
(1.82596211633027905 1.24440750068869182e-05 -4.95903463776932763e-05)
(2.01469826685063058 1.08640213890961349e-05 -5.11123558171138994e-05)
(2.18790555044975532 8.26828832273282992e-06 -5.05160590369511857e-05)
(2.35160640495158102 6.64632261886193299e-06 -4.839444577841687e-05)
(2.51351462501479839 6.15741270801381474e-06 -4.63849599664248078e-05)
(2.67204818701198921 6.08207764540134526e-06 -4.38726635240476053e-05)
(2.82673979638331696 6.46212666941246397e-06 -4.07723340108011225e-05)
(2.97949771879482794 7.28494119380390896e-06 -3.67448359766267622e-05)
(1.10210363572912495 -5.32548500093709742e-07 -3.2160477761363217e-05)
(1.20877452090250048 1.21977894734076678e-06 -2.29000902119895281e-05)
(1.32955063484219838 3.24797480501772549e-06 -1.94722302224336794e-05)
(1.4661576868325692 4.92061969009369626e-06 -1.91410309615491528e-05)
(1.60970181425509185 6.14478317986554833e-06 -2.02928420237788387e-05)
(1.75936704963953661 6.9347538225157614e-06 -2.21415818384660217e-05)
(1.91187550421742336 7.35337107286879986e-06 -2.37793208673191348e-05)
(2.06349886251849091 7.68263062794582935e-06 -2.45625145334737362e-05)
(2.2142198747619033 7.91569464241522499e-06 -2.44882852997745548e-05)
(2.36591924615587246 8.49004097067321945e-06 -2.37135523898099984e-05)
(2.51900822170624306 9.49540872379228175e-06 -2.23879605291480284e-05)
(2.67438132169932441 1.11873588347908367e-05 -2.0530436459339751e-05)
(2.83515754015283417 1.35830812089175527e-05 -1.8114104870606922e-05)
(1.06643164779579114 -5.05172428757989566e-06 -1.31325253924386536e-05)
(1.18792704809615635 1.53819909554962395e-06 -1.41150053761541147e-05)
(1.31190758140641983 2.86498736468147316e-06 -1.47248051719750343e-05)
(1.44072618539754727 4.2658973050203567e-06 -1.54425136444241051e-05)
(1.5744879435211947 5.51085880506803072e-06 -1.59522167884872903e-05)
(1.71243487413652318 6.52197815202339921e-06 -1.62998577356318503e-05)
(1.85361629993094224 7.47597665129989644e-06 -1.63693616926178172e-05)
(1.9972354129950276 8.41862564295400708e-06 -1.6131052678288159e-05)
(2.14305230688951198 9.48381123709294042e-06 -1.55930231363503605e-05)
(2.29145512102350857 1.08387847741846798e-05 -1.4730665348961027e-05)
(2.44337472116107923 1.26413940695129523e-05 -1.35261237862664652e-05)
(2.60014159662801125 1.52118596849391968e-05 -1.19813076061151633e-05)
(2.76577169356717301 1.82620475879070704e-05 -1.00767883403662175e-05)
(1.04599914668000493 -2.80196152479094137e-06 -9.20064961416914002e-06)
(1.17070320449048348 1.82473358355026144e-06 -9.60314717304812791e-06)
(1.29796367712013083 3.17231859156833739e-06 -9.33143098624299903e-06)
(1.42769538344273572 4.27495173093015797e-06 -9.3367516680082659e-06)
(1.560020614028226 5.39140587294919431e-06 -9.40869621592655129e-06)
(1.6949675091154297 6.55214062623324842e-06 -9.41322845652809691e-06)
(1.83253065866257425 7.77460433874586114e-06 -9.32252746136253739e-06)
(1.972852451905728 9.12727037648555989e-06 -9.09177997666771536e-06)
(2.11617468422109622 1.06824731600964142e-05 -8.67381604203343602e-06)
(2.26298490859018964 1.25644480623700437e-05 -8.05142594732030202e-06)
(2.41432686740834956 1.4857634742150903e-05 -7.22669098761670627e-06)
(2.57175728531288694 1.79156936773534805e-05 -6.21845142337135398e-06)
(2.73975507678530628 2.13321712665066208e-05 -5.03856802953314233e-06)
(1.03429435766225253 -2.07318501869706447e-06 -6.00771320503682606e-06)
(1.15889784870775903 1.72172613003412028e-06 -6.31960921829818588e-06)
(1.28581734810791803 3.06068750573329555e-06 -6.22615750480439733e-06)
(1.41492141886223122 4.2548702554448057e-06 -6.2078867805889617e-06)
(1.54631733250579373 5.48887355375040107e-06 -6.17207204312202957e-06)
(1.68015675265854547 6.80614149559007048e-06 -6.07842039471510352e-06)
(1.8165779451530677 8.23472463236000224e-06 -5.91321537697153013e-06)
(1.95582581411645018 9.8233753297735465e-06 -5.66190598172155216e-06)
(2.09830956303289939 1.16498095575387897e-05 -5.31393158712630148e-06)
(2.24468130205160898 1.38077606223567015e-05 -4.85872475949877311e-06)
(2.39619424063670428 1.63750972108289572e-05 -4.29606220484764021e-06)
(2.55449030260010668 1.97299921915120087e-05 -3.62316247692238937e-06)
(2.72421644450412392 2.34047613634399435e-05 -2.83651249885295423e-06)
(1.02569573011932791 -1.68782825380263917e-06 -3.85396072268259029e-06)
(1.15026844513105919 1.74855593772191688e-06 -3.99963426765067091e-06)
(1.27704039315485307 3.09884899658997173e-06 -3.9187079034559331e-06)
(1.40588762727123329 4.36204595247402563e-06 -3.88131008961251755e-06)
(1.53690394080477866 5.68054718349071057e-06 -3.8240357119855675e-06)
(1.67028827276494352 7.09469619405150085e-06 -3.72899088131937002e-06)
(1.80625563376820053 8.64234516877668324e-06 -3.58942840556955502e-06)
(1.94512649181270403 1.03771761846666356e-05 -3.40097235105344682e-06)
(2.08740713056971039 1.23538582081629044e-05 -3.15597515919182473e-06)
(2.23388272431390256 1.46697267002075961e-05 -2.85283240504237256e-06)
(2.38589843399610135 1.74051301498244608e-05 -2.48425622366156428e-06)
(2.54517681953504749 2.09196188609915264e-05 -2.05338219907157557e-06)
(2.71643947439080868 2.47466241551072234e-05 -1.57189148691933141e-06)
(1.02003614389159059 -1.47751963613133343e-06 -2.13173093357531212e-06)
(1.14455381692433722 1.78356039126273179e-06 -2.19250421228868006e-06)
(1.27120858613361509 3.15109591755789159e-06 -2.14677953923077659e-06)
(1.39989841400410131 4.45350939049358492e-06 -2.12064189126790688e-06)
(1.53072822442169176 5.82123433969103362e-06 -2.0799250012615419e-06)
(1.66392212021887609 7.30086821803263148e-06 -2.01837145103004374e-06)
(1.79973054581907088 8.91844180800604788e-06 -1.93298700234302169e-06)
(1.93853454237714362 1.07221509240112866e-05 -1.8245251418948146e-06)
(2.08091778812732375 1.27760566975335896e-05 -1.69191808338450966e-06)
(2.22773656757474425 1.51850217428316591e-05 -1.53301188240599971e-06)
(2.38039777717444379 1.80142062669511654e-05 -1.35863697409722083e-06)
(2.54073152264054913 2.16037956019701451e-05 -1.16952701905137705e-06)
(2.71357955152268993 2.55154675642361845e-05 -1.01440091738094737e-06)
(1.01720201161497803 -1.38487905313298481e-06 -6.82562960087655558e-07)
(1.14169428781244431 1.79408714570669882e-06 -7.00094904587095813e-07)
(1.2682949188801047 3.17107097196757363e-06 -6.85139637264227176e-07)
(1.39691629374618387 4.49549879543098091e-06 -6.75282368023918843e-07)
(1.5276696098251159 5.88377956865701794e-06 -6.59977439224266517e-07)
(1.66079762935981945 7.38224101064530244e-06 -6.38562130198130078e-07)
(1.79657691455262603 9.02080609706970963e-06 -6.1191296450562259e-07)
(1.93541665532407259 1.08449895664831196e-05 -5.78662928642231447e-07)
(2.07793070265243607 1.29133979044632812e-05 -5.38774098205440419e-07)
(2.22503263045215105 1.53080213629733476e-05 -4.96829168166679655e-07)
(2.37817366816555609 1.81128491128402701e-05 -4.61687764884273799e-07)
(2.53940091497553055 2.15438435244436202e-05 -4.36160350008910213e-07)
(2.71316013084040097 2.54422175557810901e-05 -4.47715756972597798e-07)
)
;
    }
    procBoundary3to0
    {
        type            processor;
        value           uniform (0 0 0);
    }
    procBoundary3to1
    {
        type            processor;
        value           uniform (0 0 0);
    }
    procBoundary3to2
    {
        type            processor;
        value           uniform (0 0 0);
    }
}


// ************************************************************************* //
