/*--------------------------------*- C++ -*----------------------------------*\
| =========                 |                                                 |
| \\      /  F ield         | OpenFOAM: The Open Source CFD Toolbox           |
|  \\    /   O peration     | Version:  2206                                  |
|   \\  /    A nd           | Website:  www.openfoam.com                      |
|    \\/     M anipulation  |                                                 |
\*---------------------------------------------------------------------------*/
FoamFile
{
    version     2.0;
    format      ascii;
    arch        "LSB;label=32;scalar=64";
    class       volScalarField;
    location    "0.179999999999999993";
    object      p_rgh;
}
// * * * * * * * * * * * * * * * * * * * * * * * * * * * * * * * * * * * * * //

dimensions      [1 -1 -2 0 0 0 0];

internalField   nonuniform List<scalar> 
7236
(
-0.929892814834360815
-0.865997952455928921
-0.864419525132339439
-0.154829904153259118
0.366259134653976193
0.902926433943702089
0.939098335811896834
3.01264256607065217
5.80587267478950064
5.87316376533465956
4.69934328228516041
4.39134717670250296
4.36232049693893575
3.98019921589418413
3.42689576170877075
3.00017732950056404
2.54023597799904888
1.9674031237532259
1.48736397639722484
1.16120897893494202
0.918671051998000698
0.766494666756630472
0.840180071722883226
1.01542558837232577
1.11648832820453925
1.24504672747179823
1.36723608774689165
1.41293104354157029
1.37736843321427349
1.29609149004497826
1.20767429968739792
1.12907170044791827
1.0650286565417868
1.01488130724942005
0.976885962136638142
0.949647671019007933
0.932057210503762223
0.923416986755456803
-0.800201764280454531
-0.867659022934307522
-0.871036799381293081
-0.729094198892157319
-0.347677500025858899
-0.252457550380783546
-0.297294839682022805
-0.354116951846347228
-0.423904018803827221
-0.450808609808831251
-0.42930977932639991
-0.409189204200219425
-0.3880587138710207
-0.357620079104001953
-0.33802789375050013
-0.325911352186702641
-0.331245692933217983
-0.287688937624796082
-0.187234233899603281
-0.0450480393677657881
0.0626933192149033564
0.209183467654208394
0.445922393420869867
0.665391572879423854
0.912817987565061606
1.13211587762219135
1.31341311959419471
1.38655208399831653
1.35395595046486972
1.27533455954682573
1.19527102028957311
1.12069405787971021
1.05842965355980456
1.00950956759611632
0.972524708790935222
0.946017330201612272
0.928892837301541041
0.920459231165812852
-0.826893748547180674
-0.858137533910240835
-0.830920833058113706
-0.711346163846261037
-0.588491850691762908
-0.556647981012251325
-0.532639820272484465
-0.538351053279435221
-0.558480476736347597
-0.557930342990801686
-0.537222044207402161
-0.513906208782586194
-0.490844249795487408
-0.468500418785744999
-0.448713959003881224
-0.434510776668220633
-0.419722939925565752
-0.426912377510291707
-0.412424102149420269
-0.374445143627033128
-0.282383931158357748
-0.0951940986775609427
0.0910275183389822745
0.287972927114044042
0.531995794645000464
0.817106230612943629
1.05207063588801231
1.20023147163976174
1.25134086070743344
1.22228396486747948
1.16001911418396708
1.09693206242623575
1.04209558803264057
0.997688222282219095
0.96342965378978096
0.938565503270041734
0.922391736788551686
0.914398665389330678
-0.836208756135702447
-0.836106336623855584
-0.796565295134936902
-0.735938265287827242
-0.668807572549011131
-0.618836326169763584
-0.59362727865708198
-0.584809153082692768
-0.584516317669938057
-0.579233284450425323
-0.564120888732115411
-0.544364148946733462
-0.523185862806378132
-0.502448424293688745
-0.482444277661568388
-0.461257814929246168
-0.44702324189637388
-0.43361449862013024
-0.400477508430022722
-0.346248125967323184
-0.271708005352979676
-0.163009677598537739
-0.00282465086256250423
0.211027247503709214
0.447640342104687727
0.684215103553282966
0.894393669297456451
1.04445372253524638
1.12001113360316062
1.13694888416746176
1.1073892252232711
1.06250160317232911
1.01840391780922745
0.980485450665341873
0.950140250596734681
0.927638133409704579
0.912826915507594761
0.905487937822417543
-0.870121587925315465
-0.826602035847253003
-0.784532652082977733
-0.730523622153272045
-0.681895111992796621
-0.643854770116514152
-0.621231707737421646
-0.608338291241253937
-0.598183735125969784
-0.584851231999002241
-0.566970471654854258
-0.546476499921965786
-0.524379156675054525
-0.500256047532871007
-0.477493967594944668
-0.454963089513439611
-0.435261587021924745
-0.41459895802707103
-0.381057357742916214
-0.325806760187505262
-0.248135524239162353
-0.135175198296231591
0.0186038539748616429
0.207325068288849834
0.415711044348037351
0.623567958045000204
0.809177316444557704
0.949156254602581018
1.03068502789699412
1.05845934883276294
1.04960225454532874
1.02251866785111512
0.98988853120248288
0.959109447934935577
0.933292177327888162
0.913615712071121022
0.900460988105260651
0.893913544137988403
-0.915588925579470581
-0.83804663618627917
-0.790114500815585208
-0.73632105065856035
-0.697090796536384283
-0.664885124203483779
-0.641263162698176847
-0.623238099727633554
-0.606810975724080714
-0.588846814065112967
-0.567801884914293842
-0.544173196050580676
-0.519283674647137428
-0.494205503381304589
-0.469198325790850967
-0.446127437200098897
-0.422601695887370954
-0.392757538874823009
-0.352218472107603264
-0.293672421421002361
-0.211033253037722718
-0.0984434677266031177
0.0441329929523090331
0.21287328486294782
0.39667299455771543
0.579422513162441755
0.743562526297047555
0.871750815021115399
0.953681009570220839
0.991195187894389207
0.995696617281143115
0.981102777891625366
0.958413609450258663
0.934633293549579358
0.913531161434316785
0.89691180961453465
0.885587293339379467
0.879906480961796911
-0.956532845686919875
-0.848401368067337347
-0.799665740545575043
-0.748183592724615321
-0.712179689058989318
-0.682096821027424527
-0.65746550952720606
-0.636069766680567472
-0.615215110037027113
-0.593091989163612388
-0.568859752748379632
-0.542673510548505433
-0.515464540698004403
-0.488003406684638652
-0.460270783924840499
-0.432470973209291898
-0.40274297207053722
-0.367098226647307069
-0.320929131397740208
-0.258051749004059583
-0.174241520989524029
-0.0657740698474094526
0.0672671284816127174
0.219993748584357801
0.383218780182730701
0.544533250918783795
0.690315103378847716
0.807143782484203043
0.886932043070731257
0.930069259382474534
0.944135838543268324
0.939473871816523531
0.925278997848599682
0.907971981992474642
0.891479536714727017
0.877960612643027605
0.868534398676963582
0.863756325898724531
-0.985322318186191204
-0.851903917361321983
-0.810721205682952473
-0.761421888056825535
-0.727225522797269264
-0.697194424357880926
-0.671161015744972889
-0.646872032833411548
-0.622514400132004653
-0.596914316000388911
-0.569496599550557425
-0.540372889902616893
-0.51016017434293881
-0.47948467140755574
-0.448274453363077752
-0.416009038546742593
-0.381048261569392643
-0.34032049347681459
-0.289521716302955257
-0.22399501856356871
-0.140362531576491589
-0.0365202620139366899
0.0870436641519108517
0.225812864395767671
0.371981699415673051
0.515534854997280245
0.645708202703039191
0.752233455658885775
0.828688888318947936
0.874734913529780611
0.895424509454570527
0.898495476167976426
0.891407715199848627
0.879874812861839772
0.867699814610224829
0.857185722884826418
0.849640119891116763
0.845764027420272568
-0.996518182660485197
-0.857894780052889105
-0.821735537006540007
-0.774980783316535304
-0.741740449158912907
-0.711000658196241253
-0.683311253807211139
-0.656374042284842973
-0.628799836045319416
-0.599774357756509779
-0.569029820473253678
-0.536722999836640513
-0.503401262191832233
-0.469471221072319866
-0.434721790401997821
-0.398467482248695326
-0.359126873481744546
-0.314098891138365088
-0.259890844644835639
-0.192865992338717124
-0.110382775316210532
-0.0112138521685470095
0.103536097814369371
0.229979895990254174
0.361670093555993222
0.490340398999028149
0.607316292254123757
0.704684098325739638
0.777304418488977911
0.824505687792201458
0.849700487045001229
0.858679336164694162
0.857443719903578594
0.850933514529808699
0.842679150440215019
0.834980324240678251
0.829233516912044832
0.826228450300663608
-1.01353792048498503
-0.871776107594002703
-0.835861073778921604
-0.790427618125068343
-0.756347512008708645
-0.724295245852140002
-0.694336332185649385
-0.664554741552372708
-0.63377216111108059
-0.601423961176950739
-0.567364869186543386
-0.531869380720204288
-0.495412369308877831
-0.458290016193602712
-0.42025826416376344
-0.380523943142279053
-0.337629197835542405
-0.28931476500107528
-0.232745630863081004
-0.165113316401268945
-0.0844320776792976124
0.00996367135361203235
-1.03767581129857644
-0.892763926920162043
-0.853979120523843394
-0.808214673517178461
-0.771357703691066487
-0.737092864816222271
-0.704357992175524639
-0.67146636498648149
-0.63742182815670545
-0.601734404394486333
-0.564392820152137986
-0.525756863000105934
-0.486293509034496918
-0.446219052106090475
-0.405263155004606579
-0.362625990870931392
-0.316934901587132223
-0.266245292407787049
-0.208251075720909867
-0.140765629368028306
-0.0623184776427884793
0.027328934854066355
-1.06346828984866115
-0.91917049538322404
-0.876729944667494987
-0.827613277954031279
-0.78718766805168916
-0.749548552590697192
-0.713415875308783032
-0.677135191277856818
-0.639679280091105307
-0.600601596613068778
-0.560011219597056686
-0.518363763599181571
-0.476120744712273058
-0.433440561614639619
-0.390011914314854546
-0.345041985712834509
-0.297266255343005215
-0.244998377493060138
-0.186343500436651432
-0.119592022757096378
-0.0436905695040438538
0.0413381795787025677
-1.08718969855740055
-0.948131787863152886
-0.902699900652752185
-0.848539582621280042
-0.803561316058719832
-0.761531412310204825
-0.721468331966831022
-0.681471371944418647
-0.640426991122407419
-0.59793472105515888
-0.554198834830048948
-0.509737045408775069
-0.465008573059560504
-0.420116261318478901
-0.374699642508203146
-0.327965665438872123
-0.278744976620213358
-0.225569380317445028
-0.166869451219645304
-0.101305768666728746
-0.0281373127717396213
0.0524513313313263729
-0.593693497115420521
-0.546974646943177656
-0.499961835530121412
-0.453096108747972959
-0.406410707516246861
-0.359485349722870329
-0.311520113185148828
-0.261420087655077127
-0.207896501011025192
-0.149640072587614165
-0.489175735609250206
-0.440551950206245657
-0.392494948695195189
-0.344514986621070718
-0.295795603276088892
-0.245301482106690033
-0.191888122813528128
-0.134454019822646154
-0.378496042490016282
-0.329878062447736042
-0.280821626192424678
-0.230340382209236111
-0.790552277874603693
-0.824011761439879753
-0.871777836871304501
-0.699369874552975612
-0.541517717511878605
-0.422258718986469439
-0.381629333560126127
-0.307741930358732207
-0.237303042648454615
-0.11110731963923931
-0.0755663242092807913
0.00991052867596932743
0.0866847477105684022
0.154430232486338748
0.27353522372609973
0.346020697815742684
0.390912834401509757
0.423127566480855533
0.378541523205879138
0.369559318545985449
0.414248378113517945
0.491502178611336216
0.615710574873828076
0.789323299785142929
0.960049466480442426
1.05376273600831261
1.13305081975524446
1.15758854672738543
1.14147943367675797
1.1047146427873118
1.06054410253814435
1.01676475994936322
0.977735063717434683
0.94524424052164191
0.919670982195889164
0.900858025710283394
0.888498206613929309
0.882354588372173176
-0.777691255908195433
-0.805156416563951538
-0.798691209612537478
-0.709052503549879143
-0.61486669826772733
-0.560051868827314836
-0.511557666328847693
-0.461810446532485319
-0.411268602406075878
-0.428077103884005827
-0.47519922006751858
-0.475562328650634636
-0.460832231934549252
-0.443258360881952029
-0.435175594592799586
-0.420967200254933227
-0.406623326224162085
-0.375548208986274334
-0.283134401491395959
-0.168914962379615674
-0.0580968973937609559
0.101833851940219877
0.31454981559050188
0.543281742492046082
0.773036014611025335
0.977119219377945769
1.10424167171604348
1.13955483737551866
1.12389078798870412
1.0922392169837396
1.05187644330515728
1.01000915221201448
0.972263336528081834
0.94080435244609939
0.916006298709290401
0.897731426498626472
0.885714128438456205
0.879716899854832257
-0.781772279635640666
-0.789865425284748013
-0.763613442950330068
-0.706491976046650483
-0.659881096636918851
-0.626206830290675143
-0.604824548736609957
-0.591281527903812831
-0.575401527669962887
-0.556382730582940632
-0.537284485482687035
-0.519312837761346402
-0.498701512965323723
-0.474050718955597028
-0.454278045007249387
-0.43684638099059242
-0.417558771601920231
-0.389384045945967983
-0.335965530955232627
-0.274692193797983764
-0.190101929777263395
-0.0692309241098690159
0.102744532310633047
0.313252028421526996
0.546172368251531815
0.787449781060525766
0.956000152277936888
1.04706813120561759
1.07380561404460972
1.05819822431766286
1.02777220065705577
0.992898840925215409
0.959807924919488187
0.931331189474189802
0.908430893385795746
0.891342412990784871
0.880022118417654431
0.87434940832874275
-0.788546237651727822
-0.780530933354791068
-0.753488238813214695
-0.71144477846913301
-0.672156679671930712
-0.639170128070114751
-0.615262670596151362
-0.597612279334294394
-0.580730337241106787
-0.561549781287888461
-0.54166193355904102
-0.521077950173207682
-0.49776516398718601
-0.472685860881674469
-0.448723519736878018
-0.426154343412713521
-0.403980157280014851
-0.37491666743523433
-0.333717319519389044
-0.274768897506938448
-0.191784419036845455
-0.0731389946311868516
0.0873096862157845821
0.275603943164106358
0.475368251217784199
0.669156921533986204
0.829455396494912511
0.937405347025321189
0.995453457585390722
1.00763827447215304
0.9930143888075742
0.968267525489470149
0.941798841959849198
0.917545539788526932
0.897340145450328031
0.881946193994758931
0.871627495751159831
0.866444436637483606
-0.798112110168143096
-0.778652276376096797
-0.750869993290978477
-0.715370127817705148
-0.680959160998032775
-0.650646084489721277
-0.626137996633581162
-0.605739559248699599
-0.586097615627732216
-0.56492577207756689
-0.542240339631552604
-0.518169716344924813
-0.492362191161319462
-0.465493951046690946
-0.438988949068080669
-0.413373953929854265
-0.386158270935852477
-0.353117607438985737
-0.308194280699173151
-0.246905048485684814
-0.162647638033146913
-0.0494124360411467289
0.0942036716373788746
0.261736206504883828
0.438753563684002756
0.610404529039662136
0.757925172179944262
0.865305419880740945
0.928321233845699423
0.953601708140632276
0.953305366577637647
0.939051895885089305
0.919687579416291867
0.900210386841729271
0.883175990921724385
0.869826961628458739
0.860734997268981505
0.856149165261656075
-0.811266561910663708
-0.782429036479818207
-0.754072925027097885
-0.721790976997897404
-0.690226077976329844
-0.661392920683180341
-0.636109271650424524
-0.613326690158649934
-0.590952229394513529
-0.567355219843627356
-0.54211730416801085
-0.515361541201229123
-0.487261693971426546
-0.458387432262632066
-0.429307775622064625
-0.399860136929169663
-0.368041016943731814
-0.330315770499348904
-0.281916743822060722
-0.218028028839543642
-0.134198547491502868
-0.0266117009953090559
0.104941678024010374
0.255288318039906093
0.413522363417208605
0.566903677438209019
0.701155279485695448
0.803961452841726376
0.870392477294577471
0.903830653336785361
0.912930994347573077
0.907319653155355121
0.894674803411681152
0.880060409679091715
0.866404384147662854
0.855299962526027913
0.847577100089947355
0.843649036802257002
-0.825351528616462438
-0.788645243036936616
-0.760778455703093548
-0.73007181901881979
-0.700196638333212107
-0.671935274529412041
-0.645588283600561197
-0.620475732274965996
-0.595358788495996549
-0.569129839952907002
-0.541371664066388147
-0.512116639341355318
-0.481668545318231445
-0.450465534356698782
-0.418639867486863715
-0.385772757831647162
-0.349990849569712603
-0.308222870896721846
-0.256707228854349212
-0.191324133562913667
-0.108507423003530404
-0.00597281256864133376
0.115598653127339496
0.251746592868627994
0.393965670841695592
0.531881898728797653
0.654131389149243403
0.751071159935535748
0.818038907470106991
0.856614805110835653
0.872856846486480764
0.874356136420127328
0.867743149548064752
0.857777933904436685
0.847497689420619205
0.838704957547885765
0.832418126369595668
0.829180984799880783
-0.838532696983285697
-0.796352191250348618
-0.769767406921924913
-0.73998199373498641
-0.710887416575360587
-0.682294843813518681
-0.654560237082865148
-0.627257339067221031
-0.599561506191063742
-0.57068789484000837
-0.540348499918187453
-0.508613078159245391
-0.47577288705970322
-0.442107090565956651
-0.407547502237530723
-0.371456016939185674
-0.332173629789810243
-0.287129376532445246
-0.23313152175764662
-0.166869094156243319
-0.0856173308011581036
0.0120364128464663742
0.12504663680501843
0.249289576961257697
0.37794192383980596
0.502563489126679808
0.614122156351934789
0.704910740834478355
0.77080085552817601
0.812351409668879088
0.833802796348778297
0.841047617380895396
0.839661206408580107
0.833957631819928547
0.826902176020338109
0.820382954309420875
0.815534894174043234
0.812994496642168496
-0.850268860079626987
-0.806065062162237056
-0.780767114732371814
-0.751384744204473098
-0.722175100514044432
-0.692620130269127499
-0.663203189354912848
-0.633634423998159391
-0.603329247990735285
-0.571806236074201224
-0.538895761905550441
-0.504700057072776098
-0.469473420552354692
-0.4333827424892438
-0.396212103979394104
-0.357234584646418107
-0.314988344703628687
-0.267277092810313088
-0.211450012165217943
-0.144857522514071718
-0.0654708252842568783
0.0274988618157411234
0.13282360458916706
0.246866623790085948
0.36396450322450008
0.477196446846299971
0.579302183742327115
0.664081069910551935
0.727999043516179611
0.771048138134520222
0.7961894633827441
0.80797592279850905
0.811009306539155372
0.809096001626577133
0.805019804686612606
0.800659436336736863
0.797202415724383884
0.795341042669816201
-0.863388123217753822
-0.819182697540593585
-0.794356228125805863
-0.764478117850060035
-0.734213097127254022
-0.702975696308851705
-0.671454111182167801
-0.639419172967176874
-0.60646872182719036
-0.572293167416383697
-0.536820466559350118
-0.500192639629437164
-0.462631277300076083
-0.424214369646386757
-0.384654405409767475
-0.343197476068889284
-0.298524108029475099
-0.24876336585373085
-0.191728275812908383
-0.125316816931667685
-0.0480379475377029977
0.0404613338035864356
0.138874815930381035
-0.880852483864765556
-0.836722773385864538
-0.811036879462235127
-0.779379768535959805
-0.746946806494928062
-0.713321646954585886
-0.679244828183434679
-0.644519471263127808
-0.608833725498507006
-0.571982004280736867
-0.533969419765297992
-0.49496954077035088
-0.455177085620437849
-0.41460536229095557
-0.372922376244629317
-0.329386754080493838
-0.282803752876543746
-0.231570028136414835
-0.173884967644515082
-0.108092701255731782
-0.0331180568296012487
0.0510968226927039151
-0.903033919810675711
-0.858775198949559337
-0.831039394091541928
-0.796087419742898428
-0.760376537064890945
-0.723592524245069368
-0.686482823907345607
-0.648809904375837077
-0.610280566536380187
-0.570735215234220328
-0.530227359681084032
-0.488950205487770073
-0.447075626152448169
-0.40456957277316874
-0.361070890083750151
-0.315857496407726979
-0.267845420675995538
-0.215656328646775919
-0.157804049587667888
-0.0929897144233394896
-0.020457216436886274
0.05965863085976017
-0.932470515682129242
-0.885833282479110862
-0.854432151308337717
-0.814523540195748796
-0.774365094952960686
-0.733643747878113373
-0.693031823967819927
-0.652163779227774132
-0.610691201045962195
-0.568452559335522078
-0.525524153556009899
-0.482104122255149592
-0.438341406424541558
-0.394157821829075938
-0.349166128397916609
-0.302664577813410884
-0.253665804296871689
-0.200975591128898901
-0.143363416756257134
-0.0798116477309820105
-0.00980589794361208522
0.0664011245985166032
-0.565061708620898662
-0.519827551498682983
-0.47443890349316914
-0.429016698721030321
-0.383434572658536699
-0.337277327256964521
-0.289858488068488851
-0.240270434493585483
-0.187470882751027301
-0.130435729056406824
-0.466003970078406882
-0.419175499509258087
-0.372482613642555804
-0.325478457305556523
-0.277485170456059527
-0.227659626594739511
-0.175082919619803906
-0.118897422285426241
-0.361363220536408514
-0.313815249626907489
-0.265557914840889864
-0.215801560695125488
-0.744459640349597329
-0.75644513795226842
-0.747802476696102669
-0.710504821622783611
-0.627175076088992589
-0.554468967465058693
-0.502855615335752737
-0.454393640942134913
-0.397962965667052027
-0.345166835034583119
-0.307102352400880851
-0.273074454482589601
-0.242852351158390628
-0.213872901818917022
-0.186494904489120594
-0.164864417131836694
-0.139454941360705104
-0.0964163074799979508
-0.0398520197614014166
0.0311007383467666737
0.128087171539732703
0.259319149681984495
0.405385197729619451
0.560634569843742714
0.707668052939836478
0.825187580477376392
0.903548651783884993
0.945713810861118276
0.960886936726996876
0.957548636009823206
0.942816232288919975
0.92304389664955766
0.902712199181203379
0.884224620623879853
0.868806269425834721
0.857004703115136657
0.849049870566092268
0.845028262520822637
-0.740450822788273677
-0.746888036377535092
-0.739429814038674804
-0.69965373780447726
-0.639186293090271085
-0.589678948784351564
-0.548849254650227714
-0.508869174836804161
-0.458884743420153507
-0.446085287670980379
-0.431342076415243136
-0.400058989219728212
-0.365570218935306557
-0.331893634653860903
-0.304119217489811133
-0.27630476009010585
-0.24277149407116233
-0.189015868086374272
-0.125154951618526328
-0.049514380485998051
0.0474282888280934053
0.179088084411259646
0.337469739189615925
0.503244040881617338
0.662300342104747641
0.79269083471779711
0.880323362899076978
0.927676012257551696
0.948842326942168746
0.948861525094981118
0.936128314840115716
0.917707265389944626
0.898340259620832748
0.880603150224499087
0.865727391566170845
0.854302184978508961
0.846591066299551276
0.842671964449587585
-0.737536622316043555
-0.740328831045397928
-0.730937928994913833
-0.704108298797272991
-0.673031708869025413
-0.647300320115856476
-0.625311191321761717
-0.605892726195219389
-0.582444285216905389
-0.554851928012775164
-0.527059345656903377
-0.496817342100345061
-0.464140997260471699
-0.431180572026259812
-0.400260564870849989
-0.369157365170398377
-0.333246949459974851
-0.289059137420966394
-0.230831010506784617
-0.157191358559222727
-0.0627796066274493164
0.0638244201652923143
0.224062222935473287
0.396499687222602037
0.563064513133614719
0.71141750963134176
0.822069381446249525
0.888766548235536358
0.919302766038531227
0.92687875036471179
0.919816951494361379
0.90542520155098638
0.888841618264205602
0.872996780652179782
0.859397699239879076
0.848805912984206379
0.841594241469474813
0.837906654636082937
-0.737705422310916181
-0.73721079891808261
-0.725554481853855737
-0.701730670575847926
-0.673712958005775797
-0.647323676893288624
-0.624363558331796686
-0.60279511454132606
-0.578773648173908417
-0.552002403338699432
-0.523917612795957832
-0.494217306760835529
-0.462666808941140928
-0.430164994088870434
-0.398321254764566923
-0.36668950479944179
-0.331925820131105664
-0.289804985225711798
-0.236198380166241922
-0.166948837674645217
-0.0764592284700886943
0.0398347867811433137
0.180010027891468527
0.334237310064171234
0.489442022505864383
0.633713719956862875
0.750760531705262801
0.83278397218856548
0.878081293750623715
0.896040206071598733
0.896531380025106572
0.887730070983433039
0.875061930578249991
0.861893699695662652
0.850103349471878822
0.840697869324788072
0.834205629500932688
0.830876049349560275
-0.740846409806400596
-0.73737056591087502
-0.724458848185307147
-0.702345397160884399
-0.676256937058534624
-0.650180889959513397
-0.625740000687102893
-0.601827072553110076
-0.57630764070274032
-0.548709271764902362
-0.519564309081646858
-0.48890339610809086
-0.456806399781608585
-0.423855691757214159
-0.390709969332629137
-0.356902019102427914
-0.320018405170777676
-0.276416103311801609
-0.222205864563947364
-0.153833325281214156
-0.0674046936926775836
0.0404420482025373562
0.168528479653034552
0.309235306253470732
0.451876821971182396
0.586375924726533992
0.699334012083077883
0.782227927085213937
0.834512836376285483
0.860993782725640089
0.869082178691583773
0.866151607989602446
0.857839232041848421
0.847782318639012322
0.838152204382998312
0.830189824674684274
0.82458470499441805
0.821695928057744052
-0.746435915728723254
-0.740598645349769935
-0.726994690701082802
-0.705868994170000708
-0.680958182029009484
-0.654975657708405046
-0.629299089299698799
-0.603459596698546763
-0.576325327454106695
-0.547461626629900278
-0.51701872990287856
-0.48513845961304719
-0.452017816125777405
-0.418030226573864627
-0.38337775648645972
-0.347390619414995994
-0.308112415332723044
-0.262634368011021635
-0.207583429541983805
-0.139673484734955833
-0.0559039244634977825
0.0455746572259333946
0.163547945630930336
0.292333776871803563
0.423485511447736052
0.547884650248412597
0.654969259531253623
0.737333793396171777
0.793113003384620319
0.825220954648013039
0.839399329593676913
0.841912283779181925
0.837949788654829608
0.831161062373178994
0.823879447200785653
0.817521617942932544
0.812915644526387315
0.81051463793188927
-0.753971219522195812
-0.746344297520984745
-0.732488032934857425
-0.711864262798507341
-0.687415346416797468
-0.661113656312302678
-0.634188413598843814
-0.606571137244461545
-0.577699843544318803
-0.547291623178737141
-0.515382553906708285
-0.482100070731474983
-0.447651164822847891
-0.412257389917238815
-0.375875980403801047
-0.337775730592673629
-0.296272066675889345
-0.248925703753452521
-0.192915740564615301
-0.125442532649161997
-0.0441739954093754855
0.0519690945442614488
0.16156806786128719
0.280131979906162953
0.400784597733226666
0.515672268288847602
0.616338858271018641
0.696439764382100646
0.753669961534851662
0.789665112802100277
0.808709163616829652
0.815984087949887971
0.816097565551849313
0.812526058698351483
0.807639218267485304
0.802957417142592944
0.799410305855119518
0.79752550842307568
-0.763118443068752539
-0.754283149453530144
-0.740430609512361726
-0.719856696250897765
-0.69525289297805859
-0.668185045136063471
-0.639853511609598802
-0.610449212507032435
-0.579760613192645935
-0.547630718925347759
-0.514089348792375445
-0.47926196475458549
-0.443320602478070258
-0.406367558584412647
-0.368211685444355119
-0.328108185867001856
-0.284594461985601621
-0.235599398216707112
-0.178759537605498176
-0.11178368051946018
-0.0328898479737878627
0.0585145797994543679
0.16097224985152217
0.270646183639289606
0.381864496860286728
0.488031624203379089
0.582275955148131685
0.659239231061074071
0.716555543166668363
0.755034540675747268
0.777822164959149021
0.789108784867370461
0.792880738383866079
0.792335221778014298
0.789779588516345443
0.786769259859534165
0.78429439392776279
0.782934640479766575
-0.774069795737376665
-0.764523046671835682
-0.750671087963568517
-0.729619452650923206
-0.704242024743934936
-0.675909853432975938
-0.645920189545011847
-0.614616416578826041
-0.58199482164458527
-0.548013809431765031
-0.51272512115855795
-0.476251932853940962
-0.438727404438108537
-0.400168553328864696
-0.36029568622093644
-0.31837221608535976
-0.273113143217087073
-0.222765041303977201
-0.165350038635771829
-0.0990105106756475201
-0.0224281641340245315
0.0646325602072213568
0.160743304881179799
0.262591474306295092
0.365428036848132298
0.463723776301106616
0.551837604645136093
0.625276744001159956
0.681801509721701171
0.721703435748900612
0.747266927077254617
0.76183358256503475
0.768786017346939299
0.7709912896497636
0.770626066324310299
0.769223768747713366
0.767796380797750255
0.766952693362901727
-0.787693617888951536
-0.777615581335659334
-0.763354003079262045
-0.741104491973886503
-0.714188828485913807
-0.684101903232358644
-0.652128927661399516
-0.618739994877428479
-0.584056930717996914
-0.548118860118690265
-0.511003657732910344
-0.472830512933743896
-0.433698047978762102
-0.393560860168958138
-0.352090148026115324
-0.30857329304704878
-0.261871529972627248
-0.210492509112037512
-0.152794788553055311
-0.0872895053286673883
-0.0130228060340616594
0.0699911985759579525
0.160376614142379137
-0.805559074825780486
-0.794312961171204757
-0.778761540817244136
-0.75432440422710223
-0.725067795936585768
-0.692607010634475606
-0.658274547480957928
-0.622581872554453852
-0.585706671376608368
-0.547728111103227833
-0.508740746422328249
-0.468857322755028672
-0.42814475364438459
-0.38651163303285857
-0.343602782718098299
-0.298738149489070348
-0.25090338124261935
-0.198821746231971908
-0.141133737628032385
-0.0766613259389991863
-0.00473363642888832183
0.074468819374624462
-0.828985346590431438
-0.815411884552205479
-0.797175691704663736
-0.769271288616573456
-0.736743965367325004
-0.701264681707584714
-0.664178770588146006
-0.625956846309761117
-0.586765560815670439
-0.546686727215310309
-0.505815577363873614
-0.464251751275950142
-0.422032368486030041
-0.379029530164587847
-0.334872645045075024
-0.288915621393611322
-0.240249594657568288
-0.187777595813789749
-0.130373619197672402
-0.0671123982157513371
0.00245783734799083888
0.0780493236124860795
-0.862268548244158883
-0.841936753381600456
-0.818941555012051015
-0.785904436041626409
-0.749064053688417331
-0.709899187589875136
-0.669669570759505062
-0.628703404824781487
-0.587092545419370282
-0.544883026906455181
-0.502152059118119665
-0.458975603458016967
-0.415360957375708328
-0.371147121279574277
-0.325951683563546257
-0.27915905762889065
-0.229949294049392738
-0.177374082329305488
-0.120499674070660381
-0.0586016387094858426
0.0086033389378851275
0.0807668747737984305
-0.542234966630476434
-0.497705830314126019
-0.453019728268202582
-0.408152854012752975
-0.362908768624161326
-0.316893641260963754
-0.26951666416605996
-0.220031188932370309
-0.167611011242773583
-0.111479836430492724
-0.446405307227227932
-0.400453070136181422
-0.354372132952094354