/*--------------------------------*- C++ -*----------------------------------*\
| =========                 |                                                 |
| \\      /  F ield         | OpenFOAM: The Open Source CFD Toolbox           |
|  \\    /   O peration     | Version:  2206                                  |
|   \\  /    A nd           | Website:  www.openfoam.com                      |
|    \\/     M anipulation  |                                                 |
\*---------------------------------------------------------------------------*/
FoamFile
{
    version     2.0;
    format      ascii;
    arch        "LSB;label=32;scalar=64";
    class       volVectorField;
    location    "0.390000000000000124";
    object      faceTraction;
}
// * * * * * * * * * * * * * * * * * * * * * * * * * * * * * * * * * * * * * //

dimensions      [1 -1 -2 0 0 0 0];

internalField   uniform (0 0 0);

boundaryField
{
    inlet
    {
        type            calculated;
        value           nonuniform List<vector> 0();
    }
    outlet
    {
        type            calculated;
        value           uniform (0 0 0);
    }
    top
    {
        type            calculated;
        value           nonuniform List<vector> 0();
    }
    bottom
    {
        type            calculated;
        value           uniform (0 0 0);
    }
    left
    {
        type            calculated;
        value           uniform (0 0 0);
    }
    symmetry
    {
        type            symmetryPlane;
    }
    interface
    {
        type            calculated;
        value           nonuniform List<vector> 
104
(
(-7.25631983450437357 0.0075207155545533276 -0.000365568378951466378)
(0.14658336903194491 -0.000458432411199622574 8.15272529314350675e-05)
(0.00414465883938102981 -3.78428767787182603e-05 1.56243855246534417e-06)
(0.0864265930398443877 -3.71875247934612456e-05 5.63155621041728716e-06)
(-0.0804661429288491548 -5.4348275145481989e-05 -3.20271688586057853e-05)
(-0.0240933058594158325 -5.1057331000829045e-06 -4.79222186620514845e-05)
(0.0602835587359438346 -1.15693050263199266e-06 -5.20409144368045876e-05)
(0.174456849963035093 -1.75671228534138587e-06 -5.06609780317757649e-05)
(0.278885553033872746 -3.88230447724822906e-06 -4.49274529039441305e-05)
(0.392176980239268835 -3.01801032781545474e-06 -4.36818005304196743e-05)
(0.500224989118040475 -2.61401333689283326e-06 -4.46078039353235196e-05)
(0.598365874963038946 -2.4911484858503319e-06 -4.21932695833758124e-05)
(0.692817381662861886 -2.40215312941892065e-06 -4.14303794575211854e-05)
(-1.24103160934124235 -0.000223066231230459159 0.000399523888979819381)
(-0.472547131444611745 2.32847577891262489e-06 -5.12981195811652442e-05)
(-0.380842285048350049 -3.62508429793737656e-06 -8.4866760837506289e-05)
(-0.330701375221765626 -3.20314393871294829e-06 -7.65858033769599542e-05)
(-0.201193588191540845 1.89242676485374666e-08 -4.15289213609392979e-05)
(-0.0886269003455984611 -5.63521775949295327e-06 -3.07500645225748664e-05)
(0.0201372663293887359 -4.81484001832634078e-06 -3.10049690117299162e-05)
(0.126634944567628804 -3.3236237632107788e-06 -3.14307511998287975e-05)
(0.229434940893091605 -2.36476878420616322e-06 -3.07779344247684919e-05)
(0.331733219718210348 -1.49871019055455507e-06 -2.99565029944015782e-05)
(0.432511743844449625 -7.39287357328051035e-07 -2.89078945035442634e-05)
(0.529917177939330686 7.51812743746863894e-07 -2.78913751319970272e-05)
(0.624842538863493058 1.76661986720528195e-06 -2.65226987758469403e-05)
(-0.685008192609839472 -6.2363322512622593e-06 5.01266630577485594e-05)
(-0.442678991837837432 1.9035641947376065e-05 -2.53810035625651088e-05)
(-0.367694980337694932 5.27914404392137172e-06 -2.74987697994409817e-05)
(-0.296736376646272004 -7.97763144386003966e-07 -2.47822160037445549e-05)
(-0.20862530338108215 -3.11581830612733659e-06 -3.1047577536275974e-05)
(-0.110239270950590995 -1.70438647965010553e-06 -3.1474297327457804e-05)
(-0.00848963897289336383 -1.04897573380219949e-06 -2.98164083602511388e-05)
(0.0942131387485275751 -5.73435493440347006e-07 -2.88049005226885303e-05)
(0.19650545960851884 -2.84532265486140509e-08 -2.75202051522095047e-05)
(0.297833383993248046 7.45908096015438832e-07 -2.62164707229069571e-05)
(0.39780381030669143 1.61642758416578108e-06 -2.49687883107379578e-05)
(0.495566772766877439 3.22006239191772795e-06 -2.36921409013981061e-05)
(0.59124562346911258 4.06403257568749479e-06 -2.23850410696014889e-05)
(-0.898564816713918635 -1.17532850207662752e-05 4.73825461568285313e-05)
(-0.58099851751920395 2.78040568436775075e-05 -9.58638334899810167e-06)
(-0.440292998332831254 9.68608661014385142e-06 -2.91269543074242673e-05)
(-0.348945500188255542 4.55889493229066732e-06 -2.86269724490328725e-05)
(-0.247638694486740391 2.09051000394937116e-06 -2.5203133455266873e-05)
(-0.141594210255490016 1.2238125626335731e-06 -2.19816693739501945e-05)
(-0.0358139369204087676 1.17422829626932584e-06 -2.04865796515790381e-05)
(0.0695744896409558333 1.50785677992775224e-06 -1.94193599985721393e-05)
(0.173938327067464482 2.0362069230803829e-06 -1.85010739960190607e-05)
(0.276887167470910078 2.81403243289741191e-06 -1.76281234943426356e-05)
(0.378173949061684278 3.65759816656062638e-06 -1.67741134935892984e-05)
(0.477180325266784278 5.20223221725938543e-06 -1.59382179728291264e-05)
(0.574130278270982064 6.05776190040924832e-06 -1.51077487230142835e-05)
(-0.91722482855888221 -2.03629360612477365e-06 3.78512610974239529e-06)
(-0.710349902661421728 2.12271700588829593e-05 -1.34273171929417582e-05)
(-0.53274815987184887 1.3602537720789302e-05 -2.01258321947997162e-05)
(-0.403316444594304491 7.55331987298463201e-06 -1.95256681433888926e-05)
(-0.287805710426475847 4.39564986862359238e-06 -1.90305118154254692e-05)
(-0.174163274117958122 3.49487281110708607e-06 -1.85098891282371904e-05)
(-0.0629407911358972477 3.37006679927120945e-06 -1.75879070954551385e-05)
(0.0460769405692637302 3.52075191503425865e-06 -1.65871472896513674e-05)
(0.153301970032858698 3.91368105581571634e-06 -1.56132204962558002e-05)
(0.258581861702247895 4.5804317688430962e-06 -1.46874604751287171e-05)
(0.361735152443543206 5.35830479757268188e-06 -1.38185203458647481e-05)
(0.462269943968006858 6.83591159661446161e-06 -1.30045131284898967e-05)
(0.560469431240794846 7.67821344196396963e-06 -1.22395272706860589e-05)
(-0.882713844268290693 2.05961952549356328e-06 -3.60331658704976065e-06)
(-0.733852327278097349 1.02365177102963923e-05 -1.01255346729283586e-05)
(-0.581345832461376166 1.14676725418928876e-05 -1.4022200763642453e-05)
(-0.445812554898547875 8.41431961063563877e-06 -1.44487907531105618e-05)
(-0.321144446794487004 6.36102813294038841e-06 -1.36104770570731477e-05)
(-0.201396486391502039 5.46703408082414388e-06 -1.26406559664933709e-05)
(-0.0853746521098487365 5.15509356305786637e-06 -1.18125018842106957e-05)
(0.0274810432678156448 5.17107498729755371e-06 -1.10750739024950938e-05)
(0.137628827606115528 5.44854770615460856e-06 -1.03993307373184324e-05)
(0.245189436650504911 6.01585655291391574e-06 -9.77412439418735725e-06)
(0.350135273425674742 6.71811418804894867e-06 -9.19689436637676289e-06)
(0.452116289794577908 8.0881535436036275e-06 -8.65975008318454218e-06)
(0.551412264097018046 8.90699001198513732e-06 -8.16537746695523208e-06)
(-0.877550557215134419 -3.43553948924055139e-06 -3.60659659890332597e-06)
(-0.743388005719139433 6.59357985364332527e-06 -6.87290453611989182e-06)
(-0.605055973713365058 8.81011755700643723e-06 -8.26576221674826622e-06)
(-0.471813213245856455 8.08898433825463305e-06 -8.53149832205029261e-06)
(-0.344856832831935411 7.11185139131025377e-06 -8.23512739760883321e-06)
(-0.222430836796825016 6.58329281059265127e-06 -7.81041492855700267e-06)
(-0.103631881572616061 6.36591567702439743e-06 -7.35017639584096266e-06)
(0.0119203979379702823 6.37869073082542308e-06 -6.88233671934609433e-06)
(0.124434386072098016 6.60476806173851102e-06 -6.43316987845828028e-06)
(0.233974000523765602 7.09660515407744995e-06 -6.01457876710815651e-06)
(0.34052884676218137 7.72872492547841003e-06 -5.63166934122259207e-06)
(0.443836030677871085 8.99978576875185846e-06 -5.28022097873405775e-06)
(0.544107099945473682 9.79731031830950218e-06 -4.96427469106291321e-06)
(-0.885310515676695053 -3.19082875413052007e-06 -1.67827857640428362e-06)
(-0.755584689778754148 4.64708486073713855e-06 -2.61505805104130613e-06)
(-0.621455469078777356 7.7000454490590458e-06 -2.97557347359986678e-06)
(-0.488448298369806189 8.06854017799411288e-06 -2.98861935167745193e-06)
(-0.359542487289410462 7.66350508510546842e-06 -2.84740352304209819e-06)
(-0.234860805822946384 7.29986129929298837e-06 -2.66824011901609286e-06)
(-0.114008273201073443 7.10639665056275913e-06 -2.48631506095860097e-06)
(0.003305002300757298 7.09129761172709064e-06 -2.31220728702721933e-06)
(0.117279045858448158 7.2661728376755465e-06 -2.15092242041540956e-06)
(0.228009049469970332 7.69386507626376361e-06 -2.00365245918464556e-06)
(0.33551303151272277 8.27746738024232066e-06 -1.8711242064421873e-06)
(0.439599794538336697 9.46718352148263049e-06 -1.75128547785799229e-06)
(0.540431160642053099 1.0253017653159428e-05 -1.64523139410821026e-06)
)
;
    }
    procBoundary3to0
    {
        type            processor;
        value           uniform (0 0 0);
    }
    procBoundary3to1
    {
        type            processor;
        value           uniform (0 0 0);
    }
    procBoundary3to2
    {
        type            processor;
        value           uniform (0 0 0);
    }
}


// ************************************************************************* //
