/*--------------------------------*- C++ -*----------------------------------*\
| =========                 |                                                 |
| \\      /  F ield         | OpenFOAM: The Open Source CFD Toolbox           |
|  \\    /   O peration     | Version:  2206                                  |
|   \\  /    A nd           | Website:  www.openfoam.com                      |
|    \\/     M anipulation  |                                                 |
\*---------------------------------------------------------------------------*/
FoamFile
{
    version     2.0;
    format      ascii;
    arch        "LSB;label=32;scalar=64";
    class       volScalarField;
    location    "0.390000000000000124";
    object      p;
}
// * * * * * * * * * * * * * * * * * * * * * * * * * * * * * * * * * * * * * //

dimensions      [1 -1 -2 0 0 0 0];

internalField   nonuniform List<scalar> 
7236
(
14.0684749582872506
50.170674488149551
72.1069007613972843
78.6736012126529261
83.3840330987281106
90.0561102337687487
98.180471045229524
106.652612814090546
115.353619097776402
124.646378786666531
133.104841107561413
133.337741027985089
137.794731980279892
144.094518702895016
143.051613214590105
137.51393492128625
137.206989117542719
138.104436584766347
127.87541146704973
113.971700642597696
107.420819421035318
99.3479825053015873
89.7781900841731897
82.6789440816033903
75.4155375607545011
67.9443532520805604
62.238733919621879
55.4502435809484453
48.5114280990217495
43.7129022056630419
40.377461220202278
36.6465656241694688
30.9731111906346719
27.1755527540892174
25.4095151460014002
42.3110302502434052
150.568958223670307
364.123576616839216
0.683489440720292052
6.33463462774141739
13.6646839969773168
13.4596377420430517
14.8482463460287235
18.4382178388967866
22.4267215238455648
25.6609880580692007
28.9063354964231323
32.4840261432944857
35.8931949645324408
35.0436025190800251
37.2502662192202507
41.454007796622534
40.8985735821735688
37.7376242749423767
38.9051811567804009
41.0088175848867991
35.1099873698818783
27.7467200579266517
26.5337797345758872
23.2781686874349703
19.5926716766925466
17.4225839303972236
14.7794244299049424
12.2397040848290999
10.7111275203418543
8.7694420372631221
6.47172485088461613
5.13744822625720055
4.66349434059754842
4.07045056955919549
2.57172759389463756
1.66046951099555873
0.278053509914987951
4.67203183733476557
54.379377271007634
265.728876068631735
-0.0606116494335538214
0.547821005278938067
2.20016478442037133
3.04585806884025212
4.02484207718955744
4.80635639928073211
4.90330044870219339
4.49871812641215207
4.43069896061475621
4.1927185872848094
3.84013766378624943
3.30179613195849075
2.92611832862176691
2.60911398839254183
2.60427959740621606
1.99952411623244686
1.6689148407471075
1.44682309531291597
1.51393823588677101
1.44597319563127114
1.09906245665479174
1.0745234370066723
0.993456124152567899
0.767345030878216594
0.630016429067766781
0.507026465891518452
0.3459434407883486
0.260563824522262788
0.239018574811695972
0.210101214522568802
0.169143774565926108
0.101361613990995858
0.0640247346089815594
0.03033442511369977
0.135920427709712632
1.21895247007359608
13.0634401681701444
133.253138911863942
-0.0863833456006171396
0.28169068203862746
0.307265523300571719
0.538319298334407503
0.853330330736306708
1.0978893799325169
0.997792750528404548
0.91793449097631763
0.96837086524726379
1.0659454529399488
1.04876301415484052
0.895108381242808449
0.737311802853462872
0.639165515729007261
0.604904416154384172
0.448954513490884111
0.326105334306047823
0.267941825212429041
0.254224854138656253
0.251170941778277479
0.212495765427801464
0.180777152324249624
0.146896886450920805
0.099275853593946195
0.0563411665096533731
0.0182513090356450913
-0.0232231358062923166
-0.0492712761977144309
-0.0620704925597329593
-0.0752375634804041127
-0.0932428082725053065
-0.116406669381105443
-0.12803057444469812
-0.115143677364976049
-0.0162869946928249631
0.450320482521413989
2.68018405512722468
56.9555972885093027
0.0930001147559473829
0.202761641189674768
0.159605686860168183
0.108460655369163328
0.222815470873308219
0.224051086422953127
0.213419317083973659
0.180170000818950848
0.165738290527032595
0.19173784245941583
0.173233700499619836
0.122351840723844418
0.0605450856477658395
0.00425183365913062161
-0.0276260794061258252
-0.0539891192173904688
-0.0824827514678059259
-0.100591490383159954
-0.108425488706245687
-0.108401086852555006
-0.114730991882692313
-0.12645880238031626
-0.141057070342426649
-0.157546962727602269
-0.178843497203477253
-0.201481262420027729
-0.22540688247500984
-0.251516958488099518
-0.27445222693038962
-0.291049367412293924
-0.303099675783113143
-0.308355446579496983
-0.302764995955507488
-0.273693386919373061
-0.201993084671299838
0.0776983824244628085
0.475594336507719651
24.5263034897462902
0.0660380543493102046
0.0891731185155496542
0.0828489951730497776
0.0550888132286486698
0.0704217135519131787
0.0364451529716571798
-0.00018729746735446362
-0.0319872965714740332
-0.0592544420310219255
-0.0720496289735036433
-0.104871663229941348
-0.153243522609946448
-0.195324998705909136
-0.231292888511973049
-0.262348391874839049
-0.283634010157604699
-0.298659293479917931
-0.306984670614454336
-0.311523182626724182
-0.31300248623802096
-0.313941864710634344
-0.31792864918155872
-0.328543867000427814
-0.345488315020074488
-0.367401240945972485
-0.39046033236951927
-0.410162382477047949
-0.429465736037552503
-0.446655547345442161
-0.458766716524638962
-0.465845528570214551
-0.465084064744051173
-0.454406664142260941
-0.42519643877748986
-0.385528115330831034
-0.137961635576275277
-0.495112256985456911
6.82142356007203432
0.0129573152731476959
0.00404040370372271695
-0.0288504750747979877
-0.0359384108323231866
-0.0554001966480859309
-0.0858992430785666672
-0.117461852561753788
-0.155535271408537401
-0.193957338560702519
-0.224600089834289696
-0.265261273425343447
-0.310442432593314055
-0.344801425952085072
-0.37619685029961264
-0.40651057678984831
-0.428882483090087863
-0.443513636393411792
-0.451251895059121555
-0.455479188285285941
-0.459192274165872494
-0.463287137453011977
-0.471381809143547659
-0.483443007803307734
-0.500754138413186833
-0.521186923688277237
-0.542133922953480063
-0.559770676527787447
-0.573133353349813301
-0.58293895960161235
-0.590249269900215534
-0.594874761366124383
-0.594373924751121718
-0.584933513148720996
-0.559399196487149419
-0.558113155617680379
-0.298610058338056317
-0.849810772960802097
0.543859133164069419
-0.0776276761798126991
-0.0864271030121878114
-0.12360911585978096
-0.141195156338015382
-0.168370710380556954
-0.201480646815057396
-0.237411099706557049
-0.275289429880356429
-0.313644486647996823
-0.34786230070225399
-0.390551895539630656
-0.433022504772260175
-0.469635922647946957
-0.501115248597620466
-0.528963679375247242
-0.550203710254886569
-0.564777953941555166
-0.573945534457678708
-0.581211957401969403
-0.589119759700822532
-0.598369696871801748
-0.610701599156707298
-0.624904141724876738
-0.639829106304009021
-0.655115912656587751
-0.670756218311045815
-0.685411571438748313
-0.697164835311983699
-0.706587997900855802
-0.714252257541212798
-0.719916327491298969
-0.721320004186276509
-0.713703619886946972
-0.68862063220293801
-0.716484803091775868
-0.444790448364695112
-0.950730413576964084
-0.206050322738489555
-0.178070850297504801
-0.180831551029839721
-0.218947488032271043
-0.246149108324343779
-0.279505711037262294
-0.315108333775028671
-0.352317276137741553
-0.391533292057864357
-0.43130384470752503
-0.469187954903686588
-0.510335700257153912
-0.550605735451997425
-0.586364780922383977
-0.617873181256044068
-0.645132226790755769
-0.666542199555109294
-0.682096768553379307
-0.693665301236073839
-0.704430611577280708
-0.715707249183175298
-0.727530409794893584
-0.740100800770917555
-0.753426404308585207
-0.767163882228169114
-0.781065638464888856
-0.795053100940505519
-0.808288114425594895
-0.819587637157175641
-0.829205711793531419
-0.837577513223635273
-0.844424057645229764
-0.848233574635811727
-0.843064115039434347
-0.818905885777988951
-0.866593615170813125
-0.595117252063104507
-1.06317199425424791
-0.294880766160993346
-0.284033035131364797
-0.280196877620418561
-0.319487517804409316
-0.35229620870064704
-0.390232655696845843
-0.428518029828193314
-0.467328289202555758
-0.507578578158135119
-0.548599879533805068
-0.588880929825941424
-0.629006202185929175
-0.667697800741944292
-0.702901842332434024
-0.734455131153393115
-0.761806428537419533
-0.783934677319762518
-0.800985413690586512
-0.814720821933596184
-0.827413702356519676
-0.840318051201924821
-0.853178649339376038
-0.865945978944075656
-0.386031459384579723
-0.381199500969143901
-0.42154970398406999
-0.459110034837568737
-0.500566446449072222
-0.541409265934297279
-0.582309642579434739
-0.624043281697688856
-0.666096216724021306
-0.707507268249701005
-0.747672676844520434
-0.785674579246184668
-0.820481015537357528
-0.851748284826197466
-0.879018506004639155
-0.901709801226083352
-0.920202151417456982
-0.935761626334983609
-0.949926570681279947
-0.963685434374904171
-0.977072078206728145
-0.990048096839131198
-0.483198418310310851
-0.481336013202120827
-0.52436929113973052
-0.566172006026191887
-0.61079327059256705
-0.654238316074665427
-0.697401858937858332
-0.740798110581248781
-0.783958573962744265
-0.826075000959442085
-0.866353775499160261
-0.904024200683393842
-0.93846943043340092
-0.969422890288084815
-0.996613845122881203
-1.01977318106631332
-1.03928580410488869
-1.05620517033707872
-1.07155404656936382
-1.08600768937417769
-1.09978288879128572
-1.11288001421172189
-0.577888222674578733
-0.580063963787912584
-0.627180331133372571
-0.673194108307764494
-0.721055240752403459
-0.767272842250015574
-0.812751943151235556
-0.857776508979865127
-0.902058021597988646
-0.944766866630856628
-0.985145629795755706
-1.0226227975727129
-1.05678055831004292
-1.08748032936468042
-1.11464214130479089
-1.13822892072366955
-1.15861017093576768
-1.1765761158367174
-1.19285955684463696
-1.20789787446410601
-1.22193891934023435
-1.23511484617267198
-1.06356773871882115
-1.10415520127499533
-1.14152212827550237
-1.17545289993280599
-1.20596934878849504
-1.23315264484974607
-1.25713083940332471
-1.27824554307093785
-1.29704629237305968
-1.31404892274357632
-1.26074846090342119
-1.2945512889817532
-1.32494929265494599
-1.35219135736190732
-1.37652903239132707
-1.39824362280555481
-1.41768812084991458
-1.43523019457802015
-1.44449381908111762
-1.47182831141236559
-1.49648908478071574
-1.51869219731833449
2.42616502463844608
9.7420642093233063
20.1092486726549531
24.6177100398302287
30.6801181691025278
38.4543623506410341
48.5428931708787132
57.2774894552581415
59.4358585708964142
59.3813596819352298
66.5657611003190937
67.5011420582120252
71.1669907618879876
73.9046457865300681
75.4783155235197967
80.4405802015846234
81.1200285315219958
78.0416664248003542
76.1117531764103319
73.8960319947112509
71.6149563800791213
66.6098233543404774
63.3962356726690217
60.2490737412164705
55.5524039472246614
51.3540934253022598
47.1450248802497711
42.6683511350716032
38.2872412965945514
34.7365256929678523
31.5236491623813073
28.3118638386605497
25.3623834122167757
22.9302035230043337
21.6017650096110678
32.358008487249279
127.425690359219587
338.583553658306755
0.528347558656297678
0.884138395007305844
2.86288122394151978
2.66897214066840593
2.77092602059531723
3.43673771383235849
4.36670933310658604
4.81864817633967135
5.17871775523951428
5.55555799968068609
5.76770590027888108
6.19017409131439944
8.48876571558162141
8.44385215714498827
8.34604700978825065
11.0277537446830891
11.9480760036662161
10.7290500981923955
10.4887564261219275
10.4795194552930688
10.0325520336860876
8.65532722366170404
8.06704365136876334
7.63840657104027443
6.5391504583430482
5.57571900153396882
4.84889745846070497
3.84405380498234983
2.83594596936211119
2.14291440441059144
1.75143935341946744
1.40432072719126433
0.887077860280905739
0.261226652560708261
-0.0901183612074715756
2.24570677530828533
38.2229000888857016
231.73010448743787
0.452251549335936642
0.281554653309145086
0.501452754965760805
0.583158382038744483
0.797506342216772524
1.03619121835628358
1.24702196014892319
1.35351605057136659
1.38892124541323181
1.44589050968887234
1.4990907841402934
1.52576158400028472
1.40600647155881342
1.39376553238545231
1.32145848465127758
1.1110335632084265
1.0573969004474022
1.05207758432336629
0.875873100623756784
0.685845325233156888
0.624249011089864858
0.594763005056611727
0.494553535899795671
0.414617997538384797
0.353790997709804156
0.282816450439013378
0.238823244731168227
0.208629924564838309
0.181904935218334174
0.159716973106061144
0.138944615410637184
0.119033546432590898
0.0836992990689096605
0.0638527664251157812
0.109045885578650248
0.748298165547622518
7.23714789271469972
105.025860054285261
0.406544837619050359
0.298780111493370359
0.302666040489483035
0.316887825887596897
0.295345050067621573
0.323873410845639254
0.329534008406901613
0.338438962513930686
0.344229651494118438
0.363459512067492607
0.38564127102346335
0.385366026028986841
0.336496280442852402
0.286320835791392447
0.246168669974899057
0.184550694202185506
0.138408661962926782
0.125884031038704824
0.0968049097244083612
0.0691934138233785134
0.0549021033294772032
0.0474687554930851574
0.0279804817459686772
0.00571448878724845066
-0.0122669116786056076
-0.0289312631204150517
-0.0443556552522879066
-0.0567185305696354947
-0.0707123467709558362
-0.0874344969827323126
-0.10412457626366789
-0.117590058480307458
-0.122183931322907169
-0.105288260455213556
-0.0327677393129855443
0.274769748369076972
1.25910684748030488
41.2106992589218493
0.288489799084141185
0.232849625969808072
0.216961716970973328
0.231438328438177021
0.197067419866825522
0.173935798059799085
0.154846700271375148
0.124521173787857875
0.0982898607959524773
0.0813130568874284032
0.0639758504056258115
0.0355958300389140891
-0.00345167222015030362
-0.0450585053405038183
-0.0779759915437377993
-0.11074544837095901
-0.135979864211816515
-0.149279156129319968
-0.160447894939910629
-0.169100338113735149
-0.174059537954992405
-0.175523617011487221
-0.179629985644692347
-0.188465425384597318
-0.202664658063786196
-0.221037343934363695
-0.241811688516566314
-0.260534988496173514
-0.275432022908912333
-0.288844928128503486
-0.301747684414237494
-0.308128391355289133
-0.301976254366139507
-0.269692141474080438
-0.207766934283109994
0.0275463690499898606
0.0177747456624954836
16.496391923963742
0.165282089256146958
0.131607983870779544
0.117526871498818242
0.119748813481409755
0.0885904318249917111
0.0557173859995431231
0.0322286713022523763
3.9497135190469379e-05
-0.0353578332141738505
-0.0668073302986201822
-0.10157269349591469
-0.141951411185475163
-0.179485556574808469
-0.215639522449603382
-0.247901416724063739
-0.275992792637186346
-0.297765944431113261
-0.312432308538040548
-0.322826844250808653
-0.329123253823850659
-0.333204591457553934
-0.337160259187252787
-0.344331925743059208
-0.353772014944191582
-0.367786130679259915
-0.384910465335699115
-0.402917239955090212
-0.419752546994529518
-0.43274697526457806
-0.441721845688609172
-0.447700330278942515
-0.447580838534263004
-0.437234604372507829
-0.409613241066940359
-0.383969161421612193
-0.14333889526691701
-0.657297561402839348
4.50135818374126728
0.0565018705683365541
0.0358644247843318276
0.0161645470423613657
0.00242053945105291657
-0.0259946187617529079
-0.0595405930358224866
-0.0917804348139105164
-0.128003756943765867
-0.164603116970238772
-0.198287021098408789
-0.236118316953025542
-0.276993269566528033
-0.313752741364219101
-0.347936198312985168
-0.378766347650876856
-0.404291553758295508
-0.423978424534745935
-0.437909966095296921
-0.448132342864557609
-0.455889969322851307
-0.462897349202641861
-0.470998852742472496
-0.481311830258247308
-0.493492097986802547
-0.507426223148523037
-0.521557914390281985
-0.5351249052132383
-0.54750081962666286
-0.558079711889899688
-0.566841543312336826
-0.57358906951692723
-0.575311368849321547
-0.567722805408320763
-0.541483319423703202
-0.554749859265365242
-0.298695883285889585
-0.918528624877575028
0.319638448310904266
-0.046438522591503828
-0.0616405808909272768
-0.0851995460366027357
-0.108226593272341742
-0.139368856563620858
-0.174031118131826701
-0.20952379038407587
-0.247244112773492675
-0.285259358333333712
-0.321573211578115248
-0.36029987078580783
-0.399367927989807359
-0.435367444693162242
-0.468009276976243505
-0.497041064237872254
-0.521306479149552304
-0.540628569905748368
-0.55540273771516846
-0.567279438467995334
-0.57743563032313594
-0.58725002254501546
-0.597899770129829644
-0.608734461175376329
-0.620643364769398964
-0.633449617934332521
-0.646863573920527957
-0.659740937248623593
-0.67130008605178626
-0.681779339129993223
-0.691195254756231781
-0.698923430511127153
-0.703141230785110594
-0.698834432989245302
-0.674412409752502495
-0.71470894603779711
-0.460072410618812933
-1.05761897353142387
-0.571877996414023926
-0.14750954951641071
-0.161122391519837205
-0.188160117546817718
-0.217510876797796238
-0.251994870018589223
-0.288730740658035612
-0.326306857349110024
-0.365071152160294843
-0.403906971947389559
-0.441747827194084897
-0.480559050809589827
-0.518589274876936401
-0.553778842844740105
-0.585844680058596579
-0.614426337890582763
-0.638579553834286551
-0.65820087838855712
-0.674017585195499702
-0.687360285406266369
-0.699503194732662092
-0.711258467515850867
-0.722959773313762488
-0.734449417403247762
-0.746332569730612794
-0.758654743487627958
-0.771183037060967247
-0.783208805264355101
-0.794382955415141589
-0.804981977150838857
-0.814820805114432223
-0.823757167860526107
-0.830943423837600226
-0.830919580392344148
-0.810221635661961148
-0.86876581167210265
-0.627446344191720184
-1.18817594177955832
-0.974474345514472873
-0.247890786473015212
-0.261748505909188189
-0.291917494114353637
-0.32604196476488323
-0.36392157881192444
-0.403082335946398418
-0.44271886862960963
-0.482841859225107362
-0.522756685873301707
-0.561822591931005033
-0.600600276786088738
-0.638020088439129385
-0.672741719670060023
-0.704385493098809934
-0.732594832405005114
-0.756772409508616795
-0.776957631460102438
-0.793859868696204396
-0.808519279847941807
-0.821940406802591506
-0.834621975512896741
-0.846884786246022814
-0.85882925471331395
-0.346558799929835959
-0.36231449817347916
-0.395863461160779639
-0.43417728835145597
-0.475395281603386621
-0.517110182339976632
-0.558843624802148442
-0.600485474399488406
-0.641563660640789069
-0.681632567321934779
-0.720591705162053064
-0.757692579713941883
-0.792087203462867318
-0.823398394029737912
-0.851328958420665471
-0.875572292558545517
-0.896281219567035325
-0.914060530189277243
-0.929758023562568203
-0.94405204966784162
-0.957379022604906149
-0.970063211925906943
-0.442168284773292841
-0.461765296466322805
-0.499453744710757208
-0.541917503830158132
-0.586542619267184206
-0.630943166391570776
-0.674847020538510867
-0.718086108798448364
-0.760331280999417713
-0.801233179798762629
-0.840461567868384662
-0.877444717503439553
-0.911628168317492493
-0.942730905251991658
-0.970551990559775479
-0.994957093014676053
-1.01615331195131975
-1.03466561938795709
-1.05113351628124652
-1.06607981555083775
-1.0798901634690059
-1.09282962392089589
-0.534854664185393736
-0.559466909379136346
-0.602401658888287339
-0.649294780845656949
-0.697523271340851903
-0.744746919056779477
-0.790878022505876244
-0.835753274667863977
-0.879179385953545722
-0.9208351732869271
-0.960365176434810119
-0.997354439932894077
-1.03142994720825154
-1.06241538056607387
-1.09021920924778981
-1.11483551786309887
-1.13649458407015991
-1.1556245018253708
-1.17269553324594344
-1.18811434275540639
-1.20223460962652418
-1.21531552509362073
-1.04055048491476243
-1.08041924190541927
-1.11748895493988742
-1.15153764749358434
-1.18247905298890865
-1.21031860947828296
-1.23515320323436306
-1.2572212654736854
-1.27685413439075246
-1.29440579510202025
-1.23791454741048002
-1.27199597337102599
-1.30295288932698594
-1.33087015802012365
-1.35592264988271616
-1.3783346751286063
-1.39835913943917567
-1.41627339231202654
-1.42388292404804773
-1.45190276059024859
-1.47716043050969548
-1.4998613167056325
0.761992111651372594
1.34679594514137735
3.13119494773494633
4.19909654492200168
5.06145071584611728
7.33103339260862441
11.9485665600065545
17.698948230041097
20.0428842388334942
21.4116323071481247
26.85393219345681
40.9309662035719768
49.8446003019032204
47.7720497708313943
44.2438266501467226
47.8385418761214467
53.9932250545897432
53.3664436139711853
51.272224586386983
50.0049956078341893
47.531774492504546
46.215261395168703
44.5240716988906016
42.7954415043974805
40.6234881583897547
37.8990375573696383
35.3773785040155531
32.9162069092481886
31.0137614036986093
28.4077325161904
25.7641395502463659
23.5910394099574248
22.0292738928870122
20.1251757031730065
18.8998523375646421
24.2525357065587883
103.163547848962153
301.298361377535912
0.468368163101947566
0.501513725891535977
0.712111814208217675
0.846190641576055502
1.0173203549397436
1.29410645877168573
1.49741019315208734
1.58185269017245211
1.68261994090072253
1.70007880800434386
1.96800348920843371
1.7628240964490951
1.71706675718960966
1.6440609366486898
1.5478355430583921
1.58367550425519665
1.54355175499002195
1.33932105246878086
1.35177285297835792
1.45926480340413689
1.57127240186834038
1.44925596378045274
1.45126711720200641
1.30940277442672381
1.12569606523348176
0.931620310161055398
0.768693832984807424
0.626668868586425343
0.45910219617811171
0.349288087263422198
0.326920796288800553
0.359346126682923095
0.269730377039315405
0.104936782681163618
-0.0431976941629786948
0.946732597725170377
25.8118962081576733
194.280545252394347
0.422593361735258854
0.435096138769856589
0.490865816612399308
0.504367167708184239
0.489086075184926583
0.489769863417131135
0.512570331492073539
0.528652394287784544
0.548472885968633861
0.558515745902160132
0.589359558448891985
0.60625874730820839
0.600118825188893368
0.567443031331368086
0.518970281876192541
0.513945997132889909
0.457094168945545665
0.391024385724549006
0.358009909007557581
0.347504897811309221
0.340582541704827713
0.324784054170190073
0.303190309344950282
0.282508269952002844
0.252300061867039349
0.228796722323558077
0.206469189716959711
0.182281866632932332
0.161547204712760184
0.145496823104570017
0.130010366676036326
0.117151706063784167
0.0955746018409775466
0.0745873007752768102
0.136582817218524111
0.474880462555683724
3.37571889858665797
78.5043179116274956
0.359486924111560691
0.343903856550465847
0.361519960640997451
0.367345199905803166
0.342951457644638302
0.302815146210788366
0.281774498393369821
0.274198337442294937
0.25996624968831672
0.244215239179621069
0.232886322467309892
0.22319704472643187
0.200256716735118689
0.161835659525889075
0.126515272454187699
0.0998059452341221176
0.0615142343115496759
0.0308280620564418406
0.0143935906080707721
0.00239501885386805835
-0.00450473357755698522
-0.00610236126033625315
-0.0104825201519881395
-0.0162810980281875572
-0.0222870039319681412
-0.0324396726627418364
-0.0488561579981900973
-0.0656968103547214133
-0.0814858213116849139
-0.0907320188703401032
-0.0995000450941080361
-0.105258073204142599
-0.105078242904463437
-0.0897433927344460924
-0.0305957253662080819
0.182900352810195788
0.391297237612584892
25.7167184332470526
0.273035256709141305
0.257832320387570757
0.256277192283507316
0.251921422316877308
0.226821455619550028
0.188445963721096343
0.158786414305440493
0.137050126352688428
0.111315487449956785
0.085672889863419921
0.0571755427588322984
0.0284967248053965561
-0.00326178427859391551
-0.0364805017149892885
-0.0680704358788115638
-0.0965218454368445
-0.124275648354601254
-0.147670479996374948
-0.164425307532528708
-0.176484885974122041
-0.184090623183842506
-0.18898455720800722
-0.19470204172401262
-0.202216955105828378
-0.212013737104786548
-0.225096585690249706
-0.241561403438404487
-0.257548875551414813
-0.272036824837465885
-0.285476855272940311
-0.29246079943079023
-0.29005456090415449
-0.278160656483699031
-0.253251215872772328
-0.217137458769777025
0.00983254896287377722
-0.288564554899820747
8.57480016469175155
0.175763334463020393
0.161707085995115851
0.151542379797621973
0.13889833400477658
0.112036283375637202
0.0776870783693228706
0.046295114548735472
0.0149870955060885658
-0.0185216110334633921
-0.0509407633454105335
-0.086260937058718401
-0.122062814346017623
-0.156101118720008647
-0.189630811708446867
-0.221206806299979408
-0.249406941222413858
-0.273552711136404891
-0.293440105863449041
-0.309356088559621489
-0.321342794954292577
-0.330210773073298991
-0.337456337310445498
-0.344843291299407384
-0.352904193821461598
-0.363599309187418007
-0.37689799991566808
-0.389756004796920463
-0.400798172741334224
-0.41047447414312549
-0.419337436500956562
-0.425411588809128161
-0.425361515516861077
-0.417300354288390851
-0.394730971652205498
-0.393915807941753515
-0.135132276345060198
-0.76721852736295959
2.59524816029987448
0.0759766843119806801
0.0620630162019252252
0.0460000283880575012
0.0265262715814248429
-0.00248254340819809016
-0.0366225539826321445
-0.0704221810598497644
-0.104908715224122595
-0.140751563241188427
-0.176007410971222078
-0.212331293504246177
-0.248473770049302045
-0.282750241503128996
-0.315511485430053418
-0.345611550810282331
-0.372249133720983227
-0.395126961356859097
-0.414109855327938092
-0.429662158656657966
-0.442183121736299256
-0.452452451799426114
-0.461808691223799916
-0.471335797543616153
-0.480454555101707592
-0.49097757065151898
-0.502709654663454186
-0.514307158193000546
-0.525204537578274788
-0.535354582449688032
-0.544909467732600961
-0.55277845496051714
-0.557229485759250132
-0.554042534498901174
-0.534313073019969886
-0.563591212952752163
-0.284287942341957089
-1.003706803710402
1.00549037598911184
-0.0244154660691292547
-0.0388322707196788741
-0.0596714396465429786
-0.0847562490699543813
-0.116441055328666554
-0.1517610292298186
-0.187666403045734564
-0.224088913374457688
-0.260864506467558321
-0.297169478766885153
-0.333982151647513326
-0.370179638179751747
-0.404316945392405036
-0.43620651974267366
-0.465394882938709398
-0.491338862727767334
-0.513677090706068595
-0.532393852568097792
-0.548065384089113206
-0.561346627161675493
-0.57316340060632287
-0.584198945133486802
-0.594706423712389354
-0.604927838746465829
-0.615819828791664858
-0.627246127556956967
-0.638343761936245757
-0.648992798129339521
-0.659336210485210961
-0.669677134744815383
-0.679700964115659945
-0.688368898125385154
-0.690063247614159492
-0.674624895692231275
-0.729383394390703432
-0.466048475878262147
-1.21249869115674214
0.395217639040595259
-0.124926232337184029
-0.140428959960272493
-0.165251477270859204
-0.195002331845344878
-0.2296831492639968
-0.266882797652669423
-0.304730932553221256
-0.342781071035471174
-0.380632846803446223
-0.417849793132419545
-0.45485144084849638
-0.490876976611424931
-0.524814733723829807
-0.556350965277635723
-0.585088843519044444
-0.610676353422231477
-0.632998249585924211
-0.652119622411220679
-0.668368313175703888
-0.682507857744401258
-0.69524438962563917
-0.707083485795570343
-0.718219448256523285
-0.72896017388394363
-0.739879467705423233
-0.750936819054468074
-0.761786849057847104
-0.772305787506059604
-0.782864036243004158
-0.793855931534975912
-0.80545979184087757
-0.817678186908795679
-0.825259045787811285
-0.817524507279038026
-0.893426236432208976
-0.663026152948418601
-1.41559277899818037
-0.36837652859853165
-0.224607902863089293
-0.241963548748602042
-0.270568388733886445
-0.304517771614576715
-0.342338289717915578
-0.381806287655181209
-0.421618736204719124
-0.461257133993923873
-0.50033381620263917
-0.538538678613994848
-0.575922639841158102
-0.611879285473009515
-0.645644665185439837
-0.676897710873893388
-0.705323523792585672
-0.730669201769375887
-0.752926041543245717
-0.77227293319206769
-0.789136655256063579
-0.804052017969935306
-0.817487221035124056
-0.829846221073567092
-0.841401789838727709
-0.322781114795691604
-0.342730087305426201
-0.375343129408573284
-0.413385281193250131
-0.454487039266447734
-0.4964693994348649
-0.53832731347295637
-0.579568720980830565
-0.619878301516400665
-0.659012788305935349
-0.696831916779848903
-0.732855680755351346
-0.766549776735536703
-0.797631922869706189
-0.825873713915973084
-0.851119948037314611
-0.873420931880915186
-0.893011320833086208
-0.910306629069365547
-0.925737640571877574
-0.939676028362981475
-0.952427745288848326
-0.418424170136005635
-0.44211545145218345
-0.479338771266410446
-0.521658927946006878
-0.566240832590398924
-0.610923073154064022
-0.654922468879370001
-0.697806453622024869
-0.739355764388355041
-0.779377211322117347
-0.817653544300960489
-0.853825341602561072
-0.887523803396026767
-0.91853237621690309
-0.946699480023763362
-0.971959437439967378
-0.994412874804855518
-1.01429558022596478
-1.03194516035701511
-1.04772384479072223
-1.06197027788057108
-1.07493627651741352
-0.511148801706281075
-0.539601719339200203
-0.582426439653739414
-0.629429154274636304
-0.677749636423753965
-0.725286153343443596
-0.771506697866745195
-0.816071219449508445
-0.858872125659317587
-0.899758588814024485
-0.938521283235655313
-0.974905610554746449
-1.00867251770029709
-1.03967829077861085
-1.06784430590300095
-1.09317858792007416
-1.11581819601867838
-1.13598183122745877
-1.1539312455013131
-1.16995466286945859
-1.18437145032323721
-1.19742487017086985
-1.0202485255140934
-1.05952104187170448
-1.09616336675848558
-1.13005636861641179
-1.16111494805298499
-1.18933400867284322
-1.21477841250875263
-1.23760579560427786
-1.25800959419485814
-1.2761939533898361
-1.21766450829006723
-1.25172185537983571
-1.28287682950239823
-1.31118554893922701
-1.33676048573809347
-1.35976295802771174
-1.38036083131172216
-1.39871814283168772
-1.40500601284844029
-1.43341924583076041
-1.45912463202829423
-1.48227430932971438
0.899633698475094334
0.771370760402825928
0.920975614446165824
1.17750173635659672