/*--------------------------------*- C++ -*----------------------------------*\
| =========                 |                                                 |
| \\      /  F ield         | OpenFOAM: The Open Source CFD Toolbox           |
|  \\    /   O peration     | Version:  2206                                  |
|   \\  /    A nd           | Website:  www.openfoam.com                      |
|    \\/     M anipulation  |                                                 |
\*---------------------------------------------------------------------------*/
FoamFile
{
    version     2.0;
    format      ascii;
    arch        "LSB;label=32;scalar=64";
    class       volScalarField;
    location    "0.390000000000000124";
    object      p_rgh;
}
// * * * * * * * * * * * * * * * * * * * * * * * * * * * * * * * * * * * * * //

dimensions      [1 -1 -2 0 0 0 0];

internalField   nonuniform List<scalar> 
7236
(
38.6250537441104882
83.1067062033190354
108.735786394196651
123.213994612512536
132.221493753235592
140.02829040636064
148.841746224376578
158.792670080188287
169.906140474503644
180.940842477730882
189.68772425041459
190.445548860043516
196.407770353179671
202.001423561796429
200.285972126295547
194.016231058146445
193.122636800580011
192.583988799652161
181.015189686635011
166.392487380997011
158.116480307660595
148.482933368062362
136.627722667778613
127.617120733089379
118.289609554583933
108.312785707875975
100.578188275644536
90.8822998233201957
81.6750803059676542
75.0101406958183929
69.5845428582595815
63.4757750177883864
55.2013134232463045
49.2620961829966006
46.1236864820452226
59.6936733495060139
162.878996383592295
376.18925713150287
11.4141407374333834
9.25408911211219909
19.3101965208151256
22.1617522682387715
28.2665084663731179
42.7010116623451026
59.1757311211445014
76.9093431579075855
91.4214990900896254
109.336516224037268
129.541742327507734
126.881813610713181
137.132742055936802
159.769190171454028
154.588696712891988
142.732111736589729
151.722965409991275
163.831514273053727
134.499434703958457
103.24636345128107
103.956595741371984
88.6109133060513727
73.1731804660688994
66.4547351333518748
55.9793684686700885
46.0322244707488721
41.1979907626278248
33.781051811929089
24.3218489673498723
19.2449087325194093
17.8072410908537542
15.8469385489200523
9.71936819588637846
6.47803489223894324
-0.111150694282003581
4.72919982378960579
59.1182408131764774
298.678359466946404
0.0249743804441562127
1.74722118422037598
4.22443196652418429
5.77574958275870909
7.97416311605691952
10.0353052809744234
11.1950442942400112
11.0011399147227209
10.8820324202667074
10.5424283391098932
9.80128307661651377
8.81602216036154651
8.21113596574314464
7.72137524403224074
7.29953902151919287
6.45236014685960146
5.8522196492675489
5.35074000812444339
5.087910236126719
4.69547354946381112
4.01784263983220313
3.66152774095050715
3.27468176385230203
2.76494478927384302
2.36339336359578933
2.00047181340078462
1.62812129783990178
1.36536381599659573
1.18427602374262242
1.04499827871123396
0.859327018367697537
0.656684246689087314
0.558101439950776435
0.41353858457867454
0.468156965199642505
1.74587702285714852
14.2038941537638088
168.284337637804924
0.0100893081506765927
0.413590432814215314
0.572446594901152239
0.992044470678545065
2.19702289880247514
3.0515827144501535
2.98213330737528359
3.10804156585257729
3.40348756065796199
3.62932124531547906
3.60977913254663951
3.471532340531156
3.32217490355345424
3.16477223658944862
3.01579465586708118
2.71179383150029496
2.46621226109941283
2.28349421751051329
2.1312837477142681
1.97713855553462503
1.79886802803562551
1.62911699614873617
1.43683295711839021
1.24955103836072534
1.07029225367973257
0.909707448236002469
0.797092116924843386
0.756771550583857366
0.728189378318729208
0.679009714922465646
0.636631165033875179
0.556606065269657169
0.481561879150506522
0.393439505568957848
0.458213059653243326
1.01492712686401099
3.15750567190763087
79.2389762836789373
0.590058212636493162
0.754868697656544407
0.712453766281284429
0.581509117332040026
0.726558568546377792
0.753622610890119282
0.942429094409903079
1.15500234251642087
1.3362154176797536
1.5265419367747326
1.55620944021884156
1.52754017208046244
1.48860115768244161
1.37540088771649827
1.26789400092236604
1.18347731675469459
1.10320672113870821
1.03724765787144535
0.996142376694383547
0.96348748239437032
0.913781413673229514
0.846711324274298627
0.769682275449246611
0.736736584162507091
0.69425798859557053
0.628789703641622344
0.568933684464569156
0.550961964576987318
0.571300752546793578
0.591389108080488946
0.572589364650144761
0.498235069009583253
0.448071234130958562
0.381876024899492239
0.381691669353312446
0.688462276795543171
1.21426812639772197
74.755988085024569
0.740462818570485237
0.763539262112135853
0.755828053127614585
0.715013895049526838
0.730790696968666942
0.704510263508358769
0.672598175802912368
0.674374701897816675
0.71120096016184231
0.773614623413964475
0.775113065405031776
0.754801601678884437
0.723073901879290215
0.656375124015041611
0.595221808515775663
0.552745111403734501
0.537481580828585881
0.54231749230698767
0.55228924084736597
0.558711896393929597
0.568021887863589203
0.560981769874287828
0.514034862458938813
0.522911756737393207
0.548279381318667602
0.555299356822595236
0.536742794117085364
0.460676338465627888
0.364466718591644423
0.300963987978380199
0.255584431514740418
0.239366749382621591
0.239649185793404579
0.270352130263987245
0.312292662535806065
0.575456492660572305
0.257967042545105163
60.1753915351281705
0.810021417782862074
0.801106720042618181
0.768220322263128086
0.761117961265915799
0.741584102219878472
0.710940091145745856
0.679038356639875218
0.640703534888860782
0.604744821635921581
0.584060802671074963
0.54944270126078476
0.509138858646824066
0.476274953158173364
0.445707098887871911
0.416705226425349073
0.398127094053516928
0.399746913756750977
0.410758857426263502
0.42377871744799972
0.43000754021337273
0.446276203934148907
0.469326861189269251
0.469493136231704633
0.430557708030465613
0.368613831277227355
0.307467144362018885
0.27392876671538241
0.238650973317032361
0.223794386810907409
0.214686347345447143
0.20949312902635131
0.20991482386732635
0.219575854137068649
0.247714619651769968
0.257748127579830399
0.525725608329505989
0.0115512237958156246
29.8747513156530893
0.842059927138063991
0.833262236012351276
0.796087138205602063
0.778502153606538072
0.751330024410941655
0.718226122283180501
0.682315086343964872
0.64451539316403228
0.60775444573894899
0.577905602653070449
0.538620264955396388
0.496082503907179173
0.459190346610486078
0.427040875625163963
0.400256937786683087
0.381016905839476228
0.370047900515842187
0.366222135703349883
0.364183092448598866
0.361328439066018969
0.362913760979217292
0.344489256897275442
0.31614736575875424
0.291102333511863209
0.27322938645643946
0.255548010777668588
0.239557847661253681
0.226908139102693224
0.216816261842795788
0.208798724820630777
0.203084826302489002
0.201919515314261749
0.210539162827186543
0.238156388239118055
0.215691783742981064
0.494315080890885994
0.0320732759849114424
11.4958473975302553
0.864243943135188042
0.861498242067130438
0.823378607491936032
0.796175493891911112
0.762817239130301639
0.727221102571764533
0.690019606846317801
0.650829515881488629
0.611111231876786842
0.573342568113446749
0.532372461209607351
0.492411787510922072
0.457339565044532215
0.426231179428634033
0.399452249603714726
0.378877285549764242
0.364574313852877752
0.354395450734861672
0.344698321131577889
0.333412131833904002
0.321134328744459852
0.307831925535692275
0.29364035011644235
0.279034226044742817
0.264289478895248509
0.249646863039197253
0.236093840662827237
0.2244998230244101
0.21467049209447267
0.206223643046787336
0.199449641661869348
0.19609651180175891
0.20231465958469505
0.228376133235653311
0.183710041866065571
0.459004606400675252
0.5471770357180058
38.6112764761052532
0.880907961886396529
0.884751795331412683
0.845456904274533572
0.812650062552573327
0.774716541969457051
0.736435882494852811
0.697637444488693137
0.657417324213075527
0.616397663469420931
0.576122764483685934
0.536045823168969204
0.497474655073563143
0.462362045540858191
0.430928219125646439
0.403745882663498812
0.381905566440403299
0.365268190844905194
0.351974226582401073
0.339594028545857962
0.326770398034268161
0.313859335664307737
0.300883333881376225
0.901543275809386424
0.906374579994817409
0.866018559244757458
0.828467859694840048
0.787030079200875088
0.746186807527574159
0.705272507692479955
0.663538670187739932
0.621499178536363384
0.580092556885384747
0.539931699464466175
0.50194608569341248
0.467160090204731815
0.435927140016387049
0.40871174998986709
0.386111635946696785
0.367743258430049569
0.352318221175074275
0.338262766886965438
0.324565071900497937
0.311176737333146713
0.298142588413504217
0.926997679838979849
0.928869382226555795
0.885834642893713053
0.844034756981689283
0.799431594621735298
0.755986989723127056
0.71281156633731424
0.669405389371324211
0.626248699896028937
0.584132129451367832
0.543849148387615444
0.506179701494489542
0.471739689127014694
0.440796700945138509
0.413624057891259389
0.390492629525876267
0.371018245750825038
0.354143635946658042
0.338833891793690001
0.324399298189249841
0.310627724341992817
0.297515314777322182
0.954941640436730577
0.952774407272271695
0.905656857538664983
0.859636846432946578
0.811789401025247215
0.765577791576279032
0.720078461611590503
0.675047651101005397
0.630766046770423361
0.588055211462670702
0.547674381715316017
0.510197327762412445
0.476040602405160995
0.445343447433579842
0.418186920950243179
0.394608964386101324
0.374240326702040216
0.356289654295630309
0.340020223005904954
0.324989041700951109
0.310948594045165727
0.297767922176166433
0.591875600667594148
0.551287614368394796
0.513920319179532958
0.47998949896450821
0.449473610010406643
0.422291554006169634
0.398316185693966207
0.37720599085415335
0.358411005122771853
0.341413606859196472
0.517317597970699539
0.483514839018408582
0.453116984357807395
0.4258750745870718
0.401538000963150676
0.379825201856451022
0.360383125430890128
0.342842911826981234
0.456196009555229265
0.428861746387115605
0.404201348299788155
0.381998882095176961
4.28887486691922959
14.3386605534161848
31.2717264324766795
39.7140578112185025
53.4386989202432048
68.2000336226736579
85.2375302431709656
101.325251338506504
105.215403966918856
104.467955294707963
118.708159386164922
118.52358477492939
121.019408368184656
127.176129358924769
130.403568493448176
134.426273202936812
132.957378211479352
129.057170515247662
126.26775035797786
122.097372316610162
118.836812665522132
111.768003326965413
107.236104213302042
102.063816918541391
95.0169351644371289
88.8906211927492791
82.0968019381979417
75.4398292375857409
68.9643766285980035
63.5257548640010725
58.0563436941229654
52.4733884818936573
47.7120189005657664
44.2370964931810846
41.1629263345813143
49.4904613995212586
140.165684247974298
350.746294492277059
0.714900159044005057
0.994765831110883125
4.14730083930681737
4.32595682860471342
5.20532489417250765
6.64099180859311033
8.38111284656882738
9.57036738742753457
10.7006263920924756
11.7034540056912331
12.2455970374667604
13.9752462008202212
26.677256605265061
24.5827312370929896
24.7912580475376352
39.5601651915943435
42.8299620033385366
36.7838053282897093
37.7158748511727495
39.4268853004299373
37.4686698755578789
31.4387851331438384
29.988792916443149
28.598333793587301
24.2870924235168388
20.9312478262791579
18.1668031834686374
14.1791072046480515
10.2397838792951639
7.58284527719168899
6.14693949601902645
4.82152074987207424
3.00975032225569361
0.549595752990995945
-0.552393163950891664
2.21550117858462725
41.8037689097935825
265.19369113828327
0.759864028565581551
0.509373502542964984
0.762941717884201953
1.00681504527899701
1.88877103531942536
2.69557289746517093
3.32321628844009886
3.62569466518905026
3.89061378564471916
4.17150085019986872
4.26615543548902654
4.26665726973299897
4.00231568340674571
3.78187192963873153
3.73691096667275069
3.45391928800734371
3.31141574915042591
3.17383209806685285
2.84094611609599434
2.45958537082362616
2.25782274562781637
2.10366167176318708
1.89775149403669419
1.69216725713956384
1.50516552244302626
1.29784780699014068
1.14252655466813957
0.996514725517454458
0.916913572219874684
0.861424520640481806
0.762220306324717378
0.683332875993890032
0.568416328995201559
0.436358897324179928
0.43836983101163296
1.19905879827244322
8.05174936822053411
140.541970754221325
0.835815700427072095
0.727867588633302476
0.731740373610388128
0.747870886833382875
0.742285539547258955
0.929253440673943665
1.00271773114355289
1.13104075303285523
1.31140702391503949
1.51421855519321125
1.62938324737036866
1.68430234847816984
1.69564136306996271
1.65868864481042477
1.56519620707737461
1.48002579190114258
1.39349717416864016
1.33659950731450339
1.25237245939905328
1.16575160297745706
1.09074649443706084
1.01433894724965179
0.937229052645616401
0.856232709384116886
0.808812747557610456
0.785272664866509151
0.750375185716930737
0.691161628158982078
0.662904433229658974
0.654537775577192282
0.685775481332971504
0.703558244989311077
0.68591633971548327
0.515476189084102088
0.433583135522792484
0.795821044269382383
1.88356695015720166
58.4434354404945751
0.840305504371826162
0.784650633584007551
0.76864742479260928
0.78204854763320053
0.74435034442318726
0.716866321993605449
0.710917602861909192
0.732705074598361539
0.785671891054321114
0.827432048949859666
0.839750708265694201
0.835425524777227757
0.827458964056638657
0.784533776143132133
0.737796233121587264
0.692593367117350645
0.663097297579492873
0.643396370116264937
0.622836290325286535
0.609442861243762457
0.601803143081186098
0.599089508688442129
0.58863182122564317
0.557889239847731755
0.54438963912524263
0.555184108975096291
0.579930296980120441
0.59356386546512041
0.581874018208445976
0.527197869989618262
0.433140579645368784
0.35703683078345827
0.316369954854247903
0.323306674196005395
0.370136970553128886
0.633676618840605999
0.629370795203047506
57.5721653147929118
0.8397224302484112
0.806050337089916913
0.791972081046756093
0.794195395123953651
0.76303358462206583
0.730368000947092311
0.708159283016242869
0.71515678412957151
0.691026363598234883
0.659614981338371598
0.625375862355395329
0.581352115707767014
0.546031183280961785
0.511771817703526199
0.494832479944664283
0.47388364639581948
0.45828604291274877
0.45174723296270175
0.443881112885790241
0.444098507282776445
0.451131732268975905
0.464441562695598997
0.482375385376595023
0.4931298606061158
0.478910911955308882
0.418300982257243936
0.351029949629712124
0.299788115872365368
0.272395921631208404
0.248068272367924975
0.238346263118502599
0.237092361438126148
0.246850594984018734
0.276021346152685421
0.308756476494151721
0.563524737532295483
0.134616187164270429
64.5695554432334404
0.853567349514266382
0.832930077724603812
0.813231373267731983
0.799489725524720751
0.771085845977388717
0.73758658164122326
0.705551555411453313
0.670052450413605949
0.635581227059635934
0.606051465480998086
0.571661737894391897
0.533815384268669035
0.499037609555069872
0.465848672854709767
0.435935192002510685
0.411521609766154262
0.393823815638619512
0.383115042327484667
0.376079258687865958
0.370860590314359029
0.370380870256319106
0.371237894730164164
0.347071015821665552
0.329841366010973525
0.304791263203558649
0.286301554754936793
0.270677406256923769
0.256786486537471437
0.244993664003565315
0.235353081687867782
0.228068391643962393
0.226257362689020053
0.234506865255761143
0.263253909178324474
0.255149958829347601
0.561486430806616532
0.139072915388723184
55.3648196610406629
0.873256864199683958
0.858062670410241424
0.834500109330284401
0.811464763424087021
0.780327932593603113
0.745677434725711907
0.710239291422291141
0.672648291213892691
0.635016414003053642
0.599211197157140329
0.561027821881611932
0.522675271252585061
0.487238001725332714
0.455063384147366801
0.426540462541058651
0.402904445170835956
0.384389319682206909
0.370497373800842245
0.359527303451695535
0.349750085692935975
0.339849497281384194
0.328935337212359569
0.317507554038308659
0.304640933702301553
0.290888046165859226
0.276658339019190624
0.263105294266503753
0.25103686057943897
0.240157205078418395
0.23049537407477183
0.222743451805579029
0.218916153434008387
0.224415432465502135
0.250959543977476218
0.213753948751816913
0.492310933789815774
-0.194384590922472289
49.9695462205940473
0.894820156637830877
0.881212716816748953
0.854172208980717551
0.82480736138477595
0.790324636676375647
0.753603938195214318
0.716047839970325284
0.677281870212375847
0.638498358915361219
0.600737138723692166
0.562071590589356074
0.524236690406440276
0.489186829888523966
0.457283800118661155
0.428882982945465008
0.404943899974201993
0.385614962616461943
0.370160424231831098
0.357164887751613203
0.345230779317625136
0.333558161322833391
0.321813344484464581
0.31013427922189496
0.297926775495497176
0.285282775224595553
0.27248509663620768
0.260240973290002675
0.248904580289461996
0.23819866534781603
0.228343433620554426
0.219588473265984435
0.212981847303373911
0.214019133816724605
0.236132571450590356
0.179954217657842586
0.425543507295585155
-0.439670747986215249
37.1925307107538714
0.917070046535152561
0.903214013112066505
0.873024377046126565
0.838900376082723942
0.801022083916716476
0.761864633304528915
0.722233656859692874
0.682112687785242366
0.642205084538129078
0.603160543318383868
0.564411056935012034
0.5270273469308564
0.492348039226131629
0.460755873783713299
0.432608466435742856
0.408506067530568562
0.388420327486511341
0.371635131956123077
0.357089118625880997
0.343764798251064818
0.3311496858221743
0.318883893458819512
0.306879217284563244
0.941014281120507001
0.925264390826838312
0.891702478469394988
0.853388268824278318
0.81216956401112661
0.770454879528920555
0.728725456761239565
0.687085121717783465
0.646006476521327366
0.605940715745302949
0.566987752654027566
0.529895290285616549
0.495512191693616599
0.464216563301522389
0.436306165627976195
0.412088826018351395
0.391413304174860144
0.37367310921270297
0.358014885045582709
0.343758962621181108
0.33045679935336264
0.317774743175771313
0.968022508951130511
0.948430580294859604
0.910737546800185926
0.86827268822728032
0.823647461499588673
0.779247364708425261
0.735344176699755048
0.692105717271139009
0.649860217300563758
0.608958453292677282
0.569731064257809505
0.532749788844482874
0.498569198414218817
0.467471002373710476
0.439656378416361349
0.415260052148712588
0.394075102524432286
0.375576270816670721
0.359122076728024153
0.344188082392955397
0.330386589830057364
0.317448740987645528
0.997962249165140536
0.973356544135331903
0.930413293485362947
0.883520388893897946
0.83529130937238727
0.788067453245081984
0.741937030045489498
0.697061819740518951
0.653635640057219858
0.611979969085567177
0.572449871013174794
0.535460883102275242
0.501386087621995213
0.470401938331262315
0.442600263689634899
0.417986930602471496
0.396331748681663043
0.377206482289685285
0.360140235345644544
0.344725178954606026
0.330607828896065548
0.317527781316312818
0.614888876875290924
0.575020118128810487
0.537950400414958008
0.503901728349303801
0.472960745204022537
0.445122044278101314
0.420288650102144945
0.398222080358471286
0.378590909648947038
0.361040924771488914
0.540149277536114081
0.50606798428796762
0.475111324233106425
0.447194427927493587
0.422142429258331564
0.399731076655802486
0.379707349524578019
0.361793744366678049
0.476805732690660233
0.448786179185062806
0.423528919755371824
0.400828508591485111
0.825797691719683091
1.56766740593553311
3.6195807620899676
4.89314523502663423
6.03872856951120252
11.0386365096800301
20.4190257278300642
31.8183568659092657
36.2927798666221122
39.4374012858558061
48.3089592533027954
76.3539809373168623
94.0387985396062618
90.0383163103027471
83.3534228754856628
90.3307601882116415
102.475201153798679
101.320320508725544
97.2053868348767907
94.8406247591283744
89.8027964411398472
87.7667899225254473
84.3962954334854203
81.302108596552543
77.4056107262177733
72.3786032911079928
67.8148929019209277
63.2505009429063421
59.9107898653738928
55.0528011564228379
49.9181044599927333
45.6405545377836575
42.7568948810249694
39.3506045130350373
36.5194494401905132
39.992035112879428
116.10072030762349
313.20868427103386
0.656604395258424844
0.675985933467483369
0.886922413883861505
1.13205760759913243
1.55873663635908954
2.25026013185277662
2.87826204559504983
3.38406210459986534
3.88680070422648782
4.27050860576708491
4.72459155847062462
4.36021946461543486
4.29412459540982461
4.15554531040641084
4.03695550248741508
3.88862873394122044
3.96614476614300404
3.33485237602303686
3.20480040493854101
3.35266174553263552
3.74887981107672585
3.46334242886153154
3.62298264071386189
3.22812837249557871
2.81539618581838003
2.21863793898712114
1.7349469543018845
1.36076650864463367
0.85292205523779685
0.525791652147285293
0.51877469363150841
0.753171236038108094
0.526500826207697115
0.0268688394481812858
-0.26736281839309145
0.970128860885381306
28.5519090087722063
226.658194860496167
0.732377256722832048
0.741517899784920553
0.795555634040475801
0.811960021884541416
0.820704079359507621
1.01114611400395771
1.22910816887955576
1.3958289750343611
1.58162622562410071
1.75855509793567988
1.88550594621553214
1.8901946176240747
1.7546544064942482
1.76921452607218721
1.73156573355475252
1.72873092180983967
1.62977826012819627
1.4585246765849369
1.28499404033434983
1.20848016406879832
1.17602918698277659
1.15151938112830643
1.07346671976286556
1.01433866575294163
0.926864881654878459
0.884546860618370956
0.845488774388233555
0.766212064063703457
0.691203908694551949
0.615582027481318406
0.585453879032734603
0.599736751652731104
0.562375461514205477
0.467327188542718319
0.469950056488326107
0.855292993017825132
3.96895932278192687
118.520025444233283
0.790486313224772363
0.773102183196742732
0.790644042344908704
0.796167750349428771
0.771599784000554845
0.732179374439396069
0.721437150003868655
0.761851399553886699
0.850351511219698875
0.926586120377530409
0.985035838021378951
1.02205653826703702
1.00579195793267218
0.967217337064468885
0.94441166940352228
0.913591541082295899
0.850947884880409733
0.812091147932033408
0.783670577634112298
0.744891610148320726
0.715742885546342245
0.717061454242070684
0.709373462446197478
0.695274173420332264
0.691344809570839103
0.68690148250321259
0.68275425062594286
0.71194668134778194
0.733211368742235248
0.766685873753166103
0.732723693895728445
0.66754844744257813
0.563778807228994538
0.459837759836696502
0.429306933836428595
0.658054787494495086
0.808026750899754065
49.8148048080344239
0.825258128982419015
0.809650715762863626
0.808098234166360618
0.803752384790574315
0.778709110515818259
0.740867572986536604
0.713542809830057245
0.732452779792181263
0.758972357050700652
0.769854606357013305
0.780672485698451379
0.771985949195379217
0.720007233208981301
0.666787388437577233
0.645918720609005126
0.630027651074457018
0.589323349265440943
0.546261133680202682
0.530937634184050045
0.528012545991889293
0.533417644915666789
0.547133695316748825
0.550173143929708619
0.551010413521807796
0.560941586454878127
0.573859835377027783
0.527952538151538975
0.46083344327796727
0.398531047016084272
0.342527936348853368
0.313054473628540164
0.301111145261190316
0.292941181776382953
0.313815673992369315
0.358987052435679466
0.599913914328095599
0.312978591430409681
32.5982063669006408
0.850262984314537396
0.836146831321017414
0.825983288993015319
0.813341985120280997
0.78650446238930205
0.752288888421260959
0.721443611091904136
0.692897856658995837
0.664523522010032286
0.637517526425772418
0.607128263713869631
0.575745731110086867
0.544753115953289568
0.513275315996158721
0.483453299960677596
0.457736215502136667
0.43843882245739485
0.42275531267392974
0.406782733200578894
0.393708264219219173
0.385724195233658584
0.38339554488133426
0.3863255060424583
0.365784765983055149
0.343336143477798506
0.318912162879585681
0.298753557748801357
0.285900942592321905
0.274599919993240016
0.264174233972519712
0.256970151658084067
0.256554353114015865
0.264923550301660815
0.290994157490768734
0.299211465299141555
0.569210654935602078
0.569467127806936202
39.5791257064998518
0.873041832520537353
0.859126730151245632
0.843063811236209326
0.823591582051281912
0.79458932409687888
0.760474120967258416
0.72681006174211793
0.692775016864045745
0.657706921155379876
0.623541212249022148
0.588431400826973539
0.553358569300629433
0.519983971983819626
0.487744241549557034
0.458083471340402448
0.432201852743519632
0.409984146368951086
0.391631093232798766
0.376520310620009402
0.364326472421354408
0.353999824417446318
0.344472222610604339
0.334477548860617591
0.324557794497132679
0.312978784448489422
0.300231114586124781
0.287881726195091725
0.276341231135279253
0.265639051609850463
0.255636286064899798
0.247628305172835544
0.243674499241569364
0.248672724483244872
0.271975573830334105
0.246692092193621093
0.537392782080303388
0.557667343511098257
48.5671846006866161
0.895272997506350476
0.880856056750685346
0.860017048118363769
0.834932674384187945
0.803249975078025757
0.767939979728859745
0.732067162830094098
0.695723998759340101
0.659099532840275559
0.623026744948347533
0.586515024662236595
0.550617347863397888
0.516754850043592007
0.485070315494376625
0.456048631402338589
0.430327362874842467
0.408262394582575572
0.389789685527241414
0.374395964313262442
0.361379666006563904
0.349701622897362674
0.338700987728793368
0.328059112920841056
0.317567553417287707
0.306319621861081637
0.294561103355270748
0.28321495231672239
0.272361392052017426
0.261875981572851524
0.251517951989192912
0.241791191066702854
0.234057654776459484
0.234069222508651642
0.251580447884784397
0.201445857305393855
0.485044172171112287
0.548863713847378309
51.8161077206131324
0.917386771616482743
0.901884715081752941
0.877061861118411001
0.847311118142398012
0.812631757253318598
0.775435617504183772
0.737593678008481524
0.699554606749594465
0.661733059332586193
0.624560924054755051
0.58762679155629749
0.551679203826867415
0.517821034502325528
0.486357040038582156
0.457690206360126528
0.43219723329097226
0.409979917514399106
0.390963453446809384
0.374818971222670827
0.360795286482651134
0.348146768029075404
0.33633480732674248
0.325162240247924061
0.314334827750467505
0.303304381839232695
0.29214798891385918
0.281228974702251278
0.270668931212946551
0.260128977849749476
0.249296045331338062
0.238140207797302633
0.226684516283555543
0.220154040551521851
0.230424067615583705
0.160227419593068132
0.411263112786436014
-0.283532510996552634
50.7606285241190207
0.940330068043979561
0.922974431553854391
0.894370017335753054
0.860421251296616618
0.822600969311074848
0.783133874744764369
0.743322402014819583
0.703685147605973893
0.664614285236936997
0.626419019792435638
0.589048824370072888
0.553110305538899949
0.519366804104134272
0.488136892642023146
0.45973961306792871
0.434427154218959444
0.412207645617595819
0.392900668840492295
0.376081145048401511
0.361211551389511776
0.347812158183745834
0.33546796784670635
0.323904863374820828
0.964781874110581361
0.944832842226304814
0.912220391352101534
0.874178286397147231
0.833076399554061986
0.7910943350487184
0.749236935882463428
0.707995922697537305
0.667686961635810761
0.628554495574244365
0.590738596923078285
0.554719306717356697
0.521030979940591887
0.489955965485666445
0.461723037970400041
0.43648786035398407
0.414199925747376518
0.394624114933805115
0.3773454951102862
0.36193173183949745
0.34800740539140218
0.33526314746853636
0.991764263250989986
0.968072507877101307
0.930849304592823779
0.888529296789176248
0.843947289333751627
0.799265102568281982
0.75526602914895391
0.712382319430844624
0.670833142273935534
0.630812014048671488
0.592536458740679617
0.556365835693894417
0.522669025921947639
0.49166265543265153
0.46349836490384394
0.43824190165916499
0.415792783146427702
0.395915185180639617
0.378271503004446674
0.362499137984576114
0.348258160085199886
0.335295725810272116
1.02166455448170135
0.993211181385082131
0.950386442015020205
0.903383802774328504
0.855063297498631969
0.80752682415798871
0.761306454020128975
0.716742111508463009
0.673941375501424411
0.633055032881337132
0.594292448305248522
0.557908456573978029
0.524142088125078676
0.493137059524807297
0.464972036797585087
0.439638991641810584
0.417000891088032954
0.396838996375744213
0.378891449986247575
0.362870292576096931
0.348455640633644981
0.335403916172839933
0.635189765699836872
0.595917377610972632
0.55927519527978653
0.525382358786312342
0.494324030684975102
0.466105406968802427
0.440661544780835801
0.417834788307961946
0.397431654456498418
0.379247985069573634
0.560398695691782578
0.526341528259709146
0.495186786396666523
0.466878323803359696
0.441303625993492321
0.418301372545011596
0.397703770492813302
0.379346767173578236
0.495682243944715051
0.467269209903254157
0.441564006850836688
0.418414497920951256
1.00178710897598067
0.845439163568589058
1.03109232932975226
1.35316955869103195
1.77994861042090613
2.30671587920438004
2.81577594542401233
3.49055887791335051
3.99601220175440108
4.37136024505816323
9.37311181907621993
21.63407852929992
33.0447007623334059
38.2726904783160506
35.1514739053006195
42.1774348218594426
53.928251205353412
65.3199807974675366
76.4930961070853641
81.2563639094710908
81.8910891080243459
75.394005826374439
71.8726659902978042
69.3436064538679489
65.9064755485805023
64.0287863092910214
60.0527202379223652
57.1576684589641886
52.8654154712092179
46.5770622076147021
46.0734430792686354
42.2766207760227388
37.7808970279756267
33.4434631787281731
32.3235960887391727
32.9977419193337767
89.9557427370669842
258.092886307164008
0.880234907972454517
0.797287512842209778
0.769468819705030893
0.799928960754544005
0.820500164926914133
1.02123844549398624
1.25596421912521428
1.55319481125880365
1.82429089025178781
2.05873566957955623
2.51488408784823569
2.20278817598468857
2.34943141559419999
2.34921456792573435