/*--------------------------------*- C++ -*----------------------------------*\
| =========                 |                                                 |
| \\      /  F ield         | OpenFOAM: The Open Source CFD Toolbox           |
|  \\    /   O peration     | Version:  2206                                  |
|   \\  /    A nd           | Website:  www.openfoam.com                      |
|    \\/     M anipulation  |                                                 |
\*---------------------------------------------------------------------------*/
FoamFile
{
    version     2.0;
    format      ascii;
    arch        "LSB;label=32;scalar=64";
    class       volScalarField;
    location    "0.119999999999999996";
    object      alpha.water;
}
// * * * * * * * * * * * * * * * * * * * * * * * * * * * * * * * * * * * * * //

dimensions      [0 0 0 0 0 0 0];

internalField   nonuniform List<scalar> 
7248
(
0.00510134966946371258
0.0800923855858683142
0.00274182780758181702
0.0183400647831841873
0.14039418502246731
0.00475896697056520102
0.00189350679997397258
0.00168258930145942466
0.0027422841739058409
0.0714523931842621501
0.00229532920795863342
0.000651646168580377605
0.000627798344611736115
0.00173817996950341837
0.00561606778482285143
-6.51175418024237064e-05
0.000197716811516292224
0.000459586739501602424
0.00107830651608359753
1.0880963430713357e-05
2.55066637853139082e-05
7.35708899345039396e-05
0.00019812318767164976
0.000729027214693546725
8.05571567242474288e-06
2.02002250082045934e-05
5.24868518841689857e-05
0.000167064791746154503
0.000758120099441775492
2.55662971583956351e-06
7.37005563468663007e-06
1.93716787092359564e-05
4.95707247294898144e-05
0.000125192084019278422
4.69975321071238169e-07
1.62470368448435134e-06
4.81290023305050054e-06
1.32400334046470755e-05
6.52606140626853389e-05
3.75727285725302165e-08
1.37037652700621523e-07
4.74772171436928389e-07
1.24044099087654405e-06
1.87354097192021245e-05
1.19571503996471094e-09
4.92828135687582209e-09
-5.50414449216117884e-09
-1.36731882908324548e-08
2.43869784225696063e-06
-1.61442080400164208e-12
-5.70256826982186421e-10
-3.45353099161452362e-09
-4.24004472419427979e-09
1.47812842677023149e-07
2.04795077423964058e-16
-1.28820018717917278e-13
-3.34309706382012016e-12
-2.72222982582217143e-11
-5.56098823949633351e-11
-1.57695495977629411e-10
4.68287302548688442e-09
-6.51565651183098431e-17
-1.41942415868978619e-15
-1.71805140452742274e-14
-5.30879283802040703e-14
-3.17324438599416528e-13
-1.75552691847112112e-12
-1.15822751094362916e-12
-3.95305194301021111e-20
-3.89395208901392697e-19
-1.79977626606143287e-18
-2.12661722240402749e-17
-2.73667546333611334e-16
-3.56726992304639947e-15
-8.16554287873125058e-15
-6.95601131700897359e-27
-2.45610134515225085e-25
-8.12599774014183599e-24
-2.89275186511805064e-22
-8.73516910628637574e-21
-2.70422979156521017e-19
-1.62461233527592644e-18
0.00604645501661394205
0.0207741051987110487
0.00280220723967697328
0.00437418034096319526
0.183900143036611896
0.00539865893878239793
0.00189066544044469908
0.00169227602689834785
0.00297319845830929918
0.104386793578081616
0.00158157533721222342
0.000451936602364034633
0.000606261450041564428
0.00202726557986572433
0.00182744671592614295
4.01629454267696945e-05
0.000235333391380282869
0.000476205674751619648
0.00125507671136884918
7.37763936364306917e-06
2.17922581345260808e-05
7.78689331285573137e-05
0.000228649334125559833
0.00092454766651447009
9.08796630126755791e-06
2.86320184599944105e-05
8.0296804480838274e-05
0.000204881789634387817
0.00152735468727093859
3.92468957305374685e-06
1.26268479004361513e-05
3.56120931978887346e-05
0.000105633257653018031
0.000471071434712478677
1.25019486273281914e-06
4.10526969567799331e-06
1.31298483345684636e-05
3.59854878500299877e-05
0.000206173874299108567
8.20252442226416374e-08
3.96291441486732127e-07
1.35673530068190028e-06
4.69150744631396886e-06
7.8201063971024867e-05
-5.05142097056862452e-10
-5.16354719794815901e-09
1.59972468738786903e-08
1.80809993045891415e-07
1.22251744135635349e-05
-5.23223221561459796e-10
-1.79586275870991312e-09
-4.22355550087270455e-09
-1.03016394422383164e-08
8.12653404470733929e-07
-1.10859244864792226e-11
-4.03945148148136844e-11
-2.21962115197448569e-10
-6.93920495960547409e-10
1.59555170337354584e-08
-2.51481325376973125e-14
-2.49496987345042651e-13
-1.49433441279003371e-12
-8.562055195317789e-12
3.5073989897413199e-10
-1.14541047798930691e-17
-1.8391584579143858e-16
-2.42031117401892275e-15
-3.02410025361115579e-14
-2.37972277917075675e-14
-6.04442675067444698e-23
-2.33324854407060971e-21
-8.49566732436385909e-20
-2.78594523903931718e-18
-7.17265989949261397e-18
0.00659452221432193283
0.00642299758374567133
0.00360399648545778111
0.00547009491022432473
0.180194604929398761
0.00716402271981255757
0.00254572839131108871
0.00218910031879627261
0.00375373654199797572
0.0780074604088052126
0.00170716379172111124
0.000552494678064900831
0.000899900481972244911
0.00219540303261431822
0.00603167325603525331
5.59563067724604864e-05
0.000276667018181545
0.000593886408445897505
0.00159428493141591538
9.40338153334820367e-06
2.70467002868712989e-05
9.47265331610775031e-05
0.000360961783916992221
0.00137643761661852761
1.02840298846863971e-05
3.71958971465334329e-05
0.000111386806588419747
0.000308641227968925978
0.00233830935395603831
4.77347391020981486e-06
1.7182140688011587e-05
5.72674227062671778e-05
0.000230329868218544351
0.0010773385008505049
2.0226352876868117e-06
8.02209663940536118e-06
2.57231349570951319e-05
0.000102355107907049119
0.000351725602144710014
2.64912588839253028e-07
9.55106670786516703e-07
3.88440872351153168e-06
2.04654226217850898e-05
0.000195398974286153601
-5.33652543847540721e-09
1.45615128047884147e-08
1.73733396503506498e-07
4.28455512716516124e-06
3.76525060536232525e-05
-9.74165393378209444e-10
-2.38672222098608839e-09
-8.58727635825488761e-09
5.64617304071960581e-07
2.82340735262412895e-06
-2.21209765794934286e-11
-1.28540685079743136e-10
-6.18507913759533778e-10
-3.94482720278198609e-10
5.83311430636436839e-08
-1.20157099695578508e-13
-1.05955491493624751e-12
-6.5346415580489381e-12
-8.06397698586417563e-12
3.65138791377187249e-10
-5.86237363037681399e-17
-9.24692290960775613e-16
-1.24262881476748748e-14
-3.41377497720220144e-14
-1.42113193505782264e-14
-5.42584357751262454e-22
-2.20180680221150269e-20
-9.12488262642990253e-19
-7.30698564574507504e-18
-1.94314671984350296e-17
0.0101485388407671108
0.0073941979561583911
0.00479265722150230573
0.00814547314182120612
0.184896592471862908
0.00351772147933379804
0.00275158948077905722
0.00252404485830030542
0.00504133848589421486
0.0837322611276885148
0.00110367802984908032
0.000552331240195592672
0.00117293657709333326
0.00259141619948638144
0.00408108074975822507
0.000101933547916688042
0.000344816866283518728
0.000663660883522467372
0.00168327868718667157
7.44912440183490372e-06
3.46276438716449172e-05
0.000222475840378399953
0.000756051467011299087
0.00151000435678378276
8.35454862207211532e-06
4.4439281520620664e-05
0.000154480207384195047
0.000584572158151706683
0.00221234047271548539
5.19189783405573284e-06
2.2836728962630323e-05
8.21790179407372345e-05
0.000290015676601966207
0.00159064115446227224
2.90926184922634227e-06
1.09657826876001742e-05
3.80654348237907591e-05
0.000116701216001685322
0.000503366666937998092
4.87115989862041358e-07
2.0947555542663895e-06
8.16021797211426538e-06
8.39645951188126123e-05
0.00020316567659463226
-7.46123496723746233e-10
8.88051695316326832e-08
5.05975366841865524e-07
2.0146922922026458e-05
4.82895208543661998e-05
-1.49050715011002286e-09
-4.23936350965224154e-09
-1.18047721320569088e-08
1.65938557737434032e-06
5.17343556437169006e-06
-4.77842909087345497e-11
-2.56357987131526359e-10
-1.28448983765657281e-09
6.15552869571673634e-08
2.53813753781011046e-07
-3.32991898359087593e-13
-3.01100880817785309e-12
-1.93703760936359703e-11
-1.97946896872919723e-11
1.20093953129710182e-11
-1.79880963861403997e-16
-2.69011994361059036e-15
-3.31626827945236304e-14
-8.95846292164500421e-14
1.56225943720161371e-12
-2.35653211787409694e-21
-1.00403893281877331e-19
-4.35037589092802035e-18
-3.25805853684610439e-17
-2.22563359946699705e-17
0.0133550145845284882
0.00661112518476853449
0.0066547790853113695
0.00950666839927709166
0.0935232766237354129
0.00342539352627205772
0.00276386114518955683
0.00312056294664076654
0.0067165332280001537
0.0428713338907302649
0.000780901482899273381
0.00133421109260870117
0.00160441260895140703
0.00360789204551152914
0.00400308750847373686
0.000142068186909465629
0.00057357015700650201
0.000919420985877096326
0.0019100271644552436
1.18793342501190677e-05
5.75862381547321146e-05
0.0009604714403175917
0.000859535035590840634
0.00138524311182839353
1.06562185572528089e-05
5.26172079374211078e-05
0.000172241882586810446
0.000579739784777521302
0.00139825632836410377
4.40998874057857384e-06
2.44446116881384735e-05
9.90655953833885201e-05
0.000300439279876269622
0.00148267700600533507
2.43613098531642601e-06
1.14202515713132103e-05
4.60380013360832575e-05
0.000143279383433215769
0.000527202611174171112
6.09825599614924081e-07
2.9463927578430474e-06
1.13130922687788549e-05
6.82142342950108093e-05
0.000204281660527731609
1.51955253385832326e-08
1.6757351675031095e-07
8.38510666391868295e-07
2.35832328237094705e-05
6.01138181400663672e-05
-1.68607392417425326e-09
-5.47012673805656765e-09
-1.16257725973106419e-08
2.28426241494840555e-06
7.08196487025358553e-06
-9.35134651537662573e-11
-4.27251746295018991e-10
-1.95216340463128939e-09
9.94735659593291127e-08
4.11465002829156045e-07
-6.3067139567651907e-13
-5.06741805139626382e-12
-3.24194081094486196e-11
-3.51425367475819313e-11
1.61640561514361046e-11
-3.13284587609289033e-16
-4.76648709012757419e-15
-5.80244402866367852e-14
-1.6725031463282066e-13
2.75469784653416317e-11
-5.45573226812644594e-21
-2.4950715375794793e-19
-1.08025174567908596e-17
-8.19548265846833472e-17
-5.57308405953530831e-17
0.0135296129135798505
0.0121859636720022604
0.00651654732523867207
0.00945336686953527662
0.149998047929060074
0.00576496301433130146
0.00352385913455314104
0.0031431828381572862
0.00632106048917147403
0.0686245264059800048
0.00193579413495938634
0.0010500393240749019
0.00138994400958432135
0.00352853149782892186
0.000971649197925107937
2.51673313827765743e-05
0.000336308554726897236
0.000865067289469797704
0.00164883587938930353
1.32612479466064471e-05
2.78852143850947646e-05
0.000378843623238533391
0.000431070871707318665
0.00118741396919816835
9.61954928920777246e-06
3.15793060069348221e-05
0.000122287255679238608
0.000451886139105333673
0.000745322407113647133
4.55940787275177276e-06
1.69352312844735571e-05
8.40850417460437612e-05
0.000275378010549587738
0.00092710064577227727
1.8173823470466302e-06
8.71222383886866158e-06
3.9882575519749474e-05
0.000132417707136717037
0.000571626676440236715
6.20562241535321086e-07
2.80811290048923061e-06
1.0739438511589233e-05
4.12911325942905022e-05
0.000200014222793224095
2.19393173509113411e-08
1.49455465372614852e-07
7.63337847769359526e-07
2.02992379039480742e-05
5.27881182077860449e-05
-2.13928870101066454e-09
-1.13563792847774111e-08
-6.59582520623110407e-09
2.1622821031942793e-06
6.80771905838838446e-06
-1.72418065866971462e-10
-4.09672333439730831e-10
-1.60449665203352072e-09
9.81456255679407796e-08
4.09017028893679804e-07
-7.24356372767689219e-13
-4.90835269041821173e-12
-3.28964700176317315e-11
-3.66078377424157982e-11
2.44469430319327548e-11
-3.06619709064097832e-16
-5.3465891232696574e-15
-6.85645153421148649e-14
-2.02651779597596153e-13
4.68017672369316579e-11
-6.4439227376763606e-21
-3.35994532042636937e-19
-1.48330731803280572e-17
-1.15409127010627421e-16
-7.85792602073781307e-17
0.0152265996920104736
0.0123581011367161174
0.0072286408624200587
0.0105113171519888218
0.234838404406615131
0.00574930402153210791
0.00258132027994031682
0.0034784176685926844
0.00701899080909573325
0.11802317107337093
0.00152228636776661781
0.0010572598404352913
0.00161386739677646428
0.00366461977295392139
-5.9443473678973737e-05
0.000101292486360603841
0.00044141414011205645
0.00128223549288570193
0.00177798617357260687
2.05456361596700681e-05
0.000116638131018149391
0.000430745241040946544
0.000781242333049610486
0.00132752348594714011
1.13308276937635286e-05
2.90652641574633157e-05
0.000268429568250531686
0.000653011958940171409
0.000813365554158919628
5.30023083207646222e-06
1.54683240947353306e-05
5.52389126661307622e-05
0.000170025319342224511
0.000564632398772334405
1.95015314645628908e-06
7.79524021494205808e-06
3.03054677172208684e-05
9.67510437572103346e-05
0.000351708408149316158
3.36053452678015063e-07
1.47768015828461501e-06
5.99075032530674324e-06
1.93182260434996365e-05
0.000124813017871542312
1.06252366542781394e-08
7.41098234612180289e-08
3.26103310722929893e-07
6.90846498632950582e-06
2.9676720284230594e-05
-5.40688779397976156e-10
-5.45909842900857082e-09
-9.40378375994639597e-09
9.85819926889037541e-07
3.3530149620995164e-06
-6.62180250917646988e-11
-3.04136341070596683e-10
-8.82305805731280346e-10
3.22494078495414557e-08
1.43037835484196402e-07
-6.60806378233807489e-13
-2.62252970728501799e-12
-1.67191279933009281e-11
-1.66196739495562021e-11
2.22549655941210734e-11
-1.79518553238949252e-16
-3.02543609008389459e-15
-3.99987155997111736e-14
-1.12022123100024623e-13
3.10435935082297235e-11
-3.60865869085529192e-21
-1.75503564037929564e-19
-7.63437314685794922e-18
-6.20707157334799956e-17
-4.28634849251963844e-17
0.0175090389337381191
0.0154251873745379006
0.00696840869485729729
0.01283666179096115
0.143965522734081752
0.00263663790154432427
0.00302792544244015645
0.0032497579987886549
0.00721612088049098342
0.0718414995010437374
0.00109145994452630279
0.00186731338421189537
0.00247360008848787356
0.00360278355658996685
0.00767565104879760519
0.000104449667590862151
0.00167982919622295009
0.00219649964765831259
0.00258815051353893924
2.3662574938436237e-05
7.5354434060362398e-05
0.0022390994805754948
0.00338657882554734956
0.00241002649222522673
1.03182732856152156e-05
0.000107437074066266705
0.000351827887815639993
0.000771751440210288351
0.00145682623898941229
4.00722510382893148e-06
1.65475961646665148e-05
3.80263386855760359e-05
0.000104379729569075127
0.000381818927102741605
1.46098339624788947e-06
5.91105087565565414e-06
1.97566293124824982e-05
5.81362766003347729e-05
0.000280160651682161903
1.36679728824159189e-07
5.60691530732228608e-07
2.30950555535990727e-06
1.81250392330136512e-05
6.92577585905345501e-05
2.78804061138602699e-09
1.95751232283482484e-08
9.21438181445371555e-08
5.41583293193915902e-07
1.49780606598096181e-05
-1.07234306772781744e-10
-1.0426585570131604e-09
9.08972376623738945e-10
6.17527061092890309e-09
1.25560172567091246e-06
-1.02301987985603906e-11
-3.23940912783942077e-11
-2.06689424474458898e-10
-7.7261440750807527e-10
3.50972176429132333e-08
-5.89293039915009832e-14
-5.92060074866579005e-13
-4.76338301598424546e-12
-1.44885308596967652e-11
3.9134973688203706e-10
-4.84626025895860173e-17
-8.2525071508095184e-16
-1.3195406595492621e-14
-6.5446089704015878e-14
8.90938599861944927e-12
-1.344337192631063e-21
-5.10213395372100124e-20
-1.97568917456162381e-18
-2.61441754742302241e-17
-1.81834300793409789e-17
0.00538347458104532911
0.00341540094507747968
0.0025026596794788282
0.00155584271592030588
0.195543735899962157
0.0124761244512889887
0.00357805011607757219
0.00212448334608416386
0.000719842379154661928
0.0940047711885391712
0.00180372470324755463
0.000361348650963489164
0.00033163352502081655
0.000260515470868768356
2.82031751109470719e-06
1.22878418967285176e-06
-0.000145992104366431087
3.90251378548641883e-05
0.000100456621214808152
4.66945496038785726e-06
2.88521205223500126e-06
4.71853383025528124e-06
1.95152202508194124e-05
0.000107664178115274067
3.68376263385167137e-06
2.28183116153867671e-06
2.19983733329433029e-06
1.04815935974482406e-05
1.81304941242960259e-05
1.96132968939009492e-07
2.78658811553117011e-08
1.83725706269143765e-08
7.11842533792853944e-08
8.29900550971203395e-08
2.24273712097792192e-09
2.59456170919515805e-08
6.77612616663679111e-09
3.77364746722394898e-09
1.19239725474119373e-08
1.08661180081828551e-09
2.33208525616398583e-09
5.71531351894281039e-10
2.84160915315291338e-10
1.06554022872577584e-09
3.73954845693395222e-11
4.98091817628946098e-11
2.08404021877469207e-11
1.74412721041299166e-11
6.50846312496834865e-11
3.25295127365315756e-15
5.0735308675656045e-14
2.19320942532195115e-13
7.09447481884937185e-13
1.00654447615857755e-11
-3.74407832859161214e-13
-3.04251724645829009e-14
1.5416830903541318e-14
-1.50636254387951642e-21
1.07801126611158913e-15
7.00561710641305246e-14
1.38745158279061159e-12
1.01038947581568507e-27
-6.0777189902253599e-31
7.11537213074203081e-21
3.83903122172538349e-19
2.4076931822761901e-18
2.36022143763586892e-16
1.46022319721745861e-14
1.09597515553939878e-23
-1.2958753872984451e-25
6.18281758326166606e-24
-3.81700237161684041e-24
-4.75066814006522084e-22
8.27354668325547829e-20
2.17491285238870719e-17
-1.97980568686469978e-32
-7.88096427747389582e-30
-2.74740457732243171e-29
-7.15477538370722739e-27
-5.35695744601144384e-26
-1.65301125199999952e-26
-1.7869650261647205e-28
0.00324055616356122914
0.00229536569827082371
0.00219668087610250772
0.0016043808892340413
0.148293446297811077
0.0045953276683990494
0.00212987731100230167
0.00114843865644560089
0.0013212083306571123
0.0832729666278146097
0.00315753657714001705
0.000800631236616639584
0.000355622572834252896
0.000524881488063791901
0.00523967011933928594
-4.82889262796561968e-05
1.16769388113640736e-05
0.00012611344581414953
0.000343793954926079081
2.08692744379296226e-05
2.95357431229532097e-06
7.88102415257590274e-06
9.97975306513575655e-05
0.000628986056357414502
2.50051661139887823e-06
5.94208651299269236e-07
9.19239661656309721e-07
1.03634215321351783e-05
3.05579368273518177e-05
1.17287659624130745e-06
1.86999697999989554e-07
4.78579427094014477e-08
1.84092471502816469e-06
2.24220657778162928e-07
3.48529208210569172e-08
7.66330254211327046e-08
2.58012703571691213e-08
2.75564810419529362e-08
2.30754975467921494e-08
4.93797855293337673e-09
5.97481869456952107e-09
2.9616978785427591e-09
1.14230280548203667e-09
4.84324330916429485e-09
1.85313868071559745e-10
2.41192669170937939e-10
9.74417634839203603e-11
1.79912393578161463e-11
1.71331836717317086e-10
-1.69847011966785185e-28
2.18048045655079211e-12
6.08307739809010225e-13
1.51585440749484318e-12
3.50998670275165842e-11
5.89896396526723621e-13
-7.54355760705212175e-14
-5.62445132342840499e-14
-3.10520081537086156e-14
-1.44612606467336584e-24
2.21487572907597806e-14
1.20718023837044063e-12
1.37810124313407937e-18
-2.42251249237233089e-30
-9.33788359883743392e-28
3.82183860351657404e-18
8.9380089207222454e-19
4.40148112882422161e-17
9.9405912470060684e-15
7.28909535787456944e-24
2.11519541204196749e-23
-3.06232235915666624e-23
-5.23562564012248101e-23
-3.42301307155986412e-21
-3.47493484577630829e-21
1.38872271388056155e-17
-1.47260428152397683e-36
-1.52656964454390715e-29
-7.7434402055421373e-29
-2.20005120253980307e-26
-3.06180723514835107e-25
-2.18181427330865983e-23
-3.04482177440235812e-28
0.00528376076778556188
0.00342738587859714233
0.00309021933896216384
0.00179019520134859824
0.133123071534237664
0.00697672998251088611
0.00229676043209917687
0.00112765905431913452
0.00073683743487821347
0.0550336184572683754
0.00181957043216218815
0.000289901273801944836
0.000215774884536246831
0.000399242610763734032
0.00256204245062391844
-7.16735297192458334e-05
5.62001339422267597e-05
0.000142158590758480983
0.000277866449741926845
0.000189582650747585987
7.78551608917637816e-06
2.0018843674182857e-05
6.79132447962082592e-05
0.000119168063649170022
6.88382448289858182e-07
1.31755881277035972e-06
3.15222194584308192e-06
5.98973276175381866e-05
3.80638134648933778e-05
1.81547729658474283e-07
1.08687159223276145e-07
2.79892628308562418e-06
6.22929743984210696e-06
4.26024665845239092e-06
3.5367303474586104e-08
2.37650441720394215e-08
8.8230275376214721e-08
2.96380688227322592e-07
6.40457238261201924e-07
3.20743295226310998e-09
7.78126269868716976e-09
6.26536704697301665e-09
2.49384820760690126e-09
1.41027966927490112e-08
1.06762077118315293e-10
1.54011843448026511e-10
4.65476237629602643e-12
8.57737532119712001e-12
1.36338004070137603e-10
-3.60624924819528746e-19
2.7026944306191316e-13
7.28922017868314947e-14
2.16770960278654877e-13
1.2446508696446704e-11
4.85341067231509959e-14
2.11206068353732517e-13
7.96227709575227864e-14
-1.14524291100426217e-25
2.06328080414920392e-16
1.37671819337322416e-14
5.98692695072529409e-13
1.69718027079552074e-17
7.38616590071994963e-19
7.55807911723371951e-19
-3.38055221317232377e-20
3.27944968294760097e-19
2.1731336072949917e-17
4.04853716701170795e-15
2.62713496989638628e-26
6.03387042907195605e-25
-3.86535591487943542e-26
-2.94128412218667869e-23
-1.27182083220032967e-21
-3.65522633858999248e-21
4.7203485408804219e-18
-1.74560976953155779e-35
-8.90689053688529254e-33
-1.80366794576838453e-29
-9.39827335759617743e-27
-1.84588435238766611e-25
-6.9716084005476695e-24
-5.84088127791957063e-29
0.00522116225185621872
0.00483964981932819525
0.00335091808007030329
0.00272077617562970549
0.159010946742766612
0.00671356354356537552
0.00250936082439326196
0.00120337886104761468
0.0012118196842594495
0.0667125468655770243
0.00118711107149705505
0.000316589950353833756
0.000246943374577394286
0.000629733946455976901
0.00574097874893165876
-7.88629054501659805e-05
8.80729778504548712e-05
0.000177953202158252278
0.000357209084250226304
5.51804877844856161e-06
8.00234427200570318e-06
2.81387829348658828e-05
0.000135280680911065913
0.000245638762157194624
9.75043947829479088e-07
2.32606938694387398e-06
5.64351847145085111e-06
0.000102693439842107534
0.000105410676307692312
1.01285473602448483e-07
1.42356355387472017e-07
3.26613193967647712e-07
1.47070492671188778e-05
1.57028356833349776e-05
1.35777737866258509e-08
3.53172031704104142e-09
-7.29587912525704361e-08
1.15657727486977367e-06
1.8177917299146636e-06
6.34773675468146553e-09
1.72510581070543307e-10
-2.13111027854836265e-09
7.71844053514408088e-10
1.9571816695245969e-08
1.23065972790652003e-10
6.82652051125067011e-11
1.00154882402060244e-12
2.29564656578645079e-11
1.77337165170031251e-09
-7.24222723769602944e-13
6.08985472157613746e-16
5.1076799378259786e-14
2.74864999294689295e-13
1.39813609324669766e-11
-9.44582903206814369e-16
-1.14263932589257056e-15
-3.43874849283773827e-16
-7.15702905005806922e-17
-1.51666490822909274e-16
1.74457542994072763e-15
2.64217706751438309e-13
-1.40685289918795793e-24
-7.3869641599689074e-26
4.28717369045170563e-21
-8.67141735602619919e-19
-2.55696939932123332e-19
-9.12613041557161394e-18
4.30008015551010529e-15
-4.90085882225187885e-27
-8.69427766478304867e-26
-3.65623919157118017e-24
-1.95470603890763738e-22
-6.24184855342960482e-21
-6.24466753577018887e-20
4.005013163925899e-18
-2.36696929292485285e-32
-1.72841452891446482e-30
-9.47962434857253966e-29
-1.28977867361715865e-26
-1.03480789176506831e-24
-8.02858024882772572e-29
-1.51500320485716059e-28
0.0039237509631825122
0.00656058250811119952
0.00237281117324182654
0.00356785691547110376
0.129490944107919587
0.00415471380935959582
0.00173319064795632565
0.000851238608838473815
0.00199261001492692658
0.0403749932042918175
0.000460557255449930416
0.000177872540421777079
0.000279386370795256219
0.000868121926007357943
0.00455421309183472872
1.89568785604904065e-05
0.000142533804842243821
0.00022113812308919553
0.000468089874600945903
8.06630457298892561e-06
2.0720506596685762e-05
4.59523381168277386e-05
0.000309329712745075205
0.000516213179570529628
1.63596396597376594e-06
4.51777097541027187e-06
1.15706140295300967e-05
0.000170779586769295179
0.000256358526500961848
1.21420609106347233e-07
3.35087220003690515e-07
8.37554615087308812e-07
2.52347003874080461e-05
3.82442102042825844e-05
7.68099411851098113e-09
7.88857890016684412e-09
-1.28009314493787537e-07
2.26297539118594318e-06
3.86169792215386237e-06
1.09491916919538508e-09
-1.79826795427782968e-09
-4.62193927224869724e-09
-1.6019740366961937e-09
1.40779963469788764e-07
2.88015918893697088e-10
-2.01313812330933848e-11
-1.41399994359518499e-10
-1.37412367542600752e-10
1.06099582704056766e-08
4.05802585800893985e-12
-1.77432184478905483e-13
-1.91844669558285662e-12
-2.22334243818479881e-12
5.28251176699367451e-12
-4.56288431429178293e-17
-2.14437309215605237e-16
-2.12591282775149769e-17
1.21816718236941482e-16
-4.46788984507050931e-15
-1.03080987453983178e-14
5.61871643207023679e-14
-8.89011073019619074e-20
-1.08011524539862057e-20
-1.9738040653289589e-20
5.20874248311831391e-20
-5.95954925077511052e-18
-1.15507481991949874e-16
6.89685752851171635e-15
-4.73868270958824682e-25
-3.74901157741458101e-24
-1.54427555584416867e-23
-2.41164820665738596e-22
-2.23008350366715505e-20
3.83707972214245941e-20
1.45549468872073948e-17
-6.07681843400742471e-31
-5.84222514468693107e-30
-1.91840930413541971e-28
-1.67470941432648211e-26
-4.64360556709600043e-25
-3.28727104065126606e-26
-7.35522662765202661e-27
0.00330289602251497994
0.00637748914818465646
0.00223701954195724192
0.00304624794690166404
0.124304049305428155
0.00325740672674505391
0.00166421393687034508
0.00206826133026418368
0.00374296796327622944
0.058474334251775964
0.00057598000868594229
0.00026401861646699993
0.000469084504117226787
0.00133095649885813438
0.0060504608320497491
1.67830639212774797e-05
0.000167103635897853324
0.000331866469325957001
0.00150602034618864703
3.73112173840636739e-05
3.37148443664701987e-05
6.29112700497785676e-05
0.000446635996728962409
0.00133464785488891921
3.22414403598118088e-06
6.7919648031180737e-06
1.76914745852646355e-05
0.000238902686266048123
0.000438246876887645061
1.9400784590706648e-07
6.27864326915429304e-07
1.79405267590016591e-06
3.43127487527490447e-05
5.01014820266749297e-05
1.17619402807480931e-08
4.23221837265180678e-08
1.11910721194015553e-07
1.63126238858494199e-06
9.4094443068614025e-06
3.9429269147917955e-10
1.43830953941152302e-09
-4.11725512466401951e-09
3.6808120046273886e-09
6.15652150009069765e-07
-3.75135030254663297e-12
-9.94823786133994713e-11
-5.59637747842921256e-10
-4.6258991674645495e-10
4.17174307284446954e-08
-6.81167370768975523e-13
-3.75784341628770246e-12
-1.72255012021472081e-11
-3.75865816724574097e-11
4.00969733766412274e-11
9.35061667636038075e-18
-1.36230261993245195e-16
-4.01595936673430518e-15
-3.17999525365304129e-14
-2.69654978082800473e-13
-6.22104874877880123e-13
-4.0508198956180782e-14
-2.95366799863945284e-19
-1.86511677876630759e-18
-6.7227050861497595e-18
-1.4550369425461514e-16
-3.32107315859060382e-16
-1.5413904529952951e-15
-9.68689368769692812e-16
-1.01318375935796642e-23
-1.95139156278363591e-22
-1.45951765320586122e-20
-2.27796844525435684e-20
-2.68748939818819705e-19
-1.68377644617759196e-18
8.92915457257854216e-17
-1.83199820578694365e-29
-2.85961659689657001e-27
-3.28088785872540101e-27
-3.01379254054633189e-25
-1.05345911348186812e-23
-2.36346141232644573e-22
-2.16760004030237303e-23
0.00291157872031491422
0.00641110233950690188
0.00215667094665505455
0.00274884621796579482
0.100799152158008665
0.00344389773502824055
0.00162806374466023334
0.00148086407303663938
0.00335003398044644201
0.0475598011777256802
0.00129573139708972227
0.000515030080059470209
0.000712882977116979961
0.0026583050774709226
0.00760330257188618092
-2.95243920281386068e-05
0.000249195369728885544
0.00062079137238155906
0.00182865452746497218
0.00017800396140112208
4.0586426529725487e-05
8.06341470054542785e-05
0.000628826253112352556
0.0021243344551264802
3.31689576480111682e-06
8.51452541251259705e-06
2.21470537602728006e-05
0.000324906283620583639
0.000761161759088046109
3.32872581487357434e-07
1.0905218418489103e-06
3.02594761971600686e-06
7.85735050931633576e-06
8.80640851793317437e-05
3.67223344921341529e-08
1.19691717304783541e-07
3.62684454476535309e-07
7.84248291019924325e-07
1.62744542438911455e-05
1.80582077489965008e-09
7.46944657015538041e-09
6.25801836562493942e-09
3.39541763900471486e-08
1.76331197095969185e-06
4.62663211720698474e-11
2.8984109428381433e-11
-1.08139436866411484e-09
-1.93501239875851549e-09
1.27253010779771826e-07
3.58639757113847004e-14
-1.01263346227331369e-11
-9.30352752792935939e-11
-1.46886052771350799e-10
2.20141024492597841e-09
-1.2754987187923073e-16
-9.42045703283568663e-17
-7.71549931482980895e-15
-2.88530572511806146e-13
-1.36112789898221734e-12
-4.21121218615605833e-12
-1.15871785868309877e-12
-4.5662294468868977e-20
-2.04954745105683688e-19
-4.87309147938165781e-17
-5.39959088878425045e-16
-3.85462627098231481e-15
-2.44818548851763829e-14
-4.01219858769165756e-14
-1.22557664714931401e-23
-3.89645153803082581e-22
-1.56740547060471155e-20
-2.43721218930396941e-19
-2.45559114066468386e-18
-2.08870934222239351e-17
-6.91359864739208877e-17
-1.92065864412955107e-31
-1.71628498695231648e-28
-9.754480734901926e-26
-4.13981847389472773e-24
-1.14060509904493779e-22
-3.328684912687739e-21
-2.53691421478187733e-20
0.00370733009262417656
0.0675364501979171528
0.00260614014901872602
0.0269698195802925492
0.119788585548756488
0.00487602362801197071
0.00167644722295106816
0.00169224728746737501
0.00260641726985558209
0.051487516766907146
0.00125104300625768347
0.00043822532456815012
0.00102446654006220386
0.00169805161207893648
0.00582645261478207787
3.52840422837195314e-05
0.00018934247081664422
0.000669658935545515898
0.00142235474647920941
4.87977180704889346e-05
3.91597006759434495e-05
7.32209053397873982e-05
0.000418271455928696605
0.00118227507873249816
6.10542104328010132e-06
1.1818357041394313e-05
2.65039880668133045e-05
0.000117975729998081265
0.000826494336375410807
1.81878575957197908e-06
3.05804185969688333e-06
8.05202335519519563e-06
2.10445382843953969e-05
8.39522262724074121e-05
1.40091755775349945e-07
4.823321982773308e-07
1.44351108848452086e-06
3.65211545884899563e-06
1.00781711132485204e-05
9.26113967371288756e-09
3.50975787669787042e-08