/*--------------------------------*- C++ -*----------------------------------*\
| =========                 |                                                 |
| \\      /  F ield         | OpenFOAM: The Open Source CFD Toolbox           |
|  \\    /   O peration     | Version:  2206                                  |
|   \\  /    A nd           | Website:  www.openfoam.com                      |
|    \\/     M anipulation  |                                                 |
\*---------------------------------------------------------------------------*/
FoamFile
{
    version     2.0;
    format      ascii;
    arch        "LSB;label=32;scalar=64";
    class       volScalarField;
    location    "0.119999999999999996";
    object      p;
}
// * * * * * * * * * * * * * * * * * * * * * * * * * * * * * * * * * * * * * //

dimensions      [1 -1 -2 0 0 0 0];

internalField   nonuniform List<scalar> 
7248
(
9.71623872846724268
3.7126938867702961
-0.100006366472600305
-1.65077129418142476
-10.7299811480811513
-3.64033293150673565
-2.27801327528077735
-2.78797648131721854
-2.26229113460943587
-5.36647743931868604
-5.17743404683971686
-4.51549097858029924
-4.31148643433408552
-2.68393229483437601
-5.40445611932562997
-5.94110284354889906
-5.93933724804866614
-5.59882076043959298
-4.71598492682027981
-5.70551580920557733
-5.97396915307141363
-6.14164389749921291
-5.96546884351970341
-5.55343797669194927
-5.7290772069685012
-5.79847175019367889
-5.84670116445634136
-5.77638770840858928
-5.66724164257655438
-5.63727105365838277
-5.74495144166391203
-5.80573570441018205
-5.80061611645796749
-5.78740431715131542
-5.75936422430239681
-5.78648521434708751
-5.79461183963647386
-5.77590952782100331
-5.72363019865903677
-5.93387847360117426
-5.91869770601916123
-5.8842863408669599
-5.82231434773758139
-5.72841651170659549
-6.16107837335950226
-6.13011397899671362
-6.08434141025996134
-6.02019248214691061
-5.93635519405622514
-6.43057744436881329
-6.39622669271424815
-6.35253867760304924
-6.2989227718178169
-6.23712783800858883
-6.77654076227373192
-6.75458606644036852
-6.728132661125791
-6.69646490843932973
-6.6595497665423089
-6.61826207936281996
-6.57508724234086284
-7.0879605003783599
-7.06788353015865756
-7.04469044408132028
-7.01850192051434618
-6.98988711041217403
-6.96005130905592306
-6.93102992981680011
-7.40923778213704232
-7.39251973952372499
-7.37406309767614054
-7.35429369216720907
-7.333919559105472
-7.31397381539788682
-7.2957729398017408
-7.73810354812878565
-7.72551059878627733
-7.71234376859822301
-7.69910337370995457
-7.68643486601164039
-7.67506931913877377
-7.66569884922886136
12.9358451709336926
3.46261892552617923
1.38697773475477959
-0.316654206146420591
-7.68008573527458793
-2.94389855437935033
-1.96981579546072538
-2.0201265569728788
-1.01798042845863179
-5.77934811003154891
-4.79388935404918914
-4.38021097903106593
-4.14163650381714277
-2.2936857458302482
-5.59153898478049793
-5.69187001560894323
-5.8508197569590239
-5.69940782335190388
-4.99272597977617139
-5.58786241005437745
-5.92820450669577781
-6.18513349984228533
-6.05455726596620103
-5.76891585682228936
-5.77845900070191565
-5.8891207637125067
-5.95102851491003193
-5.85993180304935368
-5.81105971943866439
-5.71253578743768475
-5.83354201979330256
-5.91089386180170173
-5.9051329796931773
-5.90258526682637985
-5.80909552856495726
-5.84167241492037093
-5.85746057762037164
-5.83942035130694936
-5.79525091417499549
-5.95846432748351251
-5.93634281966047705
-5.89137850180056954
-5.81368222662200296
-5.70017365805792231
-6.17135152733615122
-6.13262062637062932
-6.07431952423225674
-5.99315912160425679
-5.88536775366763543
-6.43337594270317936
-6.39264619272164403
-6.34006264393818952
-6.27493978843179967
-6.19818143000693489
-6.72749580798383828
-6.69113254523739265
-6.64815701402621073
-6.59958151944147264
-6.5483397347146326
-7.04275289514206904
-7.0134826854813177
-6.98113115210775881
-6.94708343076277135
-6.91384576072504853
-7.37197932970378211
-7.35050418114016324
-7.32816635181261766
-7.30614614014272146
-7.28602891163238731
-7.71069659848612243
-7.69694904732106799
-7.68374128973682513
-7.67187779706009643
-7.66213361890462785
17.8766937307470748
8.62623652118622353
3.146888889613777
1.64394008752559628
-7.31477150370687923
-2.60642289540204786
-1.4517900898410403
-1.55719819754062794
-1.0331393383909262
-4.59337821229436827
-4.63416808376914791
-4.15183723339514632
-4.12711525656114731
-2.99179347836216714
-5.2339374960153755
-5.74845655500370079
-5.8286750884216465
-5.78995485206568627
-5.32772138920085236
-5.67107951259684562
-6.05817502983668099
-6.31686755040004222
-6.28270280020106409
-6.11374412983373627
-5.80390521485522637
-5.96635993334137993
-6.07583146353269132
-6.09121374131409343
-6.20744511064371451
-5.76046561585847705
-5.9123066160398654
-6.00634162701662522
-6.03145624949611303
-6.10510105682819848
-5.84909758432921389
-5.90194582189327122
-5.93025591821584985
-5.91643158247760148
-5.85697346233157656
-5.98034374569955052
-5.95734065889779796
-5.90369865469224919
-5.82025325463356769
-5.6788758075066168
-6.18062234666064558
-6.1341457056143156
-6.06342682583501702
-5.96371471083743554
-5.82665446325937886
-6.43561140560210099
-6.38818613676144764
-6.32640400534699676
-6.24779564286054789
-6.15269513151316527
-6.72656932376803951
-6.68537150623896537
-6.63606543521209868
-6.57939785990221182
-6.51888523268491937
-7.04066976970816594
-7.00825990445390445
-6.97202482227712395
-6.93346913332785153
-6.89565537254484529
-7.3698185820040738
-7.34661942514514621
-7.32226490148214548
-7.29808109107435943
-7.27595341804121265
-7.70902342778633543
-7.69476605972659122
-7.68101237735099129
-7.66864070160936695
-7.65851803526253239
20.7793508065109052
11.6291411472416755
3.72401795303274064
3.32921747458674844
-4.46348495915970034
-1.37801959260160167
-1.19831782647648311
-1.36923776564149335
-0.983735358220425127
-4.60040729553708161
-3.9039462932265061
-3.75621052438475367
-3.92940389866713069
-3.385532302441705
-5.47463604737161802
-5.62604462797135785
-5.63568688955826769
-5.65042489425893191
-5.19749061438963
-5.71323114635683105
-6.1268972793511729
-6.43976611376158203
-6.55724917803723528
-6.48171993792848333
-5.82910732652486008
-6.04090199487845414
-6.26184094307770245
-6.52258190858174025
-6.84669790791384081
-5.81554391019542471
-5.95341405495646825
-6.08507423500023226
-6.25180175754439649
-6.4548320383999318
-5.8804795489730175
-5.94316160037359875
-5.99299597481670254
-5.98768831155024728
-5.92527334992650179
-5.99808454241638778
-5.97587915791323265
-5.929681834104918
-5.8332709674368175
-5.64506440962142531
-6.18852941011200652
-6.13574714954984124
-6.05580409289083832
-5.93923905723256329
-5.76877208648344464
-6.43736148971742139
-6.38383531437286411
-6.31283556912560062
-6.22044114027105977
-6.10578122753101749
-6.72549137902460537
-6.67976104055956732
-6.62417158012803586
-6.55928877831247092
-6.4890639052939818
-7.0386041297841313
-7.00322372073333721
-6.96320063459514049
-6.92015558028181132
-6.87769825905490073
-7.36772231655175158
-7.3428875517018799
-7.31658780089576322
-7.29028947298006891
-7.26617612404990521
-7.70741311721588751
-7.6926793200639727
-7.67840773343023475
-7.66554902706973884
-7.65506344725959931
23.3131498907805756
13.5915163690763556
4.63222002997074256
4.65211807205951189
-3.27385515420780848
-1.12402017605649895
-0.970647842332903465
-0.624241214283538071
0.609909839226911998
-3.68971544847801169
-3.60318581995482612
-3.51009417161414206
-3.65300668051116961
-2.67997930724250999
-5.56151498659514232
-5.59235494322304749
-5.5080481095415168
-5.52255415501688418
-4.81298501185382843
-5.84536523124634311
-6.24720920168117821
-6.52359649306526013
-6.67839383369140638
-6.69451804089144709
-5.89570066245435775
-6.16858378718998956
-6.47115638685999262
-6.89875763647691453
-7.30279637064788467
-5.86775435891011554
-6.00760034501153051
-6.19062833994612749
-6.50479957644448881
-6.78045844210313309
-5.91475116792269606
-5.97010050146908533
-6.02719321663862928
-6.05659260387930587
-6.00605397537294561
-6.01440679777874898
-5.9907605348231554
-5.94464311695309267
-5.83529089413087565
-5.6123023329467685
-6.19489366969125133
-6.13773500821967311
-6.05137901752008212
-5.92127324826323687
-5.71963235149729421
-6.4389674511625099
-6.38045056022934709
-6.30182458023758763
-6.19732403332844672
-6.06476834517939523
-6.72448038705506779
-6.67491080172012463
-6.61388129507333744
-6.54148676218704761
-6.46215451243204786
-7.03675132332888165
-6.99879357440806427
-6.95542103265326883
-6.90831099592447906
-6.86156599512827281
-7.36584369304332487
-7.33957735298335745
-7.31155510225683969
-7.28336053102067105
-7.25743959586562148
-7.70596162166930476
-7.69082157791092413
-7.67610059689626478
-7.66281380628395148
-7.6520043071684869
25.9358371979214084
14.5654757612499637
6.25506961621452362
4.72506344930219768
-5.1410846813240596
-0.503933321268871026
0.354311290029338366
0.8801971467320584
1.62865191878531235
-2.27314858963069355
-3.15849565156416823
-2.95530269310591009
-2.79028054829637373
-1.42990765262500297
-5.29801933058169094
-5.37116179901688184
-5.24193238952325835
-5.09500862461706294
-4.03585622541650313
-5.80827739992156555
-6.16939772839837364
-6.38386819130024552
-6.47387125262963803
-6.33894334353800293
-5.94438387269490232
-6.18868383986873294
-6.55820985284289382
-7.06074329777975951
-7.46750504962076267
-5.9164056017851081
-6.08303993398024101
-6.31630126218735111
-6.68192733874116751
-6.975624484126981
-5.94613435707148508
-6.00407520629035218
-6.05899857112927176
-6.1180559447286722
-6.03377432914910283
-6.02713837235989924
-6.00456411720164063
-5.95330004226459941
-5.84206251654788478
-5.58806756540289928
-6.20152181010467896
-6.14304943686226768
-6.05360118154458071
-5.9126447288288384
-5.68716542168745676
-6.44063141943168915
-6.37911566478094816
-6.2955259788502822
-6.18244995202232595
-6.03621360967717457
-6.72376146042166223
-6.67138653875122589
-6.60626462275238779
-6.52815138683876661
-6.44174677954378261
-7.03527293255513264
-6.9953313661836356
-6.94934823965654491
-6.899034400653826
-6.84885884783230914
-7.36432030628588397
-7.33692762251551844
-7.3075422031509536
-7.2778374158143313
-7.25045537168717491
-7.70476795311014673
-7.68931833906405071
-7.67424798403602182
-7.66062426849932088
-7.64955608482158933
26.7260379450630339
14.6218941530711461
6.66366761296372445
4.31895133796932384
-5.36840092476256814
0.157796774508135229
1.39952224153654115
1.73320058930985965
2.00396601355852866
-1.20734473496133887
-2.70747484671471206
-2.17261159183472596
-1.72879630676506491
-0.526901696972606359
-5.41910554846160686
-4.98550600317251735
-4.86910815338693137
-4.55409652482813865
-2.9850657773671907
-5.67279505506476056
-5.89084362401076245
-6.15921619697391165
-6.37074811121801954
-5.88689863803574731
-5.88870795039030881
-6.15744349338055663
-6.60029953491822408
-7.12752058936429567
-7.43048883663977122
-5.92859555197033394
-6.11066035238860916
-6.39826367273614682
-6.77561242416041942
-7.04025218768737204
-5.96006013864882345
-6.02474117231069606
-6.09333970214723664
-6.14741718544223037
-6.0228639335900791
-6.03690880552164444
-6.01718783307313299
-5.96906641563729679
-5.85554535847056989
-5.57853403160263372
-6.20723675967337307
-6.15002524408243989
-6.06048190360129535
-5.91752436256271608
-5.68493514858587456
-6.44207589506569711
-6.37940815188116428
-6.29353103279423376
-6.17684918940934757
-6.02594636220136071
-6.72335833252008186
-6.66935259720758467
-6.60186079550975169
-6.52045437380937365
-6.43030888961860203
-7.03426631775654254
-6.9930372306606694
-6.94537192086924993
-6.89302206232057912
-6.84069597262221585
-7.3632591326667951
-7.33510762000770367
-7.30480541053780019
-7.27408827994257479
-7.24572470558012771
-7.70392210518998066
-7.68826915267184852
-7.67296529911937331
-7.65911550779994243
-7.64787327764357538
25.5473990677314049
13.2727403599347724
6.24425087265768397
1.55204389024989098
-0.969309720372564243
1.33540821307779467
2.04812495523294658
2.0219134826304046
0.982735760365606836
-2.25597324511309694
-2.21548642239336857
-1.3156207541906948
-0.60076874918726908
-0.444586397431104174
-4.78548091529252773
-4.51712606493710833
-4.07426048245700478
-3.17459487602425128
-1.29643229062682508
-5.47928200362382611
-5.50077507987703473
-5.53918889127201286
-5.22689845857171775
-4.19924169290299432
-5.74779491802052167
-5.99105131903090182
-6.38443344188190487
-6.74314750102545979
-6.83932607788395686
-5.90008523613261904
-6.0745280285397989
-6.36580387244249213
-6.76811911349188033
-7.00168573042720332
-5.95588154646251144
-6.01289704511034806
-6.08693479803998549
-6.14200114794382301
-6.01702226230911208
-6.03930910826136813
-6.01703666661663661
-5.97579207483232722
-5.87233384395979652
-5.57617995221928986
-6.21015540721169135
-6.1542373572713176
-6.06857412856182421
-5.92691658943647059
-5.6932228538372609
-6.44290808478210764
-6.38030725084470607
-6.29403634394357958
-6.17608140118314708
-6.02547390673134764
-6.72317268821587888
-6.66851785968493527
-6.60009094487166248
-6.51733866075703805
-6.42604261049757319
-7.03376606582274722
-6.99193356923347942
-6.94348321823742065
-6.89019317706229373
-6.83693307490595803
-7.36272076830420907
-7.33419537067076899
-7.30344090012509373
-7.27222615446952769
-7.24338730835048139
-7.7034849189689103
-7.68773335426724991
-7.6723145885762003
-7.65835350396238468
-7.64702603425837246
5.41010923600971694
4.10911240816848
0.864062481918077552
1.11710162882826491
-19.5658065914999497
-7.28097845403348742
-2.90599395770336066
-2.1128854354612816
-1.81845264491163183
-3.17682447719437278
-5.2908394351484187
-4.12677534611649843
-4.01951390401726538
-4.29363575589413138
-5.30460966507816156
-4.64293398039702687
-5.03745670831967374
-5.24020466767879611
-5.18932367862039357
-5.39863319679192255
-5.29998983927755063
-5.48155705327107423
-5.68920863308277713
-5.69914619270995093
-5.41235430137762208
-5.45087368049108001
-5.52586927139030326
-5.60724917227201125
-5.63072912089465483
-5.42820502703009566
-5.47256295363896506
-5.51198901585336998
-5.53194533101480346
-5.53712343346394054
-5.61473302580939393
-5.64022983279846368
-5.65072470863380349
-5.63873570371017507
-5.62189452237208886
-5.84950970038840978
-5.85881770104195443
-5.85625631777425859
-5.84563092252149108
-5.82637913518847839
-6.12580398034610951
-6.12335218051026953
-6.11280726824006138
-6.09573078629096532
-6.07577133635809918
-6.41933553089670106
-6.41092160908477471
-6.3977826077627844
-6.38122079705808432
-6.36237695814526028
-6.74925824957917975
-6.74049801353620737
-6.73065750400348506
-6.71883841312703733
-6.70488973213332518
-6.689368324757341
-6.67298544215554124
-7.07548379186510434
-7.06459445398559716
-7.05283627458732898
-7.04019277501251306
-7.02676643666578737
-7.01300369795419787
-6.99947986312356552
-7.40641678224949729
-7.39498582149841344
-7.38311101602926545
-7.37100467860684194
-7.35898289337156797
-7.34746234813003607
-7.33688848603846822
-7.7418051922374449
-7.73081181296681041
-7.7196933547327804
-7.70879898086042381
-7.6985296886162855
-7.68930615349374413
-7.68149654380762037
3.96069913172992116
2.96583031909018668
0.139726888134049432
0.0406402656910112015
-12.2141259434088738
-5.58811737834572853
-2.71833260120248799
-2.47052771489142753
-2.53484007262791522
-11.1924991377890137
-6.22055188992979602
-4.45988032816972257
-4.38197372987667766
-4.42179129891232492
-5.27026981784418069
-4.95024674530028364
-5.2251816567689584
-5.36800042001071365
-5.23260437749481611
-5.09223467168060218
-5.1336763712831015
-5.4192571862008867
-5.61644073681690781
-5.52711377571774776
-5.32669268936123963
-5.33737853691338771
-5.43285368886697917
-5.50187344236307663
-5.5050003908479761
-5.41281796383082625
-5.44545791228014675
-5.4827920921769433
-5.50928252460743018
-5.5079488586517602
-5.6156241889332339
-5.63614602464271108
-5.63844592087281793
-5.62600574371333906
-5.60361069362665631
-5.85208170636973701
-5.85966575253094657
-5.85328637695886655
-5.83738795194979687
-5.81459419241838393
-6.1261659355607927
-6.12248304428689316
-6.10961225331815072
-6.09121069026900841
-6.06944577984665123
-6.4197518954388757
-6.40994851946626287
-6.39542636668279307
-6.37775563169171278
-6.35809274024625815
-6.75047199795425179
-6.74107646313334374
-6.73036496409918072
-6.71774679376240513
-6.70298539684110217
-6.68677328458397824
-6.66994671991567056
-7.07599663226138897
-7.06470907657054337
-7.05249391826439975
-7.03932263632508892
-7.02537741228299062
-7.01118784484229174
-6.99740332462530645
-7.40651885088186823
-7.39489972668960771
-7.38278506577086002
-7.37040096221438734
-7.35809276934654921
-7.3463320124081628
-7.3356191951242824
-7.74163812389227779
-7.73062082085989388
-7.71944684183447549
-7.70847082009935747
-7.69810991962404501
-7.68881259542427919
-7.68098437964382796
3.49288943021968024
2.31773584750452777
0.109368904461677019
0.131271581894572442
-10.2842741499828776
-5.03627371712191518
-2.95444796639705132
-2.65992167370375343
-2.47445335793892074
-6.68143689046587497
-5.25884591250998845
-4.90210100010538863
-4.79609355295890971
-4.50301205091420531
-4.98976122234570862
-5.16416633015647886
-5.56874873390181246
-5.60909110376814368
-5.38966371230603425
-5.05858660441972852
-5.29091798072565211
-5.5931181560911627
-5.66280329184363662
-5.49022167900901792
-5.25714211925677333
-5.32947220803239219
-5.42378782158781014
-5.44817247576054697
-5.40252540216000643
-5.40262054073648201
-5.44722625864739474
-5.46767769628692246
-5.47055937535637149
-5.44483859200826181
-5.62137188480602035
-5.628977838037593
-5.62506848842978169
-5.608332403950544
-5.57642244105357321
-5.85891015783685454
-5.85980666408549578
-5.8478214188683415
-5.82696960810248665
-5.79861271437327641
-6.12839997229821432
-6.12142408207815159
-6.1054755460818253
-6.08414354358582532
-6.05905463263189237
-6.42058546647465533
-6.40862544661785449
-6.39197564454125722
-6.37219815863989592
-6.35040978727479644
-6.75265744988444805
-6.7421988241520312
-6.73019496543530327
-6.71619704076807267
-6.70003518158725786
-6.68243997655292254
-6.66430283325461392
-7.07693640030578486
-7.06501287067081485
-7.05201158758734969
-7.03795823274870003
-7.02310794127730098
-7.00804995216950211
-6.99348833393567837
-7.40676274026194381
-7.39479351980116739
-7.38224851348186206
-7.36938200682752065
-7.35657929513850384
-7.34435465153337219
-7.33324734759241181
-7.74144902602041274
-7.73032005648804699
-7.71900801365783984
-7.70787937878086105
-7.69737190798107118
-7.68795486159641417
-7.68004918118984392
2.26569702590760613
0.626752757540732119
-0.0569983793756243529
-0.162243027761629577
-8.55829606333634274
-4.39609678450129238
-2.76354613522455494
-2.34139480334455463
-2.1065530198056015
-5.27648060998510005
-5.39281804639746376
-5.01783845577415732
-4.75651196157479994
-4.45202378114528408
-5.00349571035452811
-5.37997594263226109
-5.72538571435529242
-5.74435508478644685
-5.47437194788163772
-5.25857891726337989
-5.49038795447080474
-5.81572168852863935
-5.88240455458190858
-5.65484192543567055
-5.34806682320656801
-5.46657236629336474
-5.5465329705148454
-5.53947057247475971
-5.46595082875147753
-5.44656077496640467
-5.49283574129534458
-5.52259337766426395
-5.51314667815745096
-5.45964710196656533
-5.63683040828315107
-5.63868413217336517
-5.6357296053073842
-5.61795306747800982
-5.57451987684996819
-5.86580250490309307
-5.86112482044060634
-5.84749953710769255
-5.8233453308035168
-5.78815763282637796
-6.13069563832670283
-6.11993761008478376
-6.10162079601929896
-6.0771730713384855
-6.04744963956000259
-6.42137883291489775
-6.40668911245858563
-6.38759730030675765
-6.36511124417081398
-6.34021775210480776
-6.75533357495197873
-6.74360570835485795
-6.72995135752743057
-6.71408346617306684
-6.6960355363445565
-6.67646156227372334
-6.65629931083997661
-7.0782123432026065
-7.06540702434659273
-7.05131446398170425
-7.03603453717207206
-7.01990895991976593
-7.00357379346908626
-6.98779664348956686
-7.4071052727823643
-7.39463743966355835
-7.38147888224843562
-7.36792270195402033
-7.35440804556164185
-7.34149460910835927
-7.32976886020031149
-7.74118144410649123
-7.72988770373584178
-7.71837317274844104
-7.70702577830069657
-7.69630893162684515
-7.68671590086289847
-7.67868356215429149
0.80997167400862935
-1.42085496074226292
-1.09503355602618502
-1.21304478696607099
-6.27203915613722529
-4.10807686896912649
-2.82449226129295372
-2.57443559736037697
-1.96213952035662054
-4.591898423397339
-5.22828288823030274
-5.12008273394495106
-4.73732346285782047
-4.27412958462223802
-5.161317305454725
-5.52118345639646346
-5.85032806686874629
-5.75272574542218429
-5.43748354636359643
-5.36269498105353826
-5.662779564306895
-5.95831482089640474
-5.99004834192878644
-5.74233363572509958
-5.39812196417434365
-5.54675331635616864
-5.64867165237147706
-5.64966812279222275
-5.57888499568888285
-5.46374469103783689
-5.53329788876859485
-5.57585315775061297
-5.56847267851262817
-5.51097686027877742
-5.64291246448643857
-5.65231129880192107
-5.65819330499201545
-5.63678593511708836
-5.58274993700738165
-5.8701615246933585
-5.86514221546624448
-5.85143143008553501
-5.82362140265273798
-5.78023810089115564
-6.13284357869967067
-6.11913950055160605
-6.09842065813923195
-6.07011051179056693
-6.03434806470245277
-6.4219910759161154
-6.40454980929820739
-6.38262260799264425
-6.35662203653772195
-6.327492674778318
-6.75851209678526565
-6.74516446150478455
-6.72956031672303023
-6.71149554787383273
-6.69104756547506341
-6.66885079852728069
-6.64592937164387276
-7.07974494047054925
-7.06582218148901831
-7.05037521527053013
-7.03356445750950865
-7.01579623828992904
-6.99775994222437436
-6.98032689422348529
-7.40749942416898666
-7.39439206278138084
-7.38045414016068868
-7.36602064596218131
-7.35158228324074425
-7.33775287934492848
-7.32518863935766618
-7.74080674431467575
-7.72930690663066944
-7.71753875309299087
-7.70591605449034489
-7.69493049113630967
-7.68510272158353658
-7.67689508231138884
0.0405242136187329294
-3.42746823515304833
-2.25302081677134769
-2.82767573583901832
-7.66411702232971948
-4.13852330943736746
-2.94463945518170256
-3.2590672738017723
-2.43682520645055867
-5.51318914366805757
-5.34362139940170078
-5.04057730359920786
-4.72026050480241199
-4.16102625386058733
-5.20359012278020927
-5.63102867476253177
-5.91540453525738208
-5.77805536650548035
-5.43915126760618683
-5.38195478524280979
-5.78402234029857176
-6.05260421089254574
-6.04734085306039404
-5.89635199771214502
-5.46696446427846094
-5.63336750550940835
-5.73415074248108159
-5.75285441044817514
-5.74105460707329396
-5.49212417387753415
-5.57440983839007309
-5.63184522581282998
-5.64568441525267772
-5.60883261143816902
-5.65740135008556333
-5.67546765751731819
-5.68351118926968546
-5.66622072799483245
-5.60872872112228738
-5.87738148379621883
-5.87396503093420197
-5.85911339932081265
-5.82746259145738499
-5.77551685816466609
-6.13554509877556331
-6.11982231369026763
-6.09605539645742578
-6.06276068417253367
-6.01950187530430636
-6.42299807290716895
-6.40252686534717252
-6.37705172529460729
-6.34653971777640358
-6.31196038018822048
-6.76211212377585813
-6.74692234863456797
-6.72913291506668454
-6.70847640395972356
-6.68506421096668291
-6.65950607038378095
-6.63302957709183438
-7.08148631124170258
-7.06626316585958847
-7.04923063300395736
-7.03058300971614081
-7.01077546933842566
-6.99057337865953698
-6.97102461616857472
-7.40791645455980952
-7.39405102258404678
-7.37918668786619758
-7.36369344585162366
-7.34811160547374076
-7.33312582287561732
-7.31949826707803641
-7.74031018056435816
-7.72857102228232673
-7.71650919203670504
-7.70456003695266389
-7.69324446991725708
-7.68311909954368755
-7.67468595500772377
1.49306690218393356
-2.50082346201723915
-2.52022938981865341
-3.51940304362372025
-7.57571457803402382
-4.26814889301807732
-3.10134958025505192
-3.78997143014969762
-3.17093380200897101
-6.79375166681046494
-5.58268921843649402
-4.99708705175912815
-4.72749296962735155
-4.02334452807667908
-4.53188571455310907
-5.82992370628952461
-6.01759469083864484
-5.78673391559986605
-5.30745316326515404
-5.33475950112950592
-5.8703467818678563
-6.14610888676179545
-6.1001331029352599
-5.88113013371488513
-5.52626513698704258
-5.69680144319638959
-5.77963617624493509
-5.79487004178643339
-5.81631683073814454
-5.51315528403784239
-5.61922766764261361
-5.69062428118898467
-5.71543394478456523
-5.70244058135631349
-5.67559739185386025
-5.70017166845393497
-5.71302669130647711
-5.70069420678685557
-5.64441474725179404
-5.89307798901703617
-5.88695980269305519
-5.86861506294731416
-5.8313193593283259
-5.7697546479332491
-6.14147360086728522
-6.12277633007630229
-6.09429876297137874
-6.05368389994976397
-6.00068786964447387
-6.42499606729562345
-6.40081261610592644
-6.37063619752764598
-6.33420504718666511
-6.29270073771450278
-6.76635169751251642
-6.74911230444597265
-6.72881162167329983
-6.70508123271216849
-6.6779887521842296
-6.64819264597554227
-6.61725766675651883
-7.08346370511492207
-7.06677678304458823
-7.04792160107523458
-7.0271020955763035
-7.00481120689241887
-6.98193360829194809
-6.95977133467095488
-7.40835993562419137
-7.39362734272697342
-7.37769430415972938
-7.36095400513437337
-7.34399679766802116
-7.32760363575923268
-7.31268028045837681
-7.73968904240619349
-7.72768380682063061
-7.71529101503569592
-7.70296216828089264
-7.69125176452913006
-7.6807662109200967
-7.67206112624325431
5.72936107969168695
3.42944944292480614
-1.56426833533799226
-2.89196224044833627
-8.87657481915118751
-4.14976337088291025
-3.03526769918815909
-3.6110384423532782
-2.96265241912891231
-5.03195264850975832
-5.3751516267536994
-4.81979769690435234
-4.63899811389665473
-3.60488697459357077
-5.08665546882576081
-5.94082203627049577
-5.99350770448201864
-5.66352935111074451
-4.94735327823125282
-5.55860223818224775
-5.96098811895514125
-6.14728764534698513
-6.00353944985019528
-5.63487951530595232
-5.6202762283490495
-5.76227143681062337
-5.82027956561522419
-5.79017440348312462
-5.71868022260937447
-5.56570213325584184
-5.6775070907219467
-5.7479830712983695
-5.75681298013250675
-5.74140289874317844
-5.70884114666336551
-5.73857236527473624
-5.75258191706480648
-5.73835863456577755
-5.68411184789753055
-5.9114086517946518
-5.90232467128799065
-5.87705623448083703
-5.83005638877627952
-5.75463246717873833
-6.15037240624264392
-6.12652997515567943
-6.09066584225449237
-6.04014984279264677
-5.97424433287705536
-6.42763887466262052
-6.39890086120652057
-6.36266581451130797
-6.31863515769030926
-6.2682894895373904
-6.77125310240971512
-6.75175106482678355
-6.72854230465521663
-6.70113146052486996
-6.66954287546473612
-6.63453656292562588
-6.59808985155494199
-7.08565060774965261
-7.06733370520171889
-7.04641870833058093
-7.02307675462274261
-6.99784294887920844
-6.97175398949301073
-6.94643725788906519
-7.40881003421286444
-7.39311911171375247
-7.37598171421343451
-7.3578083583588576
-7.33924592858052183
-7.32119381859371199
-7.30474031383707878
-7.73894726602075078
-7.72665620821673116
-7.71389291863761972
-7.70113079130979816
-7.68896566494536327
-7.67806491791093038
-7.66904613854225126
7.37581389652534014
5.67737840017636675
5.76299996975932949
4.38971210516027277
5.54576131143077156
4.4191741882605422
3.28552448262330188
5.41626042702660904
4.31777873101118903
3.36734833878325812
2.38328645039078424
7.68395260482073006
6.12109375045870507
6.06323985032061685
4.79573608168909615
5.45653713600501256
4.66049012122172979
3.60963156255825535
4.82080766475742628
4.13319230379739544
3.5020580743996863
2.59412653623467193
7.28421359175600891
5.48158727851442862
5.69921105958507823
4.22055423915538697
5.00459948093080875
4.50451281305874218
3.1521351356563958
4.17143028941313432
3.7204358256862804
3.46226745883257081
2.22809821964443344
6.31967148153083258
3.22455741330337986
4.8452108390344506
1.8522485232677468
4.08277692192902641
3.82891353278549929
0.7499649803480537
2.54369934983581025
2.59214342989185553
2.73997206514971481
-0.130756007998030555
2.62152291000063542
-1.0948181088198794
1.79065974952990814
-2.08067135607132769
2.12634925290157639
0.781722721662021058
-3.31147186591272913
0.660366705347122718
0.0491011353839638787
-0.564959128033194702
-4.65747830099045501
-7.96650931673196716
-4.71960930832644188
-7.58674292477978796
-4.8893442382268173
-8.3571536175930845
-7.29374942890142464
-5.06287576727778443
-2.21877862752418764
-7.1399218079136233
-6.89826150920831616
-5.5438065537894694
-6.49571468383236983
-5.97819172226482642
-6.62878788984337497
-6.08742710886887917
-6.7947381192914964
-6.75776485231167356
-6.1634143647327857
-1.43161796080286052
-7.15628992878670012
-6.88710071775615873
-6.20601099749047869
-6.74085386840040535
-6.15155940664591494
-6.80663314255768626
-6.16934948481436329
-7.76559394678623072
-6.85623843092073226
-6.15680714077079561
-11.5946280771687427
-8.1232299548471385
-6.86029404493842865
-6.10478425755185228
3.28809276695329089
2.55847025624020041
1.79678696447299657
0.977073991741693071
1.20201202665970008
0.821658742781885998
0.218992748990791242
-0.518594898806981952
-1.47368788404152351
-1.46661330731617134
-1.62144620708412646
-1.90508083210132373
-4.21419126017666024
-3.97420067170221403
-3.75872757451304818
-3.53423181409208542
-5.11366327515510122
-5.03643253328007301
-5.05117067689651833
-4.95707210195827486
-5.59990326596927623
-5.53621812365629751
-5.48607452966202747
-5.42211031570361168
-5.5923384828196987
-5.55091635571732755
-5.54127268865637923
-5.57471007199626811
-5.51302683393517245
-5.47397454213259227
-5.45102898843494277
-5.46414715421567987
-5.59289957663368753
-5.56324341092327757
-5.54398988752672661
-5.52889762804698215
-5.80116965953548913
-5.77557435470737079
-5.75151563356805706
-5.72921894823370881
-6.05443744597800571
-6.03322221961189165
-6.01243387927042772
-5.99302627761364537
-6.34417042715201873
-6.32697893885286344
-6.31058603965864062
-6.29541991667287615
-6.65809814878848361
-6.64477555815104282
-6.63250015709294427
-6.62142627003710249