/*--------------------------------*- C++ -*----------------------------------*\
| =========                 |                                                 |
| \\      /  F ield         | OpenFOAM: The Open Source CFD Toolbox           |
|  \\    /   O peration     | Version:  2206                                  |
|   \\  /    A nd           | Website:  www.openfoam.com                      |
|    \\/     M anipulation  |                                                 |
\*---------------------------------------------------------------------------*/
FoamFile
{
    version     2.0;
    format      ascii;
    arch        "LSB;label=32;scalar=64";
    class       volScalarField;
    location    "0.119999999999999996";
    object      p_rgh;
}
// * * * * * * * * * * * * * * * * * * * * * * * * * * * * * * * * * * * * * //

dimensions      [1 -1 -2 0 0 0 0];

internalField   nonuniform List<scalar> 
7248
(
22.798406607225715
177.560011826251412
9.29935470805861897
46.9204218244939852
396.319302235798091
12.9414963448518829
6.05471260649257026
4.93755887977448715
8.51389998475746523
229.839913470088362
5.52348535677802754
0.849518909154486357
0.976105953920077485
6.20830632786792691
18.5084398138271276
-2.55898842253517955
-1.60738676789755863
-0.320519480769740073
2.79825829452710506
-1.67688263367268475
-1.88710627908052242
-1.86342161319440236
-1.19136310996839945
1.3343703935948672
-1.34085673424051621
-1.35743681855777898
-1.26525704202736233
-0.696663109652245538
1.9828845588717543
-0.904150614989224222
-0.989129242877359593
-0.993309753399875928
-0.845761153329367077
-0.475893203644211116
-0.668037440941957605
-0.689287966856234724
-0.681206283705222737
-0.619661703029336763
-0.302917619668587379
-0.476861151293574759
-0.461138165031709624
-0.424885688889929669
-0.358739762686957897
-0.169470629376180987
-0.336383915657721799
-0.305397802003595897
-0.259685938121664461
-0.195584544553783629
-0.0974772458709939615
-0.238014954356216252
-0.20366772053393975
-0.159997542423353845
-0.106386502303031955
-0.0436509130822732364
-0.216103262272390878
-0.194148567284640167
-0.167695183036037393
-0.136027586850926668
-0.0991126310026410051
-0.0578256128797143762
-0.0146190513667532503
-0.159648000378810773
-0.139571030168483518
-0.116377944200233868
-0.0901894208817875243
-0.0615746126084981277
-0.0317388212066004247
-0.00271743783333563884
-0.113050282137041894
-0.0963322395237291296
-0.0778755976761542484
-0.0581061921673644149
-0.0377320591074673389
-0.0177863154238878697
0.000414560138740824942
-0.0740410481287860495
-0.0614480987862746214
-0.0482812685982193096
-0.0350408737099517573
-0.0223723660116412273
-0.0110068191387758165
-0.0016363492288719798
28.044121918586459
50.1439078690103202
10.9379695978585634
13.1820316430027535
524.614402458105133
15.4794796782924937
6.35473036398434843
5.73329500561649041
10.4229680750382183
336.342412886636794
3.58996162477377734
0.336479160153092038
1.07604038496029952
7.53701523383629191
4.62996212038313981
-1.92929085765659014
-1.38292972581279261
-0.361048702058150706
3.16033291974510044
-1.57317711387633619
-1.85612989690777086
-1.88979929931594137
-1.15891695560833785
1.89732340401145327
-1.38574944102011988
-1.41141735939755053
-1.24864351639965765
-0.615747346280920316
5.18434025192290182
-0.972963111374968048
-1.05292699381546595
-1.02187257097638717
-0.685867969446132264
1.04021096073065911
-0.71380222720920905
-0.731864345479323997
-0.701772917038831268
-0.567538080629712005
0.34184334030558472
-0.501204678701899442
-0.477369994057020353
-0.427169955102763899
-0.331294650821590042
0.182940656789075895
-0.34666696668871505
-0.307963172343399205
-0.249538938447320141
-0.167419513059593128
0.010456359103775301
-0.240816679555586832
-0.200094802593026255
-0.147526272414969628
-0.0824410181843499706
-0.000591555415910896987
-0.16705838063962325
-0.130695309978077268
-0.0877209687386264758
-0.0391485673110935142
0.0122023357824738912
-0.114440395316129137
-0.0851701872081795097
-0.0528186624506216326
-0.0187709900240452289
0.0144691668805427606
-0.075791829703866373
-0.0543166811414997064
-0.0319788518302562205
-0.00995864036314520785
0.010158588194160139
-0.046634098486118554
-0.0328865473210665157
-0.019678789736825613
-0.00781529706011820438
0.0019288810953158827
34.1599123125292508
24.5417420471780794
14.7114130332985145
17.8947947560723684
514.312192048187626
20.899094851276395
8.75855510011159843
7.62648402435568595
12.6548267373064984
251.892812234329057
4.15738231972665151
0.891295887906839113
2.04380582052783799
7.38473428944042887
20.1808818270895287
-1.92880303096597716
-1.21141276748512627
-0.0263187343778334831
4.05117498129142017
-1.648329074043692
-1.96518076665239505
-1.95441772854822315
-0.860283336243842345
3.35161687510730832
-1.40599417282192718
-1.45141363954631464
-1.23824119708116931
-0.395796678870692753
8.31466234108001423
-1.01688978305492839
-1.11020727392804242
-1.0151864082882287
-0.224079447723076974
3.69705765694716471
-0.749877312829443476
-0.772225197424795562
-0.710545895541229156
-0.307136214279816078
1.02008373452625256
-0.522087112951690635
-0.495321532715836454
-0.425710861104759697
-0.251876456627207868
0.843126002299873778
-0.355965899170067102
-0.309373474168960882
-0.237728395034813883
-0.114095972339867749
0.217127804013481668
-0.24305493214960483
-0.195638401908045684
-0.133894629415303112
-0.0517402113444434195
0.0573340108544270408
-0.166131968746199954
-0.124934848678813104
-0.0756319888369266502
-0.0189629452934652123
0.0419345624556356697
-0.112357270539820933
-0.0799474117874909157
-0.043712367505889943
-0.00515668914173451377
0.0326596547210113719
-0.0736310820045024544
-0.0504319251518859715
-0.0260774015727191361
-0.00189359132318731938
0.020234081855204835
-0.0449609277863339263
-0.0307035597265915977
-0.016949877350996987
-0.00457820160942511416
0.00554446473731788972
44.6816402450509642
29.6266978371087824
18.2736242430288769
26.298745984708841
530.6995876602831
11.6305049488606311
9.60466146440412416
8.77868474344416683
16.4109866777517936
270.470277789406509
2.92850047390707635
1.28639202644761963
3.12787778641792436
8.27657813239801499
12.8910929427871999
-1.64023762746822332
-0.772143280294507406
0.365363621311035169
4.50301317614422647
-1.69826124485273522
-2.00372079936592495
-1.56870450190114785
0.438151582724109867
3.51541396097823977
-1.43958727881174209
-1.4944554225787321
-1.23684461660319922
0.372813050920579148
7.12759175076373275
-1.06999464730140259
-1.12464574385305838
-0.97642742739327737
-0.162926304461943394
5.7682372505833186
-0.776751802302890981
-0.798475721820554263
-0.710539568706835212
-0.305459502338076117
1.72270405619665468
-0.538616599894582437
-0.507647400308559371
-0.428385083451393311
0.0812624057127546984
0.919276456987507928
-0.363846251702275747
-0.310542904451294788
-0.228172391644681338
0.00268062334471983604
0.336905510649471274
-0.244808210546046928
-0.191299040643833462
-0.120346097813037622
-0.0176130672204700169
0.11878605871800535
-0.165054192196973648
-0.119325220698298193
-0.0637424985165183922
0.00155214747079247361
0.0730370588450721392
-0.110291632088896238
-0.0749112415736856857
-0.034888268664955556
0.00815678271153739802
0.0506143240667382491
-0.0715348165530633184
-0.046700051721488188
-0.0204003011374823649
0.00589802636695764028
0.0300113873372333147
-0.0433506172158887801
-0.0286168200639733937
-0.0143452334302658514
-0.00148652706998866208
0.00899905274023003049
54.0894549741571922
29.9103282588143919
23.8581705125156347
31.040014445661793
268.843184694247157
11.6187101174753753
9.86765918738169923
11.240941034778027
22.8271922358431461
138.733612908881867
2.18142726689402133
4.0707350596774976
4.80498122901591085
12.2819298172049081
12.5223604634703847
-1.4615085791266198
0.182168731099855902
1.41750534962929464
5.70694697497451653
-1.81275721482694241
-2.03262704608989209
1.28566706508845319
0.729008872115186501
2.80590052152803926
-1.49617103355107672
-1.58657276788378421
-1.36891747781687445
-0.0243778681150653119
3.13117622781220106
-1.1258928462740152
-1.17124870998316721
-1.0023386674088437
-0.366762851311378812
4.933415059748266
-0.813428746914934497
-0.823104171934874618
-0.704205489725809652
-0.239244416376463737
1.76310176159111243
-0.554269921527903553
-0.517886199905078004
-0.426158927070473093
-0.00661834003831125381
0.958122159023025999
-0.370117749013941788
-0.312072420914693449
-0.221812338985528962
0.0406418482131764777
0.454849209395326692
-0.246415381839546005
-0.187921900456951785
-0.109334001567682623
0.00936975900475067215
0.171605809392374409
-0.164043499930820791
-0.11447610187554344
-0.0534565893122975408
0.0196026753352173989
0.100979678612015955
-0.108438827694001677
-0.0704811094816115841
-0.0271087570404453457
0.0200012608405225889
0.0667466167493733914
-0.0696561930456106176
-0.0433898530181008393
-0.0153676026797723696
0.0128269677602610554
0.0387481049213097284
-0.0418991216693050117
-0.0267590779109241547
-0.012038096896345515
0.00124869371541989405
0.0120581928310860339
57.0864447059449347
42.8355793622199315
25.1338788611180384
30.9791037612221309
429.555855060507724
18.9739632132356029
13.3805049490121419
12.8104976709694984
22.7074450961762402
223.753101811912586
6.3752603930911107
3.70301604952219954
4.97147517241783188
13.2743722991532849
1.83078353459209686
-1.66277409194621839
-0.409136287260817411
1.64862640148138806
5.54017745529039107
-1.7701675329315627
-2.07306506623773057
-0.890255274289666554
-0.772324571361964862
2.37385267484795204
-1.54936254667521012
-1.69816317034083664
-1.67321533936356048
-0.742377850695336905
0.12696610831016103
-1.17383937750438649
-1.28210510091963203
-1.19866499552656758
-0.662088116609833244
2.11796120826182221
-0.847957560438936997
-0.870846079650940519
-0.767304096904395161
-0.35592687465212608
1.96122662815824911
-0.566942966855057073
-0.532443594970415712
-0.437943043053889813
-0.16015736603668157
0.959093605601834875
-0.37670664822681349
-0.317492276012684871
-0.224471923328820377
0.030161251732537555
0.444688896293684632
-0.248082153862995924
-0.186623419544352021
-0.103004283065051258
0.0234892249772708506
0.198463958848585531
-0.163325090428468905
-0.110951723693334309
-0.0458376384261926437
0.032929347525428157
0.121371367780057027
-0.106960437568680566
-0.0670189001562289943
-0.0210359673456509653
0.0292778459692651996
0.0794538213743790911
-0.0681328062881197821
-0.0407401225544890278
-0.0113547036507121758
0.018350082708562452
0.0457324694458178943
-0.0407054531101471162
-0.0252558390640520262
-0.010185484036136179
0.00343823149979524678
0.0145064151778081553
61.5146313903601865
43.2610245984848234
27.3307564231680935
33.2298208056550948
673.567450179226739
19.5906141095243953
11.7123295673528549
14.6285770919571743
25.0919650526674012
385.182364945298559
5.48390558354594049
4.50914720646954592
6.75988480279981818
14.6191633829860255
-2.01648606622737336
-1.00201568378205863
0.343520622021203925
3.69710932421178651
7.05769382753710151
-1.60568365523778267
-1.4411565618890172
-0.458965957931350033
0.724945729378324133
3.38371920861037401
-1.48624455812664436
-1.67785597531070385
-1.079756318020751
0.0655077241475622296
0.459890693892117897
-1.18253535366869666
-1.31664395449192972
-1.416675599966432
-1.25265246512251593
0.343809491597611538
-0.861208355378556112
-0.896173851549622369
-0.850333793657154224
-0.566612030716762027
0.854105851598984334
-0.578264358621083496
-0.552319972937961756
-0.479596204779041801
-0.293422337055926963
0.558678623245437933
-0.38248743287893161
-0.32490650918666053
-0.233896853173495178
-0.0526374525623041212
0.312437115473000071
-0.249516739966506751
-0.186879423883569235
-0.101026708079384603
0.0218119573501468073
0.187359128760158949
-0.162921266504877815
-0.108917090479773465
-0.0414290780335337325
0.0401944848450107722
0.131066062770446995
-0.105953822330238701
-0.0647247488122046494
-0.0170595365887592186
0.0352903226482719282
0.0876166814129517857
-0.0670716326681032177
-0.0389201200297553743
-0.00861791082934630116
0.0220992192409109715
0.0504630206932508291
-0.0398596051899789347
-0.024206652671849873
-0.00890279911943148497
0.00494699219958188909
0.0161892223560949275
65.2290665013631781
48.4870644034506597
26.2578189820164098
36.3025482977720344
416.361161426102854
11.8074642295014005
13.646621818746306
14.2590231987615521
24.6382339948256721
234.213578534524999
4.57729661628540008
7.99582534334328976
10.6788737202720565
14.5007389733391676
26.5703783376014222
-0.522226260675793696
5.61377746842673986
8.38059711795754048
11.6741154599698707
-1.39976105069517476
-1.21545192285383852
7.3607112462603359
12.2414923921917627
9.3811748031885589
-1.34973495711028479
-1.17063778489691739
-0.501204751254848535
0.966259142882333277
3.84935735758352848
-1.16012329432604133
-1.2754214150573655
-1.46539617558329915
-1.55476616969020864
-0.479834802910748648
-0.859516628123660031
-0.893908657613282531
-0.897557586509874827
-0.757507621720106883
0.49620956401430838
-0.581751518444275639
-0.557167637651646008
-0.506389638587802948
-0.316715308250747229
0.258181223976722884
-0.385451683985856663
-0.329435952314713121
-0.243350456325020503
-0.0990776905518327422
0.218619926339474385
-0.250346248173199337
-0.187751201116257399
-0.101468220704194381
0.0165193013253160728
0.174856210037814763
-0.16273525526334337
-0.108080571991828578
-0.0396547994887423705
0.0430937756231177319
0.134624912352093867
-0.1054535662306193
-0.0636210733313549159
-0.0151707512066247673
0.0381192226570210221
0.0913821337759243429
-0.0665332683045627565
-0.0380078706767837601
-0.00725340022127495074
0.0239613450534428597
0.0528002565890663966
-0.039422418968907802
-0.0236708542672480586
-0.00825208857621518958
0.00570899603741574242
0.0170364657414885205
19.0970941197879149
13.5769576367801079
9.66280095025242858
7.53809989927536606
546.248324415275988
31.5170486338106386
10.2762050138770551
6.88477706980525817
3.13552128028263644
305.241642918887578
3.81417790469246976
0.295837954454448215
0.306634798766540984
-0.198358512393943309
-1.67698004507394649
-1.02105587543990417
-1.9476084040456767
-1.48173734155705894
-1.20885402546335707
-1.3947300688073232
-1.30319036609228345
-1.47745852624754037
-1.62619965612813933
-1.28518737325976828
-1.04314672803642172
-1.08776287484044998
-1.16311504331335303
-1.20847895838574804
-1.19869510594433537
-0.706217496981429438
-0.751369028628980695
-0.790839864537208559
-0.810547101770893175
-0.815669524028185378
-0.525784124073506498
-0.551160429210306946
-0.561752759834530657
-0.549779019057922036
-0.532896402701394933
-0.392691276880988926
-0.401992488015729288
-0.39944070215357208
-0.388816873459269907
-0.369560826549692134
-0.301116262746915331
-0.298664390677473413
-0.288119646972620713
-0.271043184802594816
-0.251083457639558416
-0.226773030876576659
-0.218359108770907723
-0.205220106405983066
-0.188658292669179023
-0.169814395876694751
-0.188820752033002109
-0.180060513735609745
-0.170220003902443962
-0.158400913127037135
-0.144452232126258601
-0.128930824298202074
-0.112547933062354041
-0.147171291865103804
-0.136281953985596449
-0.124523774587329647
-0.111880275012509425
-0.0984539366657677939
-0.0846911979525659386
-0.071167363022495822
-0.110229282249497088
-0.0987983214984150676
-0.0869235160292630427
-0.0748171786068398403
-0.062795393371567601
-0.0512748481300355219
-0.040700986038309156
-0.0777426922374452878
-0.0667493129668113444
-0.0556308547327782899
-0.0447364808604234776
-0.0344671886162862123
-0.0252436534937439012
-0.0174340438076188292
13.0537135929798538
10.0325534358950996
8.17006118914662594
6.58353238707454302
417.575596714386222
10.5226261237835281
6.29485808162280858
3.71729166458385585
4.15034964919120331
262.387172270091355
7.27936245106931246
1.38878171342550027
0.022050929182194156
0.531700766443414796
17.2823926803059003
-1.50731673588628867
-1.56554580102386587
-1.29481161937653444
-0.372757385816731457
-1.02383476197747525
-1.13660472557325831
-1.40256775047689253
-1.23380161478929207
0.962398011016432964
-0.962630856922612077
-0.981606921941832855
-1.0756685678849558
-1.10361713920922622
-1.01892148665397997
-0.686223777338898722
-0.723513457855669562
-0.761503877778629823
-0.779537595090625146
-0.785828857472337217
-0.526509501961817561
-0.54681893394658454
-0.549377251121602739
-0.536928150736805554
-0.514555881291623662
-0.395242287692268768
-0.402820681669074365
-0.396457731690290527
-0.380569224850900445
-0.357755290176425544
-0.301477357244816058
-0.297794140819838404
-0.284924186317897343
-0.266523085580456232
-0.244757282890197825
-0.227189395438874231
-0.217386005977004138
-0.202863862919576032
-0.185193122314077974
-0.165530023105495028
-0.190034494088142075
-0.180638963627737653
-0.169927464467800299
-0.157309293965914893
-0.142547896841101723
-0.126335784438816018
-0.109509212003958245
-0.147684132261377721
-0.136396576570542744
-0.124181418264399851
-0.11101013632506225
-0.0970649122829834454
-0.0828753448419869837
-0.069090824556502714
-0.110331350881867907
-0.0987122266896073852
-0.0865975657708598218
-0.0742134622143851702
-0.061905269346547602
-0.0501445124081647126
-0.039431695124180724
-0.0775756238922777341
-0.0665583208598941323
-0.0553843418344734037
-0.0444083200993552266
-0.0340474196240462407
-0.0247500954242803328
-0.0169218796438286717
16.9661086824668885
11.81127427547273
10.3836451744844762
7.14079894141010563
375.832885460633861
17.9300646087734492
6.5391668154500735
3.46807726638842384
2.52844603245607136
175.224473204803246
3.89761162211058965
-0.711428244364404661
-0.846058253701322371
0.0426169016093804823
7.88643668669567344
-1.80574406980607827
-1.74821406234620591
-1.47791803642841835
-0.768066861533010292
-0.318483542720047141
-1.27460879385109593
-1.52810408950882604
-1.40710594394514987
-1.03046212732084608
-0.900960958045527782
-0.970554863058679551
-1.05689183062911085
-0.834501422190343844
-0.883804684099278259
-0.680701799656210249
-0.725651152894625784
-0.733414504277497992
-0.720117381714332483
-0.703683314159032292
-0.53225458279109028
-0.539919520151939225
-0.535682439071139216
-0.517888149414748478
-0.484228953443497645
-0.402080172978986905
-0.402951745654828719
-0.39097476412405352
-0.370143513248877176
-0.341723335012315277
-0.303711851064333183
-0.296735685904362778
-0.280788018996401989
-0.259455993675254626
-0.23436633929974976
-0.228022966474657779
-0.216062944945868141
-0.199413144090318351
-0.179635657298869905
-0.157847210276087196
-0.19221994956636082
-0.181761322767811762
-0.169757464913464384
-0.155759540768071719
-0.139597681585906019
-0.122002476462692425
-0.103865329330855419
-0.148623900305666662
-0.136700370670811699
-0.123699087587346102
-0.109645732748699487
-0.0947954412772993582
-0.0797374521693510196
-0.0651758339076541626
-0.110575240261943514
-0.0986060198011678574
-0.0860610134818618616
-0.0731945068275184352
-0.0603917951385020482
-0.0481671515333731565
-0.0370598475923780146
-0.0773865260204125022
-0.0662575564880451273
-0.0549455136578378342
-0.0438168787808609836
-0.033309407981069579
-0.0238923615964154561
-0.0159866811898434838
15.6047181078804691
13.147890705671168
10.8719702970249479
9.1842511110785221
452.08502917086804
17.8126364673028057
7.34210389169856192
4.00458675647894946
4.26372803094241526
214.542885873312713
1.71047848325291496
-0.740525904058023876
-0.705293989854295367
0.841852176417685727
19.360805970920854
-2.04753479253511106
-1.78966832003519971
-1.48382673264083698
-0.566045092710916964
-1.25129725963979199
-1.4732155036569341
-1.71837948700689669
-1.35849540172716887
-0.691561143355383656
-0.990639018630049883
-1.1032691759301676
-1.16880274374297222
-0.73968631762074788
-0.654349762720751738
-0.72502057809023579
-0.771101840117538573
-0.799990458323519671
-0.72272071227558432
-0.664524667346998221
-0.54782388093740364
-0.54972867744210796
-0.547163016753414388
-0.523135703761741233
-0.476340998976917118
-0.408955401132231777
-0.404311380024067746
-0.390698654547830926
-0.366528623207045434
-0.331238439892121761
-0.306007422222690395
-0.295249712858920821
-0.276933290191424764
-0.252485437757960396
-0.222751820553645008
-0.228816337395206071
-0.214126612454818815
-0.195034799990777497
-0.172548742470396838
-0.147655165610936945
-0.194896074958170712
-0.183168208362344015
-0.169513857529683565
-0.153645966173535764
-0.135598036345551343
-0.116024062262289548
-0.0958618091083271312
-0.149899843202603439
-0.137094524346592056
-0.123001963981705681
-0.107722037172077414
-0.0915964599197678503
-0.0752612934691473806
-0.0594841434598039343
-0.110917772782365295
-0.0984499396635594437
-0.0852913822484370893
-0.0717352019540202918
-0.0582205455616391365
-0.0453071091083599928
-0.0335813602002820871
-0.0771189441064893122
-0.0658252037358429409
-0.0543106727484412022
-0.0429632783006929919
-0.0322464316268437495
-0.0226534008628968726
-0.0146210621542911187
11.3676133822305498
14.7896039652316187
7.37761652902135179
10.2607221020443138
369.388930907854331
10.7342248946892944
5.04671455021436
2.75780255758823456
6.65588527266072916
129.727526867169814
-0.483607411403700393
-1.29309030474774422
-0.580785372784007548
1.79362835510286733
14.9142268347177751
-1.83523920833218757
-1.7177990433453858
-1.33613485961885448
-0.128453466477590567
-1.34526788335444181
-1.59497194805473752
-1.79005102782268599
-0.773193046675253237
0.298192430644867723
-1.03781992794510169
-1.17391877892228891
-1.24516546906316283
-0.553788495975341299
-0.110836739339558316
-0.742109529987743044
-0.810655003027715315
-0.850840464213308834
-0.728394715412597149
-0.609541606947857084
-0.553935915475530893
-0.563333694461419565
-0.569906584961490381
-0.536343810927634279
-0.474180149577030752
-0.413343055899517919
-0.408339518464483964
-0.394644125920473099
-0.366817635583013946
-0.322658159236608899
-0.308154402774548752
-0.294452117693349558
-0.273733980926400278
-0.245423811374283485
-0.209598826810829808
-0.22942855081166727
-0.211987310395868628
-0.190060119860865073
-0.164059550292140754
-0.134930142098743711
-0.198074596785565354
-0.184726961506189752
-0.169122816723170366
-0.151058047873034673
-0.130610065504344813
-0.1084132985948386
-0.0854918712756285171
-0.151432440470547741
-0.137509681489017543
-0.122062715270529407
-0.105251957509508595
-0.0874837382899714272
-0.069447442225172587
-0.0520143941757460065
-0.111311924168987178
-0.0982045627813826899
-0.0842666401606880638
-0.0698331459621820694
-0.055394783240743678
-0.0415653793449291473
-0.0290011393575606152
-0.0767442443146738734
-0.0652444066306676479
-0.0534762530929910052
-0.0418535544903431631
-0.0308679911363092738
-0.0210402215835378166
-0.0128325823113868854
9.2671823385011578
12.3904766906605275
5.8786159228577235
7.3361752350147027
353.064790135423493
8.12060560919289642
4.72799679952415364
5.57674296553174464
11.2201402222303326
187.562361149571643
-0.224247545463162917
-0.933927753221534984
0.0520970896941132661
3.40923754763227871
20.2791241194516196
-1.9529402016536006
-1.69408456333302504
-0.961312161584296554
3.62077277398354092
-1.24809412107291551
-1.66448001380001287
-1.81682136104320802
-0.283824316367215168
3.40263029269566353
-1.09975569606634216
-1.25064287592431556
-1.30402595076596239
-0.360718711065962483
0.517995948481662305
-0.770146666634681565
-0.850386115847912571
-0.902321360836423336
-0.762791276475560109
-0.651474415675599827
-0.568404054162373051
-0.586314997944419658
-0.594004752110614209
-0.568990137045563449
-0.471955031208927511
-0.420566834366512265
-0.417144690197313706
-0.40232334394295266
-0.370630026041929017
-0.315348219315191969
-0.310857620604155338
-0.295135392564581212
-0.271371152912704805
-0.23807587591979773
-0.194571627298007643
-0.230435577121121088
-0.209964388594581747
-0.184489331857929983
-0.153977450300901902
-0.119397632133508319
-0.20167462377579487
-0.186484848635460942
-0.168695415093004536
-0.148038904168137558
-0.124626712733968081
-0.0990685744609813845
-0.072592077357319873
-0.153173811241705121
-0.137950665859600807
-0.120918133004004363
-0.102270509717148059
-0.0824629693407255282
-0.0622608786702051956
-0.0427121161752796533
-0.111728954559809857
-0.097863522584046389
-0.0829991878661985594
-0.0675059458516234639
-0.0519241054737423768
-0.0369383228756307094
-0.0233107670773858716
-0.0762476805643582251
-0.0645085222823246623
-0.0524466920367032893
-0.0404975369526624981
-0.0291819699172591492
-0.0190565995436897187
-0.010623455007724018
9.88082229634959575
13.3891811397416731
5.40962802788556729
5.89758335569312031
285.487158049513312
8.52785142423680753
4.46721729099334119
3.35483617083060537
9.35485099297276079
150.849808701368204
1.87322287946082366
-0.0755757396604082032
0.836310761911018274
7.85590813673911548
26.5625191609870228
-2.31918204653392701
-1.49960996423029336
0.0741319005395218167
4.91841275546921697
-0.64075499012051873
-1.72344643848158885
-1.83976546504810812
0.388742454794706427
6.56185288782316967
-1.15865300687408945
-1.30658568292780153
-1.33013480893147795
-0.028718947230382718
1.84703704454680984
-0.790522843288365418
-0.893021894291402218
-0.95529037904241243
-0.957313496988515644
-0.566037787269500714
-0.586473201066439853
-0.610625673888969711
-0.622245358463945797
-0.607769707239909307
-0.472740386438516291
-0.4362556448456823
-0.430106584083010723
-0.411768448263302445
-0.374321763035746991
-0.303329707191519748
-0.3167858316499087
-0.298088661421743506
-0.269617555456855673
-0.229007659521452384
-0.175259901832267889
-0.232433567073756564
-0.20825017875117921
-0.178074273078274919
-0.141643455878124741
-0.100124618976342838
-0.205914197513350578
-0.188674804446589822
-0.168374121723865455
-0.144643734603164043
-0.117551261104895444
-0.0877551735753062945
-0.0568201743506138862
-0.155151205114921725
-0.138464283044587577
-0.11960910107557178
-0.0987895955800413839
-0.0764987069190965208
-0.0536211084613957695
-0.0314588349486519953
-0.112172435624192296
-0.0974398427269742157
-0.0815068041597277193
-0.0647665051343728621
-0.047809297668039541
-0.0314161357593829293
-0.016492780458879204
-0.0756265424061935559
-0.0636213068206318288
-0.0512285150356966562
-0.0388996682808904135
-0.0271892645291300014
-0.0167037109200948407
-0.0079986262432527825
15.8230415516617438
150.359459038421107
7.49434050033379151
67.3511227736521363
338.853189029762575
12.76904929132529
4.67258581059286016
4.14230038499516073
7.42240426713172052
165.362201651649116
1.9356879698295133
-0.147618656218629407
1.93630336914313994
5.15708244224101087
19.5865333836792956
-2.19587435637949158
-1.69182058476150976
0.373935045196036042
3.81021834058741549
-1.37901005654025011
-1.81976803799964593
-1.87045876422432622
-0.35295143060606754
3.0574568987554489
-1.24053726382377327
-1.35768786019163135
-1.35183061289217488
-0.923930000825232689
2.22879420650693039
-0.836061618612036095
-0.942021821181449837
-0.988944479892545192
-0.9364972521887589
-0.624393035204248159
-0.619191441392146658
-0.647182761421877473
-0.656305825292660572
-0.630854332640223059
-0.543938452170813158
-0.454545666028217277
-0.445320841902360154
-0.419736484064030801
-0.37150597361044424
-0.276764073416745693
-0.325683302736173186
-0.301837914523186368
-0.265967941969820376
-0.215473187642619912
-0.146796379860275772
-0.235076360049625205
-0.206338448808716962
-0.170106097102274673
-0.126075890406386532
-0.0755627139078362681
-0.210815602412294717
-0.191313564828161531
-0.168104805017792291
-0.140693976658525705
-0.10910541605366203
-0.0740992530365838786
-0.0376515546508379012
-0.157338107749660949
-0.139021205201958403
-0.118106208337343851
-0.0947642546550481052
-0.0695304491971240612
-0.0434414912579261514
-0.0181247590505835172
-0.112622534212862349
-0.0969316117137520444
-0.0797942142134355908
-0.0616208583588735218
-0.0430584285806901307
-0.0250063185957264365
-0.00855281384167029535
-0.0748847660207477839
-0.0625937082167314224
-0.0498304186376177169
-0.0370682913097959491
-0.02490316494536398
-0.0140024179109284486
-0.00498363854225171866
15.9669999335134953
12.8899810902916414
13.1087443149216725
10.5337593722043561
13.2973866266021759
10.8466484474197848
8.50569219451909753
13.5911555034044476
11.1074922669999392
8.93176220398324361
6.81323021261400541
17.3955431053353919
15.3525673541846821
14.6080534994602047
12.7496576712845116
13.7092025738387733
12.2703264830819396
10.3129250380702153
12.8855493524439186
11.2716317972993512
9.93289406438893963
8.12226469598564016
19.6988026581731326
23.2497852950536057
16.1481937316152333
20.4951830105982502
15.1147497280082259
13.6095459805419985
18.7608436842282096
14.9312151142106586
12.5441117657086174
11.5160928821978938
16.6851120639679031
60.5975248028145259
64.8830926273746229
46.6028474302034539
61.0949246859447825
18.2074419881394114
42.8645133067246888
56.1831005236440504
16.1257066366347956
18.3430219707309803
47.4921300222991789
50.7762645337107372
91.1231804602370374
50.303290372025522
84.3768690412786668
52.0945064436304222
93.5259193801329189
77.6974781175025555
53.0101092204636686
26.2340335162147049
85.3720099395055314
71.0627965583699392
43.9227640354610784
-3.94059958758695128
-3.11743444604357878
7.17537447455965527
-3.09692373599706894
72.6781382984374744
16.7977218814747999
-3.03367846966020016
99.3779823126193662
60.403551234204599
15.9798504301967679
-3.13750785883678196
-4.88615280778917516
-4.36689297529365827
-4.84401896979818414
-4.3774489118793678
-0.649429476105399472
-4.81481872901547447
-4.31740623233966225
53.4055695327612909
-1.76120117187309666
-4.76208241900469531
-4.19558855318862367
-5.10119647668924259
-4.57487477098176942
-5.07080485488650101
-4.48837273245760304
-5.86283928351952444
-5.00792309068351482
-4.34792970516779409
-8.79992618765918699
-6.017278768263572
-4.84456152105422522
-4.15090744718383231
10.9052400346040628
8.76508071659652011
6.88822126321126937
5.42965490864871825
7.11476449084787177
7.21684979871227306
5.69190483657409452
4.06249678787609447
3.55286565108300678
4.67298415681273482
5.82581392742825699
3.66923389895665331