/*--------------------------------*- C++ -*----------------------------------*\
| =========                 |                                                 |
| \\      /  F ield         | OpenFOAM: The Open Source CFD Toolbox           |
|  \\    /   O peration     | Version:  2206                                  |
|   \\  /    A nd           | Website:  www.openfoam.com                      |
|    \\/     M anipulation  |                                                 |
\*---------------------------------------------------------------------------*/
FoamFile
{
    version     2.0;
    format      ascii;
    arch        "LSB;label=32;scalar=64";
    class       volScalarField;
    location    "0.119999999999999996";
    object      rAU;
}
// * * * * * * * * * * * * * * * * * * * * * * * * * * * * * * * * * * * * * //

dimensions      [-1 3 1 0 0 0 0];

internalField   nonuniform List<scalar> 
7248
(
0.000849655127730887874
0.00013421856536271386
0.00246189477615313228
0.000420103335152672988
8.77692323009163157e-05
0.000908706484753409624
0.00333772275839802667
0.00515825799172955814
0.000787824741298617662
0.000136725140279059286
0.00101390023809623205
0.00444950334813298386
0.00685274233261146896
0.00139477636601821999
0.000720075175447198903
0.00335313779950805347
0.00931206955083946873
0.0103471270529714599
0.00286404439419696765
0.0124649268794849322
0.0107696858448554002
0.0110420770816865282
0.0117010909722960223
0.00670910312895321975
0.0106257860791327246
0.0106064003960367539
0.0111553805319103694
0.0117481429572482646
0.00955982212681310943
0.0122823730365979739
0.0123071835939138202
0.0122929412435397751
0.0124751077457612054
0.0124010771643592154
0.0134454416656047786
0.0136886327310806188
0.0135036784611456285
0.0130407875474208065
0.0123339040332731114
0.0152677791291680968
0.015186892680130154
0.0149705694767378692
0.0147021389459905134
0.0144308355314567687
0.0169296731660606853
0.0168894833441592361
0.0168970190895104538
0.0169651442217052077
0.0172545136740063568
0.0184087396231393252
0.0184859534291574416
0.0186892133980269201
0.0190592236053320069
0.0197132453052137301
0.0197328111475812279
0.0197455521121805214
0.019841873323833227
0.02004780355768844
0.0203911476530868677
0.0209167672149688719
0.0216910271218370941
0.0208292217971015881
0.0209740842515502915
0.0212016727199163223
0.0215359075390784242
0.0220019606602753597
0.0226276156225814311
0.0234388908034002356
0.0219163848480274891
0.0221825512564787115
0.022532602621227981
0.0229869296512979007
0.0235635373772250245
0.0242749183083988684
0.0251210871585116485
0.0171287038637508819
0.0177902566338014184
0.0186079874988605391
0.0196228140085823212
0.0208763819038301594
0.0224074686079431852
0.0242389403709754592
0.00078338358247036406
0.000192881971345636193
0.00202717562589035645
0.000399198173741915354
7.1197927964725477e-05
0.00110255905181442875
0.0032349193665488986
0.00474361139178981935
0.000620473921767054144
0.000108388960066697399
0.00130983717063222938
0.00430148267736560428
0.00562925830019236038
0.00111305660763353536
0.000714087454683932942
0.0049674147893814715
0.0112493041849880751
0.0108276447650411112
0.00235290645417751297
0.0133734471796271692
0.0114444848417256696
0.0108415782783060424
0.011189581016919135
0.00491928800294099983
0.011979222344806438
0.0106166721948350896
0.0108128987793667738
0.0120109360083255224
0.00765753681812900589
0.0133072559512922035
0.0123527785746705976
0.0122104274136222053
0.0121729708132458786
0.0117442608175468231
0.0139253516366328132
0.0135383923927713846
0.0131176721021674485
0.01246776944093737
0.0114636563485585943
0.015347909269430712
0.0149820313390751237
0.0145066988557219136
0.0139780805104741581
0.0133301512476685195
0.0169172108517997369
0.0167716398809660272
0.0166272676562170298
0.016545546629448734
0.0166689861977087628
0.0184243434747810124
0.0184581207836535255
0.0186063762873343169
0.0189480153837029847
0.0196141038829263023
0.0198740985584313669
0.0200644781394543927
0.0203969747860955584
0.0209367332208761567
0.0217694921220851212
0.0212508333279303428
0.0215832623513067985
0.0220530124663927997
0.0226977363848364956
0.0235527210526137523
0.0225932646864656118
0.0230534125593627147
0.0236400368684285232
0.0243687638088009792
0.0252425945513884802
0.0187111506155946197
0.0197525365062320747
0.0210453189739290523
0.0226274176157094734
0.0245215145537637652
0.00069580810957459399
0.000223036551795664252
0.00179644919066830112
0.000373337299205506298
6.20206273416020528e-05
0.000683177023505255124
0.00191255723930050243
0.00409531729302011621
0.000632700522266649453
0.000127072200942252034
0.000988058865196594048
0.00318267044325919483
0.00557033738617379245
0.00107402619792454032
0.000810632154548809446
0.00418012208227349323
0.0102823878034120769
0.00858871146438985704
0.00184071080324581119
0.0120072572669354012
0.011861939238944361
0.0110831857692445836
0.00960039617158180321
0.00312246851499401248
0.0120273304110287988
0.0106044853524852704
0.010683102194884565
0.011436220170452439
0.00504336392607054266
0.0134437989542015163
0.0122634001448123087
0.0120865928167740132
0.0125316088504553586
0.00869848241084623768
0.0143730973074004745
0.0136123673181087271
0.0129483710473118213
0.0122267364520977553
0.0108237149228986133
0.0154216247639315587
0.0148642216710961842
0.0141688714782220466
0.0136117832106311728
0.0125963896998858103
0.0169631267409836514
0.0166816280892043076
0.0164071357937624653
0.0162278801787005163
0.0162426229491251205
0.0184936557075027173
0.0184780104584132861
0.0185901471621568448
0.018918963873497778
0.0196685467129443271
0.0199424970723720008
0.0201194587491506788
0.0204543553677929701
0.0210282093136598541
0.0219581282555166152
0.0213251210761444265
0.0216565443838617339
0.0221356001409536395
0.0228097106987150099
0.0237242367541677796
0.0226697435788121258
0.0231354525422094656
0.0237334885231351503
0.0244827362896443031
0.02538874740014508
0.0188153088733355282
0.0198852437268349606
0.0212157729215786718
0.0228468069722605437
0.0248018324987782472
0.000563939866019652646
0.000221972931423886202
0.00123944011234421387
0.000365965000613349754
6.30619241460815577e-05
0.00110303142340575835
0.00495579832343563242
0.00295767433101620531
0.000607274705171798545
0.00012484229952216256
0.00160486172112793771
0.00938177377327766189
0.00471868283252287798
0.000920104143543394983
0.000900048952106045452
0.00621615052799714962
0.0154191259849929922
0.00636133954236669207
0.00144632802239867968
0.0120757485255934792
0.0115353626117440621
0.0125779143899133125
0.0079560277088663884
0.00244445890318595923
0.0133088136490747255
0.0105744610134013619
0.0107160081997115311
0.0096295733509457089
0.0042149495947498769
0.014281597101974736
0.0120996044824385404
0.011607856014126481
0.0125017102183662843
0.00667836141305435792
0.0150384805553209419
0.0138086172515713788
0.0128894233734945778
0.0126094173133626773
0.0094074295763952754
0.0157930127856240506
0.014920662186237485
0.0140965612385135341
0.0133917693184579158
0.0114678552760794934
0.0170709076596751615
0.0166816740678156113
0.0163014743899759749
0.0160952609403681758
0.0153484032618069893
0.0186020761950425884
0.0185476771814707848
0.0186352712310184424
0.0190025451132095208
0.0194679457142363094
0.0200413766046392064
0.0202112986668384273
0.0205576349727212213
0.0211879878272307823
0.022244515032021208
0.0214215178633798166
0.021752686779402005
0.0222453159367858484
0.0229569145965661456
0.0239393001885095241
0.0227597436565239002
0.0232295946808928899
0.0238385831599911488
0.0246092490096879585
0.0255481577648852681
0.0189206184339108172
0.02001392236122565
0.0213761223368538963
0.0230497494825028237
0.0250590006380587704
0.000467670392672005968
0.000218475937189732705
0.000848656134498269659
0.000335781892794148997
0.000106012932968446125
0.00185510923516038939
0.00521960747833826767
0.0018110596311131438
0.00052095483229912861
0.00024051449437840049
0.00243156594565207022
0.00779948447661360685
0.00345243630183571758
0.000746673193008834933
0.00148387213009268295
0.00805602390894073934
0.0103051421180132118
0.00541277731240733407
0.00124818274687607013
0.0112863329315302727
0.0116289033915999603
0.0103820618549092906
0.00801977501256860049
0.00218084286845331805
0.0124853598670133341
0.0103853494418089803
0.0107303775655646673
0.0097180372756493355
0.00435481100928557675
0.0138042723251415832
0.0115682482009258503
0.0110473384815300713
0.0124649833387222748
0.00643580829566336738
0.0148315159176768286
0.0135708582785960506
0.0126073044286390944
0.0125624257021799794
0.00910760106011186329
0.0156997987339392263
0.0148553183390499523
0.0141834449562735204
0.0137137953933266481
0.011486512964917879
0.0171850858010101845
0.0167340388720586819
0.0163782110290989769
0.0163558015140303388
0.0152801735460168734
0.0187218458321578053
0.0186470893894888218
0.0187609590836398769
0.0192252940400060544
0.0195582418864916618
0.0201675451490765378
0.0203311440308936685
0.0206979639861462061
0.0213882920617120796
0.0224650727855893462
0.0215363355175581042
0.0218661174197458015
0.0223719911864070156
0.0231176519909186626
0.0241607951996543995
0.0228585678618500633
0.0233297919159817825
0.0239472120023719454
0.0247354112267192151
0.0257019001853147251
0.0190216225734775903
0.0201305607778925789
0.0215158631807816254
0.0232217071955269361
0.0252728112255990282
0.000453282869988075776
0.000214037669589060804
0.000866218430928175067
0.00032819373044003572
7.95551943932255222e-05
0.000966738742063195044
0.00311603521958115758
0.00186011909942545911
0.000495765669919583465
0.000147093068222994443
0.00120444014797982976
0.00484864059048194067
0.00335734775011854118
0.000693640145474750443
0.00100400211403977582
0.00443600597438105568
0.0101093239010976721
0.00612466908296247295
0.00114914250649002757
0.0120617162851987796
0.0141021011733475192
0.0135008983214848048
0.00837619078998268554
0.00203321411991883418
0.0129242467444445706
0.0113987871638403879
0.0136581048927574937
0.0118275586425325221
0.00511101114014883215
0.0144669111530817181
0.0117043289291069736
0.0112874377310010279
0.012648679832547971
0.00748851844619339343
0.0148774876127621483
0.0136063898200294263
0.0127393067568424868
0.0125747012396924627
0.00954332112569087829
0.015641341716108724
0.0148081308605672902
0.0143661796011537984
0.0142019620651385337
0.0124347934723748332
0.0173468373608443201
0.0168984877197224624
0.016673502938175766
0.0167929438599120871
0.0161365423734511973
0.0188793993461661112
0.0187981622676416694
0.0189487381314548745
0.0195086329583905871
0.0200620860293663945
0.0203149970809361514
0.0204720563479240288
0.0208512285238249204
0.0215752090736855938
0.02277049466993223
0.0216621561463315945
0.021987591208025372
0.022499812727189563
0.0232634303780995429
0.0243407616197338396
0.0229591085675323499
0.0234283569106773851
0.024049489327483381
0.0248472623720723228
0.0258296488432191683
0.0191105312575095172
0.0202276344669495498
0.0216270084694285061
0.0233531584246549039
0.025430150992784846
0.000441377350233856307
0.000208687427750362138
0.000813010249337354227
0.000304205209190652206
5.80070877676841206e-05
0.000892644302105171446
0.00348365350866431528
0.00185355135176184095
0.000446977577435288644
9.52309248930019832e-05
0.00115300435439431642
0.00403801052078280476
0.00357262096879895456
0.000627274257097176812
0.000822239066891047171
0.00575023475463495685
0.00924876234269074969
0.00611936566145352984
0.00100781564315278582
0.0129835405942745671
0.012182453127788876
0.0120452307036628785
0.00812888704247641432
0.00190315478067867839
0.01171244919070576
0.0112318863242523333
0.0130615549928153416
0.012681962669665283
0.00516536683811085872
0.013883034020980357
0.0118657989119414064
0.0119404213216354402
0.0126167349039704203
0.00934540955455620895
0.015129470795480748
0.0139133026968117461
0.0129046620403139977
0.0124981731439568079
0.01140165846447346
0.0159805498965612455
0.0151456695676197295
0.0145989332773795739
0.0145186518986159876
0.0144638693802513259
0.0176108254060018884
0.0172051600542186857
0.0170486647021948802
0.0172024082355104052
0.0176594844509812277
0.0190902063182761018
0.0190017739600827767
0.0191612611097474912
0.0196995346692627749
0.0206564418027825707
0.0204779600848397081
0.0206223925192425168
0.0209954067423941057
0.0217122614148176941
0.0229347332073651065
0.021789781989567384
0.0221062793584892343
0.0226142114619770768
0.0233745198185667316
0.0244503763159287096
0.0230533883465705823
0.0235176157600972685
0.0241371152343524444
0.0249352522179211895
0.0259197402015932943
0.019179490221484987
0.0202994433027795587
0.0217055474859046138
0.0234415077463442749
0.0255299136945023805
0.000420195848384421794
0.000205475537552337543
0.00073597873886786856
0.000286220263108295792
8.17697756554443836e-05
0.00169546199197161216
0.00611102737121430387
0.00190569485676797806
0.000411408288612371566
0.000152456420648419938
0.00283182566460137572
0.00517223275393654484
0.00435080724167224812
0.000591470563959330922
0.000950925027776665442
0.0112981419317620541
0.00611437894928285996
0.00451457345641590336
0.000897811371381343742
0.0112814627643654814
0.0137496703550038426
0.00456356237348623777
0.00381197006838037648
0.0016983211669781219
0.0128651825002754593
0.0134203519965970988
0.0108797484141174693
0.00965022590464534834
0.00499487831835268657
0.0157794846569183217
0.0153628552590409483
0.0155331848425831406
0.0148211070143466021
0.0112674480241467274
0.0165666702766922996
0.0157959096346676035
0.0143620923502830941
0.0133912663408962355
0.0126639341149927826
0.0168339023566507102
0.0162809013450210746
0.0155593645338571937
0.015107264879983073
0.0157727908930688117
0.017981262075993331
0.0176601219433208251
0.0174426592049544416
0.0175277486178521714
0.0184638107815912438
0.0193182533738512872
0.0192128166089292444
0.0193294123095849486
0.0197880808775705228
0.0208967297702302435
0.020623699734688361
0.0207503090205936117
0.0210938159966297771
0.0217640966082557931
0.0228970290145104165
0.0218891350873522475
0.0221928155644566805
0.0226869635144366991
0.0234274844406713936
0.0244734576557489904
0.0231136801111786021
0.0235705746540595951
0.0241836841851629097
0.024974639819738239
0.0259504172668125997
0.0192090095732639909
0.020327413166699098
0.0217335110130672075
0.0234695889462375011
0.0255567169841427258
0.00111464343903763569
0.00192876157592584345
0.00193550222306382476
0.00271828161067307972
6.40444961999353328e-05
0.000506259770240579873
0.00108501436534721692
0.00200986821497832827
0.00297231865909869646
0.000112713478338571569
0.000647678509592195428
0.00134114757334568777
0.00238666764423836131
0.00328837945693629102
0.00107982555721861367
0.00260060199255557649
0.00439353052433196552
0.00537554115146776038
0.00573635923913846674
0.0079434940765232883
0.00779843593029172499
0.00779820095340184698
0.00759212772904750352
0.00714176458656896624
0.0134834746303213165
0.0146007240759173634
0.0152076984823251871
0.0158951425177309459
0.0170438274142344776
0.0135407332467628681
0.0140162609712747455
0.0138454095752794312
0.0141028056655089062
0.0144966395845259489
0.0145055594606849272
0.0147181605921100703
0.0147802009406956397
0.0153055891115766573
0.0160139866555789948
0.0161779932735088006
0.0163734002034573445
0.0165691499707849715
0.0170069364901202016
0.0176316278855856053
0.0175509649502992894
0.0177253689908883419
0.0180207425538601168
0.0185788042329094946
0.0193018757699519351
0.0189809010247534021
0.019158690679352941
0.0194805274792197239
0.0200339736263503466
0.0207951479800971249
0.0198628256362167327
0.0199772188357716755
0.0201815910005411353
0.0204615672521724738
0.0208586053770796233
0.0214232772281930904
0.0221868998304099799
0.0209006448653935341
0.0210771865242883709
0.0213504649178205656
0.0217156707323099794
0.0221901530589424245
0.0227918827701461477
0.0235536939362284772
0.0218904282965125506
0.0221511342773922336
0.0224977626624634705
0.0229389486747878166
0.0234842614087492421
0.0241398294844166125
0.0249187556379738204
0.0168190878249643815
0.0174262743692317965
0.0181587686992346273
0.0190455636893896788
0.0201188248902507937
0.0214120625467048159
0.0229695957883528472
0.00134291217858914643
0.00226876349461340495
0.002965046763379422
0.0043087048514944843
8.64672061276361566e-05
0.000940276172987124714
0.0021017294520200621
0.00487773025379635225
0.00785671679657304507
0.000129582621461495567
0.000946164317532424172
0.00250417365009227314
0.00677763311252032284
0.0119659970904872764
0.000537310930307404399
0.00206054126941638367
0.00537636969657723056
0.0112769982790283489
0.0148867479584469994
0.00887745990362362805
0.0108440728822500575
0.0120895765161575883
0.0116312883183849625
0.011195274598160011
0.0142505500481436564
0.0130456091481066828
0.0123808326245397667
0.0128389810098943017
0.0140817758717292525
0.0143825505237390235
0.0141890031023695368
0.0134823507463800556
0.0133902945407605514
0.0140047542678276883
0.0150527914703726378
0.0147430160195578027
0.0145672976036683773
0.0148596842042538133
0.0154938458165285488
0.0162835255436294957
0.0164192196571615705
0.0164013181460659838
0.0167090224209846538
0.0173112729810505246
0.0175239298084317735
0.0177292033662462961
0.0179525848762953355
0.0184155557421806608
0.0190838388867907507
0.0189136952702790503
0.0191093423342046272
0.0194246447004397631
0.0199400223973097319
0.020639355581653189
0.0198733141942375215
0.0199693698851904633
0.0201606327019581769
0.020433830636408877
0.0208289905512715236
0.0213775681239385881
0.0220862224821091503
0.0208958572061641208
0.0210615144553576994
0.0213242814682573292
0.0216831326635117359
0.0221576510511742979
0.0227596845210482138
0.0234912136227486724
0.0218729085603471193
0.0221273963800497526
0.0224683605479718135
0.0229070230656802168
0.0234548687711401485
0.0241182608816478163
0.0248908854432557461
0.0168339858078088642
0.0174377873508515628
0.0181680814148278587
0.0190555471487566554
0.0201345004181988536
0.0214417534400725036
0.0230101643473631066
0.000939145525333031045
0.00166365472649186046
0.00177859138069767883
0.00262340318760358616
7.20061241474579403e-05
0.000558672486495125293
0.00141944158311437061
0.00318807491574725444
0.00478146464539484523
0.000159663363993638635
0.000842911420660458839
0.00265977077707196113
0.00727954323944010433
0.0115773934664714414
0.00093013454319384938
0.00323142101492944868
0.00980457667375921223
0.0153937514735215039
0.0116895808236349066
0.00885218553422734145
0.0126761693659107749
0.011996055994729261
0.0114585765770399712
0.0100279747496615085
0.0146371674497438545
0.012801056621176898
0.012419034209687695
0.0125389407518102895
0.0117673329733053479
0.0144089022486679642
0.013695147604283359
0.0135596850134803871
0.0141361871295568719
0.0141098566886157933
0.015594931896237587
0.0150163465473278496
0.0147809566106850074
0.0152579386819458214
0.0160815556728168621
0.0164246851807060314
0.0164578533588364932
0.0163715244228482618
0.0167920639129691511
0.0174767732266589114
0.0175621587342402116
0.0177504395533209756
0.0178976685077027464
0.0183650516985952202
0.0190512628907638266
0.0188505719366867351
0.0190401588102527587
0.0193437079320687745
0.019856780679369964
0.0205511824691990592
0.0198426312700049484
0.0199324397330828754
0.0201093083066100561
0.0203735649822261167
0.0207611841063207112
0.0213026355130545714
0.0220044552043067339
0.020861923243352988
0.0210262051811203159
0.0212826390121936306
0.0216366792801662641
0.0221088559027564462
0.022708218113684283
0.023435089745391012
0.0218537353588070977
0.0221093976162747077
0.0224501103849567528
0.022888639727809839
0.0234369612231902363
0.0241009162064839202
0.0248726617018678389
0.0168450237606160742
0.0174541951226334369
0.0181914221484315193
0.0190879298512544662
0.0201788899611501545
0.0215002924341985806
0.023081602807630254
0.00101650625815652841
0.00148357514282285771
0.00193477864254172367
0.00234650639012061197
5.96598002447169741e-05
0.000562452273490905881
0.00148588791228068803
0.00301919000234180009
0.00362568405758433064
0.000142240913223930877
0.000937446762623533533
0.00274620133279594421
0.00666805457773575212
0.00778871400313787751
0.000956484553006106361
0.00394601474109209684
0.00947962061920540854
0.014767893913064661
0.0123627623040152099
0.0129366305766928438
0.0127965719852981916
0.01178946033697118
0.0106003577566039352
0.00942055512227893237
0.0127277746401730906
0.0116092317843136984
0.0120469670198670546
0.0121481605043472496
0.0110730970293173494
0.0134358475274847476
0.0127419204854817957
0.0132428068652804092
0.0139217851790532296
0.0138314626830080781
0.0153969118310161423
0.0147742997345058497
0.0149070226614136485
0.0153642688196983859
0.0160714545750576705
0.0165410505061949799
0.0162999951951092042
0.0163475868892392073
0.0168091816788152291
0.017549414582369971
0.0176118202233953684
0.017656187230434283
0.0178167695950578672
0.018292779573163713
0.0189967219583278418
0.0188082687262778429
0.0189648975426977423
0.0192703339070189467
0.0197752694198599192
0.0204739979400042418
0.0198262523867858038
0.0199005755871821642
0.0200570708357251486
0.0203118960950302262
0.020694711098370188
0.0212337324733647657
0.0219403414059181068
0.0208366312218193107
0.0209960084382870074
0.0212457247619022363
0.0215960929609514234
0.0220662613239497873
0.0226656780712805941
0.0233949316555559714
0.0218420190488184326
0.0220985689111360198
0.022439483753733027
0.0228789841544007055
0.0234289690897273965
0.0240956861168321081
0.0248706014330697459
0.0168664572884031569
0.0174821244063976047
0.0182287231163620299
0.0191384911900049533
0.0202468374261103624
0.0215885501909231156
0.0231912981380233418
0.00120780117718714505
0.00101879120314665988
0.00237447424780573351
0.00172687314316746711
7.57419594016785094e-05
0.000754307798573656272
0.00222711031369429409
0.00324113419137152551
0.00301856718664479315
0.000204933486290025525
0.00133581673684317207
0.00481077163594586035
0.00831720529713998909
0.005474692618817994
0.00138219889381453742
0.00664707634988278683
0.0134687361638049681
0.0164045936345922176
0.0106067792027126039
0.0116231987306989765
0.0115697878829051758
0.0123604121422077797
0.0110795629419823839
0.00863529953839059505
0.0119315134698996083
0.011533130091012431
0.0122221566070146396
0.0124063395556593889
0.0102762392916984063
0.0126276724573723062
0.0123772691420155137
0.0128243400536294811
0.0138054254667215465
0.0136654592910421153
0.0144566390571986749
0.0143901279052529776
0.0146935371831133765
0.0153320721793154015
0.0160222131508148576
0.0160555423179806339
0.0160306635655528829
0.0161859438355852203
0.0167074158218273559
0.0174491374267584723
0.0174285601366195239
0.0174812001757309356
0.0176920588167447934
0.0181788635962581678
0.0188834966732781238
0.018716191011430492
0.0188670018244342479
0.0191728986457416831
0.0196729728319570939
0.0203747256774086637
0.0197981381592872013
0.019848034780101928
0.0199875961567975921
0.0202373762786128876
0.0206221749350527991
0.0211629467910316449
0.0218768148354853871
0.0208151932443911905
0.0209699368618237042
0.0212136625475370551
0.0215616013987637543
0.0220300771567053695
0.022631898872121612
0.0233675039106253819
0.021837078248435695
0.0220947242013696879
0.0224364367610484262
0.022877938794529238
0.023431148821150688
0.0241020840705476955
0.0248837435882818953
0.0168986614514203444
0.0175219630296530662
0.0182800024845168121
0.0192062084948940517
0.0203360043777617988
0.0217041111483584695
0.02333649464754756
0.00129835279934386585
0.000485779754452201869
0.00305065395627222456
0.00100082124901688051
8.98071898146163657e-05
0.00111085337917174324
0.00253832687085023484
0.00329194654301886687
0.00185507025318013647
0.000175017919392556602
0.00154060744261401623
0.00485794483949903832
0.00877473504412169987
0.0041134950562704501
0.00104096495301268452
0.00569201909035518816
0.0114321060143536945
0.0135064515473111591
0.00672401931298222903
0.00975943830158859313
0.0103191015327609922
0.01181829284858644
0.0108874609718378253
0.00692967219072045202
0.0112222943065814415
0.0112655874261316218
0.0123164070532793043
0.0122807895461272635
0.0100612253458842605
0.0125875724951816561
0.0121350242782963785
0.012499049839673983
0.0133206595940131532
0.0141365202770321417
0.0140632030435500783
0.0141745296281842945
0.0145853760714807421
0.0151869949491238825
0.0160138895492558074
0.0157052369470708914
0.0157398725757158658
0.0160187728850302719
0.0165052666353784558
0.0171939581770376992
0.0172346761600489159
0.0172999368648186456
0.017560939113255309
0.0180234762893002262
0.0186909714196286277
0.0186020850528802843
0.0187514868310951349
0.0190601364542992632
0.0195477531339951077
0.0202412753855488112
0.0197537357400552581
0.019794416617491116
0.019924067499987895
0.0201674386039586116
0.0205496261937219427
0.0210897267719126827
0.0218077406778018623
0.0207971555339276637
0.0209478631819833942
0.0211870855109676168
0.0215331236866967181
0.0220010742591673185
0.0226055692946155219
0.0233508648391153838
0.0218397589440189645
0.0220991335354386934
0.0224417602492259123
0.0228856770400454983
0.02344340273697108
0.0241208195711321155
0.0249124171236625655
0.0169413965443405874
0.0175736821180265679
0.0183446408451282718
0.0192896105455702162
0.0204448864476784384
0.0218452622560131766
0.0235159283769899793
0.00129516396672004126
0.000326986699399153694
0.0033380772816435627
0.000707090777875743807
0.000114696071537183716
0.00116794713096588865
0.00256210734779009543
0.00484917258487023873
0.00127973144257976178
0.000202636118924053916
0.00160313256434214306
0.0041658494430921204
0.00787787308463181596
0.00268580210121613025
0.000786154779690113859
0.00384686519493730771
0.00900750405682310996
0.0116139656052077558
0.00453114953269973843
0.00771707244070566224
0.00933013290129150984
0.0105280373582978173
0.00945942267368287369
0.00570126091013471812
0.0103356460070872531
0.0108148276444061178
0.0122006991077117603
0.0114672517419326346
0.00929645481024192304
0.0124224043008050126
0.0119451545001703976
0.0121356032488030025
0.0129874074619902632
0.0138121128729111805
0.0141522676545100309
0.014275895918683397
0.0143711050759870607
0.0147573149537932845
0.0151883871443624485
0.0156217694065465453
0.0156350987828272302
0.0158027049096856227
0.0161087800875303194
0.0166059639249316673
0.0171276220144553591
0.0171791743902273697
0.0173859407750213621
0.0177451744412487691
0.0183431751793261336
0.0185005332953844318
0.0186436689902294943
0.0189316553098602541
0.0193887368858048983
0.0200732238679701656
0.0197184839921483862
0.0197493633108407722
0.0198711160114109602
0.0201071238997650552
0.020479337995230943
0.0210142868954218201
0.0217424926729846112
0.0207894581272708816
0.0209363411333069634
0.0211718360364959689
0.0215149478295360366
0.0219828182458589906
0.0225913771628947144
0.0233510082573848456
0.0218516505352214993
0.0221134068794405954
0.0224577724908020838
0.0229044783381571054
0.0234676498572256205
0.0241539298007798393
0.0249592705214948009
0.0169945025499522243
0.0176360991039122943
0.0184218253410930073
0.0193875253531311
0.0205722184448925566
0.0220112943127713824
0.023728547291761444
0.00121081981137750937
0.000169385026865053048
0.00302962589048404174
0.00042470809614302197
7.83553503224442894e-05
0.00079048542728976949
0.00244864260313320181
0.00479177175439935658
0.00111089866565036873
0.000178833976205484654
0.00118156049374044145
0.00428700663669388197
0.00737503260284917261
0.0020878701717592465
0.000979276638024390977
0.00430575626673468121
0.0102978924245229423
0.00942762493635129414
0.00337359534947517846
0.0107440582241001923
0.00964735791731958191
0.0109891794136567182
0.0107802871236019285
0.00659665809330684926
0.00999870335570498051
0.0101846417135254275
0.0115035114947433393
0.0121254352822862243
0.00939742108294811841
0.0118578917419452593
0.0118978307072354836
0.0120452315968227648
0.0127742643639306153
0.0127250318896132975
0.0134937340141234024
0.013917110894165188
0.0139635672716615627
0.0138981341980390083
0.0138374003620674191
0.0153378296749614625
0.0153864643267108102
0.0153936945141226102
0.015468806930641418
0.0156419398536115986
0.0170079631437745418
0.0170397602916297977
0.017155313160734504
0.0173878299928957279
0.0178541893741806616
0.0184383567550268634
0.0185538334316459191
0.0188054096633154637
0.0192216956146449569
0.0198887476712651667
0.0197073245229555175
0.019728837632750993
0.0198404375456612547
0.0200647223346016521
0.0204236572243346771
0.0209519504342984657
0.0216947996938219971
0.0207981051809201234
0.0209439127579746989
0.0211757066204364928
0.0215146994149443688
0.0219816852264734415
0.0225967041531654825
0.0233769227445930622
0.0218761438601614497
0.0221404336243122973
0.0224877946179106621
0.0229379298108054117
0.023507293245146596
0.0242046082781620861
0.0250274544578795756
0.0170574322353698703
0.0177081518238178005
0.0185099422484522012
0.0194989828443123819
0.0207170724346094834
0.0222004845080647599
0.0239715871312035228
0.00156956084708197662
0.00166498340917438869
0.00199415138486164082
0.00204930101059237757
0.00189369254442213518
0.00252402317234735104
0.0025241693849586736
0.00157929472920700681
0.00243274151188878482
0.00330143218420322036
0.00319268504586421543
0.00119737608306305448
0.00131184818484790283
0.00152202549494750311
0.00158679110249474223
0.00153945295323716343
0.00187797071486887619
0.00188621574624865543
0.00149682501939980188
0.00200639361324542317
0.00242731003370995129
0.00231406478870843039
0.000641389469338268141
0.000488777094562075211
0.000773587726039849937
0.000569028520422671606
0.00143392855312797452
0.000909374411850997436
0.000652959418232967404
0.00129204407721450259
0.00170066859153161104
0.00108350411452138597
0.000775516127599770559
0.000206294747283797356
0.000190114780158205009
0.000243487352278188955
0.000217442840721151478
0.000461353850759218512
0.000275958500596768983
0.000255178308997027078
0.000930039981408963229
0.000491274177632834643
0.00030418765913385067
0.00031220675631079051
0.0001144247841166186
0.000172138182678886758
0.000129153950755253838
0.000195389657730551171