/*--------------------------------*- C++ -*----------------------------------*\
| =========                 |                                                 |
| \\      /  F ield         | OpenFOAM: The Open Source CFD Toolbox           |
|  \\    /   O peration     | Version:  2206                                  |
|   \\  /    A nd           | Website:  www.openfoam.com                      |
|    \\/     M anipulation  |                                                 |
\*---------------------------------------------------------------------------*/
FoamFile
{
    version     2.0;
    format      ascii;
    arch        "LSB;label=32;scalar=64";
    class       surfaceVectorField;
    location    "0.119999999999999996";
    object      Uf;
}
// * * * * * * * * * * * * * * * * * * * * * * * * * * * * * * * * * * * * * //

dimensions      [0 1 -1 0 0 0 0];

internalField   nonuniform List<vector> 
20536
(
(0.605594055878995174 1.75120027510793119 -0.803247833483066165)
(0.59170938446697563 0.40974759962353452 -0.418762292612374909)
(0.690755507532835322 0.66683180976245493 -0.421508410751485874)
(0.656232747800746918 0.29184035326600033 -0.421610806751899658)
(0.545162848003564515 2.69871883638308496 -1.04212157309086484)
(0.513932005331880992 3.20056200573543537 -1.02353250285160735)
(0.521913796615298464 2.68986114622245021 -1.27131627680289672)
(0.577333879898438651 2.81799838505786049 -0.903135957314767257)
(0.583264106733087817 1.4757670495471944 -0.657636032220172084)
(0.2614035514370327 0.0235425332604338733 -0.381407420441062517)
(0.506707049998630588 0.358715211513837284 -0.354926022135207353)
(0.425665895657267923 0.13628443668605944 -0.399768673831090271)
(0.613780837154874748 2.40643918572093751 -0.850022433522656051)
(0.671026896334846357 2.81002933388496468 -0.842019398524701979)
(0.587708002052116929 2.38298288311003503 -1.03203786370967521)
(0.58870432527784744 2.76138915835770904 -0.944909724306753462)
(0.165095667599173102 -1.09290736077852735 0.0477326872364276164)
(0.253032717103549576 -1.08085914161570962 0.0662512652778840805)
(0.166626220860411595 -1.04806294269618849 0.0380849648950868577)
(0.177526743897394756 -1.0905844075790212 0.0361748974616509858)
(0.241352565548539372 -0.798269770096583509 -0.032238063277204923)
(0.398866113973249614 -1.19449246722690949 0.0748818041019495839)
(0.238149288120060365 -0.979850465618879785 0.0216399220235938654)
(0.311212297590041154 -1.2435912249978287 0.0131731522067456263)
(0.206085314095077854 -0.292119168691281239 -0.244749350797021287)
(0.296815522914516294 -0.536650409664244821 -0.0851791633272621501)
(0.236837000806408293 -0.449789209474164842 -0.115251812007806348)
(0.24763650574541643 -0.648392029757201782 -0.185091221843280002)
(0.259791357847398707 1.02688623270620538 -0.573793821743544097)
(0.0307340056904793976 -0.155229106096774733 -0.324769383871230777)
(0.0791799295184782981 -0.138666710397221199 -0.335138138570472255)
(-0.00471309417996129167 -0.224140536215904296 -0.406577616556274113)
(0.489123017020815176 1.76771025733987974 -0.683873246948254909)
(0.635371077334616619 2.33564338304264352 -0.704199202367602362)
(0.5447578967597001 1.90721031835017873 -0.812962846445986598)
(0.616479969589613042 2.54622139185515106 -0.87191354740991478)
(0.413742390009760042 -1.14635784357824044 0.0934003821434061382)
(0.479621483899790535 -1.25845707249300243 0.128487707010251528)
(0.345599309750408368 -1.03529171157075983 0.0673864663322223389)
(0.351748311465549302 -1.14846704614687489 0.0816227921686250024)
(0.416821236718945498 -0.938123047924452003 0.0219407040518924332)
(0.454665253930960023 -1.21536188845010118 0.0943379731497379082)
(0.436484806537679459 -1.13835425391132894 0.0404063124658901873)
(0.481435181038513016 -1.3376264187077036 0.0292316338163550807)
(0.362382317031490542 -0.389404209619516828 -0.165199196401470932)
(0.303765311252977288 -0.551970222730950311 -0.0904549274353776134)
(0.428192044738456346 -0.632330880287417796 -0.0805985696500830934)
(0.382112762355590219 -0.722685481809674957 -0.139204700227709421)
(0.0958362686556633592 0.624639215988619712 -0.434848809075939757)
(0.128115771481826735 0.0733699564984536118 -0.365496228831265813)
(0.122313420507822748 -0.166449347383216761 -0.276184485247604861)
(-0.0461921796139037055 -0.0213121774852187765 -0.360714173552704631)
(0.296719228700908277 1.04736352581386605 -0.538499447322107527)
(0.399164961830394294 1.45418439905622821 -0.525741313983411063)
(0.274615770517110169 1.17760536975125008 -0.657005369302526399)
(0.488425608162652847 1.94830558780277707 -0.71939449296498692)
(0.53018002472960879 -1.27252702257045858 0.129425298016583035)
(0.283029888569036103 -1.39022104231294485 0.176155744054818347)
(0.510573186891465802 -1.23818309883181077 0.146026578309242261)
(0.542045727517560194 -1.43579975043929897 0.107064374732213169)
(0.313264378317183068 -0.898097764587230341 -0.0180576583375320759)
(-0.103409249049272511 -0.987842033258675256 -0.0122949132440911598)
(0.289323279755423879 -1.18416669940295227 0.00593716004865994448)
(0.381486559924361646 -1.37341910134217615 -0.0351980821733253388)
(0.228075350264834636 -0.232334238257186104 -0.290751959865172216)
(-0.190699372032784836 -0.417538176312633902 -0.196701032693832573)
(0.175396964102956965 -0.569109871971034686 -0.205375298678243584)
(0.168821267367045197 -0.619614745254178589 -0.19147585685874402)
(0.166170584562715357 0.372186388077375696 -0.469146867077432583)
(0.00996620107676188249 0.167102367958983533 -0.430541958723517248)
(0.16813451396693363 0.159132060334457232 -0.466413050937857621)
(0.177342854392377125 0.0728518583348180121 -0.458946387499931829)
(0.0936038324082967277 0.602579310954209801 -0.443997953295612646)
(0.224232587742521111 0.786974991862348094 -0.433236889287840488)
(0.20072576179506274 0.53255720600019063 -0.545285002020742593)
(0.373705621068643745 1.22010858620601548 -0.601337738654440845)
(-0.331219400182536983 -1.07772150544511724 0.0344355327941436862)
(-0.362032652499255647 -0.991953797378459012 0.00508785088413630897)
(0.00086289529692820232 -1.25822280059700553 0.0945033120922281755)
(-0.0191500526985486016 -1.55859025450894029 -0.0588838833783590226)
(-0.552417283096093503 -0.468912878558589097 -0.19093828760039161)
(-0.72269425544477961 -0.787171891271420843 -0.117017915399331068)
(-0.585026771844155635 -0.866894668222316978 -0.207048007632726294)
(-0.574287887309772538 -0.943945845703089481 -0.269889359546614804)
(-0.403276448993753533 0.00345282533163942564 -0.336491031552177244)
(-0.692513185969313105 -0.516106569566344264 -0.181298223373367762)
(-0.536871700500558435 -0.259575440268954405 -0.30727633433964785)
(-0.572016983769865206 -0.266554028184044445 -0.240415720465154331)
(-0.115574440291876246 0.358258926644337783 -0.405393044941697256)
(-0.378676711910737707 -0.134846345638510168 -0.286709484019143257)
(-0.20442318093773898 0.254790319107283891 -0.435427430464775611)
(-0.193706754041676615 0.165522287792907452 -0.380986508421661818)
(-0.159792336257827794 0.245746174876547124 -0.343497657471794393)
(-0.0208505516346678549 0.623670981728318585 -0.418916573540815906)
(-0.0425828274489221253 0.433153613968642992 -0.418344654371368307)
(0.152693127880139362 0.767207849582503876 -0.47857280680806713)
(-0.770226582007790483 -0.832040313741056692 -0.146365597309338541)
(-0.671063965213590574 -0.835399450832857493 -0.146795702444809079)
(-0.632762798356062528 -0.787802246579391019 -0.220607350913108013)
(-0.650446508730362694 -1.01114864913218105 -0.266149474961963617)
(-0.805968219926455398 -0.750117734813478543 -0.107377851172307151)
(-0.783931370103609138 -0.805719932745468603 -0.0716619675240388887)
(-0.781448000679350052 -0.877926782390757499 -0.133089629924162706)
(-0.802722010081929005 -0.959760995374205783 -0.177220673386006028)
(-0.690297371654428282 -0.517115841622947325 -0.131516675840333497)
(-0.777515256474015426 -0.61584126656626792 -0.0565406234816498363)
(-0.730253932634522984 -0.676092639257379835 -0.131941706059982206)
(-0.803290865089026029 -0.704354323179771424 -0.0956107176205728826)
(-0.426454665106309083 -0.129900467483473031 -0.224814096549240588)
(-0.635805611223676737 -0.399804731785080025 -0.104949306327062314)
(-0.538626736139396267 -0.293890930269845474 -0.206233455816981104)
(-0.603848807857090941 -0.389785614599494845 -0.148342815847602172)
(-0.429047106492928931 -0.0988164278087844405 -0.201169350575087502)
(-0.234490616143482794 0.27257136412662325 -0.368105541016825299)
(-0.331603387345252243 -0.0234661205679329715 -0.288084036250231379)
(-0.0780086637971586644 0.24446979225017515 -0.354456343726084144)
(-0.690982495723525103 -0.738933121632784462 -0.0720920726595096623)
(-0.599389164366305849 -0.687486409546958832 -0.124645357446802801)
(-0.580825122715425524 -0.640859238231912598 -0.118453623615692921)
(-0.650258934963408919 -0.814368528893662402 -0.0765497408272748092)
(-0.753463432459620885 -0.67214539481486657 -0.0208247398333818168)
(-0.668834666864380423 -0.675516256922382818 -0.0243860765766640078)
(-0.731046069327481507 -0.759317023820968218 -0.0426713032792577635)
(-0.76086429712526582 -0.717665623605327041 -0.0114048621315820924)
(-0.733613979919549908 -0.540822157761922551 -0.0299732539683781607)
(-0.717811162076448017 -0.547621820292591988 -0.0156807196802270996)
(-0.758741507353427491 -0.590380873877335399 -0.0378605569648358606)
(-0.801501472618121324 -0.561916153462040824 0.02526994164916627)
(-0.642775794134188172 -0.397025393191625164 -0.0813045603529088112)
(-0.700688630748859453 -0.440595848954162927 -0.0417631946718169667)
(-0.691293450829005507 -0.448663476635699665 -0.0662658553526433991)
(-0.727934012807212705 -0.469047288327117229 -0.0127207650993635436)
(-0.641709354603078985 -0.272547215860069414 -0.104392106710444535)
(-0.52542041326705835 -0.192755029026816904 -0.154877688433687211)
(-0.628401731864075108 -0.305174829020060434 -0.0743923423825871705)
(-0.42193452299940426 -0.135104757475808468 -0.165266505243978373)
(-0.564684554825842233 -0.630670323172519143 -0.0769393613639575147)
(-0.488430648976565351 -0.586408908899256454 -0.10141105940742827)
(-0.531961695752156682 -0.654218905927851258 -0.118692584237355708)
(-0.533849669990599018 -0.696937418576501377 -0.0943931732676296098)
(-0.639339309425345226 -0.544177432627737656 -0.0192420564235092975)
(-0.53869393688173306 -0.527572437511118153 -0.0327247891537967711)
(-0.585847984112602305 -0.596188357730942808 -0.0374940651501873765)
(-0.601511005185558112 -0.609122162982180582 -0.00522329129370608432)
(-0.68587605191270784 -0.431951690520507359 -0.0274706603836657771)
(-0.613968452836020306 -0.433561175897252682 -0.0384849086542811691)
(-0.676657298975571031 -0.480143804822906417 -0.0355045197052968123)
(-0.675812743518360071 -0.479563955239890372 -0.000832470500044559664)
(-0.701835237926090372 -0.29987516120689367 -0.0648507410293525099)
(-0.651999301512998009 -0.338550408720765972 -0.0553622397451535991)
(-0.69796416700717856 -0.346463269786114914 -0.0629389327784200259)
(-0.708343213023554852 -0.363292187038753323 -0.00909433378391390213)
(-0.664982525454232309 -0.212096695679428654 -0.107150165205451092)
(-0.692757339118088344 -0.141801881363808557 -0.138086552256483197)
(-0.716865562337036355 -0.226221771500309754 -0.0529605383136335789)
(-0.651416395605780241 -0.108297561435004061 -0.148363954936837433)
(-0.454004924067330007 -0.504732774282599772 -0.0571964871972680672)
(-0.386297152503243146 -0.482853902215043373 -0.0572871693675480742)
(-0.421501489117207029 -0.531771048889251308 -0.0703662541056640362)
(-0.42992532583401355 -0.539276779900726089 -0.0550196574401133343)
(-0.521962549162512834 -0.427539400318571183 -0.0519676413845686636)
(-0.438677121499509992 -0.414742512113792705 -0.046357646481524975)
(-0.488406955955420219 -0.473321333141546396 -0.0549410194436686511)
(-0.488985109280277941 -0.462187439567303904 -0.0401279548346391082)
(-0.577283312452907982 -0.33871991237260568 -0.0663764880157688836)
(-0.494102386276335737 -0.334499841593241309 -0.0573672561129260836)
(-0.560927886477052828 -0.385311832560129019 -0.0644403624876323938)
(-0.551086547186245945 -0.377473723495698521 -0.0475717133055828661)
(-0.613514024060930918 -0.234222242744863085 -0.0976616639212519594)
(-0.533460675215696956 -0.243234001435739894 -0.0757762540489855113)
(-0.614831864625660418 -0.286777721854492684 -0.0920832513006659276)
(-0.59183013964211284 -0.284303033045512188 -0.0607387895423973437)
(-0.55015223965719906 -0.130480574409939376 -0.113246832813400089)
(-0.638142705081787165 -0.145605179115331496 -0.149975319907740046)
(-0.612613268382009801 -0.170424229562503526 -0.094925819457946134)
(-0.612800718600190142 -0.0984757381268778903 -0.153261530872435769)
(-0.367124799218995879 -0.405302938012524816 -0.0464483286518048849)
(-0.306201026924278141 -0.398674799812234415 -0.0426855641486742696)
(-0.342812178208673712 -0.432206326444300015 -0.0499057032817317239)
(-0.342621538773545731 -0.437758999312730546 -0.0404888937549666081)
(-0.413812443925272611 -0.336455277505980754 -0.0517572612098823187)
(-0.34812990596797394 -0.337755646848336311 -0.0441175367773373739)
(-0.395202354977571779 -0.372603892784444224 -0.0512516834475842745)
(-0.390551545271559275 -0.374910968497357056 -0.0414245791975014696)
(-0.450628548853391597 -0.255361390920718079 -0.0667670221461426072)
(-0.382490217295743173 -0.266296587004909213 -0.0525496787665143961)
(-0.441550848253632722 -0.296895108262741292 -0.0628755478753195429)
(-0.429131656576916654 -0.297513789421753494 -0.0501326818166591692)
(-0.47246388902824582 -0.161491316190237599 -0.0913614229411335993)
(-0.40643021490448028 -0.184123278876125201 -0.0679420770662499673)
(-0.477534279868549461 -0.208926855283162682 -0.0867536201788781797)
(-0.457462454525256523 -0.211944094246124343 -0.066754220399002473)
(-0.411316138654467478 -0.0901861305131418933 -0.0903295388081860051)
(-0.489901146177770419 -0.0998388917501932815 -0.122213011581630657)
(-0.464808999767673592 -0.113529686928003845 -0.0912154642146755651)
(-0.467811781804328308 -0.0527351609774248803 -0.121908994590269146)
(-0.287143856332916281 -0.339420282826544795 -0.0403547722742067377)
(-0.236482574298388065 -0.34214232234256664 -0.0348423416441060244)
(-0.27007235195333551 -0.364476223920618847 -0.0412670513614598264)
(-0.269634510260727323 -0.369518834682534214 -0.0361550408061501738)
(-0.318013389150353931 -0.278197860214432713 -0.0449099543339694929)
(-0.26466234122499116 -0.288527796368523215 -0.0371948102507993622)
(-0.306090585602058485 -0.308752273473469785 -0.0440073353199298065)
(-0.302407633511649843 -0.313149876688901541 -0.038626677069671482)
(-0.340143997601297321 -0.207035147984501844 -0.0537247336866217701)
(-0.286328615567960465 -0.226321789180240956 -0.0425134998196625841)
(-0.335130196460021346 -0.240907394648612161 -0.0513897920162123545)
(-0.327625202795028991 -0.24716114183714008 -0.0444064196822352361)
(-0.349597136270276554 -0.127592511343542658 -0.0669101929333025675)
(-0.298615395679096562 -0.156785098732147243 -0.0511243109641426538)
(-0.353556558174746738 -0.163054571104247897 -0.0641388215628727332)
(-0.342296147833767606 -0.173036465699728526 -0.0543110662737548155)
(-0.297466202305566862 -0.0817854904866906901 -0.0622447961064846803)
(-0.354629732563194688 -0.0756402359364833632 -0.0816075409035910276)
(-0.341995853969005559 -0.0925109989208081629 -0.0673261767751219681)
(-0.339833837989630461 -0.0429834015919884904 -0.081459743309068397)
(-0.164568438562624569 -0.381132311405806778 -0.0306560723438715071)
(-0.130727777710248655 -0.381273417105913948 -0.0267169844417619803)
(-0.152060537251266448 -0.400705248752394438 -0.0292218138554860424)
(-0.190629252557806911 -0.343269819940502818 -0.0304585733095905642)
(-0.152415664398346917 -0.347092691378450724 -0.0260885729917381126)
(-0.178094975536638833 -0.366711895765042095 -0.0285750670348702378)
(-0.214638488783758241 -0.297202223408651101 -0.0316823796206986696)
(-0.173013093453151273 -0.305986129983336574 -0.0263913834131875129)
(-0.203691528856382031 -0.319408508882516651 -0.0317916476097696993)
(-0.202864991714862025 -0.324672907259189569 -0.0290254668184334527)
(-0.234240426362384957 -0.243318477284658802 -0.0347983557364925505)
(-0.190680302209151054 -0.257903447490030191 -0.0280163302974289)
(-0.226667362976122028 -0.268951123005641279 -0.0340194239198869305)
(-0.224113572998048988 -0.274617825501756063 -0.0310197862946102014)
(-0.247102772937931092 -0.182865363969241246 -0.0399130770971834609)
(-0.203534094818449779 -0.203698757421758192 -0.031197648608930352)
(-0.244119381007556646 -0.210606707294963863 -0.0385339112408397133)
(-0.239750439659325798 -0.21762491367254469 -0.0348737086186857795)
(-0.250602207360606455 -0.117745381783533332 -0.0464589141373248568)
(-0.209599029050520691 -0.144919717535083925 -0.0357297686171080126)
(-0.253182506649153594 -0.145762537804445397 -0.045194109408251526)
(-0.247458364757408372 -0.15532056749197215 -0.0403930577812639802)
(-0.206965933382838113 -0.08404507800904297 -0.040822031423025637)
(-0.250571862333539397 -0.0766818577921502681 -0.0529094253931757796)
(-0.244948928841737329 -0.0900451859767757018 -0.0467210737708112639)
(-0.241952112704128863 -0.051233904480064249 -0.0528013582055251798)
(-0.118461220442069484 -0.350422365556251614 -0.022149485089628624)
(-0.0885347971828985697 -0.355700896064983729 -0.0180749456475955139)
(-0.110360993653648362 -0.369508221235878676 -0.0213205137038122716)
(-0.135085270847348837 -0.313764293532928562 -0.0220213830953351133)
(-0.101929162943323007 -0.322440873719330834 -0.0177132978620908772)
(-0.127110174029930023 -0.335888969185501318 -0.0209755921461396641)
(-0.149886182947630425 -0.27113759390577491 -0.0227253340899177467)
(-0.11423617747708581 -0.283899523963160427 -0.017866172491312414)
(-0.143035616782747982 -0.291258055603519084 -0.0228125504541742824)
(-0.142583306028211815 -0.296370682478089731 -0.0212404064219089417)
(-0.161393106982304801 -0.222887710367086767 -0.0244156231698666945)
(-0.124415454945742285 -0.240126796351493282 -0.0187022159504812505)
(-0.156777968728592759 -0.245276419658066847 -0.0240185382763512673)
(-0.155421152797562051 -0.251013763011051438 -0.0223863110306842042)
(-0.168193872280295309 -0.1701560765385218 -0.0270143401288549245)
(-0.131296517609070407 -0.191783313634633718 -0.0202597154501631474)
(-0.166460300073848766 -0.193791452031560701 -0.0263561509099420783)
(-0.16423131619189385 -0.20060595115086155 -0.0244519930830163351)
(-0.168981180988937135 -0.114900646077851706 -0.0300928859028087442)
(-0.133894291019124562 -0.140356068145483764 -0.0223747117246989868)
(-0.170545462029223216 -0.138367210690100967 -0.0295832114810309424)
(-0.167816603522856989 -0.146741454374934271 -0.0272372402499891503)
(-0.131501753714029279 -0.0880548344450507725 -0.0245766190585467344)
(-0.167703000462324031 -0.0813984924018565231 -0.0329867467717605001)
(-0.165247253087362878 -0.0916473692194297862 -0.0301567841227932502)
(-0.16280165653894127 -0.0597169189693602664 -0.0328168385332571269)
(-0.0721126010151544178 -0.331333882996823703 -0.0136387584200578053)
(-0.0447013068736807628 -0.340819624359606888 -0.00916716257465997886)
(-0.0673398731831882646 -0.34971005525081722 -0.0131990456856217724)
(-0.0815732185570280377 -0.296227478799515442 -0.0135580872580682125)
(-0.0512544545287524425 -0.308492885190035648 -0.00904760821194602535)
(-0.0770099269911493078 -0.317067943867635149 -0.0130260121827315816)
(-0.0896782138062325457 -0.256413692215224531 -0.0138430543518759178)
(-0.057147465535221334 -0.271837018286580689 -0.00913134696991878964)
(-0.0857054785904397126 -0.27501054920950746 -0.0139712000081930934)
(-0.0856483270588826034 -0.27980948625915586 -0.0131322214008877496)
(-0.0956285991330133728 -0.212235266984923399 -0.0145463082307777086)
(-0.0618688186592095263 -0.230908900562837138 -0.00945623159839528715)
(-0.0929928559552682527 -0.232493700485407601 -0.0144650343592802114)
(-0.0925281780979758522 -0.237994532885677318 -0.0136073813239075136)
(-0.0986879541509704111 -0.164620477259343478 -0.0156200870460072548)
(-0.0648735053851703519 -0.186285547485875475 -0.0100286578996025295)
(-0.097733787423838453 -0.185803572898652708 -0.0154286428376738203)
(-0.0968847747485780675 -0.192175369940159269 -0.0144805428341649549)
(-0.098355175097099401 -0.115196771634809375 -0.0168584448804369909)
(-0.0657373844533606089 -0.139166791934620532 -0.010783905347204888)
(-0.0992256389185073723 -0.136257870734101755 -0.0167341936718636702)
(-0.0981693650912618676 -0.143634012999202726 -0.0156428879043229371)
(-0.0642815057560923719 -0.091360602309631056 -0.0115485119007565726)
(-0.0970745655769428145 -0.0859002285122482806 -0.0180567791915424228)
(-0.096153040742692375 -0.0942659492073143201 -0.0168276255066556746)
(-0.0944949331181944296 -0.0660338751335809437 -0.0179119701558699551)
(-0.0241349699602152121 -0.321001937991594155 -0.00457601236654819887)
(-0.0224340650112935767 -0.338763810852365066 -0.00439704310024463703)
(-0.0273312532478224048 -0.287178716623585906 -0.00462086792379658943)
(-0.0256903618518452351 -0.307077626005405724 -0.00441963724106403909)
(-0.030065455105389563 -0.249381588973663859 -0.00474452421643817724)
(-0.0285755717058371883 -0.267003892430173195 -0.00478351911896935864)
(-0.0286323240838876232 -0.271479880580992206 -0.00451969451826173332)
(-0.0320258187085171245 -0.207868534883332762 -0.00493858126722015664)
(-0.0309995470997245816 -0.226871389279125008 -0.00494520324147726224)
(-0.0309618634558862169 -0.232021686186344223 -0.00468240732030769657)
(-0.0329304748756544668 -0.163409688422974431 -0.0051924762008001427)
(-0.0325172720130391391 -0.183190487897081644 -0.00517949239179999084)
(-0.0323933043533315077 -0.189153051694603447 -0.00490659017008490596)
(-0.0326226810995891986 -0.117285173311773239 -0.00547397236752446194)
(-0.0328889265178827217 -0.137077014480148862 -0.00547342985268200154)
(-0.0327155236155933782 -0.14385853513474256 -0.00517844296947976915)
(-0.0320441853721334727 -0.0901463745908370195 -0.00576924525435181142)
(-0.0318971585546002703 -0.0976281515259864036 -0.00544910768433197728)
(-0.0311782977808698833 -0.0711283759651053643 -0.00571452429817915098)
(0.684937977488724092 2.11619354038995411 -0.670307470656660964)
(0.605753173064489836 0.497012714448178516 -0.393530780575126748)
(0.700023727399247009 0.832433926111528888 -0.419531804918537587)
(0.639796053663163167 3.14823429001100008 -0.828494336861621217)
(0.564529074666959563 3.55720292615493783 -0.832531989939101935)
(0.667379233009575246 2.72152130497853539 -0.721452537067247102)
(0.620932187929788104 1.69297749585160129 -0.551717646780086501)
(0.32448342808007552 0.0223129590710912096 -0.288185291035979008)
(0.504227961190448437 0.302803448796872321 -0.295949039242753953)
(0.692617136514588116 2.75437865643279656 -0.682323543004283439)
(0.72279463867554683 3.0937613750495534 -0.678155984948124901)
(0.731977627590456814 3.11346576062687586 -0.774270421270427112)
(0.132398303744828832 -0.935006047536539708 0.0235940128338952351)
(0.25919281350727047 -1.0339992438156369 0.0457479821061243519)
(0.189965357920088229 -1.04749341035994492 0.0384428560264934854)
(0.230812125616181585 -0.631369904996461839 -0.0686345297634681217)
(0.275767980684490099 -0.961195218776883964 -0.00177383629791983376)
(0.25088404832393979 -0.912688261545462343 0.0154967991512932092)
(0.31523109193598664 -0.29633675118010544 -0.186897532579663572)
(0.368213522630348011 -0.512539799466040669 -0.136229964096210715)
(0.327286999706707604 -0.571154657659734055 -0.127544180040303656)
(0.329595514025721958 1.17009043993920381 -0.418791187260175002)
(0.170759344335821767 -0.215380637570328048 -0.246171381288590202)
(0.159227682504413381 -0.185045835889558197 -0.189441594770930394)
(0.545413022144195625 2.00632044753676464 -0.522486780287501174)
(0.655212034782022057 2.54370109724902349 -0.519442878224686155)
(0.682792437193200707 2.88844807660693315 -0.712185293715422163)
(0.328907681778430827 -1.02728812190384855 0.0203801329743087435)
(0.376551012742084079 -1.16825513007499726 0.0824297859536833738)
(0.330999476299227768 -1.03730849195594077 0.0440387169633936204)
(0.425395558494738202 -0.8325620862742944 -0.0693692706306622969)
(0.271142832362142816 -1.0910972242114938 -0.019204856908127791)
(0.428410212702939774 -1.089109235435612 0.0412434940302747119)
(0.438484878536328671 -0.409376018051118784 -0.19550381280513715)
(0.299823697588435967 -0.499889357425928049 -0.203207797674808954)
(0.461555777517916099 -0.667882941732952817 -0.100669333911558703)
(0.197649165331515109 0.66309583568438335 -0.349866974315915125)
(0.16233216299292974 0.0698860743229017117 -0.401310480756751464)
(0.154964310025816149 -0.113476936562672562 -0.2522808942800705)
(0.326678320872007544 1.28204007202642178 -0.425355430749027819)
(0.430478708740619831 1.68867419432342514 -0.37938618601360391)
(0.576209478708317291 2.23793534539955008 -0.577893379574021204)
(0.286923745765199523 -1.14982277566430424 0.0428447960712470891)
(0.228406193619357767 -1.11948479366335829 0.162278113384549283)
(0.451967489050765669 -1.23003772381279419 0.145235345698424473)
(0.185592926137530562 -0.855178806786757617 -0.153043383952274181)
(-0.192294243039459134 -1.05772155831311498 -0.124784818316408863)
(0.246079945673358835 -1.1707320042777638 0.0737562213200300965)
(0.149715634332657888 -0.177643573379392211 -0.409014465626422907)
(-0.170775364364818827 -0.495497147619661571 -0.29022310404806656)
(0.191964048570663709 -0.567122117661655323 -0.176411621338046248)
(0.108286483310916351 0.573920664119431212 -0.476798937189863326)
(-0.0462548680475668994 0.231702885259950919 -0.502070580821476709)
(0.0575151056539909972 0.325045849682473131 -0.537471595687881054)
(0.109778203699556431 0.845352905255876363 -0.437441316022740723)
(0.228132885571393329 1.14543909623741147 -0.410064511379483077)
(0.409733827102001402 1.6169326766959915 -0.499533001453898118)
(-0.230562115627736153 -1.04739596337420426 -0.00535150100310691126)
(-0.269867250559881033 -0.818124834959077507 -0.00305613286001135687)
(-0.0404601135305676096 -1.32273808860605446 0.20786928138245156)
(-0.450416991731674932 -0.657557229932680398 -0.261964538412200965)
(-0.643780517078726522 -0.96064832767713193 -0.186486373382244552)
(-0.498319626372846713 -0.874147316394252916 -0.0763413453555232824)
(-0.372373742333156732 -0.00823794649330952811 -0.383279219243120028)
(-0.574612447165767537 -0.577290669711533089 -0.242208134059422042)
(-0.434075302964734566 -0.285970754655090587 -0.322124844332404126)
(-0.117202845940035646 0.520202374191264916 -0.462712959654353551)
(-0.364373205166398262 -0.0312852332560046853 -0.342142696966574344)
(-0.191772269842628684 0.418647591676838848 -0.486921297668351682)
(-0.0955488315203227578 0.533165735341999736 -0.452964158797453609)
(0.0236756283004357984 0.91944315086938988 -0.504588486486509558)
(0.213319649002598033 1.14689022508732963 -0.506859796411726515)
(-0.649577978263704225 -0.833688715229091493 -0.184191005239148359)
(-0.542523955857897588 -0.695384073454886953 -0.169005888001618476)
(-0.53656828490523456 -0.753275879892434386 -0.153684980334604093)
(-0.698888335955230033 -0.803901686834659124 -0.166729969029465686)
(-0.728562699903221755 -0.877463982828140421 -0.114783099001520839)
(-0.676518166808205312 -1.01398267598208358 -0.144717050450283019)
(-0.599222726287104268 -0.452867727904279427 -0.201071611782876358)
(-0.711480183513934827 -0.620785748754934419 -0.128712054564988826)
(-0.646130262254240195 -0.627458709713633045 -0.191544947369003155)
(-0.352488437765191176 0.108580901340250002 -0.332393896109674458)
(-0.594114575744724704 -0.28899332336126371 -0.163236736927611065)
(-0.475427583984270319 -0.0564467129884054578 -0.253756047905876247)
(-0.33086392291761324 0.179608478873261701 -0.31365679379668876)
(-0.163810549885108098 0.644934528442036026 -0.472155116305957412)
(0.0297365832523917781 0.676240326598770647 -0.448950265844398733)
(-0.607664206156301345 -0.661243140420096354 -0.0995979817639912474)
(-0.513397654101276357 -0.591696733804991992 -0.112582563158248605)
(-0.520776871162318189 -0.567411794783569623 -0.112242172419871292)
(-0.735232413127540396 -0.677552502883437158 -0.0767651845370441732)
(-0.648059386575703389 -0.688324787012155381 -0.0613587008717702068)
(-0.651337040667820943 -0.778196157835481572 -0.0553748872244859414)
(-0.725151489001273908 -0.498222192751112902 -0.0908771797097232548)
(-0.717587644252550394 -0.538824794216403946 -0.0685440846961267447)
(-0.747488777174281416 -0.604155718730115643 -0.101468812702809066)
(-0.590554013727361049 -0.244393112470893237 -0.144499634614625283)
(-0.688568987087324613 -0.372242465716580317 -0.095403083149407833)
(-0.674246571287126728 -0.328661116821823474 -0.130404059359838231)
(-0.576468397782067599 -0.0669046087032764969 -0.190749432631869414)
(-0.441436787688070986 0.140999470646731767 -0.264275433850562069)
(-0.282590684459494257 0.173342664607568808 -0.258824869331566121)
(-0.536519030608638037 -0.619736940486274923 -0.0743432822660275022)
(-0.465032535892797971 -0.571932794977702219 -0.0837241260549533572)
(-0.500425720151443043 -0.636495366888052638 -0.0909219933062869606)
(-0.636588701537239232 -0.53215472992611168 -0.053137601030852688)
(-0.535561003186289297 -0.53383226569594433 -0.0572522635376109534)
(-0.574129962912609759 -0.584608601181755172 -0.0515440430262855409)
(-0.685806332722642242 -0.394655384088514194 -0.0730699881358112813)
(-0.623616732616603553 -0.433139370351232122 -0.0607505417437587611)
(-0.677824219229007707 -0.457625159317073205 -0.0622121669866453481)
(-0.683478472246643487 -0.188389989943029745 -0.141652881166651479)
(-0.660796730119840636 -0.31225222247436546 -0.0984691257260021796)
(-0.70444402720504895 -0.279518218416529685 -0.105003973664114722)
(-0.6659175187456432 -0.106392775489755509 -0.183238009523709861)