/*--------------------------------*- C++ -*----------------------------------*\
| =========                 |                                                 |
| \\      /  F ield         | OpenFOAM: The Open Source CFD Toolbox           |
|  \\    /   O peration     | Version:  2206                                  |
|   \\  /    A nd           | Website:  www.openfoam.com                      |
|    \\/     M anipulation  |                                                 |
\*---------------------------------------------------------------------------*/
FoamFile
{
    version     2.0;
    format      ascii;
    arch        "LSB;label=32;scalar=64";
    class       surfaceVectorField;
    location    "0.0599999999999999978";
    object      Uf;
}
// * * * * * * * * * * * * * * * * * * * * * * * * * * * * * * * * * * * * * //

dimensions      [0 1 -1 0 0 0 0];

internalField   nonuniform List<vector> 
20789
(
(0.0421603721605960588 -0.00956007268492772497 -0.00148580242627176988)
(0.0209260274756928981 -0.0187774914086510231 -0.00143021277189333629)
(0.0209115862336015021 -0.00925364252316249365 -0.00135519350854607611)
(0.0209543017375222185 -0.00925936336129274881 -0.00143428995828595628)
(0.0867328659516598544 -0.00999981698791194314 -0.00171034585609121446)
(0.06390238446978877 -0.0198581709492485076 -0.00160406260562935879)
(0.0639426952186835096 -0.00985921084775748593 -0.00152366353960610218)
(0.0640743292697518591 -0.00986625337435848709 -0.00162000375309545694)
(0.132475151461168811 -0.0104411310690838421 -0.00203920812341400887)
(0.108691792896663794 -0.0203898029134010651 -0.00187087634405125693)
(0.109035280445181751 -0.0101320735097061264 -0.00178067408099976906)
(0.109271765664680845 -0.0101404760042767828 -0.00190053445351827236)
(0.180914444870963642 -0.0111769667556762143 -0.00250001514699584298)
(0.155526254957487092 -0.0216033435368088549 -0.00225677363875065491)
(0.156380092188945746 -0.0107408627240180021 -0.00215138308880162077)
(0.156742249175029491 -0.0107514737536104597 -0.00230109646003421372)
(0.233219725041601766 -0.0122320422494032396 -0.00313144844167814566)
(0.205328146488854002 -0.0233411167680886017 -0.00279125601226839007)
(0.206361560695810353 -0.0116013978172491306 -0.00266410097679885402)
(0.206880279093079433 -0.0116155545127596387 -0.00285288364092096697)
(0.291129168234462443 -0.0137437808835571169 -0.00399591345131889396)
(0.259997432983618881 -0.0258562362090925431 -0.00352070951126706201)
(0.261314307021494274 -0.0128456071390585461 -0.00336501942350709475)
(0.262043168788622938 -0.0128652728670536759 -0.00360234851223026212)
(0.35695797953156666 -0.0157860118717901635 -0.00517498788625208716)
(0.320802866183103941 -0.029397790274325878 -0.00451791065531261665)
(0.322408031531258688 -0.0146148520520156429 -0.00433362683580340059)
(0.323428521328836094 -0.0146440830095649222 -0.00461463296791148926)
(0.433261075129962037 -0.0187155910701914258 -0.00682397161283824875)
(0.392381991899436289 -0.0340601760042907389 -0.00587380876550783627)
(0.394936508660282348 -0.0169126067386308788 -0.00567025880193866398)
(0.396397474408205441 -0.0169597601840771849 -0.00596571170433316325)
(0.525632102207361451 -0.0232234683316714027 -0.00912780105495569066)
(0.468791624075988844 -0.0411072019894805699 -0.00777882875701737392)
(0.470716986322872843 -0.0204402910500716996 -0.00765713909673405684)
(0.472812740818085553 -0.0205332827624315796 -0.00776401571016811266)
(0.642434163217595389 -0.0274791542045305648 -0.0127980142180725252)
(0.588917494872993386 -0.0517654646251492837 -0.0103991116755627524)
(0.595484735619581373 -0.0257942416580928882 -0.0104960060807497129)
(0.598688791073358262 -0.0260221562253310675 -0.0102029319162286487)
(0.78252239255477829 -0.0478877834944619121 -0.0210244391009540635)
(0.637458420989448493 -0.0607983872134073497 -0.0148002339376861868)
(0.636302065524090521 -0.0290844507149927989 -0.0165330883598195574)
(0.640025324481949487 -0.0294586075926219874 -0.013607063073069546)
(1.06074683374821421 -0.0787205718540116006 -0.0349265287171713207)
(0.835827725409733602 -0.120979011121681176 -0.0245997599955972181)
(0.845700970983615852 -0.0647426512886265237 -0.0286438326718192575)
(0.851676287632033069 -0.0655166542061722812 -0.02329115350101367)
(1.4096357324655433 -0.0703760048569313096 -0.0808495022125061275)
(1.16615706412482822 -0.146646509110712059 -0.0443871595320830467)
(1.19504351509874618 -0.0878398559537289236 -0.050198398217070242)
(1.1981708383719385 -0.0951972317444204352 -0.0333678297359990619)
(1.55803008111502272 -0.0216045013631087392 -0.184159316005450768)
(1.49241019624250537 -0.0598927812437940535 -0.133615245757801704)
(1.56661898162829871 -0.0458569931655877505 -0.128573224049457174)
(1.60953124166113648 -0.0639909547214133068 -0.116452900845778487)
(1.37266299078938347 0.0770244299302437069 -0.495105012904490327)
(1.55034137599365551 0.0532150871582180093 -0.30345238525609225)
(1.56371002883652288 0.0161953908860643404 -0.242585024953388961)
(1.77014650978110066 -0.0122062914411180702 -0.300925913814834856)
(1.31932574541816883 0.370836335093552349 -0.918317648564465183)
(1.252554081629631 0.165502463727236093 -0.525514972697180061)
(1.5805325505897434 0.104700545053683217 -1.00398735653659155)
(0.042154409867993424 -0.0287953014830494118 -0.00154847295125092521)
(0.0208811134615364546 -0.0375568436619908574 -0.0014865592695483779)
(0.0208990020108993507 -0.027963224443760766 -0.00141682994681065991)
(0.0209432624222610705 -0.027981196054574671 -0.00150497766285319357)
(0.0860911948374758068 -0.0299659417078887123 -0.00176459309358940105)
(0.0635565470994439718 -0.0394375697637445316 -0.00165140131123155988)
(0.0637344553976899181 -0.029606465503561611 -0.00157617856680395091)
(0.0638700312106840196 -0.0296281476536000878 -0.00168024972590633827)
(0.131031878700180626 -0.0312223487568780503 -0.00208844185938790276)
(0.107735544270481293 -0.0404267136409914296 -0.00191143291016278088)
(0.108119115645357783 -0.0303009087981977385 -0.0018267694042859437)
(0.108361460374065147 -0.0303255520322355254 -0.00195365253872621571)
(0.178680259386279905 -0.0334515228417557736 -0.002548014504023202)
(0.153792107166255965 -0.0428594079272765771 -0.00229394809378360856)
(0.154320865543689428 -0.0321153640106357288 -0.00219433935038438081)
(0.154689583609371184 -0.0321451774841378171 -0.00235260221704324587)
(0.230351713348119769 -0.0366374705408322732 -0.00318051708185730685)
(0.203066378832603672 -0.0464068057056955668 -0.00282716286402812707)
(0.203789207385937809 -0.0347519013644601582 -0.00270586884457344346)
(0.204316776422434537 -0.0347909875610745226 -0.00290698246650013085)
(0.28744881487985624 -0.0410946704654915687 -0.00404270671526078644)
(0.256975152243154759 -0.0513602311041547327 -0.00355484093676629136)
(0.257965756300209625 -0.0384725727769035866 -0.00340521830021492909)
(0.25870347295088536 -0.0385275649925971575 -0.00366015490542908901)
(0.351861460512812863 -0.0472044772965812751 -0.0052167315345683675)
(0.316834504363380898 -0.0581786008402264271 -0.00454163819474868568)
(0.318181411418924143 -0.0436390893046637238 -0.00436443978937503703)
(0.319208184093666303 -0.0437223474307934443 -0.0046706243268130011)
(0.426940168756578531 -0.0557744289148511957 -0.00682866590968695883)
(0.386467709269894044 -0.0675859648958310189 -0.00587679431361555048)
(0.388325347869332649 -0.0506416142673822567 -0.00569483678926260752)
(0.389767862979707946 -0.0507785184284432894 -0.00600994956791130359)
(0.515868246600794556 -0.0691387151206565576 -0.00905013937762441829)
(0.461960829445329735 -0.0807067380698310299 -0.00769812850993169089)
(0.464622108479663454 -0.0606839678017347742 -0.00761043285453888961)
(0.466672506776835583 -0.0609403993533170762 -0.00776236580512535291)
(0.630844400165887942 -0.0833250799923850316 -0.0124013313951764174)
(0.574199150406669356 -0.102706524594583723 -0.0101555229003441414)
(0.578627393489055675 -0.0770584580279701226 -0.0103574915817032775)
(0.581597380331228431 -0.0776643920848754665 -0.0100387177474904211)
(0.766518274909169239 -0.132526233969353952 -0.0183755548323293397)
(0.625882713686866099 -0.119817368582917375 -0.0140033665305078214)
(0.634132128558405395 -0.0890123513234662295 -0.0156896687417376821)
(0.637375070974335545 -0.0901291408650802262 -0.0131285891912926687)
(0.995283244189725913 -0.200035294556469706 -0.0340603908105089684)
(0.808259999778006444 -0.220406531045683529 -0.0207836115904890782)
(0.819061085634662067 -0.170664828670995555 -0.0239148635250101584)
(0.824141044911270826 -0.174393843468109572 -0.0194231076147486567)
(1.27287598017744985 -0.164754486053092147 -0.0971529030773785329)
(1.10228085412268539 -0.270853759612819323 -0.0447257492736323828)
(1.1223196582730004 -0.216679548804748878 -0.0434260616755438658)
(1.13930297411074055 -0.238069016557691304 -0.0450916340773488272)
(1.43684309402917276 -0.0247197634780306902 -0.252908315008443463)
(1.3350350913056066 -0.141464370443318388 -0.148651503152123915)
(1.38373082966021288 -0.0936259140899488307 -0.142637728792298746)
(1.45283838196185089 -0.133571289320460834 -0.16003303314434289)
(1.37792455575692507 0.303196975497989629 -0.726665020916065663)
(1.40291563986214429 0.0463083756288857618 -0.371443974698799639)
(1.43777569277444139 0.0860715435067754969 -0.342365142013760226)
(1.63686030386932346 0.00575733203774218653 -0.408550950643206512)
(1.23996118044805703 0.742571467779962413 -1.13663061164856849)
(1.30748755575267239 0.600476831395069688 -0.826035283186833613)
(1.61523181375914882 0.41569641569932142 -1.307386595327936)
(0.0419934456267535283 -0.0479301304706578474 -0.00158948762952901236)
(0.0207464651500286479 -0.0562690390381276814 -0.00152215914559556548)
(0.0208202337654801763 -0.0467905413439284323 -0.00145661737456948687)
(0.020865817997491147 -0.0468213834427712375 -0.00155356279884729677)
(0.0852649136581490191 -0.049673165169598521 -0.00179824112780493949)
(0.0629378665750020549 -0.0587252287015632493 -0.00167860000635423976)
(0.0632472403938687255 -0.0490341778296265116 -0.00160822178909635137)
(0.0633860165044424356 -0.049071153091704442 -0.00172014364305611328)
(0.129868489653329033 -0.0518013813863442141 -0.00211693914455848712)
(0.106526458880112807 -0.0603178066909151878 -0.00193204317748015171)
(0.107117574704667817 -0.0502707813304012902 -0.00185267573386293963)
(0.107364169882046917 -0.0503127670780960656 -0.00198740729022134615)
(0.177073692857086545 -0.0555199113733564759 -0.0025730964537885345)
(0.152052679751887021 -0.0639236343139100022 -0.00230958369762949978)
(0.152906878922333872 -0.0532832913408255449 -0.00221549260322480117)
(0.153280929879935884 -0.0533336601030577201 -0.00238384252273495835)
(0.228117865822861532 -0.0607986590811800953 -0.00320148671893711202)
(0.200654068064528873 -0.0692008051386251294 -0.00283773601416118003)
(0.201834014287294861 -0.057694640743092003 -0.00272187100941717218)
(0.202366854277241215 -0.0577596137656313513 -0.00293714572355650459)
(0.284379326176725067 -0.0680709346128612613 -0.00405377241625419146)
(0.253658249974023142 -0.0765028282275193594 -0.00355671142689950766)
(0.255269550262416212 -0.0638168180423315384 -0.00341249105550880125)
(0.256009147343220889 -0.0639068348504990003 -0.00368734745527012032)
(0.347673955903071263 -0.0780955953162446037 -0.00520170097379586867)
(0.312273401049924793 -0.0864771833586090721 -0.00452336196955532583)
(0.314479162940470014 -0.0721963765317521072 -0.00435193790733854474)
(0.315496979982800629 -0.0723308349185133176 -0.00468713074691166302)
(0.420829449002208589 -0.0918837155324842975 -0.00674625691386028081)
(0.380155789312264236 -0.100281034744529166 -0.0058123494026535499)
(0.383144268176392799 -0.083785382732228339 -0.00563475566564022867)
(0.38455036346509458 -0.0840043217137628057 -0.0059977492853731636)
(0.506747456751822645 -0.11320638129170929 -0.0088035120326514088)
(0.452647173436562689 -0.118997259712561823 -0.00752273058438606649)
(0.457133802477797224 -0.0996276017208437836 -0.00745290356747325446)
(0.459071972646508897 -0.100016494994853086 -0.00766245337728835036)
(0.613111601238483517 -0.137726865728987791 -0.0117575580356755402)
(0.560613333355620358 -0.149907798002673398 -0.00974228277457591697)
(0.566320098628783741 -0.126014345234370329 -0.00989435563315925991)
(0.569051653604170204 -0.126903894792218863 -0.00975104875906423856)
(0.742987216199627709 -0.20699076618410886 -0.0164114232886675149)
(0.603239197798876914 -0.176249318555491058 -0.0128021660184019469)
(0.613643135845732823 -0.148333315297149854 -0.0148600887327675641)
(0.616326270318120262 -0.149894636437738427 -0.0122788030181140186)
(0.945816410855192191 -0.294316621871756945 -0.0314489700536125932)
(0.776867011815093766 -0.308997899877550886 -0.017836648346282253)
(0.793154875098615264 -0.25742418927445343 -0.0202412365974875205)
(0.79546243937681238 -0.266663721689452238 -0.017131165507132548)
(1.1586527963454456 -0.252139588708211515 -0.0962243493483777301)
(1.05194721693432336 -0.365944514589887249 -0.0440514693742541721)
(1.06941460482362816 -0.312057920261551325 -0.0429000263161167794)
(1.08750674479626142 -0.34575004393366815 -0.0438939437965268839)
(1.29284817857010781 -0.0683233949037210242 -0.26718716284248073)
(1.22415417862978582 -0.209954834042365951 -0.1524717081896656)
(1.24344117806146381 -0.158723252333623527 -0.143791515754007254)
(1.31137769271736371 -0.211216611149069866 -0.16148815378988135)
(1.16192957355497661 0.465086027375922306 -0.781409565431302688)
(1.28272325389722575 0.0632418302079758854 -0.396932727403045915)
(1.25256986547720794 0.0890886983519996456 -0.358659074476309958)
(1.46839741183480532 -0.0152640399164387791 -0.441164584849362662)
(0.996085772032440309 1.02444516551091347 -1.1963978776780686)
(1.02802328367881746 0.939087515907006232 -0.909277109799529693)
(1.35568970781138742 0.678400834226593918 -1.37835575785551878)
(0.0415997817837701414 -0.0668030321116759862 -0.00161127152242079266)
(0.0205012187067748763 -0.0748108487084489654 -0.00153945819651584532)
(0.0206284793283712624 -0.0654408575587095837 -0.00147745979091135331)
(0.0206751166639593115 -0.0654846695838409987 -0.00158350329858147334)
(0.0841315252274913022 -0.0691100307639966188 -0.00181240205602945154)
(0.0620597233578796953 -0.0776885149533997066 -0.00168737001319728777)
(0.062494330619698793 -0.0681144374514799644 -0.00162091047013165749)
(0.0626354598935558032 -0.0681661465339288009 -0.00174148417184428854)
(0.128162244435695905 -0.0721647922950269249 -0.00212468773055116437)
(0.104912266257047332 -0.0799589973765061496 -0.00193392345842643846)
(0.105697932997272911 -0.0700467637246589558 -0.00185860771614429097)
(0.105947097036530533 -0.0701058850604396877 -0.0020026334586187868)
(0.174675258754128676 -0.0773040483802080042 -0.00257422325800214661)
(0.149684370251575577 -0.084685919784796726 -0.00230455530999678975)
(0.150839978187506996 -0.0742130797065434777 -0.00221440734134645831)
(0.151216155828191673 -0.0742842948989896334 -0.00239414806513848664)
(0.224805245201772863 -0.0845701105834999467 -0.00319296072212357481)
(0.197361114270279997 -0.0915961150825614079 -0.00282397425872752674)
(0.198965645901866744 -0.0803063618603993418 -0.00271143249639247113)
(0.199498287642953021 -0.0803976695654777113 -0.00294194872328920219)
(0.279841550132649386 -0.0945249200415313184 -0.00402630098020064203)
(0.249152612503489496 -0.101112015348921641 -0.0035282564385002383)
(0.251340292000382992 -0.088712405590315041 -0.00338584752648501746)
(0.252072797671798521 -0.0888367621741305569 -0.00368285064870142948)
(0.341459144756757871 -0.108192056130934688 -0.00513401039841300793)
(0.306099111216246667 -0.114048238872381982 -0.00446531250202050756)
(0.30908461645121571 -0.100158549192577967 -0.00429251277994330792)
(0.310078713401884698 -0.100340706749254785 -0.0046633471192773935)
(0.411933706573120395 -0.126793186277519565 -0.00658882307317933732)
(0.371722810921377711 -0.131816167593064665 -0.00569678108902418791)
(0.375757896511354161 -0.115941645260500076 -0.00550719987591403309)
(0.377105682485378291 -0.116225608612892717 -0.00593356881847312886)
(0.494126890331123669 -0.154919734588880198 -0.00846150132631057553)
(0.440127117475586416 -0.15567844225175545 -0.00726942948449478803)
(0.446160342000252563 -0.137167583900417306 -0.00718982324911785972)
(0.447922563060227485 -0.137671531511995071 -0.00749182054044183164)
(0.593268481172934736 -0.187661917299345005 -0.0107868907573023219)
(0.546111010548433917 -0.194005133727625456 -0.00927269867970134318)
(0.551735817716837662 -0.171730615405065373 -0.00933068334575951411)
(0.554082628490025986 -0.172724368127864014 -0.00939960439288925823)
(0.71444725167166856 -0.276859351986701141 -0.0142273910760166)
(0.574755287614005295 -0.228953004363019991 -0.0112463646173751354)
(0.589399365891171478 -0.202160670394854358 -0.0132310486472780441)
(0.591293411623121101 -0.204192339186789334 -0.0109239183964295189)
(0.90177796300628954 -0.380595861582483985 -0.0304391476669238804)
(0.740061997252880688 -0.390386451600142959 -0.015561956122809634)
(0.759558927807653328 -0.342686460997413789 -0.0178522580609162575)
(0.759680948044371918 -0.355124615304378 -0.0141132009284894444)
(1.08237741961945311 -0.330266819720871241 -0.100298828215542202)
(1.00650926952771469 -0.444014987752655632 -0.0467408738208689514)
(1.02319031430044816 -0.395263346466620202 -0.0463144780273278822)
(1.03717115757255884 -0.438238936184965233 -0.041922793099301657)
(1.2235241582411307 -0.0902515747717402006 -0.282217272750231007)
(1.14081696368441676 -0.274784809070163283 -0.162486300617535301)
(1.16188173895379254 -0.216087790160428561 -0.1548643147718963)
(1.20653570680285815 -0.28660910745491297 -0.159060305028693089)
(1.04767488992753877 0.608211901139581013 -0.811921039649812659)
(1.22261268826413705 0.0944303376572588477 -0.420493040962396258)
(1.17921049325775518 0.132331768875702471 -0.377637472385717099)
(1.39649293992106305 0.000172939328148242078 -0.471570903432651123)
(0.853196807061839202 1.25968886700454519 -1.23570134994213654)
(0.841565798047513303 1.22106529805981778 -0.970171218159979531)
(1.16527983283730063 0.936736339873454615 -1.43095109773003171)
(0.0409855110916838364 -0.0854190231764679064 -0.00161555668729234021)
(0.0201580322342810904 -0.0930845656110766695 -0.00154012098171441101)
(0.0203288593732422126 -0.0838590358185647838 -0.00148060737696580091)
(0.0203761970783526945 -0.0839158033910037543 -0.0015963831095841929)
(0.0827093423600992472 -0.0882590268017678092 -0.00180889141559427424)
(0.0609388160307000881 -0.0962975198528191606 -0.00167952633457382544)
(0.0614892622728349034 -0.0869121987277538394 -0.00161591386485568345)
(0.0616318104990577695 -0.0869784102689077077 -0.00174596986427951991)
(0.125954204858330282 -0.0922036866649960235 -0.00211379103787206427)
(0.102913643204920996 -0.0992562548411443091 -0.00191895603923048766)
(0.103888131967386582 -0.0895287910523636654 -0.00184622500758081483)
(0.104138281538327354 -0.0896046564106183774 -0.00200087922821182542)
(0.171546202287712751 -0.0986802458804762195 -0.00255430631072217163)
(0.146731367456526707 -0.10504520290966271 -0.00228124852580759629)
(0.148171639236388042 -0.0947872312160557562 -0.00219331281383997522)
(0.148547205622597656 -0.094878599924554885 -0.00238573941185980147)
(0.220496811756955846 -0.107804479426326205 -0.00315926997510419024)
(0.193253644836806154 -0.113475646908903105 -0.00278903168140363141)
(0.195254773476061128 -0.102457942920077441 -0.00267763758356679522)
(0.19578275236562212 -0.102574308055734489 -0.00292500103415148588)
(0.273963784591554516 -0.120250591471764562 -0.0039672679603201047)
(0.243553973864117257 -0.125036270269429262 -0.00347418151287384909)
(0.246275933968364336 -0.112995750447522136 -0.00333020277458251487)
(0.246994275215852044 -0.113151798204569554 -0.00365248631544512611)
(0.333412491884725437 -0.13721268761994726 -0.00502808319263168581)
(0.298478949372278368 -0.140677354759180473 -0.00437622148991957931)
(0.302171307067783057 -0.127281567281346736 -0.00419393811721473133)
(0.303133204607596296 -0.127504209512719041 -0.00460906223093676768)
(0.400655748460516381 -0.160355197856110965 -0.0063773875003396395)
(0.361278922710273398 -0.161956152965902961 -0.00554872427762361561)
(0.366362129704560668 -0.146800532153896546 -0.00533107785021792041)
(0.367629825090553808 -0.147126813194808692 -0.00583964417067243252)
(0.479969212531057343 -0.19417980202443641 -0.00808062683788555482)
(0.425347591118954982 -0.191161005195309541 -0.00695165363450273369)
(0.432317794513115694 -0.173314689443626102 -0.00681914559278870049)
(0.433890621168155133 -0.173941068400773224 -0.00728376367719456037)
(0.570082423457312082 -0.234011112143683503 -0.0097321725397741584)
(0.526247959915039365 -0.23424814306444372 -0.00883344274986976735)
(0.537395804300918711 -0.214013143231260472 -0.00872656881087257273)
(0.539867966946000033 -0.214933210326869184 -0.00911216319969938848)
(0.679647398591985086 -0.34218374349725017 -0.0125809296641681174)
(0.541067961017379528 -0.276714516819980771 -0.00962538890831866022)
(0.557379795905235564 -0.252517188906881684 -0.0112985235123643606)
(0.558331457077479221 -0.254677657413722391 -0.00943050853243002953)
(0.854996966510410128 -0.457485687700940225 -0.0318636822767547206)
(0.701003824240407081 -0.465521009221185111 -0.0151298137470850854)
(0.719803449087739522 -0.423839445046260865 -0.0171551739061321651)
(0.719884488930284117 -0.438041567185225911 -0.0115580931559711702)
(1.01634822957285564 -0.398656309756094007 -0.108928346222862266)
(0.962005776794491174 -0.51026405214496573 -0.053180265581768818)
(0.973711931308710921 -0.467824877775274595 -0.0540605732706465961)
(0.98571444880061776 -0.516350872161984276 -0.0431354063008966421)
(1.16484288192328389 -0.108560526957231368 -0.300762068829700024)
(1.05137526395062397 -0.336153599651106472 -0.179199610668723835)
(1.07938572271032185 -0.271964129410059041 -0.170755066829617219)
(1.10599854507172757 -0.35500409341796052 -0.161497046011197298)
(0.994877015804815912 0.736468799024308618 -0.844273351254721582)
(1.13994691467303633 0.131911483185730732 -0.453054510513772712)
(1.11454749012511245 0.189401844902868266 -0.408205819038205853)
(1.30434245308828101 0.0122109954478877569 -0.484324337495531276)
(0.782987107729490761 1.49181979880412174 -1.27926751789558213)
(0.764444723744775123 1.45906002707853477 -1.03799056500731068)
(1.05167836741469989 1.17443665453379298 -1.45806395126584887)
(0.0401923011983734702 -0.1036904926658202 -0.00160409062899589602)
(0.019732841271950876 -0.111011231371622304 -0.00152572709631460923)
(0.0199414591708392541 -0.101969120018605239 -0.00146727476727630084)
(0.0199891527248860917 -0.102038677658623914 -0.00159398673966015337)
(0.0809966244334874991 -0.107023663979088635 -0.00178959095821003842)
(0.0595939781362442092 -0.114503132240330277 -0.00165686985283750271)
(0.0602518155117738596 -0.105328592313924538 -0.00159478422009799096)
(0.0603949074241921166 -0.105408903115479582 -0.00173540374358454414)
(0.123272644927501354 -0.111823276112131789 -0.00208641352716602011)
(0.100548485778331198 -0.118128956030439464 -0.00188906919551497308)
(0.101701360230860238 -0.10862336201173102 -0.00181722422822034766)
(0.101951021358894459 -0.108715257694035394 -0.0019839525886790766)
(0.167736182821956875 -0.119545000164302181 -0.00251597389648905651)
(0.143233748249061654 -0.124909864018265565 -0.00224185919317664538)
(0.144938233821969548 -0.11491054432608612 -0.00215444067757028035)
(0.145310644307036912 -0.115021230144127309 -0.00236074784746746844)
(0.215268491696265163 -0.130375739406518337 -0.00310394321917329026)
(0.188397162717806238 -0.134734178318871411 -0.00273548628383863844)
(0.190761862823801531 -0.124038722523339612 -0.00262318134237258214)
(0.191281302668698749 -0.124179037063599534 -0.00288946063821954487)
(0.266869018031850702 -0.145078345057393615 -0.00388313504247332457)
(0.236963777536345011 -0.148145396373151106 -0.00339815753064810593)
(0.240167816267095574 -0.136526576525931614 -0.00324959590374574152)
(0.240867315557027617 -0.136712249948930942 -0.00360097364397446006)
(0.323733260862326122 -0.164964729227928014 -0.00489686257491150911)
(0.289571685462050588 -0.166184768181559028 -0.00426412715030134032)
(0.293894671251314799 -0.153368133422932318 -0.00406469841644384322)
(0.294821802592777238 -0.153622522826892149 -0.00453382482244507092)
(0.387288285067950488 -0.192041654412015289 -0.00612299041178671153)
(0.349099462603768562 -0.190508711644950146 -0.0053806953656430059)
(0.354987316025371702 -0.176173631420781407 -0.00512140165424911)
(0.356144403366626894 -0.17652756087777377 -0.00573334592952093238)
(0.459331331068926152 -0.23040494706070716 -0.00770446954648693495)
(0.408694097596859651 -0.223516834188307756 -0.00664652294295657239)
(0.416797760648886462 -0.207269956893320034 -0.00637275238656287001)
(0.418324458205161787 -0.207879381535092611 -0.00704612695276755994)
(0.540824930297323703 -0.276741328147255161 -0.00872665911841427264)
(0.501379071519610697 -0.270815062993068401 -0.00846903255604981517)
(0.512395762832845492 -0.252541960630568274 -0.00814923429010181583)
(0.513403662675742778 -0.25329176670776482 -0.0088442195057036304)
(0.642194968716043313 -0.400688228689154879 -0.0121742729912356195)
(0.504572661728068583 -0.321205277302991643 -0.00834648255343863055)
(0.522582593787492611 -0.299730091033745982 -0.00928381381689531889)
(0.523846897554243074 -0.301276813219231776 -0.00815848785725075375)
(0.808842953751116589 -0.521809567172746513 -0.0364463970520993094)
(0.660908351879183953 -0.535939513918482158 -0.0167967543706950828)
(0.678329753546697001 -0.493627745984573429 -0.0191659273967708897)
(0.678133943039628262 -0.512812444850921922 -0.0118712909961919532)
(0.947316136951355525 -0.453649494021216959 -0.123451530027630582)
(0.900924409644238255 -0.563969462685645406 -0.0635862522175933698)
(0.918568525384409584 -0.530052042894686437 -0.0656778277620448797)
(0.928411944400351463 -0.576481278336317571 -0.0500009941948444461)
(1.08069360039068929 -0.116310854384211362 -0.331492052352796329)
(0.950290212390157985 -0.385814723448396679 -0.205277282352962664)
(0.978924378954711738 -0.322987601480924258 -0.195329109023318209)
(0.995407134991591724 -0.407006313343921788 -0.17609283200621062)
(0.915723000198459536 0.866249336113012802 -0.888048677154633981)
(1.02484803143584235 0.171480941816185228 -0.498271043961231064)
(1.0175522206033869 0.2439996512970731 -0.450879694381347285)
(1.18677075626661677 0.0424991411576863404 -0.518381124624314182)
(0.730571941465250285 1.7011942963590676 -1.31156061002524993)
(0.7206598722238583 1.69203321116041616 -1.09123750875940262)
(0.96765342509677621 1.40603244640753622 -1.48646447020353034)
(0.0392447470294678136 -0.121555127637128557 -0.00157850632015621569)
(0.0192361298240558178 -0.128523422667593756 -0.00149775155998543765)
(0.0194777463638797152 -0.119696679504713022 -0.00143835781483514741)
(0.0195254518834803402 -0.11977874141870315 -0.00157844998850862044)
(0.0790051063948708221 -0.125341772223977993 -0.00175634809014243694)
(0.0580432575070408963 -0.132250883554793947 -0.00162102127126587071)
(0.0587997192358295784 -0.123313838491116601 -0.00155886863986719041)
(0.0589425839126086551 -0.123407901006884271 -0.00171178555713202211)
(0.120151197161473614 -0.130943139835477174 -0.002044514861525599)
(0.0978417732493444825 -0.136506590491982993 -0.00184604416792834595)
(0.0991598883042913992 -0.127256414087380532 -0.0017729825589044262)
(0.0994076985974516741 -0.12736359476672468 -0.00195397836689809468)
(0.163302534102913233 -0.139805903418454641 -0.00246137158052622774)
(0.139237135375099408 -0.14419897439515722 -0.00218827700181478679)
(0.141183013906625326 -0.134496803551072436 -0.00209955098108095903)
(0.141549802674303588 -0.134626120163973045 -0.00232127595650495275)
(0.209209442265357343 -0.152175065082676364 -0.00302970059531345497)
(0.182864914389377797 -0.155281096919762052 -0.00266542463088470516)
(0.185556531842178241 -0.144950433165788178 -0.00254999697491020043)
(0.186063976332143777 -0.145113798891344792 -0.00283804111009838128)
(0.25869342984539373 -0.168873155401548569 -0.00377914963847612254)
(0.229495985229426464 -0.170330191381659224 -0.00330303214599468641)
(0.233125318190065489 -0.159185132445439859 -0.00314736284737147758)
(0.233803615203569432 -0.159398996052366071 -0.00353144200291617043)
(0.312680382991070371 -0.191278087860904805 -0.0047479599410328371)
(0.279553759179595795 -0.19044553058702382 -0.00413416433336164131)
(0.284412177447677217 -0.178265340271058059 -0.00391185442576739897)
(0.285304027864741794 -0.178546594367446215 -0.00444487621765573323)
(0.372110229329739972 -0.221466318043457677 -0.0059042278968128659)
(0.33556075833451382 -0.217290908045825321 -0.00520026957923733213)
(0.342124419830065696 -0.203867550758049243 -0.00488419120541487822)
(0.343219898888707964 -0.204240299715425566 -0.0056216066014774654)
(0.438281953967249949 -0.263316932778287438 -0.0074110859525194344)
(0.390320908635134356 -0.253395197264707106 -0.00641024733857994966)
(0.399171338432191047 -0.238426398420150232 -0.00598538980491700005)
(0.400597168832054207 -0.238910543401122555 -0.00692230512316848422)
(0.510858670454346964 -0.314921833680107399 -0.00808885599107417308)
(0.475894312001850228 -0.303639395280958013 -0.00814685094162584909)
(0.488017290573201423 -0.287291389549621912 -0.00760970326624570495)
(0.489113420129670351 -0.287844659953432946 -0.00874538376122286146)
(0.600696557391882879 -0.454900832823649903 -0.0129689639328981234)
(0.466650479903610027 -0.361141898796455252 -0.00799335730489341215)
(0.484494094270136066 -0.341564406860765668 -0.00764411073150771895)
(0.486474488610400602 -0.342348045715749505 -0.00766116979971421825)
(0.744687477646508222 -0.578624916706554804 -0.0439366095361893721)
(0.616566669820545976 -0.596039977287735723 -0.0194501287933579181)