/*--------------------------------*- C++ -*----------------------------------*\
| =========                 |                                                 |
| \\      /  F ield         | OpenFOAM: The Open Source CFD Toolbox           |
|  \\    /   O peration     | Version:  2206                                  |
|   \\  /    A nd           | Website:  www.openfoam.com                      |
|    \\/     M anipulation  |                                                 |
\*---------------------------------------------------------------------------*/
FoamFile
{
    version     2.0;
    format      ascii;
    arch        "LSB;label=32;scalar=64";
    class       volScalarField;
    location    "0.960000000000000631";
    object      alpha.water;
}
// * * * * * * * * * * * * * * * * * * * * * * * * * * * * * * * * * * * * * //

dimensions      [0 0 0 0 0 0 0];

internalField   nonuniform List<scalar> 
7340
(
0.00450287280314124599
0.00378914423048625935
0.00302293430210517911
0.00240378369281409607
0.00214618603761035625
0.00213573040071065147
0.00209784500692565892
0.00242044566326012241
0.00346879837344493723
0.00528568235634372004
0.0071825706719237728
0.0330284117218042003
0.497015728877292506
0.641483423910241379
0.81268428158309558
0.800056343958436944
0.00472118689821038155
0.00433614400814752964
0.0037104777860382525
0.00301202726804817309
0.00240055779417342819
0.00214049166376387764
0.00226734562869405128
0.00253078773708893812
0.00349416444453912699
0.00519727051353279824
0.00650720511903010203
0.0114603288153744126
0.119117585276584836
0.551079635772731335
0.796210578863881469
0.820519978933791805
0.00444276255430236904
0.00374975751346199454
0.00393484642157397851
0.00390068505141454155
0.00315709450202523133
0.002612570761687554
0.00277085565361479078
0.00294296354947103014
0.00377201464938359916
0.00583559689000931123
0.00788558574307636484
0.0163324728730718308
0.0658802548062565885
0.317112735918185062
0.528302538202133909
0.864493302893422189
0.0135359633378216333
0.0038538439681176
0.00474299380176318713
0.00478987702522965745
0.00426610351155916334
0.0035096320484747541
0.00352016828225373488
0.00413405948625684451
0.00468901085107564959
0.00651674190519937677
0.0111610872032316608
0.0892284975460728158
0.471340408719477133
0.450931847181297973
0.402143674436392151
0.867451663460323541
0.00844415184874243267
0.0169293647628087109
0.0547875803622441468
0.0634743807038587737
0.0530969633764652379
0.0222773671955831531
0.00838931519995208576
0.00677412829883563931
0.0059107258257241873
0.00519119982651344673
0.00592095261946054899
0.00673839119707384492
0.00907736018746094046
0.0183184777216327498
0.149802631342061177
0.664772851477012705
0.76179401371145361
0.788564061546895845
0.846332528194967071
0.0105824585705606884
0.0272940434484935796
0.0752518572255467533
0.0946809721625435918
0.112315903693371494
0.128199687120344075
0.0769421736179386195
0.0211214230051659478
0.0145937744977568604
0.0130755647892847309
0.0110939303700233992
0.0120731990876818615
0.0207774673358143633
0.158312922552666019
0.477286387780470389
0.704467551864538466
0.765100888122085654
0.726554826324331327
0.8274358414247307
0.00785181738657739908
0.00656892056065193266
0.0138181818199911433
0.0320749779236367966
0.061411582801671874
0.11204346623064361
0.127935361652955493
0.148133399661294018
0.176671078919912627
0.143266991146393158
0.037673190962744213
0.0405099345691767518
0.0818563957163569722
0.133349505817678432
0.13726520802148745
0.318629149929566258
0.680379162107892066
0.735850648841012145
0.774354077768981686
0.64702904450347376
0.766793113424962813
0.00443729079389414659
0.00375398792578407383
0.00276133103516581872
0.00213420708443398449
0.0020875498602305597
0.00203836521617643991
0.00214895945829664519
0.00274475632782551337
0.00412404414309988469
0.00533661118750736012
0.0657393562784974739
0.425223046988419506
0.620806046984724746
0.846715274050591993
0.805415933483827118
0.00496368559476121143
0.00487758113246433526
0.00470303085519585464
0.00380877112586148819
0.00264114442718808504
0.00213065733166978863
0.00213497979105650498
0.00206411048417153671
0.00239770144130623409
0.0036285403024341658
0.00533318743675245763
0.00900479323085124142
0.324730157364268301
0.790442089972121842
0.855925266732227796
0.862446612224692766
0.00609522762180117993
0.00630903205277500399
0.00468006952183467294
0.00531984571467633647
0.00388182647695653124
0.00259982542913699422
0.00228873925312029873
0.00229309445150322703
0.00258970674348525318
0.00383567998386295881
0.00562040560729924147
0.0103498974096335791
0.0667251516944119272
0.751846782901375299
0.834491752341702919
0.88435606400848954
0.0111651770829028912
0.0127893804876729744
0.00616385666334422818
0.00705334668527680779
0.00543452458429346912
0.00370936443483900133
0.00286462845723830422
0.00295374492550633336
0.00340063386845404145
0.00470074925954482199
0.00692511211301711626
0.106028121606180678
0.246346878083958276
0.779125726011839714
0.643253016880705131
0.88941629977373049
0.0100748721153953603
0.0157685056101045315
0.0155368024186506651
0.0318919704801635395
0.0763204491516948774
0.0640077616997615506
0.0244701454189160499
0.0107446430287701511
0.00577998486988877576
0.00421095557144316422
0.00432032484011474378
0.00500181132314962348
0.00602803650029600738
0.00912854307455192998
0.111421267924141365
0.742448002319674227
0.798528421926617993
0.696798986464354231
0.868184924077232134
0.0116078185992395441
0.0183185356684091305
0.0256463528553902836
0.0541319953741374454
0.101503487733552139
0.121086056445812884
0.141833867987276985
0.0617346742093390355
0.0127734917762850515
0.00790242126201313143
0.00734113856926321869
0.00816856441515994777
0.0101821334396258404
0.0133454394528984104
0.138953635061584757
0.766098342794696796
0.818643808357650493
0.729760407223561058
0.793580298690388042
0.0215678435949526008
0.0182420800439337671
0.0182839938112415862
0.0224702333877880127
0.0213390646177526247
0.050665998110459215
0.117481820858564928
0.141706997881293539
0.179591350452408177
0.22810140974216922
0.143814856219086407
0.0205510679540914648
0.0191135762710525625
0.0179269862744341375
0.0594700472448009901
0.105813079231285245
0.3003718766222363
0.801269880964729397
0.843799712965428106
0.795232624979664626
0.711539921836038758
0.00450952821421236796
0.00522672684705567311
0.00404281536675661461
0.00252519168278880031
0.00203900783648073604
0.00203900783648073604
0.00203503474273811387
0.00212813162406185526
0.00265584078159219984
0.00388987385262457627
0.00593298201508298505
0.275171636607600356
0.774477176144843238
0.853826496743172014
0.875146139315516325
0.00468180792295074238
0.00818389184996184439
0.0075728646586931507
0.00610117140237727718
0.00334125443381846129
0.00211328441505966892
0.00203503474273811387
0.00201403143081275819
0.00199700121263002382
0.00240085815805394804
0.00357921608196785056
0.00632735169269953851
0.167250255277738819
0.804529711441705708
0.878333308212992048
0.884804844588992223
0.0124263267188979461
0.0117978602886074542
0.0102380946311528068
0.00809551925706420046
0.00493377617895278831
0.0026146632391166073
0.00212585940770245894
0.00206411571162666736
0.00208551101992504899
0.00258180753886218251
0.00379951499191786201
0.00644376026839276438
0.0724160372064235197
0.840458668315536173
0.903795379372356322
0.902345907877318498
0.0227470320019163286
0.0184434190252380885
0.0114290338667305761
0.0110143073322694907
0.0076041103563798066
0.00347520378266042047
0.00268344034245847525
0.00228457900301625664
0.00251413589040798587
0.00332658344569761785
0.00475393201217721821
0.00787366200172162807
0.0806489552999623688
0.858865052915604776
0.897379875137084504
0.906148561335266889
0.0630691715202045255
0.077693185037880988
0.080660559507084173
0.0439617773574212667
0.0316399976844960185
0.0201785959910152357
0.0245868828569467263
0.0159478129703821622
0.00617399680277003725
0.00405038841117077476
0.00302705371472459725
0.00335514848863666983
0.00451674156651346668
0.00649179817463209439
0.00869187347183727511
0.162426331849142014
0.856414251714498143
0.880977619669390144
0.879264009563469395
0.0609621111828043613
0.0713470349776798018
0.0901768932962046382
0.0973359837978353681
0.0955457333777177537
0.116464454658678329
0.115539271344793415
0.104591156970831864
0.045663866156068586
0.00832427864003752911
0.00490308922014870592
0.00519629811655424913
0.00655704479445023969
0.00886510183619388867
0.0125035369084288313
0.282201521407498435
0.865948951793613642
0.889580975964128107
0.786487770861946434
0.00450212122790386894
0.00417006830935761751
0.0302443007229486437
0.0565920018564123883
0.0790046519934882591
0.10918897278658185
0.13434552116437451
0.152417599614615318
0.161880471786302937
0.213949688461000459
0.187005013936614506
0.0332732919011178019
0.00959498900107620678
0.00964524807208735901
0.0113307709841226137
0.0151454160660332883
0.0752710919064196599
0.348983976297643494
0.87525663866454817
0.897432992601182145
0.775536937213689326
0.00576241530681666399
0.0082969847750278547
0.00786428071417568861
0.00600714256314733609
0.00372150765080481475
0.00240484826167984599
0.00203503474273811387
0.00201403143081275819
0.00199700121263002382
0.0021755300357761795
0.00267356727566914415
0.00454261855367325308
0.15651617718904598
0.772535846847921537
0.746287563343174254
0.769100028171874728
0.0129058100769324467
0.0123485443538804383
0.0104160652313924594
0.00859605179919825657
0.00533600270962821931
0.00266782600009087337
0.00201349870711961618
0.00199700121263002382
0.00199700121263002382
0.00199700119483816425
0.0023942386889410595
0.00411783998574492653
0.0372205799802720477
0.618353035284822217
0.706022873923122019
0.848679071735448876
0.0906288256285260052
0.017402189726085919
0.014579051255927674
0.0120974874067317616
0.00838940192042652091
0.00387266628210198704
0.00219662107267565732
0.00201403143081275819
0.00199700121263002382
0.00208551086126522196
0.00257976145793838586
0.00426145985935337361
0.0711457770435768577
0.6211219862410855
0.911874529090415997
0.921233809913437618
0.14125830460619479
0.0695868694990070952
0.020094763264645446
0.0156692691441886814
0.012497487559998988
0.00601830345184665993
0.0028381673763123675
0.0022252352459818216
0.0020852260721354746
0.00252739904707216696
0.00333362675610241431
0.00510592122713173467
0.0739453283693842223
0.876980181088579114
0.908790436507678212
0.921000127311852879
0.0179769831967455315
0.0675892937731437937
0.117035101242801587
0.134709908287719782
0.159200108225271308
0.0618353001395064092
0.0202001830584882316
0.0179269801337259629
0.0121357590952327499
0.00431446079174463166
0.00307401986490106211
0.00249693439775836544
0.003316388630026174
0.00457197150437136345
0.00639564395433678875
0.0786952921200471528
0.880162134261571305
0.909856729270532849
0.918025699169653042
0.00935006818790872982
0.0192067416035428679
0.113015303377885956
0.13302502200852423
0.153771858475663159
0.178320626744084887
0.0431551485101955776
0.03106907980929971
0.0270908761621209311
0.0118218019890948683
0.00494988382814031541
0.00359276761104064361
0.0045306727598349826
0.00647017243477320501
0.00843884845912656195
0.102630199076964329
0.753896610626451968
0.910943693394195786
0.918116934241012039
0.00232919345541161317
0.0016595016189741628
0.00296312432131195808
0.00674439651767438312
0.0464185166991729695
0.127036429087397013
0.151743912928833546
0.17827911420443282
0.144378729476447282
0.106518309800511246
0.0949938909489265182
0.0365649380804573682
0.0141782204165618181
0.00577394910158034007
0.00674787379920945007
0.00949309370427015714
0.014039544908263233
0.0709058340759998323
0.76652543231341963
0.912869731140437457
0.915819775107928891
0.137488038836118098
0.0124315061806069861
0.00973868928350412472
0.00715558500921715905
0.00536386569813379361
0.00372562496175546896
0.00240449258412201491
0.00218150383678388307
0.00217547294727292451
0.00270312378470440647
0.00364107904270666739
0.00505717639050500337
0.00601644507798620304
0.847309670185707353
0.915681902765832834
0.910239931265675373
0.163410884484764984
0.0182717837929256902
0.0141026464616869143
0.0096599572700008518
0.00631038246787173334
0.0039544245099458605
0.00259471780592418965
0.00201401112368474562
0.00199699939157325316
0.00238697137958702836
0.00291341273968019274
0.00377460844462016235
0.00569981622431402386
0.721648113876456332
0.915451159560467298
0.919738175854105
0.166571709105016258
0.113856333800891871
0.0225593299947060393
0.0147009905627766609
0.00957915160724099116
0.00574585518727532309
0.00320737708672355149
0.00223509143707277622
0.00208550275740440605
0.00242482654949345003
0.00281549486620226094
0.00361708896170286238
0.00760931046372016317
0.278428060222786045
0.926341397748071893
0.927769103635067482
0.164046398521069725
0.188798008801038975
0.0435864886796631032
0.0223156532335819779
0.0149252646983073743
0.00951382261461182488
0.00515454159096908563
0.00310460109568036534
0.00242392373071108986
0.00281542112241705417
0.00333774905760185871
0.00427859527537821031
0.00578696552259546325
0.309542042829563713
0.92313850844308909
0.923231850736143667
0.0124272118020945024
0.0234841997421351249
0.11692211964080873
0.160301794615330673
0.182714828263954604
0.198849913488243546
0.0343585507891214434
0.0222702437567470005
0.0159617244007301297
0.00927452881879026886
0.00504956823791411283
0.00320127647407155965
0.00333651842632930011
0.00406002006000456047
0.00512500009080392623
0.0066402066622006416
0.317862094696098718
0.919113876865371604
0.92133352396598911
0.00576885290256749263
0.0123537059660400045
0.0339111204119038334
0.155673668874678151
0.181778484774536175
0.211313891394660724
0.182009604632926369
0.034068771340790921
0.0229408919421253965
0.0174914317914775692
0.00944534910023518345
0.00492527398697098235
0.00402769801220591653
0.00512237736425446427
0.00664586138214672949
0.00846065095945267368
0.206814767894064722
0.920429258499158909
0.919951250308498891
0.00207842194227266051
0.000853022782530616199
0.00175265887306308779
0.00423712360427329175
0.0101598678287694033
0.0988839142878446542
0.178948107104371201
0.208918432681688249
0.24138293820555623
0.2029681563563277
0.0452785513151395327
0.0338301056806334863
0.0199724848793050302
0.0097685089811116628
0.00555854807611193789
0.00671249910038773483
0.00840123565101373766
0.0161601833167099272
0.162977019158131564
0.917983640679970958
0.918509844549463494
0.17075771395078243
0.162274764104757052
0.0164675942650223082
0.00980267398519869479
0.00689813455778262065
0.00521113003320362606
0.00365709166216815354
0.00318158218859429087
0.00309937099629745355
0.0035506658570127669
0.00474291949040554946
0.00605124460318503914
0.00967701601478775618
0.850755344895662624
0.943097086275577867
0.948252690866455694
0.187980038727872945
0.201294939009306006
0.0243082089676246171
0.0131567292145057715
0.00889061804861721386
0.00624979005999134335
0.00388793590610869971
0.00248662922440134014
0.00221382968664189748
0.00274971887451058196
0.003720700208487966
0.00534544826812982134
0.00689204957729321055
0.699190621050531425
0.935613296607927136
0.940280862595349487
0.189586622384591896
0.213286243549754367
0.138681933665608353
0.0212335724362402514
0.0118084603338177371
0.00811814218669215659
0.00547912604824124863
0.0031151444246555705
0.00218415267502909856
0.00248429475032886388
0.00349320536742554581
0.00596578356747097353
0.0085623633642787824
0.204014229788639617
0.915032290159921047
0.933525506847105002
0.188916905220756104
0.214065452929544348
0.242913356956262372
0.0381756629417763851
0.0199516781052694638
0.0121834816848395977
0.00791379586221750524
0.00507090831437686032
0.0027898234482103745
0.00319459264721094413
0.00503759730093132369
0.00581272718782154408
0.00775866091088163977
0.00784426862539531859
0.865881291268572495
0.92896379696761977
0.00938287766093426519
0.0193551601135848635
0.0533106235627861663
0.183642204860593405
0.211610025671373492
0.238666244858477317
0.210189234704168615
0.0362615872234981623
0.0203742314544746971
0.0123256285381820457
0.00850684079879328314
0.00458607025351995962
0.00378996090723558634
0.00811453695164142223
0.00663923977242788718
0.00743532889210622629
0.044394329712989504
0.787519805081969393
0.924829400462760187
0.00419346875289149362
0.00935544244129233975
0.018980273841467131
0.138670957118375821
0.212248535999490034
0.241748789981730716
0.272373678817599718
0.143439277357852002
0.0362960116003861952
0.0218741096918863946
0.0142012889149933791
0.0101116067024294605
0.00514071985474837904
0.00667433103987049269
0.00743785860557860754
0.00809209406946595836
0.0986607357738243651
0.927154111935126091
0.922285021477745826
0.00178558268770956613
0.000663152708333380851
0.00130990901798548934
0.00306607383536465277
0.00818551432460348956
0.032870080248582137
0.210984174303397054
0.241916207071226297
0.274413393212931456
0.309830561520723913
0.0848034793122717234
0.0399707386949782334
0.0278861179125978118
0.0209875241091090348
0.012616530377455748
0.00933538085599443235
0.00807984856358896775
0.0107579730814717622
0.0927873775829880787
0.923717711474145275
0.920782009836701554
0.187495187619058951
0.203669668138847793
0.127120993290407686
0.0203408820631123949
0.0118798541043541785
0.00757307678233526405
0.00675550360925171022
0.00673569917966299839
0.00668208105758238882
0.00691533143507422343
0.00703503074703151939
0.0103795252988271355
0.247430046848505836
0.604842766085585293
0.952511773206327295
0.957874010705753287
0.204634038435690391
0.219223543745839217
0.248129610886886981
0.03590164736127293
0.0115817249243449286
0.00472733973577797034
0.00516616681144419203
0.00574496873264166742
0.00814306973863182688
0.00525788009785183637
0.00534309435898183173
0.00689358052887719796
0.00986209198119956248
0.796672867620452863
0.944371523429721971
0.950551532510725217
0.213555881814716964
0.242948618180095444
0.274149355834555908
0.233381923170283168
0.0187565522916283041
0.00846221968777232866
0.00407012180932790017
0.012386934700774805
0.0333857081387435167
0.00839113924231522576
0.00483081875321604223
0.00642734729440297414
0.011194823083828501
0.227537121141493104
0.880538626003288583
0.940518561898661787
0.214976807815999149
0.243334334066433233
0.278161281544413774
0.307459768849429993
0.0716029351926208285
0.0249405503035633226
0.0132270647745668414
0.00972734499172521819
0.0219906494965153437
0.0333315476710467906
0.00614239462567027147
0.00709492888827117224
0.00909947371012000475
0.0114754953025716748
0.811827977099935927
0.928769981701781377
0.00667963335601280857
0.0141203303761987704
0.0304551881958522452
0.165538988222495853
0.243374690676030847
0.272426877163889747
0.312977768937228396
0.301006825999507011
0.044897521843616478
0.0320050319327970303
0.023191881420700125
0.028161381095254831
0.0628922772451604994
0.0206619602409922991
0.00697432879963638935
0.0080477699960151191
0.0133095899233266479
0.590053994077676336
0.921702210018447321
0.0025136967243665851
0.00607148098798933854
0.0140258572846313351
0.0325802279858690633
0.243130949555142611
0.277537283238086685
0.311120121113442005
0.353376703346268362
0.2134565883317327
0.0585277266280222475
0.0467161797636857223
0.033880429142600213
0.0411778472860806974
0.0164224552378297271
0.00679059838807566027
0.0106331584338523188
0.0480132382038591793
0.635386138804133971
0.900739020855395478
0.00148848916631618387
0.000646059052576301754
0.00070956499464267062
0.00190860931734904214
0.00444131809442128121
0.0127741690797590693
0.120727601011207386
0.275448471700501685
0.315344170771126753
0.354064392971264352
0.38842159931370962
0.145629878613510844
0.081786741607161359
0.0605421888843297729
0.0403716375412604897
0.0313325180703758685
0.00932071538909662323
0.0182420735173275742
0.100025940320369544
0.827273625485376529
0.918240515606451035
0.114083589751763304
0.133300573589656079
0.125940976337253763
0.0949850714572837151
0.0369368085489545778
0.0244474963682695424
0.0250382646081876402
0.0241339563998898485
0.0223893815682089034
0.0400400493106310013
0.0645376765681220654
0.152788448542838934
0.324412666714911924
0.935323238030893456
0.953208191016643669
0.955999260216150448
0.221226180448210102
0.228877244820357817
0.259421125813960429
0.315494366758859335
0.307078113111326489
0.145348422516891868
0.0178388732724906497
0.0219265380360318535
0.0225507739241460926
0.0203239174097642611
0.0125748572523497575
0.00986541782757257082
0.0153172562231550929
0.656944196441310968
0.946985685983694148
0.953279060549450108
0.244958148639492002
0.275633167845722782
0.29993226733047218
0.322121469180839337
0.339288405921341685
0.355560429149055723
0.230500841206444179
0.0778635191795967185
0.0350495910574396274
0.0237859441177556696
0.0161722144501371748
0.0109177077954653937
0.0153536132791792547
0.368349913626192904
0.90260312351778027
0.944671340284659156
0.240588677119661642
0.281105304975081571
0.311189367762882863
0.333188422682843988
0.351588029836248928
0.369922764178311714
0.387309843381031971
0.244245175278875487
0.0748452253822211727
0.0463894066003048416
0.0234863665638531047
0.0131797664677224535
0.0115321027423777624
0.0168664871693429627
0.856947047718591981
0.931251878588589377
0.0174573388459733081
0.0131277853612711305
0.0268661252949838822
0.101873184575689169
0.279870710453220095
0.317523183249174501
0.343830813314510042
0.366022254999282814
0.383877656648416998
0.408553300153151278
0.4084311748465147
0.276162867315549121
0.050941919425569103
0.0393039670199465743
0.0153061070301645022
0.0122720653262781074
0.0208656887916515467
0.599010183287860265
0.919019530353968106
0.00224116190918652531
0.00481825283131475865
0.0119707879745520225
0.0255594712090444903
0.0955973005408914944
0.321309696861547089
0.355895395137071024
0.381054692494352643
0.405967775843104228
0.43235404169629571
0.464246921343446362
0.437005947606658229
0.10511926562716746
0.0516213099250887111
0.0277928236790646495
0.0186315498987843289
0.0423101350282794955
0.503313887223187484
0.905017641446685506
0.0021496278542321866
0.0012659202747696721
0.000544533457340341635
0.00130993117370184985
0.0035744442532618945
0.00879232060264608685
0.0220179787977465395
0.213110777349596658
0.361862124599183099
0.401799965895750288
0.432171961764314549
0.463938504455826572
0.493462619155996096
0.522987426143151413
0.476484476119593214
0.280048370241862299
0.0738716678202646776
0.0404251548059788163
0.100469191904466196
0.753681615748590383
0.908904533390426428
0.0135285750091697493
0.0241875001322237257
0.027500674696996491
0.0296633473122267857
0.0128210494945764503
0.010135162696422912
0.0102951963009142722
0.00724727199132792817
0.0412233198730613537
0.311030690001838528
0.439107462893027489
0.503986287045712578
0.594654870068048957
0.86188704055987686
0.86468431888456343
0.0217689228074249216
0.0247714421164130436
0.0281512350239894113
0.0310375561674489306
0.0329406124596067079
0.0329415538265550034
0.0203478025805987825
0.0121253981824517749
0.0151101257152508363
0.127526986198512493
0.323141588402277802
0.499860119020487326
0.605651699157530254
0.578383273838118939
0.68638273592140997
0.86188704055987686
0.00872547247954048866
0.00837272740834941326
0.00922995026413028774
0.00729821516467795035
0.0124925057542446469
0.00681224166176015809
0.00665195755554169078
0.00888276623184265993
0.0333960007601205172
0.110467249005328547
0.12431619989460016
0.361849809009428647
0.693503514536268684
0.735819107604273492
0.672219288782476831
0.859585981740646154
0.00894618534130878218
0.00923140715969754042
0.00965712782961106533
0.00876065650994254687
0.00842302581418480183
0.0097771806773518273
0.00906586217715817447
0.013177733775320815
0.0161507089767452539
0.0242149978497542447
0.0396587137137312251
0.0841064801422879982
0.727652270963706105
0.818920407525513649
0.855128929307522045
0.857574196472576711
0.00923076223815239537
0.00910958779530331164
0.00896899372954398401
0.00930265594104963921
0.00802837694007246458
0.00952260467735549856
0.00609943174237013129
0.00990133390399102441
0.0121720692573992623
0.014048275664092405
0.0137496931283182695
0.022706591543758578
0.0318361815761235081
0.0471435690617352798
0.145296214472119156
0.667167703582554728
0.837166862075490403
0.853176807354046662
0.855631224998568696
0.00939829546118332165
0.00947996644990297885
0.0100623866711861236
0.00849446467913041528
0.00850290344164566364
0.00872440786353488595
0.0107036018160904193
0.0108761646649846583
0.0149105981977944689
0.0167141277299973252
0.0236085123440370505
0.0303132430149904951
0.040595994526613402
0.0541094603506866445
0.223075996237868668
0.775249555153476821
0.843236435413649343
0.850039046715349245
0.853154914925176922
0.0114782230570674576
0.0103425563392458321
0.0101331256780366353
0.0110324114554631036
0.00985224502304547778
0.00809842789158681312
0.00856622411270630685
0.0151789766645897238
0.0185872262197713592
0.0187590758157459153
0.0201905180635779252
0.0247020621086664338
0.0310962273353590571
0.0381747736460641279
0.0460395486038960786
0.0566542071598032104
0.198770404524411859
0.615874601191500393
0.829417245608854437
0.84705668720908367
0.850251520928749338
0.0123983513428309808
0.0169992110377916172
0.0173964440118154727
0.0119066906113856619
0.00793698894509056729
0.00898681617955680856
0.00951183208940435329
0.00862312000839072362
0.00865611950933154253
0.0129441183980486627
0.0168475203144189435
0.0282395382497668129
0.0668052693533372766
0.340427276680410063
0.804059240179047507
0.0158821146826166187
0.0120961688866384545
0.0182535803244737206
0.0216968771492376603
0.0123520200185832079
0.00782805865215230844
0.00831618156435972276
0.00880368988569329818
0.00891297755811621371
0.00917856163717785563
0.00712813494672037869
0.0581769805084862285
0.045620883404215537
0.0822959845925623767
0.824438917090335455
0.859603032167960412
0.00807708767028738478
0.00832054532942984315
0.00853829556659877961
0.00864859309180078528
0.00778584694054914542
0.00777670244686957859
0.00588462971639953664
0.0082292918303107053
0.00817015841005038629
0.0100742316569336788
0.00519649056435181333
0.174205839436415905
0.443214528961830223
0.210333076722629297
0.585433696355341704
0.857480040185343295
0.00839890074923293345
0.00844331325467586463
0.00886680419593056761
0.00932588155238582225
0.00948465923183039461
0.00827746952683654051
0.0085909180768751793
0.00924639406082499414
0.0106769087271510951
0.0141606560200295325
0.00983271032303143291
0.167913329137321349
0.475667547767090526
0.462784003343303996
0.233586431749099516
0.837342003704961813
0.00914625680150777873
0.00891589560772696604
0.00891593813638126217
0.00845264215289715307
0.0114089535682981753
0.0101831973681869477
0.00935981120991274951
0.00904915814350888345
0.00985212115708497364
0.010519935129984918
0.0138402886512805825
0.0179330919635411409
0.0257971732187748382
0.0373616081663052935
0.150305161516094105
0.591448818163336276
0.576569025967127224
0.317739588049314514
0.634247064304464425
0.0101279291054891217
0.00985352597338623112
0.00990937726007648165
0.00993328060055716222
0.0187771403525983371
0.0577744558376121625
0.0622404150241923845
0.0192572579615470502
0.0121653352541290904
0.0151554718489079233
0.019835579837866997
0.0272921360841027368
0.0436718853113998579
0.0612382326480282596
0.38238835748238087
0.564092208243103022
0.772208012948395917
0.783786944043080025
0.831930555585799758
0.0302018475513102583
0.0122522661475852352
0.0115038140907034511
0.0116148352367483176
0.0119967431926491404
0.00980964640667135457
0.0147693007701534193
0.0526644394989505757
0.0914344557919113399
0.0778639415308511607
0.0347980024290023698
0.0265558830288798384
0.0310098749337405083
0.0404274050779352967
0.0547178862689410295
0.0676422900931016174
0.24526442986686281
0.703656236199433849
0.753983738448836038
0.828596416665129176
0.846261929108432676
0.00738407862772276578
0.00653141834094629007
0.00611058909527446674
0.00600328183956088529
0.00603052870875521799
0.00627089533560775195
0.00761556619176624247
0.00863844244115187336
0.00991943889388030055
0.0103092832270318732
0.0111840709485805986
0.015012756991273031
0.0203309914431222365
0.0317904755329819627
0.461707607023302158
0.719265841037693976
0.00733378199607858435
0.00640491010978199923
0.00588164222094142257
0.0060626841333641995
0.00589793711489054653
0.00607608049762752012
0.00719841925216172483
0.00830406186465745648
0.0093839848745763503
0.0102942139934459817
0.0119431927238618039
0.0139858877431630856
0.020263248735664173
0.0295619712751843053
0.0655270541471500989
0.803862708224845735
0.0067889629207410606
0.00726084548900979721
0.00713264853352133139
0.00747462950995544159
0.00735373722646635603
0.00720261115249373925
0.00770089624995155386
0.00807851005701632277
0.00913004832938943758
0.0103857532754543444
0.0108717082651432675
0.0155958591589264416
0.0286513599462188198
0.0460353612722187652
0.085624553041010798
0.836890114997394741
0.00740136131225988328
0.00781846924999868471
0.00782481243822363316
0.00773949697845750795
0.00681137555236217135
0.00791293844003482065
0.00816063979214119543
0.00862495362175003631
0.00926523456353342892
0.0106246788459521593
0.0119532163963027849
0.0214803092825028331
0.147202476993481018
0.245516791114465588
0.170052057658252098
0.796794373920896914
0.0132144213034807827
0.00877813803006044155
0.00959066925255245076
0.00984060143006946185
0.0193430935920346665
0.0291031054146227673
0.0199389451428299003
0.0098666646887621938
0.00672244637119981305
0.00778270709709177194
0.00886041132685256097
0.0131891265354397141
0.0162657679079494383
0.025860797696255048
0.0431861859061813819
0.133304297869709099
0.312901977114794838
0.310722742018627374
0.640421295414670522
0.0155762931616698214
0.0112492119872071895
0.0124561446470959417
0.0131561463707685917
0.0280495343065555389
0.0786099966833146702
0.101014577627559249
0.118804197208673204
0.0532457829635002017
0.0508231866468815824
0.0153288663686088466
0.038276567634101144
0.0309729679757728242
0.0448121123078010358
0.0708011560349369323
0.099724858821105905