/*--------------------------------*- C++ -*----------------------------------*\
| =========                 |                                                 |
| \\      /  F ield         | OpenFOAM: The Open Source CFD Toolbox           |
|  \\    /   O peration     | Version:  2206                                  |
|   \\  /    A nd           | Website:  www.openfoam.com                      |
|    \\/     M anipulation  |                                                 |
\*---------------------------------------------------------------------------*/
FoamFile
{
    version     2.0;
    format      ascii;
    arch        "LSB;label=32;scalar=64";
    class       surfaceScalarField;
    location    "0.270000000000000018";
    object      alphaPhi0.water;
}
// * * * * * * * * * * * * * * * * * * * * * * * * * * * * * * * * * * * * * //

dimensions      [0 3 -1 0 0 0 0];

oriented        oriented;

internalField   nonuniform List<scalar> 
20390
(
2.89246916123932536e-05
-8.18380464442139446e-06
2.91247487141322976e-06
-3.59772584863228727e-05
4.40333652140762426e-05
-7.51450079419709602e-06
4.945745955687783e-06
-3.55068236931273791e-05
4.1036234362388408e-05
-7.67738826765158885e-06
4.35874480423753068e-06
-4.19877717735683554e-05
5.63702953348832892e-05
-8.2687381585008589e-06
6.45532049932134967e-06
-3.09813494912531106e-05
8.55124134480203307e-05
-9.97013656931164845e-06
9.75684978277721782e-06
-5.40745816540085317e-05
0.000128149221578349021
-1.11617434132974238e-05
1.02935125594197727e-05
-7.4433132325411747e-05
0.000149696177528658737
-1.20623681954929688e-05
9.50450843610086121e-06
-8.06985306853093146e-05
0.000170406523050739908
-1.19689755963890491e-05
8.2455651765395966e-06
-7.69548964146093257e-05
0.000225858702083198712
-1.31113056854031652e-05
9.87837822236983505e-06
-8.4118147224563185e-05
0.000270392397943604442
-1.3667405915298149e-05
1.758296620917267e-05
-9.42894183035670281e-05
0.000292226929065530106
-1.35953849661398945e-05
2.70123485769709087e-05
-9.26717543069417856e-05
0.000301574974389740859
-1.28051470722515248e-05
3.82900009870238859e-05
-8.99157905718911638e-05
0.000299497739599956009
-1.1726452142328075e-05
4.38667228885718003e-05
-8.50438096986354838e-05
0.000283146433793572368
-1.06648521359945233e-05
4.65088088320017982e-05
-7.76635930874857577e-05
0.000261883010015815298
-9.23033141456443839e-06
4.72664540044415559e-05
-7.06142278256633355e-05
0.000236747255277782137
-7.91727447326661509e-06
4.47341165977102286e-05
-6.28766853237919233e-05
0.000209134080980467727
-6.86797479217104747e-06
3.99516447710736677e-05
-5.51666960933046066e-05
0.000183950410562154449
-5.81138264877156116e-06
3.38269212627410724e-05
-4.71909776980249167e-05
0.000166746125872011713
-4.98699062787217866e-06
3.01735522228787839e-05
-4.1056967186801346e-05
0.00014941240422138889
-4.37412599367460915e-06
2.80101904161245298e-05
-3.67144955717157453e-05
0.000129608691118538371
-3.94200382463215087e-06
2.53330023598788968e-05
-3.35830207222210245e-05
0.000110293899896650208
-3.40046121098768742e-06
2.20892509250604453e-05
-3.00834011965516441e-05
9.28315711189471441e-05
-2.88372274251990939e-06
1.90070942841383879e-05
-2.49953766386755331e-05
7.86568202940793803e-05
-2.34334802563928976e-06
1.78623146531132023e-05
-1.95112724583642366e-05
6.42920618194671889e-05
-2.1295224643242229e-06
1.52245166051777089e-05
-1.66694529597824809e-05
4.98573108984183452e-05
-1.89146558871536561e-06
1.25947494375136615e-05
-1.34796449744869833e-05
3.90371836241358203e-05
-1.56952350812579975e-06
1.03727890078667168e-05
-1.07977800227664487e-05
3.11995914489631126e-05
-1.2282909000858834e-06
8.23624774635763616e-06
-8.62519896480252906e-06
2.57466602627443475e-05
-1.002577939557428e-06
6.63903202654852097e-06
-6.9987895254524755e-06
2.02681986538152432e-05
-8.58225498773337432e-07
5.60525820451527125e-06
-5.73760074388122319e-06
1.47382237383044509e-05
-6.97465974252109316e-07
4.34532975128847714e-06
-4.40995988870485031e-06
1.2098868248957306e-05
-4.23495274629552959e-07
3.27344347671456422e-06
-3.42895639345001485e-06
1.0008595560780098e-05
-3.15750841290716198e-07
2.70354607059928859e-06
-2.80926685651328967e-06
7.47350621705262499e-06
-1.26481523689875219e-07
2.11210854735696833e-06
-2.19909554012482826e-06
5.83373544000928132e-06
9.93942129157867419e-08
1.57077358656146846e-06
-1.78248078078248526e-06
3.10555878715066267e-06
3.54311238300942275e-07
1.46662439024426337e-06
-1.58748566273092879e-06
1.0983955192290414e-06
4.81636664021395085e-07
9.53605256317506671e-07
-1.08484164811537908e-06
5.65996837107489672e-07
1.07440661074785649e-06
-1.3393439562075212e-06
3.298830013939512e-06
-1.93664896909259727e-08
-3.86936408747601592e-07
-1.21955517792503841e-05
6.70214286171055742e-06
-1.26497069250986614e-06
-2.01598562957435986e-08
-9.57000053306096095e-06
1.53156969041786032e-05
-4.76732787636044553e-06
1.487873973498958e-06
-1.35869280142746399e-05
2.24279474150788102e-05
-5.81745409082464407e-06
3.89007115530715522e-06
-1.4113364908688219e-05
2.84491022903071093e-05
-5.35036437729237577e-06
5.03132014398160988e-06
-1.6526240066334471e-05
3.18824247219522193e-05
-4.80460985570183666e-06
5.27802788055690683e-06
-1.63952384673420997e-05
3.29000877285258938e-05
-4.34620138514592285e-06
4.80331808134995005e-06
-1.48648017784349962e-05
3.30646398182323517e-05
-4.23409747879498129e-06
4.39654280694173189e-06
-1.39029610718951559e-05
3.25763703431386102e-05
-4.30655759688776963e-06
4.28852695288372815e-06
-1.44001627441327429e-05
3.1557382401887414e-05
-4.21484313570527198e-06
4.44318651645500903e-06
-1.46872686906181288e-05
3.04271840366146341e-05
-3.94108766030796082e-06
4.54765507592402938e-06
-1.45362744513503597e-05
2.8877667289480841e-05
-3.44572893544145825e-06
4.68057056749691123e-06
-1.37053939875253624e-05
2.70456076518190086e-05
-2.89792695211483159e-06
4.91161250383107892e-06
-1.28688921521851843e-05
2.4822935811433262e-05
-2.47741711105461935e-06
5.27200274626097603e-06
-1.19026235991642049e-05
2.21962882387239645e-05
-2.02924609527797378e-06
5.64271614408474935e-06
-1.06920754131496073e-05
1.95559384350609068e-05
-1.61737969373048745e-06
5.45441358668580846e-06
-9.46865985178613617e-06
1.70941936135720668e-05
-1.33234119829432011e-06
5.10203966451341834e-06
-8.46866465176875155e-06
1.48861138440086587e-05
-1.12376170392303365e-06
4.74100815927374206e-06
-7.48053159483080447e-06
1.28838079037543656e-05
-9.64061635323504613e-07
4.28582601662405411e-06
-6.57956779392106874e-06
1.10701258119813968e-05
-8.26938132204338353e-07
3.89484606351864873e-06
-5.86249499820327525e-06
9.41064332365927695e-06
-6.98050828812985366e-07
3.51315940517744377e-06
-5.27318997746870243e-06
7.91937303791864817e-06
-5.68567425694852194e-07
3.13794318905061395e-06
-4.58773185621538319e-06
6.5669788232285184e-06
-4.60770011964529708e-07
2.79620527978246426e-06
-3.93670377752375052e-06
5.53871636667445282e-06
-3.63680562005752636e-07
2.48102484250198577e-06
-3.43596765984630482e-06
4.7742488046519625e-06
-2.86529576496480907e-07
2.13549048474564133e-06
-3.06316852995085402e-06
4.15228497164039232e-06
-2.53181679767068481e-07
1.78734443732987038e-06
-2.51110989005512286e-06
3.74593852313073157e-06
-2.31618156227717436e-07
1.42887980018028502e-06
-2.11698895015929954e-06
3.6343072936783427e-06
-2.03086319353343091e-07
1.09519832992112216e-06
-1.882314894360054e-06
3.45441711182108519e-06
-1.89571558004583596e-07
9.45925624248282624e-07
-1.67024719310879471e-06
3.18095519751787988e-06
-1.75387820349448807e-07
8.31650899702807897e-07
-1.4685128654691711e-06
3.0062689529794576e-06
-1.73470846015427569e-07
7.35013611934020992e-07
-1.32979830002145676e-06
2.84859446421341796e-06
-1.45105466250370364e-07
6.98748974425994221e-07
-1.15243533520613238e-06
2.51340669685719574e-06
-1.10815263904000232e-07
6.26939373385419555e-07
-9.73773827367341807e-07
2.35957551210211187e-06
-6.54989850337400966e-08
5.40719046335094513e-07
-8.82301227753642598e-07
2.10310691148749119e-06
-9.88542237197521464e-09
4.55303524684911985e-07
-7.20260156698621448e-07
2.24555600031387716e-06
2.28865860704422114e-07
4.30852153158828628e-07
-6.30325362857512668e-07
1.73767735333513495e-06
6.18498468089544764e-07
6.76358757364270536e-07
-8.87798207324139871e-07
1.3211082910710172e-06
1.05443865243139774e-06
-1.21949272229128722e-06
6.69779428915012628e-09
-7.17194291373420047e-10
-4.04849208935249603e-08
2.18081152774287999e-08
1.16973940205498281e-06
-7.31611155706211528e-07
-1.6323747472069623e-08
-1.65956660039937448e-06
5.36794885010585017e-06
-1.68965418528883255e-06
4.32221506853973269e-07
-7.81527683111760531e-06
6.28071616931538208e-06
-1.56675627895479627e-06
1.14775445662833222e-06
-6.31582805249773632e-06
5.81103310198639998e-06
-9.32447473591657179e-07
9.41128142400848807e-07
-5.10726867448969079e-06
5.26672126843059976e-06
-7.44907049613160805e-07
7.51525041192341083e-07
-4.60877182628963265e-06
4.99812266141366759e-06
-8.8505660535928515e-07
6.83128099083555502e-07
-4.35132006585098054e-06
5.01626643677141022e-06
-1.09365002501616635e-06
6.65753602330195551e-07
-4.39132112011028555e-06
5.15349186455182164e-06
-1.14222769472684631e-06
7.31854562872744484e-07
-4.61363712941965874e-06
5.06297481857544664e-06
-1.02348083047994512e-06
9.03444183497929458e-07
-4.53255541913053009e-06
4.48478530362408157e-06
-8.04940075363260152e-07
9.75471102589269823e-07
-3.93071837266304009e-06
3.79873728187094614e-06
-5.88376474467378327e-07
9.71690979200991752e-07
-3.36972538821475704e-06
3.09772427487923859e-06
-4.54725672701379246e-07
9.33843922582863636e-07
-2.84300985661449689e-06
2.49084461352176413e-06
-4.27986970280411346e-07
8.70520792105490545e-07
-2.4912785130400859e-06
2.06461232496842878e-06
-4.39405687375262979e-07
8.70978310211038145e-07
-2.23005903655198267e-06
1.8220264822246952e-06
-4.36479767044241487e-07
8.6927334240664649e-07
-2.01212575686525476e-06
1.66878271941529783e-06
-4.0362909225547367e-07
8.67290995015359449e-07
-1.84242297852046814e-06
1.5284349617622508e-06
-3.49848673339329846e-07
8.33275142750538068e-07
-1.65520182861176204e-06
1.37383901752216263e-06
-2.84648254256110064e-07
7.48996929882036293e-07
-1.43781122874724091e-06
1.20489821424592752e-06
-2.23549175706808851e-07
6.49944461086549765e-07
-1.22162248009912202e-06
1.0330964732712366e-06
-1.64182950414432613e-07
5.4672535933294099e-07
-1.01044542636131813e-06
8.73596649760970596e-07
-1.13426176713453498e-07
4.45446227869730022e-07
-8.13364443081068672e-07
7.31272857475979891e-07
-7.57640606053559139e-08
3.56137067921910778e-07
-6.51410160910886135e-07
6.05999684320659058e-07
-4.80216207712288084e-08
2.75182349512654625e-07
-5.22408749419542981e-07
5.08018232024514097e-07
-2.87786497817747428e-08
2.02892283131093816e-07
-4.1989923910417514e-07
4.15416633047475521e-07
-2.17165076915134764e-08
1.52431490564093768e-07
-3.4421768139363511e-07
3.39946445862935506e-07
-1.60230280981822984e-08
1.12124676067671324e-07
-2.8328607648866961e-07
2.83405052972388125e-07
-1.13347311299189976e-08
8.41737344749750332e-08
-2.28603473373674164e-07
2.40452256095439639e-07
-9.1434574150430154e-09
6.51480795754608874e-08
-1.87235632552612538e-07
2.10058813426763149e-07
-8.10126790720626374e-09
5.38146470219133238e-08
-1.54541038809182499e-07
2.00989295287292174e-07
-8.38280063545458463e-09
4.92431692433901832e-08
-1.21009754510089889e-07
2.13588889193083134e-07
-5.76929450894641806e-09
4.95532119889502916e-08
-1.10603701909352698e-07
1.94911949187505638e-07
-1.77743178822710094e-09
3.86517672176381769e-08
-1.07337157979341549e-07
2.06900966185097759e-07
-1.07300554885211694e-09
3.20547750250351664e-08
-9.84313053101106049e-08
3.11934630117922367e-07
2.24913854016010707e-09
4.37487122638792158e-08
-1.10417252834275363e-07
6.04447551917100571e-07
7.29640906081147839e-08
1.4936393351012801e-07
-2.82020498258243709e-07
8.67193880108503509e-07
3.77014311303859868e-07
3.8878922462704697e-07
-5.60265597918851061e-07
1.40348804345591434e-06
8.80393551395760237e-07
-1.09053361352762766e-06
7.54381049174380286e-11
-1.08713733030251037e-10
-1.12720981472051964e-09
7.21088263058447109e-10
2.08311369185616239e-07
-1.06928937537674266e-09
-1.43545993238414755e-09
-9.14217347298006415e-07
1.80715941146337448e-07
-4.20872696180063933e-09
-2.12261771835252385e-09
-1.65156277960471521e-06
-4.298321800529903e-08
-1.32755130330295232e-08
-1.78083516193403448e-09
-1.31719931760335599e-06
-8.23605389024421075e-08
-3.89827081970476687e-08
-2.4868371057074275e-09
-8.5887999863868393e-07
4.16450546580814802e-08
-1.29075541030527583e-07
-1.59281428080817598e-09
-7.82174737219681118e-07
2.491124910917816e-07
-2.69716116492139379e-07
2.79316263940750657e-08
-9.54454140418122154e-07
3.97791127920671479e-07
-2.9215950595203284e-07
1.03167583361920976e-07
-1.20736936178785182e-06
4.14380969365736124e-07
-2.18767544661479373e-07
1.5472105398270365e-07
-1.23041369016876031e-06
3.37146479292853499e-07
-1.59587849689576319e-07
1.90774594529277453e-07
-1.0858251135633419e-06
2.42536869115255586e-07
-1.23062343298452556e-07
1.97903190920500585e-07
-8.74780153784528455e-07
1.99637738418635347e-07
-1.14314987510175204e-07
1.83702169919540361e-07
-6.97263441878299712e-07
2.20948081030187728e-07
-1.27280485876765152e-07
1.71979840957358682e-07
-6.11781922771295364e-07
2.78902122574090355e-07
-1.45397057263152315e-07
1.72646627879636457e-07
-6.16396133214897541e-07
3.35294963896823116e-07
-1.54583702439366532e-07
1.90136386282687664e-07
-6.43061182171136272e-07
3.62684675626475183e-07
-1.44675159505434206e-07
2.05969719801639205e-07
-6.30068887905579669e-07
3.56743441683220314e-07
-1.18994974432822348e-07
2.01834621915827066e-07
-5.7451467935973527e-07
3.26666709762840969e-07
-8.64354127340458113e-08
1.8118306020937791e-07
-4.95761470592572893e-07
2.81194337252432072e-07
-5.40719284220361045e-08
1.45991798938799554e-07
-3.99200781874788843e-07
2.3608041660622694e-07
-2.89572271105775725e-08
1.02217327380205816e-07
-3.03854994737065381e-07
1.98098141779093904e-07
-1.12847887310366292e-08
6.87537869284270822e-08
-2.2784111550569863e-07
1.60817780782890134e-07
-2.0667109384824076e-11
5.84015794536360493e-08
-1.72530148814915977e-07
1.3414677532031093e-07
-1.07692677607089049e-09
4.87659291229574287e-08
-1.23744442316658703e-07
1.16622270211308618e-07
-1.51909171861465051e-09
3.919015197600503e-08
-9.50238782081852122e-08
9.77797751949462711e-08
-1.46564007951828626e-09
3.29105664113511052e-08
-7.52203882796915224e-08
7.65548135561448623e-08
-1.16455782213741378e-09
2.70829692869558913e-08
-5.85005684219705559e-08
5.97731126030775964e-08
-9.32733878762294881e-10
2.08486577158282751e-08
-4.50553039523185762e-08
4.78644885903959612e-08
-7.80533361632400477e-10
1.52949992066924821e-08
-3.40117682767746785e-08
4.02558008873221049e-08
-5.82805182422323161e-10
1.24778492922125735e-08
-2.66234131733109172e-08
3.3105486508773854e-08
-4.09385850902545338e-10
1.023855885795746e-08
-2.11932484183298853e-08
2.66407720967595649e-08
-3.62211653163664379e-10
6.98344214120631228e-09
-1.84199325495326062e-08
2.12301342637965449e-08
-8.01362212678969101e-10
5.11899740941337183e-09
-1.53893842187790841e-08
1.90859086073163599e-08
-8.34862896856802019e-10
4.3152188373720957e-09
-1.14601831428411912e-08
2.08177631265331652e-08
-9.07166130086160589e-10
4.1791033136282882e-09
-1.034511580324428e-08
4.35666567364025284e-08
9.31119329157490593e-10
6.18644158160063047e-09
-1.53237052892204362e-08
1.44430006637944716e-07
1.74135417457808412e-08
3.26344204179155223e-08
-7.25621501636947548e-08
3.52977405815815268e-07
2.18088834831778541e-07
1.91655859484819183e-07
-3.00231439878832908e-07
1.14082763127601025e-06
6.68428730412511249e-07
-8.96169259156226832e-07
-2.95211007598398767e-10
-3.63306309526083473e-12
-9.8435724291001776e-11
3.15882761713924423e-10
-1.21840219417017759e-09
-7.73367723530192165e-11
-2.48431501986090224e-10
2.92522792184704104e-10
-4.84351991744776803e-09
-3.85741330189483487e-10
-7.27698371471264856e-10
5.61875491056613318e-10
-1.79069106369733363e-08
-1.45972098894042182e-09
-1.19160237781921271e-09
2.63866707654616005e-09
-5.93706584966301734e-08
-4.03169992107240503e-09
-2.21932070240978346e-09
7.95426027814643073e-09
-1.18885604311574362e-07
-1.61585823984438998e-08
-3.37380438798853579e-09
-5.21601218461757903e-08
-1.13677995299538977e-07
-3.43304061612969975e-08
-2.30009684314726293e-09
-2.54347638875274885e-07
-9.39102543788888819e-08
-3.73398273723556869e-08
1.37607091874853644e-08
-3.0968468968022354e-07
-7.00830727419937839e-08
-3.49888287250146893e-08
1.982912901977766e-08
-2.51258153504285312e-07
-4.54527387379936276e-08
-3.29065906927855077e-08
2.3262510126324294e-08
-2.02052861272789331e-07
-2.29924195668263878e-08
-2.94327174411484657e-08
2.4025293136501099e-08
-1.68891517703387352e-07
-2.35459382529055982e-09
-2.87122447666940172e-08
2.39738676868283888e-08
-1.6085901896900819e-07
1.78811880426991527e-08
-3.10452416215584794e-08
2.53138971769165435e-08
-1.7558525936764444e-07
3.71031382225396981e-08
-3.23738449668236545e-08
2.69566899374889634e-08
-1.96366190238170842e-07
5.02772908150250022e-08
-2.76312454692538405e-08
2.90899239637314521e-08
-2.08481104809900167e-07
5.26862171844614014e-08
-1.90668749319020098e-08
2.77493868402096004e-08
-1.92703694518999829e-07
4.82769487064148233e-08
-8.93776292147254252e-09
2.30137017445787842e-08
-1.59162053534878635e-07
4.00601444629648053e-08
-6.18281435161862306e-11
1.67212637732711501e-08
-1.19614058130479152e-07
3.30295306668257689e-08
-8.18499923591513242e-10
1.43735592667659777e-08
-7.83054337393591061e-08
2.89953160515245417e-08
-1.19629184099781343e-09
1.21460576764614973e-08
-4.91597398951506632e-08
2.75239372297167434e-08
-1.16535208129397649e-09
1.22951112440213339e-08
-4.11781674459679589e-08
2.30967370854975143e-08
-5.73045787796480042e-10
1.19925286582474867e-08
-3.29914461330777804e-08
1.70187903503495568e-08
-8.40631575412875526e-10
8.93350246310051283e-09
-2.42535746599812552e-08
1.35102736152595544e-08
-1.1439937401859438e-09
6.63526314945208701e-09
-1.78432654889550146e-08
1.06836013799548034e-08
-1.3140698852113829e-09
4.61121531610909415e-09
-1.38701854128665039e-08
8.17801129577384902e-09
-1.29941272333828949e-09
3.24899602258840685e-09
-1.15556185434033515e-08
5.95657819674651457e-09
-1.03995710961574415e-09
2.200433982326773e-09
-9.56647778780259275e-09
4.5362123146553077e-09
-8.09502492933914377e-10
1.52431570755048978e-09
-8.20297265153949672e-09
3.53829977938122995e-09
-7.0607889980655406e-10
1.22546422853354262e-09
-5.66593437530636396e-09
2.73601186273356553e-09
-6.02314647298919873e-10
1.09396419841365526e-09
-3.69576622092628767e-09
2.0416271243156429e-09
-4.69376617665015877e-10
9.34837050746304e-10
-2.83372479650571601e-09
1.55084184608120265e-09
-3.55571606829476972e-10
7.42329525483846492e-10
-2.26486027617262453e-09
1.3072884611183363e-09
-2.88480215138594884e-10
6.77956652355978686e-10
-1.92859048332304749e-09
1.24184807923631805e-09
2.82250643376257497e-10
7.82736397487413059e-10
-2.00461228932328709e-09
3.27791337468923046e-09
1.65961831038974768e-09
1.75470339426523002e-09
-3.74059789460378247e-09
2.48978984020367765e-08
1.28553440034854302e-08
9.24640873472722765e-09
-1.9873362215460583e-08
1.00222306562471045e-07
1.76402287020829945e-07
1.05842435703101316e-07
-1.59022670648587237e-07
8.71026440593076682e-07
5.04304698702248313e-07
-7.2893583401815053e-07
-1.07001664376565518e-10
1.07031754887507866e-11
-2.72589939890826981e-11
8.32313840088931131e-11
-3.18260222341999873e-10
4.14102223346003428e-12
-7.27628194515841155e-11
2.61308248559455617e-10
-6.95701784619636067e-10
-7.26571915389794341e-11
-2.22004376673462694e-10
5.29083376772326008e-10
-1.65703994754947173e-09
-3.58985667479088773e-10
-3.91961880545683563e-10
1.04023418637898759e-09
-4.99673687202654884e-09
-7.89783490514346666e-10
-5.99909730944447719e-10
2.37455379903480948e-09
-1.68149554933304123e-08
-2.30832549214109953e-09
-7.09267911596238416e-10
6.62829015682024303e-10
-2.24552796074224915e-08
-5.62079972934095347e-09
-6.18347370458939859e-12
-2.23124930795062346e-08
-2.16165355661568666e-08
-6.85337476649220933e-09
8.82732192330938352e-11
-3.20219639358518943e-08
-2.09737277067922387e-08
-6.73552760802696301e-09
4.89362636073761091e-10
-3.19770307706856313e-08
-2.00933919284616644e-08
-5.802897813014952e-09
7.97232774789291871e-10
-3.3249078327506494e-08
-1.83118942481417113e-08
-4.2292631327962055e-09
1.77253127872021572e-09
-3.54023925922260551e-08
-1.61490389814535754e-08
-2.82431987619583845e-09
2.57849953690547654e-09
-3.91639245146035858e-08
-1.34728074385448355e-08
-1.60027446191925125e-09
3.24557675452743088e-09
-4.54998472177002967e-08
-1.00392565075387442e-08
3.11079035808173726e-12
3.81958089436181869e-09
-5.07086147571458807e-08
-7.04942304555815342e-09
5.96923024736482461e-11
3.97639778960422873e-09
-4.53983363217500991e-08
-4.60628223948918949e-09
2.28566599890330553e-11
3.87531916959991056e-09
-3.46427646390042152e-08
-2.55755163846797133e-09
1.95338713810761641e-11
3.61501087396129956e-09
-2.03363308049904705e-08
-1.36152232308573365e-09
3.80495487913420412e-12
3.22678609304904681e-09
-1.33803250538229806e-08
-5.63905210110411068e-10
3.5590562764005189e-11
2.78482363198958542e-09
-1.0595702207766467e-08
-1.42671689340355634e-10
-7.77218899569778805e-12
2.28011188031335835e-09
-8.12579098503559861e-09
5.65745254290075696e-11
-1.70959001519512369e-10
1.86915256491392157e-09
-6.7658882340735761e-09
1.36256241661130539e-10
-2.1610350548168889e-10
1.44265422548802548e-09
-6.67205679153334324e-09
1.47895018464418985e-10
-1.8091133069775681e-10
1.12211408460312315e-09
-5.9038936377739193e-09
6.84791021258677352e-11
-1.80324601266952087e-10
8.38167470124791374e-10
-4.4758337113077035e-09
-5.47584870261795482e-11
-2.39787741438640141e-10
6.16535019755102806e-10
-2.85503814147224675e-09
-1.79583306040035461e-10
-3.47860955079545814e-10
4.4361154267655232e-10
-1.75164173961265764e-09
-2.74786443600851367e-10
-3.37504794070058669e-10
3.29038145319394588e-10
-1.16787590253389848e-09
-3.46863378762306443e-10
-2.62813675382519726e-10
2.64817013793238314e-10
-9.1742189926021475e-10
-4.6627197839061808e-10
-2.13793483463167344e-10
2.31828250695273662e-10
-7.86170675813466985e-10
-6.19531405663704167e-10
-1.8987418739638113e-10
2.29787767578122578e-10
-6.95989468309481686e-10
-7.81210991675494241e-10
-1.58718680783305153e-10
2.05850609100480422e-10
-6.30733199467072491e-10
-9.16862890524771163e-10
-1.13533319887751615e-10
1.73079622385124423e-10
-5.56325357562076524e-10
-9.57090095894828849e-10
7.31953691799867711e-11
1.64060304854151322e-10
-5.48911090614458727e-10
-9.04983143782855594e-10
7.0287762294981654e-10
2.86357012381061262e-10
-6.92222494262936335e-10
-5.56786129056534155e-10
2.39282322537434535e-09
7.97647382114880841e-10
-1.4896010477869635e-09
-5.96701680118584876e-10
1.78279058383154152e-08
5.49800309786704199e-09
-8.54234291964120821e-09
-1.14124359010851136e-08
1.95947795584066142e-07
7.59194440207636518e-08
-9.98611692716692487e-08
5.09662767395684563e-07
3.19489240271831832e-07
-4.77859545157069987e-07
-7.38207994802795065e-11
2.08470286015192673e-11
-1.43913466784912783e-11
8.03841732141107866e-11
-2.83857653964974735e-10
2.58193436130012147e-11
-4.4984738638159326e-11
2.59047847079382408e-10
-4.45236656749057062e-10
-3.31101141346272338e-13
-1.39710069216314098e-10
6.25723128375526228e-10
-6.69358938685437525e-10
-1.01742148491707797e-10
-2.5200073359042424e-10
1.00828784390413071e-09
-1.33932957056331342e-09
-2.06833130717628252e-10
-2.73843884950164069e-10
1.13127929500255238e-09
-2.9753808981191865e-09
-3.59979943277857936e-10
-2.54330805090979277e-10
3.87149492429826769e-10
-5.82396731583101029e-09
-9.62308313995520461e-10
-9.42066200227114497e-11
-1.36383822252333064e-09
-7.59604212825479153e-09
-1.12665175664246067e-09
-1.0300028679946854e-10
-3.70717589865233744e-09
-9.29640002711306253e-09
-8.59414720705079208e-10
-2.12907806349250109e-10
-4.36223938383886845e-09
-1.05837995497270623e-08
-2.71602922565043087e-10
-1.0419463640404603e-10
-5.14771321409985808e-09
-9.92193485816499661e-09
1.26367519534463645e-10
1.423283847268903e-10
-6.80675759275952663e-09
-8.8734757038603532e-09
2.18338938752222475e-10
3.21948514309824963e-10
-6.5583307471193926e-09
-7.2240700864786078e-09
1.80363254926625005e-10
4.76018227086359018e-10
-6.36010871224675087e-09
-5.66570676904907209e-09
1.09239052446554563e-10
5.67412453957612929e-10
-4.31914860165485907e-09
-4.63420931400912677e-09
9.35400998319839791e-11
6.32624430482462831e-10
-3.92024466075246529e-09
-3.74289830491522615e-09
1.06744278811618539e-10
6.4964619735947855e-10
-3.74872434666376387e-09
-2.92824845675717764e-09
1.20621096113833292e-10
6.38735200673182877e-10
-3.3320841052757261e-09
-2.29933928350128445e-09
9.3437337437618504e-11
5.77652578410613069e-10
-2.80047322859892568e-09
-1.79087278369936885e-09
1.02376910329136303e-10
4.66635522000119053e-10
-2.41633114225652615e-09
-1.40840426178042828e-09
6.31045154177540969e-11
3.9525279761822185e-10
-1.88167886241939984e-09
-1.14851904135719074e-09
7.43486895682079078e-12
3.26385570131982365e-10
-1.4836646770269954e-09
-9.6367130527361518e-10
-2.7929539128397249e-11
2.60439351340612014e-10
-1.14091041247226657e-09
-8.11698386601425844e-10
-2.8302671995576897e-11
2.15201290219368659e-10
-8.28451948984293934e-10
-7.05374234895629205e-10
-3.78647404453025838e-11
1.7100791645454792e-10
-6.14719608441663528e-10
-6.22623273287127406e-10
-6.55087805569316675e-11
1.32386684641630889e-10
-4.45551232129755444e-10
-5.90997049899116656e-10
-1.0339287376568161e-10
9.55022421654924564e-11
-3.19967565886466965e-10
-5.89190968665715577e-10
-8.61630757631877886e-11
7.72587847602627051e-11
-2.59890707220065865e-10
-5.63972556702342948e-10
-7.56758240142591046e-11
6.55314379863228612e-11
-2.37429998190573198e-10
-5.84264363055850329e-10
-6.03729754274473771e-11
5.95673075120766632e-11
-2.06741788412810895e-10
-6.29986850965503349e-10
-6.42153126683093513e-11
6.23501025700960227e-11
-1.92363676319582804e-10
-7.3137860813868007e-10
-6.15553941674958626e-11
5.79183726375901918e-11
-1.80590306288174735e-10
-7.66888045948548381e-10
-2.86908813277730234e-11
5.49709289833841049e-11
-1.80290350106282227e-10
-7.53847153741936953e-10
2.97392634686968744e-10
7.53519576172655303e-11
-2.01165235079287857e-10
-1.01821584720917341e-09
8.25011699080147088e-10
1.46035048198232779e-10
-3.54132523525989093e-10
-9.84914956067319945e-10
2.99697123316738762e-09
5.58272299692892536e-10
-9.60498197493276497e-10
-3.39958223567561723e-09
1.94890123370479462e-08
4.49915817781441652e-09
-6.30170675460855897e-09
-3.09646624386213387e-08
2.16626107709617245e-07
5.80433937590295545e-08
-8.27011522658742083e-08
4.04784247217033667e-07
2.25559227574748877e-07
-3.14769006368631756e-07
-7.10745648324358634e-11
1.4545676807478357e-11
-1.17659203321323242e-11
9.49613869581074187e-11
-2.00911877612485625e-10
2.17077381233838061e-11
-3.47171938120781096e-11
1.99984336726215683e-10
-3.51340381251544932e-10
1.72365779328317118e-11
-1.12693932271980833e-10
4.18242655276995939e-10
-4.6066521683307774e-10
-3.59183104867176581e-11
-1.72114550288449296e-10
6.99483761873478316e-10
-5.61013119924667474e-10
-7.26561725483692781e-11
-1.5616359957582852e-10
8.48063187817616519e-10
-9.99841220763874608e-10
-8.50424575477404557e-11
-1.00165715379602789e-10
2.82673430875541825e-10
-2.04787501783369329e-09
-1.50286391252473149e-10
-5.37768371308713179e-11
4.3234228567479184e-10
-2.82479258930094954e-09
-1.15630241311499865e-10
-2.57737654323812979e-11
-6.71621288675917374e-11
-3.50426948723544198e-09
9.5077629555740381e-12
-7.48807612298282662e-11
-6.41578278064746086e-11
-3.39284867536337581e-09
8.72687457327709403e-11
-7.7626949894270929e-11
-4.40253452887576747e-10
-2.94848884087286975e-09
1.20496170755234197e-10
-1.54558530478576664e-11
-6.53847113761592793e-10
-2.48674682609011997e-09
9.3551061006187687e-11
3.36753841434084754e-11
-7.88539342926027138e-10
-2.11149852494255183e-09
5.83428912782926618e-11
7.13761553267134396e-11
-7.92845800961398538e-10
-1.80114065460213974e-09
3.94021743977681399e-11
9.6873636352490936e-11
-7.9869750201573676e-10
-1.5302785635617628e-09
3.1087773354084025e-11
1.13852139157096733e-10
-7.80781576399746194e-10
-1.29279953063901884e-09
2.94084014896057161e-11
1.23797130721452518e-10
-7.33935150436351686e-10
-1.08006528601337314e-09
3.07362704159103999e-11
1.21965791751101555e-10
-6.56217417346702503e-10
-9.02891944046311575e-10
2.93640322676744866e-11
1.12547980144610854e-10
-5.50304364644515676e-10
-7.65647687354396179e-10
2.02742632831046296e-11
1.00518195489096623e-10
-4.80528549070346751e-10
-6.58160927181812648e-10
-6.61813642064798779e-12
8.4525973451765583e-11
-3.6530151210186741e-10
-5.75410168652084184e-10
-2.74783877897975656e-11
6.94645946672296936e-11
-2.82587818060638825e-10
-5.05133757267976076e-10
-3.19084668005795723e-11
5.83149327588783518e-11
-2.21501693550886493e-10
-4.40906868879470997e-10
-2.66981434006189669e-11
5.07302292749099468e-11
-1.80068139895125199e-10
-3.94008922079987696e-10
-2.76647686401065801e-11
4.22041339872435071e-11
-1.47533888457512125e-10
-3.55365833737799044e-10
-3.53529992515895217e-11
3.32377582867478636e-11
-1.11547063121476213e-10
-3.4490971844096327e-10
-3.19208625889019036e-11
2.74990510312399979e-11
-8.66105923837073254e-11
-3.40704964827916305e-10
-2.59231831369939904e-11
2.38059488240686557e-11
-8.10945987722170259e-11
-3.28955306076305639e-10
-2.43585402521632092e-11
2.06893297518247452e-11
-7.40747521713574811e-11
-3.34541043678431751e-10
-2.13443191207140012e-11
1.96198387275975432e-11
-6.70407956357595631e-11
-3.63057373612614292e-10
-2.58621773271768526e-11
2.09798761650513553e-11
-6.48581896658113148e-11
-3.85002559393247918e-10
-2.25830984484203287e-11
2.20174461667737101e-11
-6.58390812440212097e-11
-3.95956959325711573e-10
8.78601386560603211e-11
2.66370117086779986e-11
-7.10054310952674264e-11
-5.3571448935071838e-10
3.15271874708056546e-10
4.90650128365851144e-11