/*--------------------------------*- C++ -*----------------------------------*\
| =========                 |                                                 |
| \\      /  F ield         | OpenFOAM: The Open Source CFD Toolbox           |
|  \\    /   O peration     | Version:  2206                                  |
|   \\  /    A nd           | Website:  www.openfoam.com                      |
|    \\/     M anipulation  |                                                 |
\*---------------------------------------------------------------------------*/
FoamFile
{
    version     2.0;
    format      ascii;
    arch        "LSB;label=32;scalar=64";
    class       volScalarField;
    location    "0.270000000000000018";
    object      alpha.water;
}
// * * * * * * * * * * * * * * * * * * * * * * * * * * * * * * * * * * * * * //

dimensions      [0 0 0 0 0 0 0];

internalField   nonuniform List<scalar> 
7236
(
0.139718786270911249
0.182190934406078642
0.205077400924657205
0.12085023514769877
0.193216469382553574
0.232939124541378384
0.348730897445265697
0.340710348245620354
0.315226923132235104
0.352689088947397145
0.448240007265300888
0.469256249258649616
0.474735188032707645
0.475467989304848015
0.440196803097135825
0.398211783721125312
0.362242698158014798
0.316751079003670666
0.26605868869591065
0.241829095108965386
0.228361788397035137
0.198283932020674014
0.164562309287720171
0.123965108022429327
0.11145544003449756
0.0988656698952680851
0.0747707405717191465
0.0535814924942785639
0.0410745687570026607
0.0367793939318658697
0.0308312369399225406
0.0179697063270739532
0.0147715936723275022
0.0131284824561136056
0.00833848586876883777
0.0106284501689662431
0.006938237945455214
0.00340987692990080919
0.00678477313423960469
-0.000151342940053525747
0.00227370702297842887
0.00601400036462833298
0.00952618264058096263
0.0123997364797440168
0.012974311236935359
0.0136386167179062667
0.0138544262987044028
0.0130443421079291834
0.0106536917229990875
0.00888556998012759655
0.00743629116527574473
0.00590853651616569768
0.00484292151095742744
0.00410470519354298041
0.00360788614098656122
0.00321776762746185403
0.00296706336182642628
0.00261933523636715673
0.00230991039127042674
0.00185796740356612006
0.00154089458621586633
0.00155693742977657413
0.00142834109282774274
0.00180733125146498958
0.00217149511117364956
0.00265982200648179129
0.00366697397028200754
0.00401653842457332273
0.00391887860922466875
0.00381527542437168701
0.00417372366103029892
0.00392782327302152942
0.00394163625635323041
0.00189273863759614031
0.00323283636743227102
0.00489260340163055057
1.37016702192453555e-06
-0.000115741352106843237
0.000376225149056272693
0.00157906920590862262
0.00173095820081676892
0.0020386404476750563
0.00291745811237836394
0.00349588179079357228
0.00355568204479138773
0.00324394258470178665
0.002584906070711393
0.00183419558207200198
0.00162796956463367288
0.00170156860187008576
0.00172977413843806516
0.00168118564759872267
0.00155186600098432162
0.00139535531272762551
0.00121024668154874051
0.00102156169329910024
0.000851060684194630476
0.000715061309153348012
0.000602903102101756097
0.000556077682055418853
0.000531851668370906215
0.000487449052773027093
0.000418540025057746365
0.000342013382634017956
0.00028599436577858464
0.000249163960087269722
0.000239397226738426074
0.00027761319472474551
0.000340074511191813486
0.0002876884406652934
0.000178398804686093578
0.000443045522452823284
0.00118996712881005995
0.00424472686016523059
6.12366060395613063e-07
-0.000103183087346892663
-0.000143414961469177948
-4.99673210531768056e-05
4.98980506667187274e-05
0.000263125754965976737
0.000588787315913514545
0.000817793239115360902
0.000769495952092383371
0.000692031624795859542
0.000650888897714337186
0.000642021283959140271
0.000674762939305677484
0.000726357990404994194
0.000753895693514843295
0.000710482360534251236
0.000630506954470194366
0.000538753095582091826
0.000453521972023685632
0.000387563424925083349
0.000347398634763218777
0.000320713977904499975
0.000283347838690917913
0.000285816803714083502
0.000314100537251754469
0.000305402850760025173
0.000256922909614714799
0.000212655283331106585
0.000195706325305294989
0.000186788667700774297
0.000170323748182364345
0.000138981224524909179
0.0001289608886655199
0.000132452715795854255
0.000100176217146769747
0.000179992502919368091
0.000461770268104784811
0.00347696414061241443
1.80744746675467085e-07
5.21668121077738671e-07
1.91051779681389822e-06
4.69079907754284476e-06
1.0849575588055331e-05
2.51945196580995271e-05
8.67213866683086713e-05
0.000123360059898674655
0.000146703310562982267
0.000173689805312980916
0.000189287540089029603
0.000205648230711976684
0.000223944584499243882
0.000236721029438367772
0.000242741109375758978
0.000229151784165403376
0.000198952427748475761
0.000167841529453173206
0.000142801292360410313
0.000150188949836935659
0.000186384022071853781
0.000191972651268019004
0.000158317981477593069
0.000124515232643518663
0.000114280226463033476
0.00010848631281651674
9.41867039580805308e-05
8.16697488126995303e-05
6.79736849525068847e-05
6.21065675098846309e-05
5.98116301546987132e-05
5.41059537938557629e-05
5.68243444717326225e-05
5.86405349671266355e-05
7.56230931912340578e-05
9.51971708821516805e-05
0.000232501007414581619
0.00242252847178095736
8.26401726203680219e-08
1.71481509981523587e-07
7.62833799530599781e-07
2.20942113283534683e-06
3.27584259432784428e-06
4.62889861529176263e-06
4.81762486726641975e-06
1.3582366212889247e-05
2.5066572022141165e-05
3.65438388034357596e-05
4.82853532778544149e-05
5.83382931350899281e-05
6.6093105610807201e-05
6.96467291818963455e-05
6.75886302773936212e-05
6.19442003358570633e-05
5.7424891317862722e-05
6.57931206487765308e-05
5.2421900987368133e-05
4.50177628514794879e-05
4.43665669840434979e-05
4.62755979698379182e-05
4.05792457040185788e-05
3.22089867854761741e-05
2.59144145170529383e-05
2.23696928986763649e-05
2.14917210438987771e-05
2.21437241498656225e-05
2.06972979489464109e-05
2.22228171131093678e-05
2.38733401526432958e-05
2.51604189307042846e-05
2.71887719719134036e-05
3.04122069260904791e-05
4.27969454387860856e-05
6.61975960003043833e-05
0.000162956489114545242
0.00205852830177896684
3.37192760141586332e-08
9.13955040649030731e-08
3.42555818928496806e-07
3.37665206611336326e-06
4.88350577387599088e-06
3.19924286801464507e-06
1.67701735199184651e-06
3.50222774702651136e-06
6.45983584593174712e-06
9.89100557903423099e-06
1.32034332433713969e-05
1.56586260139186256e-05
1.70905246436002556e-05
1.75791519761838371e-05
1.90645951446372489e-05
1.86611538651613581e-05
1.69285644030582671e-05
1.5592996080278727e-05
1.50619026852174885e-05
1.34183457761647851e-05
1.23193001373365795e-05
1.13702545382648988e-05
1.02414934184925155e-05
9.34757103466577959e-06
8.89193267911301199e-06
8.73253359489411054e-06
9.2925886816259799e-06
9.5901464987346179e-06
9.25193632212441615e-06
9.9504309215443257e-06
1.07759734995325588e-05
1.21393760360944375e-05
1.30860618992676225e-05
1.80111407074677119e-05
2.50839810148579002e-05
5.37308572912681691e-05
0.000190159177492206283
0.000705814446080516847
2.03940435921332886e-08
6.25888626756489672e-08
3.0867928682248306e-07
2.71558989162571611e-06
3.10031898202422919e-06
1.44654553761618889e-06
9.99063503373570913e-07
1.36033501287688755e-06
2.08559811861716953e-06
2.82567209705230704e-06
3.73005129490984701e-06
4.63302448640977213e-06
4.91222434232491057e-06
5.09490869872183229e-06
5.30932207144980779e-06
5.30872766717733077e-06
5.08787185091332109e-06
4.77317092758740421e-06
4.7542379196483573e-06
4.53162845697201164e-06
4.61842503042293463e-06
4.59897351299425403e-06
4.34938306893959863e-06
4.09274090236742525e-06
3.98567664279260641e-06
4.05644290628202325e-06
4.35238288770300887e-06
4.37471765130922504e-06
4.24796160075864703e-06
4.4599586707217092e-06
4.93181062242291819e-06
5.54254730781475978e-06
7.42672231564953973e-06
1.02246033321077038e-05
1.73144203682392724e-05
5.32902358950330262e-05
0.000295833104549109724
0.000325652560556765561
2.28105474422082634e-08
6.17946683000147869e-08
6.48455523039591627e-07
3.01212687582795237e-06
2.63337130269645118e-06
6.88409779794690706e-07
5.93942387537799601e-07
6.38514942503643142e-07
1.08171329767989324e-06
1.24114421085939744e-06
1.36585298918761246e-06
1.43738186786879361e-06
1.50570492040385334e-06
1.58111108026805771e-06
1.63234453188190221e-06
1.66951092704118168e-06
1.69008158795328512e-06
1.66620605819845874e-06
1.66478564956249305e-06
1.78696406043361699e-06
1.86161955375909376e-06
1.84298993202217731e-06
1.76699975227628005e-06
1.72299292670972533e-06
1.78389944070708644e-06
1.90301219090767373e-06
1.98284795452220512e-06
1.96460747426406761e-06
1.91745738239928334e-06
2.04150693091340073e-06
2.24522857543676504e-06
2.96846081595659103e-06
4.20462143268079699e-06
6.62564938813692599e-06
1.30922035003506642e-05
5.78446434535184783e-05
0.000301038196248288236
0.000290323133155549187
1.80305350421986042e-08
7.18501925726183266e-08
1.52500781771402727e-06
2.95340672138666428e-06
1.33619260114882111e-06
5.34066021817480056e-07
5.67866947512918212e-07
3.59879500948674045e-07
4.81971879196731827e-07
4.97007341282048966e-07
4.94034230877056165e-07
4.99666043845136354e-07
5.12972963538648443e-07
5.3671524179536129e-07
5.63341610740011847e-07
5.79615598869036181e-07
5.88831359752002646e-07
5.96164291756554861e-07
6.35174889255760053e-07
7.04651082414938261e-07
7.36926246057474371e-07
7.31731476917864551e-07
2.53856097019759983e-08
6.18713671368318925e-08
1.0968384469968925e-06
1.29506901025221054e-06
8.37820931755783421e-07
3.6745114937969497e-07
3.91626218699410734e-07
2.44681230423746449e-07
2.44538162048807621e-07
2.27847609674285634e-07
2.1236176678365432e-07
2.02892572788931859e-07
2.00773763073599443e-07
2.04622144181962513e-07
2.12140707176963357e-07
2.17352930050107093e-07
2.20917929644045367e-07
2.2767538900817989e-07
2.53377202612918094e-07
2.87828054097601104e-07
3.10755960217594155e-07
3.10593765959132652e-07
2.06410109744299542e-08
7.19475436287553758e-08
1.07644383293835046e-06
1.42381588576154123e-06
7.6141185272822687e-07
2.6529900145121043e-07
3.0149483617281341e-07
1.67820309694840594e-07
1.40140600945439106e-07
1.22254234000809213e-07
1.07208297558942968e-07
9.69315379700022775e-08
9.15329354024646399e-08
8.92089846867585739e-08
8.82257219860923107e-08
8.78318401940543389e-08
8.8862878934639567e-08
9.23719118643798475e-08
1.05243792154605972e-07
1.24463692500411041e-07
1.35434789292971329e-07
1.3562907400138742e-07
1.86335575379123373e-08
3.16485442629185582e-07
6.52660326488283988e-07
1.2524923654076505e-06
7.95548146905554134e-07
2.64410849945312571e-07
2.05036955561337317e-07
1.1467493431259363e-07
8.74757528013482341e-08
7.75651516953002017e-08
6.56212427670739702e-08
5.37226904125799526e-08
4.77654442042069717e-08
4.41009893269973923e-08
4.12636578907532853e-08
3.90671810446222348e-08
3.82029971108119376e-08
3.93214460565555777e-08
4.3838367142380653e-08
5.40296044634411343e-08
5.79354235617395664e-08
5.73706074586882017e-08
5.73746535187731052e-08
4.26858376334347235e-08
3.34088933683464125e-08
2.78738418564298192e-08
2.42967328720634224e-08
2.11806174084955122e-08
1.88328126462044533e-08
1.76727868435079867e-08
1.73784936575721349e-08
1.86457571939413874e-08
2.31436436428602816e-08
1.80757286530601245e-08
1.42386183217648673e-08
1.15830085917178918e-08
9.69013119164761478e-09
8.56971606419141131e-09
8.15572162868504469e-09
8.69405149725343595e-09
8.87793371528827852e-09
6.00076288336193113e-09
4.67540091687157208e-09
4.15741431852095457e-09
-7.00273836410120914e-05
-0.000414763402038019968
0.00228978182205970791
0.00667927244886714656
0.0105324397800788047
0.0136920939537818458
0.0155426879541231914
0.0164412885548427083
0.0172550558427648076
0.0447325478130346926
0.0729259341307937625
0.0807548138207585114
0.111008112226074124
0.141236322944975179
0.234766453105805406
0.263192122111311599
0.234623340699820021
0.227100800333085606
0.178221417914497804
0.160672415853032269
0.150694160815106615
0.135693204700559955
0.123502640247749707
0.114504489343806332
0.0965412631331716981
0.0753209078794030429
0.0651341634437057615
0.054222526815727097
0.0377284055653755654
0.0322719778431835164
0.0293558707705100334
0.0197444971242031267
0.0138304852503275226
0.0118075476713219371
0.00888880786004786483
0.00976928710985291125
0.0070676569464215161
0.00262798365040945153
2.81084921345585275e-05
2.38951083512800804e-05
-1.16691463296312594e-07
0.000997341777276580452
0.00224511333068332705
0.00290942209353148252
0.00349971862821626652
0.00406087951422937424
0.00445349983754589687
0.00510486922554828117
0.00449384687068215844
0.00420685194006265549
0.00367501340417775201
0.00320208353234902911
0.00286834715346353511
0.00256396239941028645
0.00230023821301010394
0.00206513178691036066
0.00183649475293253765
0.00162749964477272406
0.00142756062511724489
0.00121808133385436189
0.00102972949531200219
0.000853215772885964371
0.00080144310992787311
0.000774528197863091168
0.000634727652673978417
0.00054312058315123641
0.000802659304318615718
0.00115356012605181187
0.00142245581152592392
0.00157998205622495694
0.00213724823350492201
0.00236630510072286058
0.00225212455825966147
0.00116445864052255573
0.00236413679515618154
0.00418191123608104183
2.0791671446411732e-06
1.63385406392057325e-06
-2.3203044592639224e-05
-3.77977438852962071e-05
3.7991898386614405e-05
0.000275491781955585781
0.000615926752059034769
0.000881558468976769262
0.00100711266349492816
0.00104644590411833642
0.000949732683002696724
0.000858975869426503442
0.000796996403929204006
0.000776808753744631523
0.000780941335391056889
0.000762944125107716605
0.000711113235671094923
0.000639685782514465631
0.000547732201401811888
0.000462825079822661435
0.000408727445756124563
0.000364853832928559889
0.000327220866402020197
0.000311444094618091379
0.000302956899434005632
0.00032583092648735514
0.000306448820475861857
0.000269106812592148105
0.000194929605985869547
0.000191417899431744023
0.000205723324579143614
0.000210768906038673543
0.000193105728368555304
0.000185739374779654337
0.000122783050730493814
0.000305225304664327951
0.000768246918349438802
0.00360354272277608936
2.47113454958409657e-07
6.8606012519676678e-07
2.2406302862816221e-06
4.39762277170324207e-06
1.06947313767706422e-05
6.2075904046171831e-05
9.39437724846665435e-05
0.000156145309756571145
0.000171773001528618984
0.000183078049785768103
0.000192206236867183551
0.0002025591554620169
0.000223255963447884084
0.000240340736638580422
0.000245376208644801038
0.000228495058732416934
0.00020449371748259529
0.000176137452939546097
0.000159150016345796101
0.000139940465898162272
0.00013797155113188584
0.000185232963584364661
0.000230189945340397706
0.000236125109275158861
0.000214360102899536901
0.000186315163942016722
0.000154514461753805431
0.000124774434646913399
0.000115097712226393327
0.000106641930420350097
8.86334172390114785e-05
7.56654571952394188e-05
7.78058840703955219e-05
8.51694974696182307e-05
8.74184694936570004e-05
0.000124752008356342149
0.000311162459949506948
0.00235392617292467122
8.40079575123657396e-08
2.38065949013149084e-07
5.72540165227628279e-07
1.13733985139219799e-06
1.89924841133767333e-05
2.61432616983275559e-05
1.81083758524291901e-05
1.84662511635684138e-05
2.75341503587026421e-05
3.92889057419899617e-05
5.03231603748383949e-05
5.93174385250843091e-05
6.72952390303917513e-05
7.0195570309334671e-05
6.78788373749328788e-05
6.26814188246448926e-05
5.87243451467636023e-05
5.94922951793390935e-05
6.6659365706429576e-05
6.08643407822707076e-05
6.5931046205438133e-05
6.53311535397040375e-05
5.30401484252378735e-05
4.72095059290172556e-05
3.82262917481469318e-05
3.0830855077656638e-05
2.72816081367439301e-05
2.54673862332076398e-05
2.87962670134614377e-05
3.14268061193014042e-05
3.13962208142219918e-05
3.18325786324440726e-05
3.19364898999875682e-05
3.69293352647776082e-05
5.42830176184668747e-05
7.13393823559929662e-05
0.000168292371633544421
0.00212364203663150015
3.60679516807987179e-08
8.03840814675443757e-08
6.971836118832179e-07
1.99696853594841263e-06
3.06947465934553744e-06
6.17129446988549317e-06
7.97478802380747453e-06
8.45380137039042115e-06
1.00199245974649158e-05
1.20234491416077455e-05
1.47347502337549843e-05
1.69389523602583085e-05
1.81763193445874527e-05
1.86807825608043359e-05
1.87527972157487441e-05
1.80939665801245615e-05
1.71211266252252258e-05
1.63052547709157328e-05
1.52671013195066088e-05
1.42266664663576171e-05
1.2905175294832636e-05
1.10045037461323812e-05
9.88105707564993894e-06
9.53162811639951862e-06
9.65598929952732015e-06
9.67786235509321687e-06
9.59109783624332519e-06
9.35428449284709862e-06
1.09006729809454077e-05
1.26777958816091867e-05
1.38906375168545137e-05
1.46724162768938108e-05
1.42932179987993069e-05
2.0973027888025816e-05
2.81975172433379278e-05
5.04261647486381205e-05
0.000167762985522834033
0.000756488715262010575
1.40780867645062225e-08
2.5683594431782357e-08
2.86018102914779767e-07
9.65453165025988823e-07
1.63156063615368577e-06
2.63032673778892939e-06
2.76216581210846772e-06
2.08845193004197334e-06
1.96138326416973761e-06
2.86477319637736572e-06
3.47854763050695855e-06
4.02925578788106369e-06
4.56867172575714646e-06
4.84867567926179102e-06
4.97267530602061069e-06
4.92452770170362226e-06
4.75437369623718028e-06
4.55172404320915959e-06
4.16525592471785825e-06
4.29486949960828714e-06
4.2380813759772431e-06
4.12754498423219925e-06
4.01772645827857445e-06
3.99122938906147743e-06
4.07814442300630178e-06
4.20688250460288795e-06
4.3041146701924468e-06
4.28083546911261343e-06
4.7391341088884026e-06
5.51487071539003251e-06
6.14090806754379566e-06
6.50463216965635361e-06
7.8850039361052902e-06
1.11433357362108542e-05
1.84044132711139538e-05
4.71045269033827836e-05
0.00021967480662883214
0.000344068409186598721
6.05182098369873616e-09
1.50180432663028437e-08
1.98767581226159583e-07
7.64368554550035777e-07
1.11968911379663496e-06
1.31181337305475771e-06
1.20949427053407946e-06
9.39741983530272711e-07
7.29950845636052065e-07
7.7060023161183209e-07
9.5659108213377268e-07
1.11395900559272115e-06
1.26040940557675506e-06
1.39166109844934745e-06
1.46621322350992785e-06
1.48598582487513843e-06
1.44823808081983898e-06
1.44789661299918985e-06
1.50785395038583772e-06
1.59141403916891819e-06
1.62897004488345405e-06
1.63936351428515991e-06
1.61662668926160893e-06
1.61846367411100577e-06
1.69174253708843243e-06
1.83653584051348207e-06
1.90930827820963456e-06
1.8893739685112607e-06
2.01945041808163304e-06
2.36244307619069974e-06
2.74068800898377793e-06
3.18991140127879063e-06
4.62021703538962107e-06
7.01470019973062301e-06
1.32413655711599636e-05
5.01819408623943683e-05
0.000302939509807522269
0.000312445081408541754
4.54545136138571293e-09
3.80109377272702029e-09
3.80642294006496858e-07
6.19551471805666401e-07
8.30007573121333806e-07
6.99598288511839327e-07
4.83060284996552484e-07
4.12302593927750994e-07
2.83039551291864827e-07
2.66806450071029991e-07
3.16510433723193133e-07
3.57307120652483558e-07
3.98566342670006311e-07
4.44255174390847947e-07
4.77419544839489943e-07
4.95132839047206565e-07
5.07559957709850379e-07
5.18273709950609409e-07
5.400883106034795e-07
5.88472698131564778e-07
6.20439005329091523e-07
6.3639683590514768e-07
6.37443275419850082e-07
6.51778447204616804e-07
7.37175725661123871e-07
8.03228610968439252e-07
8.19061699358937622e-07
8.03123951772730946e-07
9.02905447772219958e-07
1.05009284194169342e-06
1.21514931488194423e-06
1.67843784910705043e-06
2.48837898154418993e-06
4.45811109765769446e-06
1.02520779499415009e-05
5.31010485989617879e-05
0.000268200645050250099
0.00027077359317060571
3.17297627948527602e-09
1.9950340925308932e-08
3.4208724403629152e-07
3.74475239716391711e-07
5.88921385018667286e-07
4.06400730398650485e-07
2.48033190306577338e-07
1.93029368205930318e-07
1.19387524902093216e-07
1.03766425875552795e-07
1.13177291372488382e-07
1.25098857145807204e-07
1.35816045285869763e-07
1.50016611001997837e-07
1.66010335722666157e-07
1.77621963388554817e-07
1.850824738489265e-07
1.89840901543288994e-07
2.00410002982500978e-07
2.24082879131682012e-07
2.38145694639354017e-07
2.42467288438891428e-07
2.45748212350375774e-07
4.82566244489429924e-09
2.10426642732093098e-09
3.2091821304994553e-07
3.42350198196606798e-07
3.94584959809893272e-07
2.13902034047530165e-07
1.42312446614745637e-07
1.01656538487378033e-07
6.314519241970854e-08
5.40611256676542392e-08
5.09248086476870579e-08
4.80901917448271267e-08
4.8676989885280971e-08
5.1935307619021839e-08
5.6986960562750181e-08
6.20516590387091799e-08
6.66451679960925836e-08
7.08195659735170207e-08
8.10454146503607925e-08
9.38441700537015292e-08
9.83856224978497527e-08
9.71223899691657107e-08
5.38591027517929486e-09
3.95668889614609742e-08
2.37082372907864185e-07
2.30655698828708012e-07
2.06046474457245474e-07
1.24787553374529076e-07
8.39382703545391863e-08
5.5186243105952754e-08
3.69174310028855376e-08
2.98924281438323136e-08
2.54911390255811637e-08
2.15388221445938988e-08
1.97498809606686868e-08
1.9947355285752918e-08
2.13211107429695612e-08
2.24748258297375948e-08
2.42882378754389961e-08
2.84243041457023273e-08
3.50331816304725249e-08
4.00168529524337694e-08
4.17154450575487282e-08
4.09204999133071033e-08
4.22354507999220999e-09
9.68839201203904175e-08
2.17146922046607313e-07
1.26637154928499968e-07
1.19234457672303667e-07
8.45708436780160025e-08
5.48441344256936074e-08
3.59856264685264234e-08
2.23646974445078342e-08
1.64368087057625773e-08
1.30076569554938379e-08
1.05053413014831431e-08
9.32953927559404451e-09
8.88638781699107941e-09
9.11605479127909565e-09
9.39644217465381513e-09
9.90861581309138674e-09
1.20110826361957567e-08
1.50459527582355741e-08
1.68879234204897245e-08
1.74625779629278197e-08
1.72938846396802995e-08
9.90088945801222274e-09
7.29673427093338573e-09
5.6672426078759737e-09
4.91727005595838165e-09
4.55260802577279747e-09
4.39090155654530015e-09
4.42265985762159508e-09
4.5811141287065717e-09
5.29338226978785274e-09
6.6187368940396625e-09
3.53202374520332886e-09
2.93423863132002505e-09
2.58133717678932115e-09
2.34635789625453808e-09
2.2645646292087964e-09
2.33730969763246348e-09
2.65487071600970415e-09
3.40281902258794107e-09
1.53333868359965254e-09
1.30822823637147046e-09
1.22132925024439375e-09
1.22383574428066549e-09
3.59075941200613825e-05
-5.41207609965491321e-06
0.000276683190244786186
0.00109475239278369581
0.00242241141368202718
0.0036001954980137362
0.00438957648020596013
0.00467201502520208246
0.00549825792589829412
0.00383850350772979142
0.00572668995386926664
0.0037240583765721022
0.00490154909758676489
0.00564702211569121683
0.0149562357202485865
0.0283416246643626961
0.0597576582707010154
0.0719810347241890136
0.0749043883790707077
0.0683035399585705805
0.0656937199448897613
0.0664423686210641046
0.0690293015815311994
0.0637213177972723449
0.0508313488443809525
0.0459416145665691236
0.0443995182579589587
0.0377676449899333327
0.0289205339268765946
0.0244472412211067143
0.0216149203014189342
0.0163329470076150271
0.0112002612006275575
0.00919222850229620483
0.00765600769488507856
0.00700714868323983921
0.00519606236044374125
0.00179118909377127275
1.55940460466216888e-05
0.000309907929861882371
0.00033969173486604929
0.000100647935145492347
0.000313260125207633696
0.000494001822330477356
0.0007469272140933021
0.00100939431677400161
0.00134440292666445542
0.00169607896775125604
0.00178444625300503085
0.0019959989103364357
0.00198096979888797266
0.00209767961191914066
0.0015544279740187226
0.00120299712422087526
0.000975016482264996374
0.000886045252005870617
0.000805163477414581733
0.000728128680653184509
0.000658478008261399912
0.000586341393381765085
0.000530413755842540553
0.000486915607241114904
0.000422649225687725925
0.000341354343933281904
0.00028981558254252888
0.000244349815548807945
0.000212848694494734283
0.000296896023298680149
0.000454148047614291663
0.000722221154583039615
0.00112511964362285114
0.00125637804193257053
0.00132013568274601083
0.000815197217367689096
0.00159201438918722465
0.00358447167923096454
1.62560258721332897e-06
6.07705475175423677e-06
2.3525469314980321e-06
5.19755406944162958e-07
2.59253769218872158e-06
3.12404805103833467e-05
9.2942883684912875e-05
0.000175986294982496565
0.000454035070959852563
0.000534444287245561126
0.000649653060138786673
0.000736469711281329638
0.0007634594171674388
0.000707652352809298073
0.000651002192282116253
0.000391331278097932348
0.00026322741265702367
0.000230276145406553432
0.00020511846880913337
0.000190812754637632658
0.000176308212906907619
0.000155307472562230838
0.000153828568913728144
0.000163112428325969209
0.000177144752758746731
0.000224343551799409256
0.000227625211641093827
0.000189236103661384071
0.000158957178679651197
0.000166039718914238592
0.000151111810510834389
0.000121472790900318549
0.000137909383096694122
0.000134868272361870074
9.28069129643095176e-05
0.000211110579662677236
0.000529769538256853181
0.00276971585702370533
2.01280299578209081e-07
2.76193747626381315e-07
4.77156577268048648e-07
9.96724001141947107e-07
3.7294766405170395e-06
3.5224724704515704e-05
5.71355173769843344e-05
6.47990868462521008e-05
7.00658919210195454e-05
9.18765843068769977e-05
9.89319713733818011e-05
9.50550089358061869e-05
9.80679529540495824e-05
9.30790585041947692e-05
9.70859543920368594e-05
9.54510615638234612e-05
9.62335127300774422e-05
7.01006534161309995e-05
6.73781587573400151e-05
8.39279283465551175e-05
8.88228117642174343e-05
9.21126511804632993e-05
8.60224595716525136e-05
6.81496725391433683e-05
5.71269774069584982e-05
4.91059777790101004e-05
4.63609283334643778e-05
4.65126120561509172e-05
4.64170135283738689e-05
4.05275821803311381e-05
3.77780038640083258e-05
4.13963953808883702e-05
4.9031321550091741e-05
5.62447494908834648e-05
6.79499653895459827e-05
9.35849782056221802e-05
0.000211437960733697623
0.00171774162594297915
4.4295766767783638e-08
9.6506586988802002e-08
3.05065836001709049e-07
4.84354029014353579e-07
1.12724425417693078e-06
5.38446683734528763e-06
6.95057630847333305e-06
6.16469467115217315e-06
8.16231613888358291e-06
1.11160687521142973e-05
1.35876143380344915e-05
1.5701794600582907e-05
1.74952978053215892e-05
1.85741839482629891e-05
1.89948461647312342e-05
1.8121674281079781e-05
1.70326405329194249e-05
1.61965524136064952e-05
1.58895737096785222e-05
1.5194249965566887e-05
1.3380881649498732e-05
1.26665035789237646e-05
1.1978607234303689e-05
1.14845316780757729e-05
1.07983423739604802e-05
1.02955592689027535e-05
1.08431009794089482e-05
1.36137354511450711e-05
1.5432540358495539e-05
1.51517507340871747e-05
1.61883920775337915e-05
1.67057892781465939e-05
1.96625201652294515e-05
2.58701274300471878e-05
3.40386058553601722e-05
5.52574709321428605e-05
0.000133657850543625518
0.000458012060502235212
1.47710653309391304e-08
3.82312415958487884e-08
1.3861045686933708e-07
2.22170066378836609e-07
6.64052380420803399e-07
1.2640384058543805e-06
1.36278479441483418e-06
1.51230016419800207e-06
1.90154731816693478e-06
2.63697152540904858e-06
3.26336930332637629e-06
3.78944182490609124e-06
4.24658356860749524e-06
4.62072446352626494e-06
4.71462989255184127e-06
4.64153172893595304e-06
4.19294525851158394e-06
3.74900190619896121e-06
3.88815604163262899e-06
3.83981220635835897e-06
3.80617031738933772e-06
3.73498703783787664e-06
3.82071208308139691e-06
4.05347207513037431e-06
4.12977859910747304e-06
4.08341298654534187e-06
4.19378143360904069e-06
5.34118968874457041e-06
6.21154521824999169e-06
6.70576690680605375e-06
7.00406189171529511e-06
6.77140535751627075e-06
9.0328565163359542e-06
1.31871978724621908e-05
2.01493362743044597e-05
4.03522338706800132e-05
0.000156798892736663171
0.00034570801666046209
7.33564856751145239e-09
1.38793475912286096e-08
8.52923630369053714e-08
1.30864573414863199e-07
2.79342268877049711e-07
4.48364448658070393e-07
6.15530490775624084e-07
6.6066857797177795e-07
6.14217806684434689e-07
6.62949451387056957e-07
7.88851142837776769e-07
9.21442819424774933e-07
1.06562032209693597e-06
1.18319682766051628e-06
1.22931454582583845e-06
1.22561612897388272e-06
1.18033381873708787e-06
1.18265817028923804e-06
1.23622312787818751e-06
1.3044212706786441e-06
1.33932678784571783e-06
1.35344981081101127e-06
1.42296158042785132e-06
1.54552476794001897e-06
1.64818259981659549e-06
1.67902239632529566e-06
1.77846515766370571e-06
2.0899706616947958e-06
2.45799283196758135e-06
2.83480870949641561e-06
2.95630903732308423e-06
3.16473231125982181e-06
4.91899034614956502e-06
7.29367330569892096e-06
1.33474150487396256e-05
3.97798686233323328e-05
0.00024846026150337141
0.000315137068546054793
3.63699965828126622e-09
8.07582114552628536e-09
5.51122668500722962e-08
7.80263224961707413e-08
1.48843495407803113e-07
2.36539777147659082e-07
3.02069724494804046e-07
3.1662322550924948e-07
2.59682868775188176e-07
2.12005774535381547e-07
2.16847082412442089e-07
2.50405431731158443e-07
2.94581375425405085e-07
3.32070705232628068e-07
3.55387730989680369e-07
3.72679146742453388e-07
3.85779116831834344e-07
4.08405681051370052e-07
4.42633267766012002e-07
4.77415200131745653e-07
4.94981159120106597e-07
5.07172982296047993e-07
5.33053365679651669e-07
5.84734281691850516e-07
6.43781261301457947e-07
6.93738401877424688e-07
7.31794029906479381e-07
8.3279648026023418e-07
1.0160858850664339e-06
1.17015043536108561e-06
1.22156825358942377e-06
1.66660010077081798e-06
2.48148237326773503e-06
4.40583987195856995e-06
9.70427849505070086e-06
4.34127724639531444e-05
0.000257597245805481093
0.000265091220268151876
1.98689120256569746e-09
1.9145990985510792e-08
1.94452754520322594e-08
6.42577162248249186e-08
1.07283393343107747e-07
1.4581384437026706e-07
1.50877172255349779e-07
1.20206539605409051e-07
9.93329951824362742e-08
8.71143413428726252e-08
8.31705711475093349e-08
8.61062169817486071e-08
1.00353231277491226e-07
1.12893475385886313e-07
1.21313323801251587e-07
1.25620973978349066e-07
1.3129857164954737e-07
1.43274638741710728e-07
1.59199907761151565e-07
1.76890426671112226e-07
1.92544447157136457e-07
2.0374422566594135e-07