/*--------------------------------*- C++ -*----------------------------------*\
| =========                 |                                                 |
| \\      /  F ield         | OpenFOAM: The Open Source CFD Toolbox           |
|  \\    /   O peration     | Version:  2206                                  |
|   \\  /    A nd           | Website:  www.openfoam.com                      |
|    \\/     M anipulation  |                                                 |
\*---------------------------------------------------------------------------*/
FoamFile
{
    version     2.0;
    format      ascii;
    arch        "LSB;label=32;scalar=64";
    class       surfaceScalarField;
    location    "0.270000000000000018";
    object      phi;
}
// * * * * * * * * * * * * * * * * * * * * * * * * * * * * * * * * * * * * * //

dimensions      [0 3 -1 0 0 0 0];

oriented        oriented;

internalField   nonuniform List<scalar> 
20390
(
0.000218201890738220901
-0.000241917962868738295
8.18165047797763994e-05
-5.81004333593567235e-05
0.000312339530209874885
-0.000194499093382482786
0.000163436590562869588
-6.30754555881360798e-05
0.000383522890283179336
-0.000171185097140645593
0.000190233551579994101
-9.02318444468245022e-05
0.000467507768078669712
-0.00015136067596042762
0.000192267051226638417
-0.000124891590494701198
0.000550680015475722381
-0.000140386867679827802
0.000210225231535970112
-0.000153010360270183126
0.000608487034566906415
-0.000113804462078633261
0.000227712208682988998
-0.000171713821474399911
0.000648756738785289896
-0.000103494630647146438
0.000243820326698624323
-0.000180594334192113557
0.000677521117131731554
-9.48217805629100762e-05
0.000253507661724503247
-0.000187449105099202575
0.000699285547627283158
-8.91061064549549149e-05
0.00025795430002992784
-0.000190611579627720883
0.00071478843038744232
-8.02863982044746264e-05
0.000256624391941649601
-0.00019184007624960077
0.000727548707551534568
-7.57069268870254482e-05
0.000253913860377027198
-0.000190966649097513194
0.000738129701513611436
-6.77231529439313931e-05
0.000247185111089963155
-0.000190042583713983095
0.000747634888314046729
-6.08869950916371958e-05
0.000240116636460080917
-0.000188734703890342767
0.000757207910478561877
-5.68660269473796379e-05
0.00023399459792224192
-0.000186701633652669181
0.000766677289662659749
-5.24431376535586355e-05
0.000226733634269276897
-0.000183760071970440122
0.000775889276559695485
-4.87712184737044844e-05
0.000220380175704682494
-0.000180821230356401362
0.000784867609566606032
-4.62388797580099179e-05
0.000215351996440397688
-0.000178091798614818034
0.000793276593669250897
-4.28605057540087475e-05
0.000210542278920505485
-0.000176091134050359753
0.000800578297827343223
-3.99875696955007435e-05
0.000206817482268878921
-0.000174131984967858255
0.000807718364915404772
-3.83650297593644634e-05
0.000203440079648751506
-0.000172215450648657365
0.000815437317389305937
-3.83053394819855256e-05
0.000200646057055186005
-0.00017005996021893024
0.000822911679726973338
-3.69482306632192914e-05
0.000198035053478986346
-0.000168561435526748578
0.000829913561756005259
-3.54588909920436389e-05
0.000195516340472939897
-0.000167059533861965676
0.000835262405386577849
-3.19105402556301744e-05
0.000192582568911121155
-0.000166021030483986295
0.000840372672421188646
-3.26125930052919579e-05
0.000190654437759097371
-0.000163152231255094839
0.000846204209635702167
-3.32399829803004128e-05
0.000189393359871425541
-0.000161985001173690121
0.000851949522417407468
-3.21560331177387303e-05
0.000187379625171213323
-0.000160968959873992594
0.000856465934395282116
-2.94624014812550983e-05
0.000185020817141472448
-0.000160074856608711738
0.000860000015128446326
-2.76452574059945198e-05
0.000183724114110710293
-0.000159612951743282061
0.000863933656695628754
-2.74474368324918066e-05
0.000182132127283775964
-0.000158618332822703145
0.000868061816285541814
-2.67383841016793097e-05
0.000179846159136230749
-0.000157235927855518202
0.00086682791866095094
-1.92664762210234867e-05
0.000177139669958342776
-0.000156639276030615495
0.000863272113134418281
-1.67340805944708751e-05
0.000174115082318381382
-0.000153825158159773837
0.000852325645287279905
-7.9680870885095087e-06
0.000170646874518327212
-0.000151732265430964416
0.000811951367040760191
2.48118728197512515e-05
0.000169409912130071916
-0.000153847428517551879
0.0006975828064971736
0.000103292895215953314
0.000178218437564629014
-0.000167142661516410748
0.000410288073277114492
0.000283852187580385434
0.000184860203832957852
-0.000181417516017978064
0.00037964021176899724
0.000385424321602744857
-0.000354776277924866558
0.00013863126101226346
-0.000270421501263431823
-6.93354803154125918e-05
-4.07950404365119861e-05
0.000293573723810607902
-0.000244858181481963279
-4.63361263529675835e-05
-5.82490374078885315e-05
0.000436070099990273484
-0.000268442170942190445
6.8766831925867454e-05
-0.000114006036445876488
0.000523998616733605069
-0.000232647454770760272
0.000137533447626481223
-0.000144175406968640693
0.000563843327836229696
-0.000187332546434179224
0.000169569525109701817
-0.000162464517481020079
0.000576358153626850946
-0.000146322837423359985
0.000189879115296682225
-0.000169870809769752336
0.000571849309182546027
-0.000122223597403553491
0.000194383776442894041
-0.00017114001226914698
0.000564047314471262536
-0.000111543402188368681
0.000195394980303868076
-0.000170866048286642764
0.000558509676295873472
-0.000105825876322774082
0.000194912313448422837
-0.000172650429331641631
0.000558379870242061045
-9.80021210648362849e-05
0.00019304244869668022
-0.000175193787769551931
0.000560692022665583499
-8.95435826847963343e-05
0.000190846866662033475
-0.000179320314506615288
0.000563953534896568078
-7.96778146088012069e-05
0.000190694670887511304
-0.000182000924148038808
0.000567073404662284011
-7.11549476457838692e-05
0.000192286261726857697
-0.00018513867671887625
0.00057071006368945615
-6.77938709712207839e-05
0.000193880294370075659
-0.000186590546810992659
0.000573623719979377542
-6.44569588619190175e-05
0.000194427465485234749
-0.000185329332047733629
0.000573912228706531459
-5.96496613656514712e-05
0.000195118584218084511
-0.0001845310570269054
0.000572636320970931756
-5.58453461227159087e-05
0.000197381255017528931
-0.000186501455470623317
0.000570618137834524777
-5.23636454278346655e-05
0.000201844501351353242
-0.000190325668886216521
0.000566906264981520717
-4.94185403574148532e-05
0.000207336261265548145
-0.000194195645483120276
0.000560658749005975309
-4.6591125006051207e-05
0.000213033239593794327
-0.00019856150481997758
0.000552088058355196167
-4.33143101801805372e-05
0.000217355671733560562
-0.000203777546307837873
0.000542678317989901118
-3.9261153950159982e-05
0.000220503833368547469
-0.000208782358149382189
0.000533368672654111115
-3.64457676266924428e-05
0.000223266544419919668
-0.000212970904292623952
0.000525879472216109894
-3.40436886416088647e-05
0.000225766151839946994
-0.000216144403937005761
0.000517782297012166215
-3.24837885405831992e-05
0.000226199053856030808
-0.000218231058319152016
0.000512217535531251538
-3.4581613367316898e-05
0.000225967532774831536
-0.000219061355370441701
0.000511542419389879408
-3.89503748960636946e-05
0.000224222624760599614
-0.000216753249271962179
0.00051640347907476675
-4.00249430013174627e-05
0.000220086643685631929
-0.000214385158087117549
0.000524975170958785872
-4.05430455677019093e-05
0.000215478683290400727
-0.000211152543851125986
0.000534530688143750065
-4.10199423119343687e-05
0.000210142515030002202
-0.000206125465240219162
0.000546328578096886121
-4.08518586403516966e-05
0.000203520188231413776
-0.000201204536514151214
0.000559673821783082128
-3.33007869974675976e-05
0.000197254819777268345
-0.000196565650249321618
0.000571148015797439258
-2.8077072580619299e-05
0.000190240093638569658
-0.000190371173071634197
0.000583580534911467327
-1.85688307767068979e-05
0.000182972695787000873
-0.00018480429330306993
0.000593975721834814636
1.71154805363613277e-05
0.000180702249342303375
-0.000183400855278893267
0.000564903846797520622
0.000138251012200211451
0.000184924257163802182
-0.000190810428072362413
0.000415115017247315364
0.000433990976335965183
0.000230173456492766893
-0.000230523715204979172
0.000780803177691779312
0.000397189445583202004
-0.000383237894541620496
8.63832194122837277e-05
-0.000231112006404894416
-0.000259083398263010203
0.000133376875675135097
0.000294944218514658896
-0.000301290422069542629
-0.000132809535096279361
-1.93267441743381028e-05
0.000377981368184619022
-0.000292710560712165508
5.16973853853224601e-05
-0.000110464204515289257
0.000364361977305182423
-0.000206859117908368988
0.000104587584388761849
-0.000116756879803022284
0.000325529187484949786
-0.000138030335712458678
9.7645723184812576e-05
-0.000108110635431219273
0.000292383218216687676
-9.49115635859215157e-05
9.24089513447061243e-05
-0.000110667766815034771
0.000276470418529915275
-9.29421564632868717e-05
0.000100988410915351593
-0.000114350464561845171
0.000279462850241088163
-0.000102992851992160815
0.000114704734373452123
-0.000126243212304724694
0.000292350359239443725
-0.00010229902130919668
0.000127232431648687054
-0.00014364471132129086
0.000301239496517397801
-9.03617761145682674e-05
0.000142628589780898792
-0.000159158082113933176
0.000297352453148675127
-7.45709998114343805e-05
0.000153753895687959067
-0.000164841150280179457
0.000283348177997488275
-6.02625622725655029e-05
0.0001608686123987416
-0.000166282582504923004
0.000264734148070327894
-5.21846570724983269e-05
0.000165305668943241651
-0.000165666550024646674
0.00024932483243770518
-5.51583957666470777e-05
0.000169820656523225267
-0.000167051748931457307
0.000244721909584866347
-6.29418861718170178e-05
0.000175456641780916139
-0.000172373761764029132
0.000251797524992577678
-6.88172893445534051e-05
0.000183907198036305209
-0.000181819483765020883
0.000265334937713280062
-6.93147698547189083e-05
0.000194134737842121895
-0.000194206274937028239
0.000279834913635954073
-6.56327090035807104e-05
0.000204220617154411363
-0.000205454382986851639
0.000291979727382947159
-5.85547828207044608e-05
0.000210637786098968183
-0.00021364844788281101
0.000300490239871425285
-5.07085159719473136e-05
0.000214532243746406683
-0.000218926812737757612
0.000305588445203608709
-4.20234988472812258e-05
0.000213526065747385714
-0.000219916013368126498
0.000308181562554882217
-3.34802094566613503e-05
0.000208911656401318302
-0.000217286274415093723
0.000308234389136092602
-2.5369078397120461e-05
0.000200990272529361341
-0.000212120145997424242
0.000306681335709948176
-1.89114400173883389e-05
0.000190296505515190209
-0.000203875937545472879
0.000303695166260042448
-1.35877412014500534e-05
0.000178028014262384863
-0.00019393811098375612
0.000299198759485376801
-1.22228166355363061e-05
0.000164699928636230091
-0.000182562587532898219
0.000293879279265628563
-1.09765422720212638e-05
0.000150901423475849301
-0.000173556049322282508
0.000288615521569835648
-9.54492599688329331e-06
0.000138456959977630365
-0.000163673413950680323
0.000283362061017216943
-9.02389966606489751e-06
0.000127020738947763209
-0.000153286456276122498
0.000278728786136592135
-9.18621158841764095e-06
0.000117266366393127276
-0.000144466656048795064
0.000275937982371529417
-1.07351637193019024e-05
0.000109284017922238691
-0.000136609564643688108
0.000277057029563608655
-7.80009409851533617e-06
0.000102605670710843782
-0.000129224924267151551
0.000280511447904483954
-2.78477622789875728e-06
9.53005216673999232e-05
-0.000124046695082993412
0.000287028209033088192
6.08378949734552973e-06
9.11231364239781678e-05
-0.000122291831516579724
0.000301157763233041035
3.50204980111116652e-05
9.44080859903458064e-05
-0.000126441865494769716
0.000319516201198120605
0.000148616419402061652
0.000127786855954392745
-0.00015651012746823996
0.000263097945708603447
0.000505663538312643213
0.000205107585726728268
-0.000220361796329960903
0.0010311684368572722
0.00040004458567887563
-0.000387312183707789657
1.88649203760429579e-05
-8.84859661635352618e-05
-0.000236017054751789488
7.46071782896750961e-05
7.11617724623847254e-05
-0.000205336036197486957
-0.000111325155256765108
-3.6922372814615276e-05
3.84089919062523136e-05
-0.000163348896313294427
-3.5750660871199238e-05
-6.08587000578700776e-05
-5.16860000505248541e-06
-8.30729541637503235e-05
-1.02028022307943134e-05
-7.00068766737827153e-05
-1.76027527872634994e-05
-6.25028499711913769e-05
-1.02568750784179748e-05
-5.28459340019101149e-05
9.268374592759782e-06
-7.52438053060604679e-05
1.81749743049555307e-05
-6.47206662698564966e-05
5.34150491737608844e-05
-0.000104627483213194555
5.57266162831441812e-05
-8.81914793355169672e-05
8.15237724610573707e-05
-0.000103864223376906782
8.15111199911708887e-05
-0.000108752906439432456
8.78156801834021407e-05
-8.41265768176325857e-05
9.81169277445671578e-05
-0.000122587961425270353
7.92079707457671658e-05
-6.43436574853453464e-05
0.000113321356439437368
-0.00013073912474222894
6.6896194736826685e-05
-5.16429103029773974e-05
0.000125984961207117581
-0.000136607773794504046
6.54631983139801937e-05
-5.09571850593106696e-05
0.000134947500613267102
-0.000142823430729920953
8.12256715626038351e-05
-5.81520366573000201e-05
0.000142332985463713811
-0.000152130628509587388
0.000107838189360616807
-6.55335985384408265e-05
0.000149718701211148952
-0.000165957308276087109
0.000135802064876988871
-6.81384251739122895e-05
0.000158227948363304786
-0.000180995347464760886
0.000158676148788810357
-6.62778861519264039e-05
0.000168408538619345269
-0.000193820565902227325
0.000175091713621587137
-5.77137730214536191e-05
0.000172650609098824921
-0.0002006644895480153
0.000185710018241492446
-4.54782163672110679e-05
0.000172793935367437527
-0.000203563833526196716
0.000191176166467717554
-3.124874322968767e-05
0.000168386349910594664
-0.000201155882313527667
0.000192892544336937432
-1.86591514132912191e-05
0.000160414717583609476
-0.000194178329286196817
0.000193496597505661382
-8.55630920541333934e-06
0.000150946701971939562
-0.000185016535593202146
0.000193231433190387106
-1.03754980681334164e-07
0.00014176264256894776
-0.000174873327613163788
0.000191412562061573895
8.51074578752513826e-06
0.000131584338220471018
-0.0001636455161948836
0.00018828401433624713
1.48835157784751729e-05
0.000120158797212215795
-0.000150826309739346431
0.000184336685376879604
1.96838352898693369e-05
0.000109552619232730018
-0.00013887852580719235
0.000178618855741198947
2.14273524632490676e-05
9.94798670650757447e-05
-0.000127414085110805024
0.000172140876405046641
2.33439152357049556e-05
8.95108198676450491e-05
-0.00011735511915299684
0.000165332285777000014
2.52077555244367458e-05
8.02395997167828145e-05
-0.000108185039653200504
0.000157451156868140704
2.6372846794562392e-05
7.21026510827182791e-05
-9.96188771456369066e-05
0.000148753904327843326
2.54868410557164857e-05
6.58508968815342788e-05
-9.18265292296601614e-05
0.000140083480712554364
2.27144065825983823e-05
6.00746764026950455e-05
-8.48531172648708506e-05
0.000132803807732147846
2.37907325473496784e-05
5.28274527184245508e-05
-7.71375478998026254e-05
0.000125797592450257447
2.78743778559456235e-05
4.55593921218519789e-05
-6.92110972094035299e-05
0.00011948875192401538
3.39925165353237053e-05
4.24645446803780224e-05
-6.40629402840259992e-05
0.00012019022551312754
5.66560960679294575e-05
4.75301162312735215e-05
-6.98656135095788425e-05
0.000137465981828394221
0.00016085611745029029
7.96898785012041712e-05
-0.000109204416598079242
0.000135025119615076757
0.0005307294966298609
0.000172195725843826708
-0.000194820567798508279
0.0011573205687814656
0.000390697991531858643
-0.000381825222302124867
-9.88357690855925456e-05
4.01972443182899456e-06
-0.000200295636821193996
0.000206663650758766803
-0.000134502120100910032
-9.60355924396875699e-05
-0.000161489750836639185
8.78600942748720504e-05
-0.000131209607768665985
-6.76007380975816738e-05
-0.00010800951199343299
8.97460881565188663e-06
-0.000133493453623882642
-6.96572622612738423e-05
-7.76880616091601484e-05
6.65513047612415593e-05
-0.00013201124765922274
-7.48355704985630068e-05
-5.34320381542387196e-05
6.42697255213896745e-05
-0.000105370452433878653
-7.33104094702768461e-05
-1.22140843539506047e-05
-1.63681194034537685e-05
-8.71273598965224496e-05
-7.77681880646639986e-05
2.76092261432760679e-05
-7.27080878195775606e-05
-8.12990081429661822e-05
-6.79833580183652824e-05
5.1272333894049514e-05
-9.29811181526532255e-05
-7.19804468807549877e-05
-5.93556562047053369e-05
6.60639883539668323e-05
-0.000100156506069781033
-5.31571887794646348e-05
-5.15836409332205974e-05
8.06779300847968047e-05
-0.000112265280691744231
-2.83911108631520527e-05
-4.37208976866141247e-05
9.15402113318223025e-05
-0.000124228946549509634
-3.22002292843951125e-06
-4.04656379575279367e-05
9.78136066033825761e-05
-0.000133471002621961103
1.9595743952833912e-05
-4.04936561190571769e-05
0.000102206584244032511
-0.00014267440971584656
3.94760247703228908e-05
-3.91829786404311359e-05
0.000105406529842797078
-0.00015163374188741007
5.4374239415083419e-05
-3.32046115539603206e-05
0.00011114034899464778
-0.000160970631605085045
6.34659397672799892e-05
-2.40476346953603508e-05
0.000110553243006758376
-0.000161874045726272407
6.87998509701955713e-05
-1.18769992887350856e-05
0.00010901671976971921
-0.000160185591896639718
7.20161426861118371e-05
7.78343040604506328e-07
0.000106273919941001188
-0.000155745004178370398
7.40994079053513383e-05
1.29216582586671522e-05
0.00010127227322027872
-0.000147524924155098346
7.61497437819008346e-05
2.17865671598530764e-05
9.42507166478862306e-05
-0.000136746767431835997
7.84469598440160911e-05
2.80346706354871826e-05
8.80016918244945425e-05
-0.000126891039412207671
7.9081884504622984e-05
3.49754228500636353e-05
8.21474195572381385e-05
-0.000117863538865301088
7.78655700584732999e-05
4.26748091266496518e-05
7.56165021353898977e-05
-0.00010856696112750479
7.45065043839616476e-05
4.86722141919111126e-05
6.78300586772380556e-05
-9.82629241868331299e-05
6.96927290223174856e-05
5.20025079311923263e-05
6.0447132632405871e-05
-8.79554868508944046e-05
6.37907234345798846e-05
5.22274156503896154e-05
5.36419240394764359e-05
-7.85433000459726563e-05
5.84360421032037368e-05
5.21598947960126279e-05
4.72561925763554186e-05
-7.07202819561837974e-05
5.35240991683549086e-05
5.29775993644398386e-05
4.13648429715723461e-05
-6.42246037070309811e-05
4.71321581417614001e-05
5.43460946419891761e-05
3.65616839124087656e-05
-5.81437925873384346e-05
3.91017501029289252e-05
5.26362015151729453e-05
3.32012893923449903e-05
-5.23200412954779494e-05
3.12919298894319577e-05
4.82177620536832681e-05
2.92828112791653766e-05
-4.69754657496685381e-05
2.49067453975857522e-05
4.7345912702860875e-05
2.4127841659776587e-05
-4.12965171324686616e-05
1.90245794037604228e-05
5.0226279493343674e-05
1.98636564335710839e-05
-3.63318510826944065e-05
1.27532680559260833e-05
5.48336285783237179e-05
1.95386299369200554e-05
-3.41064967225058414e-05
1.51957466214752427e-05
6.88397696627197431e-05
2.5940844271644626e-05
-4.05649357905373651e-05
3.29732352759006813e-05
0.000165566235448575316
5.39500383819207531e-05
-7.64362907546924558e-05
4.68017057305989477e-05
0.000538139707745217228
0.00014826828464292472
-0.000169506605940723039
0.00119760730138664139
0.000375477919612564846
-0.000368963019171122085
-9.60172864770627741e-05
3.06316313059574533e-05
-0.000181442382717116762
0.000250831472043123093
-0.00012357132914649611
-3.73763998767744838e-05
-0.000133140497076514081
0.000102031319541257074
-0.000132641490258070109
-4.36154280259776051e-05
-9.57133919463798758e-05
8.08017281129810822e-05
-0.000140679463125918853
-5.45548454923245357e-05
-7.26168838733289761e-05
6.5546845768421375e-05
-0.000145650215629420532
-6.11061821701859939e-05
-5.30769689724336401e-05
4.43109765388718485e-05
-0.000138033342127438628
-5.97174431260822665e-05
-2.64083621012172241e-05
5.20711947887086445e-06
-0.000124193741899652344
-5.73587137638247393e-05
-1.53207351176073327e-07
-3.40767177184364984e-05
-0.000107392167835634419
-4.88124934003064578e-05
2.11552946158164129e-05
-5.71115479516256586e-05
-9.16522684811349166e-05
-3.82834741824969509e-05
3.70230515731742601e-05
-7.38294274639232542e-05
-7.73136366764050071e-05
-2.75809828180991147e-05
4.79703790790164509e-05
-8.63118417447520601e-05
-6.30228106513121034e-05
-1.8129114012609011e-05
5.40032383318564114e-05
-9.38866900760159989e-05
-5.01948614083519372e-05
-1.16763348268214892e-05
5.67794004000501311e-05
-9.83978141965491978e-05
-3.94562853318300861e-05
-6.71527300506070274e-06
5.86915073283400751e-05
-0.000103210625975800284
-3.04151213253846475e-05
-4.84821476690928564e-07
6.10018086030275676e-05
-0.000108745990678165618
-2.3686246804423388e-05
6.54200238861268348e-06
6.14284604312152581e-05
-0.000107910964851422677
-1.80866609587899878e-05
1.52840931105902402e-05
6.17110975490663648e-05
-0.000106650182445306344
-1.27585271035483434e-05
2.56660011459692732e-05
6.12875505347326813e-05
-0.000104165776211740773
-7.89522510771501687e-06
3.57592035312725049e-05
5.9787308240624921e-05
-9.96378571341948192e-05
-3.90626057568595355e-06
4.46977165793199048e-05
5.67748603946902362e-05
-9.25459554547079213e-05
-1.09272495753690702e-06
5.06419648485621082e-05
5.2535215883771652e-05
-8.42102003641814452e-05
7.78353379011484503e-07
5.46004724526740075e-05
4.86180867656779497e-05
-7.70610982962819345e-05
1.99000048703026255e-06
5.9797145944304036e-05
4.52935545175703111e-05
-7.13331268998243241e-05
2.49415008553753036e-06
6.61157577053449186e-05
4.17291757083950788e-05
-6.56803381885830758e-05
1.37040056337583113e-06
7.11121996601213281e-05
3.75269382860554256e-05
-5.88488608442995335e-05
-1.19056272419634411e-06
7.31028525657383366e-05
3.31688922685869562e-05
-5.17135672495938793e-05
-4.49174006155159894e-06
7.21581733041145717e-05
2.90069279616656893e-05
-4.5641123279147035e-05
-7.530911311940765e-06
7.08055288285097613e-05
2.50821146715763808e-05
-4.0692142797009212e-05
-1.08812272832158783e-05
7.10994849363538137e-05
2.16460100734381053e-05
-3.64198565663717579e-05
-1.55179989973673946e-05
7.20571380504972945e-05
1.9314561101032443e-05
-3.23898536151825785e-05
-2.12975439672510476e-05
6.97992048367137804e-05
1.75385822739620182e-05
-2.89220198611352231e-05
-2.72826906238013525e-05
6.52618841900543819e-05
1.48987867169332559e-05
-2.59570980285552632e-05
-3.25003774188214599e-05
6.35184441676724473e-05
1.18089388711599035e-05
-2.27628356296927607e-05
-3.76806403507881199e-05
6.57646901201852034e-05
1.01122206244486426e-05
-2.04691985952622309e-05
-4.19862977469665145e-05
6.89103559856941181e-05
1.09095363041819722e-05
-2.0678911978214315e-05
-3.83404367026477194e-05
7.59631951845936168e-05
1.63704976171574282e-05
-2.71379753973656206e-05
-2.33468265434299684e-05
0.000167548696432057859
4.13462965985089573e-05
-5.83211370558897081e-05
-1.27825899011002446e-05
0.000541810824620293915
0.000138841937782688155
-0.00015307708485074733
0.00118242526977599361
0.00035086226938388582
-0.000348462749890125702
-0.000101358837032188774
3.59919621065958028e-05
-0.000190838688101950207
0.000286837400099220971
-0.000123770399189644626
-1.71926978810113867e-05
-0.000124111708153760883
0.00012633029994811297
-0.000138541388211431724
-2.74467525605883341e-05
-9.20236182283640334e-05
9.0634818047839402e-05
-0.000145556580338362571
-4.20470348864417705e-05
-6.76395801995719338e-05
6.21450183438360348e-05
-0.000147393284425933574
-4.5869234837805727e-05
-4.58862152333265914e-05
3.24897243995186621e-05
-0.000141928242364214297
-4.29761128875141659e-05
-2.36002740451985053e-05
1.40308564473633016e-06
-0.000133086669375306546
-3.68774023189053762e-05
-4.38165102657421796e-06
-2.49247510688228346e-05
-0.000123961370074138802
-2.68176579684994995e-05
1.02866210011876891e-05
-4.13964746418979437e-05
-0.000115537022089966455
-1.56730858152832688e-05
2.03713735021912779e-05
-5.140916915612612e-05
-0.000106631246383044856
-5.1099019533229658e-06
2.70883131797186718e-05
-5.84732323881405377e-05
-9.72518907994563287e-05
4.70826242021871993e-06
3.11194301782935043e-05
-6.3342333423405765e-05
-8.94203177114799894e-05
1.20795752424811436e-05
3.26144896428562795e-05
-6.42081183536221696e-05
-8.25155371414582165e-05
1.74419333971382719e-05
3.34087169746646726e-05
-6.44789798123295666e-05
-7.5794750324087299e-05
2.21841249342272326e-05
3.43696684861039581e-05
-6.3770259103855092e-05
-6.9008491908225647e-05
2.85042335316578282e-05
3.57729258771200787e-05
-6.45328033369778835e-05
-6.25514893155042304e-05
3.68507129461287367e-05
3.6849942840164109e-05
-6.48839047248666201e-05
-5.64510790517476431e-05
4.59505892643286422e-05
3.68542268892917816e-05
-6.32480115962390666e-05
-5.1043806285513228e-05
5.42093361714819164e-05
3.58026976691938064e-05
-5.96676001470894103e-05
-4.61470412429129854e-05
6.10888100411559326e-05
3.4289413810712933e-05
-5.55839061717412202e-05
-4.2193450911818308e-05
6.6053922262756669e-05
3.2360778431755736e-05
-5.17327302329779391e-05
-3.95358466780804024e-05
6.96640962372783757e-05
3.01562482678100821e-05
-4.78837142729360675e-05
-3.77421037282186538e-05
7.40832912358376671e-05
2.78574742918004933e-05
-4.39434220613950727e-05
-3.64612045045977743e-05
7.91270236967597676e-05
2.54425398000032512e-05
-3.97403514366811978e-05
-3.60839704269114834e-05
8.31142229906832008e-05
2.29123944470864135e-05
-3.52967291574736669e-05
-3.6711116204990388e-05
8.45881765542124905e-05
2.03207282809767664e-05
-3.11835584704475428e-05
-3.81932163494949311e-05
8.36957482730922147e-05
1.76938732906986171e-05
-2.77533235201468091e-05
-4.01011054777660828e-05
8.23037937585098631e-05
1.51361913178028278e-05
-2.47295606235594673e-05
-4.21925368563115137e-05
8.22600172106831436e-05
1.30855343250576129e-05
-2.2156512968892843e-05
-4.51258043230571583e-05
8.29897627605788479e-05
1.19419356870570472e-05
-1.99421114356352553e-05
-4.94219736807846404e-05
8.13284266076634793e-05
1.0917154048965806e-05
-1.81502179036065295e-05
-5.46630272881335329e-05
7.77732698839208914e-05
9.22867079856513911e-06
-1.64985684861661041e-05
-6.03053911583814416e-05
7.6340944826193958e-05
7.69495469510296924e-06
-1.48745756671616992e-05
-6.54639977611980915e-05
7.77394720881881848e-05
7.39105591230603597e-06
-1.42065271322874957e-05
-6.84913833511747978e-05
7.87890650665269894e-05
8.31901089542894396e-06
-1.51690372509592074e-05
-6.76284589114413968e-05
8.31171375243790753e-05
1.27599698377490206e-05
-2.07753443599429929e-05
-6.28105297187781089e-05
0.000174368479626545614
3.75842026660642671e-05
-4.92208618386399705e-05
-5.20021096571519513e-05
0.000541293764471822958
0.000135832404673866069
-0.000146123536018679241
0.00113276182346336643
0.000318601606113088276
-0.000320940081426596938
-8.83251105573615026e-05
7.94889728966442235e-05
-0.000180888006425891429
0.000225730788201104776
-0.000124601389905629791
1.39091986312071194e-05
-0.000114045597670215466
0.000119217012332448397
-0.00014221162829907501
-9.06145327934530231e-06
-8.61800244031076456e-05
8.54155523970388721e-05
-0.000148706285153040824
-2.58638470658308313e-05
-6.14949955578640572e-05
5.17992691202097562e-05
-0.000149935832139657792
-2.89697466312682656e-05
-4.03552706858432086e-05
2.46828584464005922e-05
-0.000146886375329381984
-2.68665429343563716e-05
-2.15681702826050949e-05
2.4181578672981909e-06
-0.000141923185280265376
-1.98201719777604762e-05
-6.52620031233181049e-06
-1.54839278627178187e-05
-0.000135777601021191025
-9.74799893477851671e-06
4.98165607649544016e-06
-2.81951835203687424e-05
-0.000129473735068960763
-2.40767032400116485e-08
1.28136498286717864e-05
-3.47742770182813229e-05
-0.000121864580938503775
9.73682768899876467e-06
1.79743036828630576e-05
-4.04379546160463804e-05
-0.000113937066849451258
1.8144200486820814e-05
2.07528313474378822e-05
-4.21177365508136842e-05
-0.000106909176973725661
2.38347972717420331e-05
2.2268602342569622e-05
-4.10500501480823166e-05
-0.000100372923969448404
2.85463395756287524e-05
2.36354875527898073e-05
-4.12767025542459356e-05
-9.38963808422534145e-05
3.36819725820611908e-05
2.5092782864235372e-05
-4.30711994580988697e-05
-8.72439521465356112e-05
4.01516681051623282e-05
2.63766907494695244e-05
-4.46816617320910264e-05
-8.05831459487411407e-05
4.78132361065631382e-05
2.70571847281206264e-05
-4.46846906594483483e-05
-7.43811018771980211e-05
5.56600284106968017e-05
2.69137827665820871e-05
-4.28282442948798751e-05
-6.89947277934419917e-05
6.26797727154218955e-05
2.61012275431633983e-05
-3.99604658591615398e-05
-6.42310601577586595e-05
6.86714750537215329e-05
2.50549011789778236e-05
-3.74037343597805871e-05
-6.01269729378801367e-05
7.36667427165296719e-05
2.3837151102662706e-05
-3.55571265080408105e-05
-5.70904746230062722e-05
7.76678450844616244e-05
2.21803807304480445e-05
-3.32242015223478465e-05
-5.49503988581436168e-05
8.17613230616636078e-05
2.02396416544173135e-05
-3.00614503231838557e-05
-5.33766861678165613e-05
8.59332090216652703e-05
1.82757208649717667e-05
-2.66589662912443748e-05
-5.23430904872641695e-05
8.92843102946324713e-05
1.64634291910385048e-05
-2.36699053405155344e-05
-5.1931409704874615e-05
9.07445995030907492e-05
1.47059179359146614e-05
-2.12768444222373146e-05
-5.22857636632378622e-05
9.03687915007264777e-05
1.28496132879895608e-05
-1.91707737942685128e-05
-5.33982351825971715e-05
8.95666425031384504e-05
1.10460324132930941e-05
-1.71981620994659407e-05
-5.51624511382591738e-05
8.98332438608605738e-05
9.73460600111404452e-06
-1.55445013717554314e-05
-5.76041226517172596e-05
9.07284096689630758e-05
9.08294977492214722e-06
-1.43800141182194596e-05
-6.11370979780907092e-05
8.99360627552932995e-05
8.43975094514229169e-06
-1.35139706148870807e-05
-6.60089968819648843e-05
8.78051434787625797e-05
7.46951849710535723e-06
-1.26288748342536401e-05
-7.16852747945037909e-05
8.70857271962426728e-05
6.89810335363404552e-06
-1.19660927886870261e-05
-7.68946891757150443e-05
8.77593270522090973e-05
7.25311707262779642e-06
-1.20629281977123732e-05
-8.07971200015323714e-05