/*--------------------------------*- C++ -*----------------------------------*\
| =========                 |                                                 |
| \\      /  F ield         | OpenFOAM: The Open Source CFD Toolbox           |
|  \\    /   O peration     | Version:  2206                                  |
|   \\  /    A nd           | Website:  www.openfoam.com                      |
|    \\/     M anipulation  |                                                 |
\*---------------------------------------------------------------------------*/
FoamFile
{
    version     2.0;
    format      ascii;
    arch        "LSB;label=32;scalar=64";
    class       volVectorField;
    location    "0.270000000000000018";
    object      U;
}
// * * * * * * * * * * * * * * * * * * * * * * * * * * * * * * * * * * * * * //

dimensions      [0 1 -1 0 0 0 0];

internalField   nonuniform List<vector> 
7236
(
(0.548589012954178168 -0.144950660780575252 0.310164734159943445)
(0.885821601726192065 -0.174049222284038518 0.318173190911076154)
(1.09437700051335485 -0.158878809282618799 0.36710112294460201)
(1.35104399210041759 -0.138713721624219744 0.47339268180380889)
(1.65072850281100525 -0.123757960696058086 0.564078413252548372)
(1.87519948371924139 -0.105415382303595276 0.620875619650971489)
(2.0209533842356584 -0.0944090911913921665 0.652097844802646431)
(2.12689648224558336 -0.0867489790627058582 0.67343780986231061)
(2.20811364930655163 -0.0806594837006279625 0.681201988598301833)
(2.2674626506995228 -0.0744902887395921531 0.679312801080345641)
(2.31010238454206318 -0.0696900571202467983 0.674480619696871009)
(2.34575679281733063 -0.0654282856456984141 0.668639549460804283)
(2.37768212625944386 -0.0619365619796769726 0.661639758335634931)
(2.40768525316393855 -0.0596736157198827222 0.652846044193556296)
(2.43802538215494335 -0.0577485622480466698 0.640299267037267361)
(2.46819696963035939 -0.0559706153216854574 0.626990656261377954)
(2.49755947620056773 -0.0544833438267432885 0.615336935628912673)
(2.52558035414522397 -0.0531818123316594241 0.605774694579517825)
(2.55069799002219888 -0.0521924532536380686 0.598124950563024949)
(2.5734574690209735 -0.0515154745405147357 0.591485817348959109)
(2.59677385683291861 -0.051091595299998592 0.585556791965424761)
(2.62147435655513528 -0.0504992602957039585 0.580924664292142734)
(2.64509141502149836 -0.0497737101276335692 0.576918464968368183)
(2.66483464200205855 -0.0483197287925253571 0.572957942229887718)
(2.68195012806118349 -0.0467458958911302971 0.566457419093834069)
(2.69797824963827404 -0.0450601351669108266 0.562765288604533898)
(2.71617849175350212 -0.0424129657532223078 0.559361612228565619)
(2.73466017648117132 -0.0385080893640687705 0.554477084053072833)
(2.74768071010124038 -0.0337532714403487033 0.551255225305064211)
(2.75792366283448676 -0.0294116367527855263 0.547857079569572636)
(2.77139439845313573 -0.0256144292159634218 0.542275502415379584)
(2.78016615957752622 -0.0195806143517254748 0.536336699318924581)
(2.76933602292572045 -0.0134824345926705877 0.527457556335480859)
(2.75241279741107325 -0.00794109792421821871 0.519030442818622983)
(2.68534251950946601 0.00992847611101509153 0.519707230272812515)
(2.49590561877137951 0.0658466216122661208 0.553730205684211163)
(1.98770482387310432 0.246526413004263478 0.587000860010844394)
(0.87732007528297018 0.33831451366860299 1.18867635154268214)
(0.246275332001985536 -0.439324492344431883 0.103596371539831117)
(0.649333521357954746 -0.42629388854268363 0.185163797145181802)
(1.22352985211229193 -0.407017439988329677 0.396415240967327775)
(1.5785475695236344 -0.361001165035316096 0.532668708867418239)
(1.76877589042141525 -0.325536734987709686 0.609585466249989993)
(1.8424733692624311 -0.276609343102819372 0.659096218645302212)
(1.84337887120322241 -0.240468551823269622 0.663177267202760379)
(1.81754690649222805 -0.214984451786907532 0.654621850286144169)
(1.79173960398967536 -0.196741630079573099 0.645580218621080282)
(1.78344669000049016 -0.178021005032261925 0.633503987106252886)
(1.78934034832297884 -0.164010918507991016 0.630004096928468371)
(1.79960539342737946 -0.146919913958429293 0.6322031719601241)
(1.80961928177842291 -0.130177993875381204 0.640606410735948706)
(1.8192807789392873 -0.119907002008005359 0.648661255765687672)
(1.8336220833704906 -0.109818207587186148 0.648760753889224939)
(1.83768897677709209 -0.0997827360587320994 0.647879955897660786)
(1.83493169128499045 -0.0917801840163275789 0.65065526222023351)
(1.83034032082022091 -0.0836777752465514835 0.658329977347849593)
(1.82157653033093103 -0.0762010504308448799 0.667679084940575374)
(1.80631037923044513 -0.0713336525728351795 0.67970506040242773)
(1.78181933848055563 -0.0697550023168871242 0.693219846890364533)
(1.75206936162205973 -0.0678876874506441075 0.705647463996354585)
(1.72048482855713769 -0.0660873029055777522 0.716599460205663674)
(1.6938475926761789 -0.060729687119443182 0.725213578824162708)
(1.67066293136668387 -0.0598869618844616106 0.730153062760497296)
(1.64493796094709555 -0.0637435426247043441 0.731008788879604188)
(1.63204411387743265 -0.0661775424784371985 0.722000712046405035)
(1.64128272152671784 -0.0639347797426405018 0.71021588583873474)
(1.66542587214539051 -0.0621805820058693171 0.697242758917420158)
(1.69416941966753121 -0.0634133106847332151 0.680228917987933612)
(1.72558050357628212 -0.062703738459961772 0.661682589785333009)
(1.77150438725704618 -0.0522696658413136644 0.645091582633467775)
(1.80977209788422333 -0.0455547046862480251 0.624033997182667721)
(1.84098394183905611 -0.0300759006297080661 0.602823841421268436)
(1.8750139274870683 0.019760655345342118 0.597482807435242291)
(1.87369821866041075 0.163366575906424616 0.61604376207086009)
(1.73786856427160341 0.521743558981020095 0.744658735915563086)
(1.18639197825038889 0.881676705472551392 1.25699563887974763)
(-0.127457940122180396 -0.460833453833348283 -0.95215514974944615)
(0.688579642285517046 -0.433672667263541645 -0.0503266879616001694)
(1.2057709053307395 -0.472364105356496089 0.45083019249786882)
(1.21945647106757549 -0.407762177237094403 0.455017221680895589)
(1.10556012784550028 -0.310910325565124102 0.405073979777170246)
(0.980330373598276905 -0.21697354165269353 0.369184913337050946)
(0.892685026444144714 -0.171296830666858468 0.358487305723801386)
(0.875708274967400779 -0.161667754253652068 0.389602022555957883)
(0.91131959123526185 -0.161234374421909604 0.441071920412487328)
(0.960379886688077722 -0.15139129849028482 0.489654472607912172)
(0.967841649551065997 -0.138174111829276136 0.515667028046280618)
(0.934946398234213771 -0.12060681514282813 0.530133093129888988)
(0.878789330029269844 -0.106767530421613979 0.537571264061922016)
(0.815937267670942545 -0.10391499162801042 0.551019675789452101)
(0.779545406320004575 -0.10412291418479333 0.571287254394753252)
(0.786063048312228396 -0.102071204155862447 0.601836551694840516)
(0.824951366639059769 -0.0989491524285556201 0.638892212828235717)
(0.873834055076693539 -0.0948595233924485609 0.673576378518538799)
(0.917436377653854107 -0.0902241555555866048 0.698261832297939589)
(0.950616594758954991 -0.0847309518773051579 0.715659062387979605)
(0.972470278018136347 -0.0768455025722580426 0.714318924739793304)
(0.984042687627041834 -0.0664864566433844145 0.700390925481086724)
(0.987831882318802479 -0.0572345058524881753 0.677041093272710559)
(0.984970465492350122 -0.0510041620530060913 0.645034471376822904)
(0.978684508240652784 -0.0480626066043611383 0.608050071064747066)
(0.965860011174890953 -0.051223464650505493 0.564649603608221806)
(0.947945088291256233 -0.0543885337048819056 0.523679221257902006)
(0.932187717537433125 -0.0548311131506551835 0.486586202594013528)
(0.915065956386547752 -0.0563656496060339074 0.450799658995880759)
(0.899284370972170177 -0.056857666278310709 0.420157890829484015)
(0.883818597545785067 -0.0563576740904598861 0.393829079329916953)
(0.881660343031007598 -0.0426722137858188688 0.371709002536734556)
(0.888366974030861178 -0.0340718883346363896 0.351787500396975872)
(0.903150369674547981 -0.0194323626754005566 0.342652246053958109)
(0.896502965756812431 0.0385680792059377026 0.355342104584183027)
(0.979058631969013327 0.24053786939349403 0.463243146023709418)
(1.01515160770372748 0.763032492501072523 0.691891431022139791)
(0.961273819164148224 1.44138858449978424 1.27049251923120554)
(-0.161927736468300498 -0.262636735608668959 -0.603998526057307972)
(0.247737544481292732 -0.460006786673691659 0.0533350977067597182)
(0.236568445552179402 -0.432001737116962437 0.183348116289162033)
(0.00898634162749308192 -0.233428895842582779 0.138380644213733001)
(-0.0606872906517820568 -0.113268949028640875 0.015501892678643478)
(-0.0411309153936178368 -0.0867390650851920519 0.107368585843867589)
(0.105175731208129827 -0.137962789825345211 0.241308562811577365)
(0.233675494645535747 -0.171000547908933292 0.328625732502858925)
(0.286210092022764373 -0.16284260319026822 0.376936513261120432)
(0.277263196929184108 -0.132508796347811098 0.412625431946153365)
(0.231550023966599627 -0.0993798749226564859 0.443269180144763741)
(0.196448740719002563 -0.0760810062827449035 0.470587106100752273)
(0.221570974625049655 -0.0700164967986111886 0.4991425433844906)
(0.297989342065727303 -0.0828028213924463796 0.532517607398552029)
(0.392022689508200295 -0.0996952110017786525 0.571350358546289905)
(0.476352148423735633 -0.112500620202045959 0.608341050321175802)
(0.539224764381186938 -0.113795589402885935 0.625396226049701909)
(0.581805541624255795 -0.105018812950325058 0.628047263268679323)
(0.606968840884937855 -0.0887608116142692971 0.61722714767710507)
(0.616139002002338843 -0.0701539907755012737 0.590471562755968571)
(0.618548275811492854 -0.0512515052761769591 0.555966947502161357)
(0.620294871349925336 -0.033629385567273129 0.51981431170977177)
(0.616226503208884058 -0.0174599449232846482 0.480491151703931585)
(0.608148719176187291 -0.00446906578931052442 0.438036763256519135)
(0.598372389510483438 0.0055968926370944961 0.399091344908947931)
(0.581544404585634167 0.0117043764432699163 0.362012532292534106)
(0.560351210232567398 0.0152792048158111333 0.329279089616149656)
(0.53993249456183956 0.0181586840981296585 0.300121765711808985)
(0.518413667834432212 0.0200681951491113071 0.273036190643600407)
(0.491116839256250159 0.0201023313006386921 0.249818184890112371)
(0.459293181260675143 0.0163991532586192888 0.230085200003467272)
(0.433827802919315719 0.0178214830833377386 0.207454129786003333)
(0.4145247453592249 0.0239477910305340436 0.182857829734698468)
(0.389055423354899343 0.0391550544057003014 0.168290403943429395)
(0.350303987430233943 0.0878493981994510481 0.186562291473736208)
(0.379606288805603431 0.269343503618758695 0.304368736893340985)
(0.394226759245335567 0.864329598149885081 0.595467394184329257)
(0.750258983817215896 1.81445461009176934 1.24780233967175858)
(-0.248731652062461783 -0.0700490223206203799 -1.02138021070271412)
(-0.394113052185861346 -0.180984634067652306 -0.542754903915647069)
(-0.435957881015863469 -0.107617207051815711 -0.296812279663197398)
(-0.430045645070429028 -0.0727035144789482529 -0.218412806394836373)
(-0.439633143118432324 -0.101574472451984463 -0.176457292911101238)
(-0.383420623329073673 -0.137776350515607882 -0.0375375922422343314)
(-0.287936352764082304 -0.164568878712200911 0.170165039131749019)
(-0.270121811310972237 -0.135205474028279787 0.255710196610059448)
(-0.253967688456087193 -0.0963372399853255207 0.297508339490392071)
(-0.205313094097323096 -0.0727572615938208433 0.34098449675063186)
(-0.131564326156858619 -0.066533750786521545 0.373504737004594911)
(-0.0496548228839432115 -0.0792358980715772293 0.393946446500782421)
(0.0279266587630964125 -0.0999498952281702435 0.412550887703636626)
(0.0965638491197493981 -0.11030355376717399 0.428587560303484882)
(0.155154933247326654 -0.105719655750962316 0.455623966087937593)
(0.192368649234958944 -0.0913115463533658717 0.452979471605702622)
(0.214156152682606293 -0.0672521298420347968 0.443604865816499383)
(0.227013451995844412 -0.0397949733705476594 0.427284813074017944)
(0.234086788336354795 -0.0125587598228477423 0.401100491716728902)
(0.239169443759695594 0.00788459131498690444 0.368631763571461712)
(0.2480580019594949 0.0212656638550426727 0.340792361715981873)
(0.254193746778698049 0.0328528271627025609 0.316119009350303848)
(0.252374520024508553 0.0453458883909761135 0.289743625843547403)
(0.244973553595253579 0.0555908056516499285 0.260361388325755672)
(0.232471870248120049 0.0624367154924875822 0.231978840032768974)
(0.213495434667728079 0.0640172383352915902 0.206104645231302064)
(0.19357326744030337 0.0650439990530360113 0.183708177102220482)
(0.178231554142730009 0.0674113254634322867 0.164122762975008413)
(0.163329190777779493 0.0698786525867760994 0.147017460110852705)
(0.139857910064406676 0.0675567832276693092 0.132990410327431446)
(0.109696309445438095 0.0612643044061014219 0.119482985062192154)
(0.0866938570229749683 0.0622367571127170685 0.102710887632568304)
(0.0718725520348996727 0.0687850991491176789 0.0875233427885843407)
(0.0498413652374700492 0.0776230156953900685 0.0833809974747824617)
(0.0229457593442138341 0.11011696895383416 0.106257501587114611)
(0.0698764796546330752 0.275574466978417976 0.21030706899273699)
(-0.0275475123162509106 0.876233819563903449 0.512639529796190319)
(0.585258541842520019 1.92630388853967394 1.20327111454783608)
(-0.162742012126146668 0.0358236954269010727 -0.956962213929454131)
(-0.399457628998753866 -0.112620149024358449 -0.48928986019190418)
(-0.419507086458047351 -0.0972304768221944754 -0.269602123965786034)
(-0.443738253807034078 -0.0999473757002326407 -0.207438230557423081)
(-0.462168796594313924 -0.101814511842440336 -0.16493321427970753)
(-0.458374538293168543 -0.0893269045406354378 -0.0883483421830586063)
(-0.421644165156579209 -0.0897598185097546464 0.0368160419977778888)
(-0.371828329524637791 -0.0888402283978320662 0.127363247720522738)
(-0.316139601258459468 -0.0871777549475195035 0.184208641906593917)
(-0.26892993594750314 -0.0767562252316370819 0.220774000987675689)
(-0.223746119687352862 -0.0595914330234055406 0.238815749922052151)
(-0.18043587621260912 -0.0463415335055003264 0.246275215558377142)
(-0.142573311793859847 -0.0361755374472235158 0.253674336341608631)
(-0.109696161097041764 -0.0245104158711097232 0.263253963657470003)
(-0.0859536662917965988 -0.010740120402479323 0.262447127063645924)
(-0.0658037500867371117 0.00470543191889962603 0.262142038762954332)
(-0.0490089421004143572 0.02188929840932443 0.256964780721708641)
(-0.0317420627441990302 0.0388614428739589776 0.245874895548601508)
(-0.018090694250827391 0.0544963614371718336 0.228632120768334945)
(-0.00805265423621500352 0.0652538082004087971 0.208734559428689403)
(-0.00058774534538893336 0.072458400653349006 0.192219396520070224)
(0.00518217392456206058 0.0814790318647154038 0.1787894795544267)
(0.00823130638214513571 0.0924009849732219529 0.164412481507825642)
(0.00758708498163688898 0.100825172892743842 0.147421857411080187)
(0.00150278363097600294 0.104390717394225785 0.129672130470820823)
(-0.00932050300061657705 0.102904837684378289 0.113902755240472969)
(-0.0206418359752826158 0.101416051203205862 0.100073045099496272)
(-0.0295824160730865857 0.102378855639017927 0.0881298623403844739)
(-0.0400690233696459064 0.103846970909855216 0.0787044687742663035)
(-0.057740837688921097 0.099755110905584865 0.0715902454409124561)
(-0.0801152222622829591 0.0921767504617468092 0.0635906575967640914)
(-0.0974521361180696738 0.0904314525229948651 0.0534141019719628837)
(-0.1109997412714053 0.0943327221488617917 0.04667381795142235)
(-0.130590382737206884 0.100363494643826642 0.0487887639863118089)
(-0.135935445330778004 0.11740408592161522 0.0692937276813113262)
(-0.0846112545061526583 0.271155441156458399 0.159794580265755243)
(-0.26477028858757673 0.868995081898181976 0.465295593458610712)
(0.437551921399711441 1.93707635588335036 1.13589335138467096)
(-0.182214718843180495 0.0589894709855624741 -0.950341753181705329)
(-0.407042549805319342 -0.0427533314441636281 -0.456272483873859269)
(-0.431231562442894178 -0.0534102016227623808 -0.270045273327131574)
(-0.461071464898880845 -0.078710713987862696 -0.194278612835011633)
(-0.471287030286430986 -0.0894773740346147539 -0.136122433754698513)
(-0.465564858222360767 -0.0865342697661759946 -0.062703436561633602)
(-0.439773688130773055 -0.0783883800227947458 0.019307620926111442)
(-0.410596159889760615 -0.0596308223804010856 0.0769685676791148493)
(-0.383039504309019452 -0.0387993707292137446 0.109363381487428968)
(-0.355315405622046221 -0.0201689469534936071 0.1282463994817854)
(-0.325160892704058013 -0.00409853185407832877 0.137587571506943396)
(-0.298040107681212973 0.00815069988194526245 0.138568155643399721)
(-0.274938860979159705 0.0169430768544240225 0.139044778127643515)
(-0.253760852499534728 0.0260366492952728672 0.141717902538841395)
(-0.231429354767901829 0.0356940447412204265 0.147101598449866616)
(-0.209957138830467016 0.0486115292523068218 0.150696614946075697)
(-0.189836493469194345 0.0636175643183946732 0.14893256304490049)
(-0.171435160785933072 0.07784597689919312 0.142185382336006111)
(-0.154843096570156324 0.0896015631933357454 0.133710721438388774)
(-0.140724044818163418 0.0972406216605423285 0.125358804906733207)
(-0.130381315176404361 0.102701907935938003 0.116996144744265146)
(-0.123210208914495439 0.110425895418530387 0.108124080440808928)
(-0.118175550680678268 0.119518378094728581 0.0982586566190515182)
(-0.115098282319740744 0.126414008659798627 0.0877781337005673901)
(-0.115620110020508163 0.128653013060632843 0.0776736783887145288)
(-0.119537580564612222 0.126739682660162556 0.06858414823251896)
(-0.125785249071513339 0.124314837714984014 0.0600982905501358591)
(-0.13224557383285071 0.124333141155562169 0.0531609053948718172)
(-0.137922455392034127 0.125380205539644823 0.0486024533774113282)
(-0.150436152377419391 0.121845296941757678 0.0451088631125171544)
(-0.167049716064035986 0.115035375152552521 0.0401449867738516639)
(-0.184503833739248835 0.112221659123490039 0.034805481244079263)
(-0.201914454685562461 0.115010778115933646 0.0331163610052293278)
(-0.218876380631352424 0.118503280002737119 0.0365930793033091006)
(-0.213163447831188096 0.126193825354274092 0.0531728402174635323)
(-0.186482428813438017 0.273931273797864638 0.138144795762256134)
(-0.398681217121078957 0.876935556711541331 0.451845528714709121)
(0.293566095228801283 1.86751037180329793 1.03895118312782087)
(-0.105696513326141939 0.0883147301426883136 -0.864100563748522732)
(-0.40935359845929703 -0.00353134938157532996 -0.395393542478012672)
(-0.436882482467241429 -0.0297053615886279203 -0.258941198907183812)
(-0.472165126141776581 -0.0543284113144775066 -0.176548804463809161)
(-0.479609132591484466 -0.05963244344028161 -0.116219880188139391)
(-0.475964092364977553 -0.0546721073447421976 -0.0517361405580800057)
(-0.461965941982419914 -0.0428038398931309266 0.004468343566773815)
(-0.444493638312772443 -0.02695320502775643 0.0441759938183627007)
(-0.424529961363894537 -0.0105050549434370973 0.067425876484721009)
(-0.402427612231990695 0.00624318624052448787 0.0806979868812462697)
(-0.376585259666942451 0.0221263668984441469 0.0854706173235416505)
(-0.353253935253379781 0.0329762357979450429 0.0872810306993583307)
(-0.331359549291056987 0.0406534191824028113 0.090870563055154091)
(-0.31103624419274245 0.048061545209239824 0.0966205391273623343)
(-0.289829807519117744 0.0580561787936909462 0.102060640420737148)
(-0.268275325903239492 0.0707297030651264785 0.104339664906654431)
(-0.247155187544881028 0.0841788343057423005 0.102562926292604981)
(-0.228914344673377956 0.0961822161184903018 0.0980250829845026872)
(-0.212745169958629826 0.106179712181876371 0.0931542245051085183)
(-0.198421464216425231 0.113758736143231967 0.0888805475124668787)
(-0.187014265269774799 0.119739659217407382 0.0832285005732520122)
(-0.178823976650106797 0.126557879206108892 0.0758657283910895014)
(-0.172979769480033185 0.133871804568739483 0.0679955359906799506)
(-0.168644557911365012 0.139582408739899938 0.0609468790768457752)
(-0.166268134851820154 0.141728541950944559 0.0548523924157548193)
(-0.166341687511251946 0.140553939636792191 0.0489596915215052345)
(-0.169002355971824669 0.138559532891478265 0.0431705268318354971)
(-0.173639560604952281 0.138565228577673089 0.0387888502572456065)
(-0.179683016014729524 0.139809687402527139 0.0364965713144135007)
(-0.189138863079663905 0.13777466990559048 0.0346333743901025698)
(-0.203078722119736654 0.133021998568885746 0.0316606592943261059)
(-0.220495359167127231 0.131022059609832459 0.0294230583072137841)
(-0.239000435763148472 0.132552054315194207 0.0301318731018949335)
(-0.255692857666180329 0.132895579991869711 0.0337859693844990427)
(-0.254322074161903999 0.139741226979807509 0.0468517094287379254)
(-0.259815355783206636 0.28659115508819788 0.136313608725177116)
(-0.444901085738963142 0.870675533129184553 0.443162754164994177)
(0.162957959609886655 1.76216277108276742 0.934612892654281935)
(-0.126364628654507066 0.140792643200618961 -0.848958594869852368)
(-0.441944498462843394 0.0363117070436233536 -0.379689621638971908)
(-0.449969847851514504 -0.000592452461508019557 -0.246842906287680075)
(-0.485596347595837086 -0.0274629894097090863 -0.162989715861371398)
(-0.489524674380275304 -0.0334860841717512722 -0.100143396689883285)
(-0.48624688452398912 -0.0309208762916828722 -0.0428729946412153631)
(-0.475666887922368165 -0.0198065606732003296 -0.000243235485567920573)
(-0.458387754605110331 -0.00491789755691329159 0.0300544987238977844)
(-0.437658092195396364 0.00979635293827722797 0.0492817631684195068)
(-0.414406862488268191 0.0241843299585638924 0.0606423990865203599)
(-0.390473693827934731 0.0356245041611801608 0.0664620169452809356)
(-0.367835354671322168 0.0437255295202076538 0.0712948956461443989)
(-0.346511903554908685 0.0512130190974734306 0.0769967833458498896)
(-0.325761104888210751 0.0598305222623098237 0.0829475178802399626)
(-0.304946499609764055 0.0704066137526382085 0.0872516646458949829)
(-0.284419318336859572 0.0823091052005437973 0.0883417223814066122)
(-0.265170031923569638 0.0940433610197174141 0.0862794056043098834)
(-0.247774307147165057 0.104573123835235565 0.082478376148431537)
(-0.232310177971885023 0.113887106145125455 0.0783406430091775491)
(-0.218665967877593626 0.122046128861347719 0.0741557692579602329)
(-0.207403881993261902 0.128688293701400808 0.0687164858233764164)
(-0.198940168885541613 0.135042239061315739 0.0620527871463860681)
(-0.192709907216152387 0.141285665552431772 0.0554247811867791818)
(-0.187815967113529714 0.146371590102203353 0.0499282888502092653)
(-0.184251704289435908 0.148876213174021166 0.0452959235176523464)
(-0.182973579028008621 0.148828839781203037 0.0406825384073442459)
(-0.18459935781518641 0.148151642578956994 0.0362591563330865452)
(-0.188897686966228467 0.148909318041370142 0.0331013101281388278)
(-0.19533382978635605 0.150568852662357977 0.0316783301071414253)
(-0.203724698868278847 0.150092862846419511 0.0307040213695111801)
(-0.216839034618867582 0.147860916886131177 0.0293814397374633704)
(-0.234370754129015341 0.147317122153664271 0.0291362352214303566)
(-0.254217706733283366 0.148051990800167954 0.0310238181152310902)
(-0.273967642577557513 0.147271491333676424 0.035125737155703024)
(-0.284747676837524 0.156382558687868156 0.0472559912267255383)
(-0.315417731012602121 0.306270800998166448 0.145197706574901581)
(-0.464929970409426185 0.857069690744591273 0.432664926057484356)
(0.0563062282558779992 1.63726782828528084 0.832657439417351486)
(-0.153037164952685961 0.14855763374195971 -0.860476259068238436)
(-0.478417440535262695 0.0602311496720371112 -0.370882107891189028)
(-0.464152443409688309 0.0260286487436249339 -0.236751054028684849)
(-0.498906416175485035 -0.000182511825835798835 -0.151335683670679455)
(-0.498302233057920652 -0.00893822148980621262 -0.0888723486993014122)
(-0.493792606553387858 -0.00866627476705667844 -0.0375844146757091727)
(-0.481322363794526642 -0.00107357321827265123 -0.00178875373068248383)
(-0.464817041272990394 0.00951459379751840723 0.0254298181555688702)
(-0.44418726783876078 0.0210642777138252933 0.0437863429334687387)
(-0.421325980580601167 0.0321731433367848374 0.0556826718906030665)
(-0.397984868413601367 0.0409913542670866451 0.0632613135746981775)
(-0.374868366770606032 0.0485880875714880603 0.0694013940079938607)
(-0.352662460032115987 0.0566465181992607952 0.075361585831617714)
(-0.330853533566397351 0.0661325125060952951 0.0805964420763975592)
(-0.309156520762715825 0.076898295755008797 0.0838427261808222385)
(-0.287935673460148978 0.0881118500070790511 0.0841936709044901754)
(-0.268292403801654311 0.098841303264587177 0.0818481534047363068)
(-0.250895861014873711 0.108800437960519081 0.0778794013563633564)
(-0.235895908441977636 0.118022254845906671 0.0732623222953340258)
(-0.222973915450951105 0.126304763496857264 0.0682720611737250849)
(-0.212199037383814876 0.133317503612584848 0.0625101317579638827)
(-0.203898690332519006 0.139639396457151566 0.0562097637161905403)
(-0.16783484728543846 0.146121552083302936 -0.8714651088633939)
(-0.50167386680616588 0.0838063787934382048 -0.360849479047091359)
(-0.480666203022066585 0.0512454042526220149 -0.23069114333196758)
(-0.514999985381890846 0.0247796442673318025 -0.139995644162945632)
(-0.510470231048067768 0.0124683966623026759 -0.0797815614035528586)
(-0.503623644694000117 0.00950752633889821036 -0.0331786738400187617)
(-0.489188815363316543 0.0123274954068456153 -0.000217099836697924597)
(-0.471070415295593681 0.0192014326230382504 0.0254207461379801977)
(-0.448825662865192432 0.0276549197642486679 0.0438093408939038559)
(-0.424054911299026338 0.0361561777705357648 0.0563412231859569609)
(-0.398741876764159786 0.0434506819322416638 0.064992299311876861)
(-0.374432317775209911 0.0507359834818593217 0.0717948312853147752)
(-0.351286697050684826 0.0592042460967175527 0.0776662079852436238)
(-0.328665286188134842 0.0689979535378918568 0.0822381446323554588)
(-0.306336533645989451 0.0796904566991650937 0.0846600578138097526)
(-0.284839834777820544 0.0906058136279314641 0.0843101641567002985)
(-0.265194266754327668 0.10111001914709962 0.0814480079698213233)
(-0.248089411477450644 0.111048875545246145 0.0769255136360238873)
(-0.233529616665806405 0.120342831760194668 0.0715914794328959131)
(-0.221186273453552323 0.128755403327341894 0.0658631975155508087)
(-0.211001953778809981 0.136063784390495629 0.0597833547980390623)
(-0.203056499927777356 0.142572219752666624 0.0536280598913278089)
(-0.189738298583534332 0.161123298995717701 -0.833338007793065327)
(-0.516062425613890041 0.110700913789311892 -0.352478100903964309)
(-0.498765001166708855 0.0753028402136937808 -0.225860048027726301)
(-0.530005250069781941 0.04648955139317789 -0.133002380252629004)
(-0.5225066871074312 0.0302911457498511172 -0.0742829099686881378)
(-0.512057304575081251 0.0232245140522205559 -0.0303156668021370944)
(-0.494945126930594281 0.0218827669802724306 0.00190937382481494791)
(-0.473883089315483674 0.0254181848398375293 0.0270058880701288216)
(-0.449165241287524053 0.0312493039101229379 0.0457062459196225096)
(-0.422796817767689403 0.0376297327997871384 0.0589381632233651476)
(-0.396854561619680524 0.0440950321143885465 0.0683446018013313672)
(-0.372056189533070625 0.0513932019348833785 0.0754911083859796661)
(-0.348162301551262543 0.0600575964403248785 0.0811567530578735097)
(-0.324673380019691149 0.0699359205869356237 0.0851874831741073618)
(-0.301699324321029305 0.0806547311666840488 0.0868676063692635364)
(-0.279935914512158712 0.0915914216829486205 0.08577275570922753)
(-0.260318578995946459 0.10224687006879736 0.082237030234518213)
(-0.243427135524849236 0.1123934869884613 0.0770444290757709427)
(-0.229228737025327617 0.121877889217110527 0.0710364571849266269)
(-0.217396167000176221 0.130487503680504574 0.0647424243314241032)
(-0.207753921135620939 0.138086792852045864 0.0583962568136207824)
(-0.200222077386504715 0.144861080455030988 0.0522586719001469843)
(-0.21858747671151213 0.186034723771260319 -0.787620673265456261)
(-0.528940753057050128 0.136681388747466132 -0.344869808466797878)
(-0.517403293907611306 0.0956653672936167432 -0.220814649468941415)
(-0.544714229892602098 0.0626570858593566704 -0.128758162793926767)
(-0.532394004007342159 0.0428128025328385481 -0.0709707688868939091)
(-0.518826260058793953 0.0319577417045987452 -0.0278340055792208156)
(-0.49850585723437163 0.0277091895629131765 0.00428118670851553376)
(-0.474830396870126514 0.0285930463020638778 0.0294456343240704077)
(-0.448273772043659979 0.0324101874614007301 0.0483372015873333241)
(-0.421064758478158108 0.0375411979925385081 0.0619874443281800552)
(-0.394596153572722319 0.0436230188755720935 0.0718916557976665982)
(-0.368938594413730003 0.0509313142167900149 0.0793722860697458621)
(-0.344048766469841172 0.0596840934762727926 0.0849109507037279082)
(-0.319630117494488553 0.0697770129873428596 0.0884275688884625377)
(-0.296134089142309265 0.0807334274794049289 0.0893740016379526436)
(-0.274214772868058732 0.0919247927071447229 0.0875102634931964884)
(-0.254746902090879246 0.102875050464501086 0.083233702137406218)
(-0.23815648486350488 0.113313805602529724 0.0773533805222395288)
(-0.224363112770022632 0.123043885097749633 0.0707437540920295288)
(-0.213029252554589016 0.131892347618344424 0.0640010450873804287)
(-0.203896714438424609 0.1397793242268415 0.0574289264348315509)
(-0.196778671097384894 0.146840162376241812 0.0512601368957779496)
(-0.419179293948780063 0.0360455519135658431 0.0650292174059973888)
(-0.391672978523091797 0.0419196179466293645 0.0753899755506738517)
(-0.364843036198791548 0.0493630768004817491 0.0831313141474037537)
(-0.338797539756944488 0.0584992174619736321 0.0885708409891474008)
(-0.313662642616415244 0.0690281648186084201 0.0915902462523885685)