/*--------------------------------*- C++ -*----------------------------------*\
| =========                 |                                                 |
| \\      /  F ield         | OpenFOAM: The Open Source CFD Toolbox           |
|  \\    /   O peration     | Version:  2206                                  |
|   \\  /    A nd           | Website:  www.openfoam.com                      |
|    \\/     M anipulation  |                                                 |
\*---------------------------------------------------------------------------*/
FoamFile
{
    version     2.0;
    format      ascii;
    arch        "LSB;label=32;scalar=64";
    class       surfaceVectorField;
    location    "0.270000000000000018";
    object      Uf;
}
// * * * * * * * * * * * * * * * * * * * * * * * * * * * * * * * * * * * * * //

dimensions      [0 1 -1 0 0 0 0];

internalField   nonuniform List<vector> 
20390
(
(0.698246050362307469 -0.159499941532306899 0.314168962535509799)
(0.397432172478081824 -0.38706874058998153 0.206880552849887267)
(0.344429205372931535 -0.111184337950755274 0.261812815295283885)
(0.91106617287299585 -0.103632905058730906 0.18592138674994052)
(0.999486496671601277 -0.166464015783328534 0.342637156927839193)
(0.767577561542073461 -0.311198549411973835 0.251668494028129019)
(0.656742321130185269 -0.172308721136884641 0.522997089801183535)
(1.13034752212811429 -0.122009112325348584 0.201841457882035141)
(1.22727324890617595 -0.148796265453419285 0.4202469023742052)
(1.15895342631282339 -0.273896155425032484 0.381758181955964893)
(0.852182817178216534 -0.158112135896703504 0.608747365055978484)
(1.32291423467586244 -0.11448359470080785 0.288741902229837533)
(1.49602485785174633 -0.131235841160138894 0.518735547528178853)
(1.46479578081202599 -0.24217708153668499 0.50303069533561362)
(1.0932605521799601 -0.145058691475369539 0.615254563925244136)
(1.5731681515651621 -0.104024818784049733 0.39965308958304574)
(1.76217604952231088 -0.114586671499826639 0.592477016451760097)
(1.70975219661621014 -0.224618988287725585 0.586831939751269127)
(1.39104372739505999 -0.135199367056675041 0.672720740915108251)
(1.83214481376037908 -0.0942734725701955129 0.489633152864584975)
(1.94715851061409784 -0.0999122367474936934 0.636486732226809071)
(1.85883642649083614 -0.182087139325811664 0.63998591914813685)
(1.63031407043244236 -0.118329237639522467 0.72867906778556335)
(2.01763962052552648 -0.0824896894796622177 0.549484228718078449)
(2.07602156411293093 -0.0905790351270490263 0.662767827332478521)
(1.93216612771944041 -0.165591409035433818 0.65763755600270335)
(1.79215540654675043 -0.103052485044218628 0.780225045435593789)
(2.14488210427389792 -0.0738565937370716519 0.577901869414765734)
(2.16806757482154122 -0.083704231381666952 0.677319899230306222)
(1.97222169436890571 -0.151714848900656368 0.664029830074227334)
(1.90626828504597601 -0.0923500258927510559 0.811224517518413069)
(2.23940075589947218 -0.0677779727357451511 0.599837136317447617)
(2.23771375240730608 -0.0775748862201100509 0.680257394839323681)
(1.99992662664811349 -0.142569770327926643 0.663391103609691002)
(1.9968658612536192 -0.0855022818428865933 0.825453760095763323)
(2.31265146026176316 -0.062485408505483897 0.609957054808703214)
(2.28732297723981493 -0.0720901729299194965 0.676896710388608325)
(2.02545467035000648 -0.128458237127161312 0.656408394093299208)
(2.08330987797482603 -0.0814715182401182236 0.821198054213284734)
(2.36755422649952951 -0.0582086866460666402 0.613888243998724326)
(2.32815586416491183 -0.067559171382972627 0.671560084578837646)
(2.04972136643252112 -0.121131083019240957 0.652242358312669746)
(2.16335580215832701 -0.0777820861021416288 0.812524353206489858)
(2.41083394937011652 -0.0548340099480186527 0.611093277112046862)
(2.36201504484356217 -0.0636824238126876829 0.665139653898219607)
(2.07268109312235493 -0.108357044710289521 0.650421360710464191)
(2.23114213682803486 -0.0732584432861318746 0.790992355487873167)
(2.44879415330058903 -0.052207181460701739 0.608136267884742621)
(2.39243164260494279 -0.0608050888497798508 0.657242901264595614)
(2.09365070401893361 -0.0974191921466195793 0.651123084535791818)
(2.27625551639626389 -0.0692546711179257146 0.768373236672266313)
(2.48389609529346211 -0.0503484700570859117 0.603951052449092085)
(2.42306531353139354 -0.0587110889839646752 0.646572655615411662)
(2.11348301605161293 -0.0909856431158072021 0.65075364997962204)
(2.30256441050729022 -0.066380608629307572 0.74878271335117319)
(2.51625096940383886 -0.0495300817680425984 0.597445227688542135)
(2.45336732692050452 -0.0568595887848660705 0.633644961649322713)
(2.13582373276271698 -0.0839090202456933276 0.644530010463246095)
(2.32315197688075115 -0.0652077513960601235 0.725547629661684734)
(2.54682825405500957 -0.0489115160143398647 0.588032230305406411)
(2.48284568499102543 -0.0552269795742143729 0.621163795945145369)
(2.15294297320372596 -0.0780339495579279036 0.63743530607951937)
(2.34699295556583865 -0.0643463573115032883 0.705216562254984636)
(2.57628525228231986 -0.0484273402007964204 0.578627937140490323)
(2.51157635061313922 -0.0538325780792013528 0.610555815104215194)
(2.16624558374277898 -0.0739822076128157785 0.632996098924573092)
(2.3731457989774758 -0.0633263163210228963 0.689126388609273)
(2.60439790520144188 -0.0480438228503912365 0.569893755567417615)
(2.53848509974160574 -0.0526871327926487498 0.601949822571271387)
(2.17796033748272233 -0.0685768092064138746 0.632052335963683709)
(2.39952887445910745 -0.0624410067325935347 0.673735292545615705)
(2.63045846590346466 -0.0479779907974182615 0.563491628961153235)
(2.56185055304750309 -0.0518539638970764022 0.594805383955992029)
(2.18613726017656518 -0.0639801115128015296 0.632902017751800106)
(2.42557633454725474 -0.0612469368500962105 0.661815943260413486)
(2.65390424796998836 -0.0480175235357767488 0.557222351897148305)
(2.5846987677292983 -0.0513035349202566673 0.58852130465719199)
(2.18988392412570931 -0.0613840476149827632 0.635595438875693475)
(2.45024690287115909 -0.0601411918539919849 0.651008254875999781)
(2.6750389173308653 -0.0481559448092896136 0.551089442075697433)
(2.60939941564577627 -0.0507954277978512753 0.583240728128783803)
(2.18929659765673712 -0.0612885431711765599 0.639388319427894647)
(2.47510756249738417 -0.0591720256919179566 0.642067382576597012)
(2.69565806156390542 -0.0482019838528508285 0.544191872700573565)
(2.63331737512631436 -0.0501364852116687673 0.578921564630255459)
(2.18677185908859784 -0.0591171690611512132 0.643286064144248604)
(2.50042790717708518 -0.0580725385456500598 0.633712171132758462)
(2.71651351876568814 -0.0481831064488143987 0.539396593685599668)
(2.65572339761921405 -0.0490467194600794631 0.57493820359912795)
(2.18278812178931769 -0.056734225587269857 0.646758962587015929)
(2.52439654123026447 -0.0569462226625384316 0.625652289513407123)
(2.73775799540262765 -0.0476999163355452671 0.534590508358286587)
(2.67283969723704606 -0.0475328123418278237 0.569707680661860838)
(2.17934111733911884 -0.0510568644090084109 0.649085760527025157)
(2.54830694580963391 -0.0553695505637146895 0.616264220515589711)
(2.75743600564621794 -0.0465741279956965043 0.5312672975487579)
(2.68919255174779526 -0.0459030155290205757 0.564611353849184039)
(2.1763065297139339 -0.0521801488084667406 0.648305240927165682)
(2.57035019903977391 -0.0534777735938322535 0.610094200829110811)
(2.77623337363314571 -0.0437365293824669293 0.522087140016298301)
(2.70785347083424988 -0.0437365504600665672 0.561063450416549703)
(2.17145810529268513 -0.0531839727684806224 0.646887038742068987)
(2.58923378951340499 -0.0513571743669534869 0.606058751588558153)
(2.79176854171204525 -0.0414258885846546521 0.51835200375581636)
(2.72623847173570599 -0.040460527558645501 0.556919348140819226)
(2.17411130281546772 -0.0514496529883820483 0.640681162137485272)
(2.60767298564701644 -0.0488355194693676845 0.599614800547880633)
(2.81041711082875612 -0.0382015407924191433 0.515100671596772641)
(2.74069099006490458 -0.0361306804022087577 0.552866154679068522)
(2.18797144900394391 -0.0471398423700082683 0.632346484945903842)
(2.62667756092134264 -0.0455857486592750258 0.5920666148527165)
(2.82951490139991302 -0.0338151511005546704 0.512239541147882504)
(2.75200004841103363 -0.0315824540965671113 0.549556152437318479)
(2.20655329112331522 -0.0442324118495910079 0.624248992111242185)
(2.6417190915336799 -0.0411866613386354177 0.587917165154267951)
(2.84331690781075253 -0.0292248677249750642 0.510761445578501116)
(2.76458770142601251 -0.0275130329843744741 0.545066290992476166)
(2.22604654125100909 -0.0439158989319872947 0.614042998778753124)
(2.6518440525038951 -0.0366634339144456672 0.582822807308090218)
(2.8557998736829564 -0.0254664383658087939 0.507578665032651588)
(2.77779781211373189 -0.0225975217838444674 0.539306100867152138)
(2.24848745101470904 -0.0427814145626873657 0.601979046100356241)
(2.66389714619097262 -0.0326541578468985613 0.575507709235937859)
(2.86846049821530125 -0.0212555958109523629 0.503154969137654562)
(2.77384933971504077 -0.0165315244721980087 0.531897127827202665)
(2.27583527341728509 -0.0308263619536373497 0.590714140976196234)
(2.67410397279579737 -0.0270756505408971983 0.566846943866694319)
(2.8743666567333146 -0.016538907153093977 0.501245683297968037)
(2.76247076203013897 -0.0107117662584443538 0.52324399957705181)
(2.28955406040497245 -0.0267745289511532036 0.575745776759074235)
(2.66561034335322589 -0.0205262863697071238 0.557168263418819421)
(2.86700165103025384 -0.010094546939121974 0.49224050611127812)
(2.72744206491929608 0.000993689093398279419 0.519368836545717749)
(2.29669836962506535 -0.0127489393416153757 0.560927142119945654)
(2.64538221923236394 -0.0139604607459787762 0.546069998458653894)
(2.84283084224132088 -0.00166303010010658125 0.485543249379092212)
(2.59824437453043311 0.0378875488616402523 0.536718717978511561)
(2.28017822349826638 0.0396989965116021637 0.558595018854027514)
(2.58789748271481734 0.00117941011355739839 0.542111718816223331)
(2.75829121857930781 0.0199857908049486215 0.492311771256161324)
(2.23226498079095803 0.156186517308266409 0.570365532847528223)
(2.18480191871589469 0.165268632345523719 0.584886983877535682)
(2.41218195855219042 0.0502601851210337722 0.570299000206811457)
(2.54328673002409289 0.0875540926192665825 0.53485651685251423)
(1.31292183448677702 0.292420463336437897 0.887838605776765988)
(1.86278669407235409 0.454163500128612174 0.665829797963203629)
(1.93866458815152809 0.217363613234460351 0.591552652265465495)
(1.9976804495111713 0.267228657030042116 0.58053605125752783)
(1.03185602676667942 0.60742433883040392 1.22283599521121489)
(0.841469542255410596 0.328559390895688808 1.23335782912878811)
(0.913141767986120678 0.3358440823479375 1.13528408935957836)
(0.443620035239243038 -0.432809190443557812 0.144380084342506265)
(0.0594086959399027781 -0.432674402021491988 -0.424279389104807003)
(0.144180346394130299 -0.18122287522411118 -0.221873537009320554)
(0.606369220052793367 -0.320058031861132963 0.130544129396839931)
(0.939435916193941623 -0.416655664265506709 0.290789519056254275)
(0.668956581821735896 -0.391773090371140442 0.0674185545917909412)
(0.215852632122458837 -0.147617557388487114 -0.148275604329496519)
(1.01795227815837852 -0.347244148951882381 0.186396919705245384)
(1.3954243199688745 -0.38400930251182297 0.464541974917372702)
(1.21465037872151571 -0.429507473507503956 0.42362271673259827)
(0.81425941237971533 -0.285668202211645905 0.220053862162773589)
(1.53565309196929634 -0.339412324407696975 0.364819316626803447)
(1.67679557354754216 -0.343268950011512974 0.571127087558703783)
(1.39900202029560528 -0.372235927633219443 0.493842965274156998)
(1.23629367116150135 -0.31623080165005224 0.440107032404741305)
(1.83985725632578534 -0.307794556746146863 0.461361302299654441)
(1.80429864907592719 -0.301073039045264501 0.634340842447646103)
(1.43716800913345777 -0.299732074294684292 0.507329723013580036)
(1.45908223946059867 -0.294198373183440831 0.542622480351044545)
(1.99516329678652138 -0.279452515758402076 0.519886455939256753)
(1.844346091605926 -0.258538947463044844 0.66113674292403124)
(1.41140187143035356 -0.234116539877379071 0.514140565991176413)
(1.55435268126033144 -0.240936376582996714 0.607613168949388105)
(2.05633735694062203 -0.242891104975204247 0.543586591263212071)
(1.82991778938415095 -0.227726501805088521 0.658899558744452274)
(1.36803194882368362 -0.195557755845683662 0.510832286463280938)
(1.57883602659153421 -0.19379252108382472 0.622028084617255228)
(2.06772670228776834 -0.211710811374789892 0.547648039261268926)
(1.80495140630804096 -0.205863040933240427 0.650101034453612336)
(1.34662759072981419 -0.178469443501390657 0.522111936421051026)
(1.56998018034766518 -0.163500519725271798 0.625263936972380474)
(2.06542306725415958 -0.189095942615003454 0.546771354517256225)
(1.78723096414680005 -0.187381317555917415 0.639542102863666528)
(1.3515295976124686 -0.169321402116439063 0.543326069516783861)
(1.54822867274174092 -0.148408740419965934 0.623719403034951991)
(2.06657519001186696 -0.168601819426279192 0.552481373861252179)
(1.78681558477459479 -0.171015961770126401 0.631754042017360629)
(1.37191328834428439 -0.156803393703737109 0.56157922985708264)
(1.52118163935684159 -0.144625829817232016 0.617735835829378743)
(2.07754127702766 -0.151741923035246307 0.560620120862570515)
(1.79421447252986388 -0.155465416233210224 0.63110363444429618)
(1.37859099893702242 -0.14326973229567383 0.57283556248737455)
(1.50448249404524526 -0.142833654902963236 0.610709973318506516)
(2.09343136731805357 -0.139808175079021213 0.573825006421166295)
(1.8046513116690226 -0.138548953916905138 0.636404791348036514)
(1.36727589583079645 -0.127484503374083069 0.581168132545006544)
(1.49658383394016381 -0.130866730502960354 0.610222946840035196)
(2.10789488150243809 -0.127670204470233001 0.582402957273726374)
(1.81463489491930385 -0.125042497941693309 0.644633833250818133)
(1.34420430590384599 -0.11384791623325384 0.589088837398935361)
(1.49498173616967511 -0.118388652868286426 0.615316037525947879)
(2.11650567985265381 -0.116790476705112958 0.592443765500398678)
(1.82627220380625399 -0.114862604797595774 0.64871100482745625)
(1.31760902330511476 -0.108470193553953195 0.599840465777569887)
(1.4939517802036022 -0.108954784053704026 0.620416941984243353)
(2.11560856964268584 -0.109946507862349926 0.597089749795176927)
(1.83559590393400374 -0.104800471822959124 0.648320354893442863)
(1.30658374484524753 -0.103131134179070202 0.610024004141989096)
(1.48373889291579286 -0.11185690138308875 0.622167889552749265)
(2.10943826218071395 -0.101772482552930477 0.593053862552746169)
(1.8365191318609011 -0.095781460037529853 0.649267609058947093)
(1.31187601254466024 -0.0954394581850426943 0.624858253796250596)
(1.47661128892928062 -0.113299163305084938 0.624379469497867712)
(2.09346155669702449 -0.0930863518333279322 0.590499382486099456)
(1.83243622710698095 -0.087728979631439441 0.654492619784041607)
(1.32994152896202555 -0.0893525537963449357 0.644773737524234614)
(1.48825119855577537 -0.107918181388336795 0.631620016056093303)
(2.07269767111879011 -0.0849507878417141288 0.596804657505995428)
(1.82597804107047956 -0.0799394128386981817 0.663004531144212539)
(1.35208718794845728 -0.0837818326845360117 0.665953177933194196)
(1.50823084830047494 -0.103669798483384909 0.645902404324332324)
(2.05061480495200721 -0.0790839512352377316 0.60904214043589433)
(1.81410004794087043 -0.0737673515018400783 0.673692072671501441)
(1.36950645399239312 -0.0790696645718641095 0.682970458619257426)
(1.5274397872505312 -0.0955714990385567731 0.663476036049754803)
(2.02679687171336465 -0.0737547904086120337 0.621426065545989448)
(1.79410799681912403 -0.0705443274448611379 0.686462453646396242)
(1.37846348699469967 -0.07454580000968139 0.697682061395203723)
(1.53843932729231736 -0.0891043039503239265 0.681706366700138844)
(1.99905766002392871 -0.0704681688951753482 0.635396815423924788)
(1.76668178673662668 -0.0688213448837656089 0.699433655443359559)
(1.37714480824934604 -0.0693028962882885347 0.703769385815078863)
(1.53655389087723759 -0.0848463322723258806 0.695538149547391793)
(1.96785443340783761 -0.0689081908753477468 0.652088148185075545)
(1.73657061756768205 -0.0669874951781109229 0.711123462101009185)
(1.36805602462455123 -0.0628178463202564569 0.703019194738720654)
(1.52530575537310997 -0.0796665986101854767 0.705612266779353736)
(1.93466655948541 -0.0703531188687883391 0.668103546078023247)
(1.70677975249315383 -0.0634084950125104463 0.720906519514913247)
(1.35415835543796992 -0.0583132282027079701 0.696820276739187117)
(1.50749138914991931 -0.0751954712503127842 0.714452942143747105)
(1.90326371516606674 -0.0719087630626887714 0.681506893736400832)
(1.68281431109154989 -0.0603083245019523928 0.727683320792330002)
(1.33940902908426462 -0.054469901826574324 0.685124025100492862)
(1.48752239084937488 -0.0700907720110575949 0.72245168588783093)
(1.87630854555751059 -0.0725524644382332107 0.691662092598418488)
(1.65690335043892456 -0.0618152522545829738 0.730580925820050742)
(1.32467371980366844 -0.0519740616649325693 0.669101566912622236)
(1.46582813085273611 -0.0670344801867502199 0.723836972339296336)
(1.86262597748002645 -0.0693925464675033687 0.698339386621279479)
(1.63909611370000619 -0.0649605425515707435 0.726504750463004667)
(1.30539898606099269 -0.0553305813877077932 0.647829196243912886)
(1.44144552033364581 -0.0641112235350218274 0.723096104879458856)
(1.85093460776807861 -0.0751170402725516856 0.700996337185418095)
(1.63693574204761405 -0.0650561611105388432 0.716108298942569887)
(1.28999460108434461 -0.0623205998337007031 0.622839966652153576)
(1.42183432325298931 -0.0624969484906542569 0.717512399233913967)
(1.85141000936936817 -0.0769194731387548153 0.693610397670275547)
(1.65249113303925643 -0.0630576808742549094 0.703729322378077393)
(1.28673521953207559 -0.0640399088021086915 0.598401044216374189)
(1.41655568957019984 -0.0601465412873951957 0.704277259794028665)
(1.86750853456371124 -0.0737613897001618002 0.686032505878784948)
(1.67992054706811933 -0.0627969463453012799 0.688735838452676719)
(1.29024591426596924 -0.0648688729083226334 0.574021208956650542)
(1.43743211242971358 -0.0548976613108055067 0.689531786529278712)
(1.89332426933152087 -0.0726897346077121503 0.675688140323601472)
(1.71049820206000103 -0.0630585245723474935 0.67095575388663331)
(1.29672689531985119 -0.0656319076990958539 0.550193404408709008)
(1.47093634215936309 -0.0536740974486176886 0.672456048096014558)
(1.9208439290029351 -0.0717534968611610868 0.659601488768704503)
(1.74825144991003301 -0.0574867021506376627 0.653387086209400336)
(1.30469955056103304 -0.0653629738245627007 0.527755834557624759)
(1.50659517969873669 -0.0540355445916497062 0.651264602340524412)
(1.94984261526920788 -0.0673439165793069672 0.643854516845281277)
(1.79095622970586144 -0.0489121852637807858 0.634562789908067582)
(1.32658236514402694 -0.0532812591959483522 0.508400292585101221)
(1.55967624819904183 -0.0440484324192835855 0.631215423287259991)
(1.98476616405833783 -0.0606636389579846627 0.629010080797830717)
(1.82767365055180409 -0.0378153026579780421 0.613428919301968079)
(1.3490695359575422 -0.0449233161289906494 0.487910748789821769)
(1.60901482140604224 -0.0346157043924667229 0.608768299643418054)
(2.01597414750592963 -0.051362825330762904 0.609187753829223966)
(1.8674577117166955 -0.00515762264218458475 0.60015332442825553)
(1.37206715575680249 -0.0297101292427305874 0.472738043737613411)
(1.64640915320510817 -0.022047104063274689 0.585512626518402302)
(2.0438834901781604 -0.0303994844177485901 0.591373738569825558)
(1.90072230987140833 0.0915636156258828882 0.606763284753051191)
(1.3857584466219397 0.0273847688581788269 0.476412456009712493)
(1.69283742393589298 0.0237634607910108646 0.578247197895372822)
(2.06400997001721276 0.0217013823028331283 0.586882736892460399)
(1.80769230975206585 0.342555067443723993 0.680351248993212199)
(1.42637842531471248 0.22120161952034112 0.539643454047284865)
(1.71344171774583431 0.159153709179776226 0.591757622924165227)
(2.03054352017567252 0.169991016460074584 0.610593369831566313)
(1.3283680551913859 0.701710132226785799 1.00082718739766219)
(1.37651008598766467 0.694385562137541212 0.718275083468851383)
(1.61987947930743381 0.51006753348287226 0.736555060776850401)
(1.84915886277696462 0.524628315901135123 0.737675888655922707)
(1.07383289870726872 1.2492850843068406 1.26374407905547659)
(1.11702701436435681 0.860481142457838022 1.27100622586625089)
(1.25608416100703302 0.895470435566763645 1.22636126253318634)
(0.27642630211930791 -0.447253060548445158 -0.501240918855529349)
(-0.144692838295240461 -0.369779210247829559 -0.778076837903376894)
(-0.116340896383815826 -0.177293873312504291 -0.829066874441631629)
(0.559357074275485533 -0.3847874452639517 -0.426806002160433628)
(0.943821499246907281 -0.453018386310018895 0.200251752268134298)
(0.468158593383404931 -0.482064675311267787 0.00150420487257977935)
(0.215238571385281019 -0.230280029396356223 -0.424990512308092483)
(1.21548925935623897 -0.429460549596737573 0.0618455813578818736)
(1.20954037819078408 -0.440063141296795413 0.452923707089382177)
(0.721169675441460267 -0.46833689713946558 0.317089154393515593)
(0.665182341139191724 -0.367764780065692409 0.165431633233031755)
(1.55193401322445101 -0.456905361463931736 0.35348545444892604)
(1.16595832737658012 -0.359336251401109308 0.430045600729032917)
(0.614221406347535193 -0.330974588653390633 0.296698932947314531)
(0.81047299649324156 -0.332908070524789601 0.334680270044039774)
(1.55691800485437337 -0.405365467305214944 0.3736220153696726)
(1.04169339995184229 -0.26394193360890883 0.387129446557110568)
(0.522436418596858965 -0.220848537139935297 0.210287936227906758)
(0.705010377482323314 -0.22157619273580037 0.312466314191400085)
(1.46484312713692866 -0.327238243530509565 0.34595403337989894)
(0.935626298293395608 -0.19413518615977618 0.363836109530426222)
(0.469599729102329888 -0.151858501737473145 0.238276749590459358)
(0.581028655327059274 -0.121803910792253806 0.295708644303059487)
(1.35539156289604246 -0.25544897952196749 0.354136853808112495)
(0.884705339295732252 -0.166482292460255255 0.37404466413987969)
(0.498930378826137388 -0.14870745034125904 0.299897934267689403)
(0.518679761810633577 -0.0856483512348893139 0.323162914929121359)
(1.29482909212211394 -0.215366149306222388 0.365921486597904244)
(0.894281120771483362 -0.161451064337780836 0.415336971484222717)
(0.554691884806468472 -0.164788563187458464 0.359113877529408432)
(0.521038216149958155 -0.0850805914106174122 0.367055149995049512)
(1.30107608647944128 -0.200864502016109309 0.403978279375117877)
(0.935521149566218901 -0.156312836456097198 0.465363196510199861)
(0.598764841629012889 -0.163678434094714748 0.40900421683680388)
(0.567743199526423714 -0.0935411411410715793 0.407143781275799477)
(1.33875344265091512 -0.187509819684980261 0.459663076228130629)
(0.963966388855677647 -0.144782705159780506 0.50266075032709634)
(0.618821541808631137 -0.144578841783310069 0.451139952277032796)
(0.625514764486549191 -0.100545398404761843 0.456411487298874319)
(1.37145109235528828 -0.171469615750518611 0.509305862764586559)
(0.951527850075760795 -0.129390463486052099 0.522900060588084803)
(0.599695836758832534 -0.11931359969829454 0.479468104095522152)
(0.651159006496269455 -0.0967412421400075384 0.492012466201467824)
(1.35498731064714772 -0.158181221573083591 0.527491680896568838)
(0.906714169591963826 -0.113687172782221027 0.533852178595905502)
(0.565697569476608542 -0.0964200996361052054 0.500360099615320686)
(0.646389386305259328 -0.0850923777141802395 0.514779559675975884)
(1.29290015977900397 -0.142534013465730414 0.532104264015759387)
(0.847149273825047788 -0.105341261024812199 0.544295469925687114)
(0.550180152327159444 -0.0834954513159972406 0.518356903723206308)
(0.621899983019227109 -0.0757110502656220402 0.528978140618373782)
(1.20537082814236074 -0.129065735294445427 0.530132960078866122)
(0.797839463800653959 -0.104018952906401868 0.561153465092102621)
(0.556963304868334896 -0.0882534332266351057 0.541768641594002065)
(0.58973077749490932 -0.0730441158380315675 0.54342610087432186)
(1.1156564868137524 -0.12190850425082228 0.534565596580664049)
(0.783110110671571991 -0.103097059170327895 0.586561903044796717)
(0.585784047914102435 -0.100707017874907379 0.571318806470521579)
(0.572316280816170808 -0.08042466886789848 0.561461253698930962)
(1.0543425761855838 -0.115625129764682796 0.551596037644894288)
(0.805752079976249092 -0.100510178292209054 0.620364382261537894)
(0.631207598367982126 -0.110107662951285684 0.605088801008008104)
(0.58841275872225085 -0.0903183296098188509 0.588503033716175739)
(1.03656805994806112 -0.109385498299331974 0.581822348048066096)
(0.849071800682498434 -0.0969043379105020836 0.656234295673387313)
(0.682088065510123021 -0.110903631767549707 0.632144219438968813)
(0.632940988765851364 -0.0954378118980968582 0.621231161094785933)
(1.05333890605295388 -0.104229346930435118 0.62146007979848783)
(0.895471723635049233 -0.0925418394740175621 0.685919105408239305)
(0.72781979835047439 -0.105012334405728713 0.650811820893609005)
(0.687743286830841072 -0.096120230687165048 0.653505974894118769)
(1.08322484060979907 -0.102894912538652794 0.657454025557923982)
(0.934335127625429473 -0.0874775537164458883 0.706960447342959597)
(0.762202609269396092 -0.0936876525131268567 0.657744489987522329)
(0.737061730147889671 -0.0893729190399480539 0.674040915516696537)
(1.11265289733567241 -0.100119774877195158 0.683675033224997342)
(0.961568767588562023 -0.0807882272247815725 0.714988993563886455)
(0.783377798380647028 -0.0811336255551160096 0.653065312571974088)
(0.775944354561220351 -0.0806534827381218816 0.686503179988500856)
(1.13516444030973895 -0.0960162614306322854 0.700565800760824975)
(0.977883024651549193 -0.0716659796078212702 0.707354925110440069)
(0.795509276914814545 -0.0672375981556499192 0.635142936120977275)
(0.802588320576859804 -0.0700229837764532459 0.683283410391630208)
(1.14903493921725275 -0.0904121392461702117 0.703731242777999699)
(0.986181000175620714 -0.0618604812479364233 0.688716009376898919)
(0.80216877948848353 -0.0535683351306576669 0.610102618595429247)
(0.819726910365679573 -0.0574184355336545132 0.668517300484218424)
(1.15264482752334874 -0.0868331234881386943 0.695316078128298098)
(0.98635004523549652 -0.0541193339527471923 0.661037782324767065)
(0.802029192763843546 -0.0405905254353932515 0.578766122488321266)
(0.830161022580057972 -0.0464465552372852614 0.643168872093962229)
(1.15132239826739236 -0.0826179132628492435 0.67878446719176555)
(0.981380274271829056 -0.0495333843286836287 0.626542271220785096)
(0.796559592334268429 -0.0302583040278216753 0.541535617316670881)
(0.833114459511942629 -0.0385992373584848891 0.60894881764861275)
(1.14378459715066971 -0.0819438697215774947 0.652403000145511225)
(0.971824532032131594 -0.0496430356274333504 0.586349837336483826)
(0.788528448875567944 -0.021740385922319562 0.503570707986847443)
(0.829956588446877808 -0.0325780475762721747 0.569689645639623432)
(1.13541297164621313 -0.0786095361973046663 0.620601955148011974)
(0.957436030353205902 -0.0528059991776936993 0.544164412433061906)
(0.773702207880262893 -0.0195565066168585933 0.46333106795037815)
(0.822567671952138757 -0.0296962909712289967 0.527039771635940291)
(1.1243887372667416 -0.086434031086432439 0.584200280105282577)
(0.940413693650013149 -0.0546098234277685307 0.505132711925957878)
(0.754148149261911538 -0.0175624676352338985 0.426479155437025692)
(0.810653319307455877 -0.0296334027676651984 0.482884555122715164)
(1.11377781536561304 -0.0849934407045415952 0.555379357831300546)
(0.923569669023475481 -0.0555983813783445455 0.468692930794947116)
(0.736060106049636453 -0.0152718815950131925 0.39335398415291134)
(0.796073497260357255 -0.0318732709037252912 0.443062271928417739)
(1.10359949273648672 -0.081079127426553349 0.523754924642179209)
(0.906758595255097721 -0.0566116579421723151 0.435478774912682276)
(0.716739812110489982 -0.0144382394657038265 0.361917924819740611)
(0.778099493675689757 -0.0349242366233624008 0.40646636463284086)
(1.08983788207588561 -0.0799139301632149357 0.490516660083592293)
(0.891932115637093959 -0.0566076701843852975 0.406993485079700013)
(0.695200605114210113 -0.014697938541468409 0.334988037859798193)
(0.762434249992640312 -0.0378567168970434104 0.37525237245801063)
(1.07648753019720056 -0.074501635528428492 0.462293299356144494)
(0.883001543588896931 -0.049514943938139433 0.382769040933325866)
(0.671555889403230077 -0.017176261950883287 0.311957139666692085)
(0.748538977954274931 -0.0382275985356149567 0.349708857351164581)
(1.06655589945267248 -0.069659586385585559 0.437150606859805002)
(0.886582494603547322 -0.0383720510602275147 0.361748251466854964)
(0.657744072975161131 -0.0124801505576243657 0.289581566161368764)
(0.746368655184353025 -0.0273834714924536919 0.328338146274700482)
(1.06654390176532865 -0.0617544455881341089 0.41351975765488358)
(0.897636633294350172 -0.0267521255050185564 0.347219873225467046)
(0.651445859695042651 -0.0044556419646379717 0.267322665065837017)
(0.748626283171995088 -0.0193042513545109706 0.304961669335675312)
(1.07650432957132502 -0.0458268012487642526 0.396949424265575279)
(0.918490268905885143 0.00956785826526923566 0.34899717531907043)
(0.646102896514722858 0.00973406319575276409 0.255471324998693516)
(0.752378488512944976 -0.00868899066329795015 0.291594036556728942)
(1.09734704692055773 -0.0259502204549111118 0.391333860853054549)
(0.963704842345729062 0.139552974299715443 0.409292625303945723)
(0.623403476593523687 0.0560327968177790903 0.270952198028959756)
(0.742079641575837945 0.0437437577907654057 0.302105875169110305)
(1.09703406008120519 0.0396939181478134645 0.404613969583264677)
(1.02245184383400778 0.501785180947287079 0.577567288522926381)