/*--------------------------------*- C++ -*----------------------------------*\
| =========                 |                                                 |
| \\      /  F ield         | OpenFOAM: The Open Source CFD Toolbox           |
|  \\    /   O peration     | Version:  2206                                  |
|   \\  /    A nd           | Website:  www.openfoam.com                      |
|    \\/     M anipulation  |                                                 |
\*---------------------------------------------------------------------------*/
FoamFile
{
    version     2.0;
    format      ascii;
    arch        "LSB;label=32;scalar=64";
    class       volVectorField;
    location    "0.119999999999999996";
    object      faceForces;
}
// * * * * * * * * * * * * * * * * * * * * * * * * * * * * * * * * * * * * * //

dimensions      [1 1 -2 0 0 0 0];

internalField   uniform (0 0 0);

boundaryField
{
    inlet
    {
        type            calculated;
        value           uniform (0 0 0);
    }
    outlet
    {
        type            calculated;
        value           nonuniform List<vector> 0();
    }
    top
    {
        type            calculated;
        value           uniform (0 0 0);
    }
    bottom
    {
        type            calculated;
        value           uniform (0 0 0);
    }
    left
    {
        type            calculated;
        value           uniform (0 0 0);
    }
    symmetry
    {
        type            symmetryPlane;
    }
    interface
    {
        type            calculated;
        value           nonuniform List<vector> 
181
(
(0.446890890017723419 -1.1118580509471772e-05 -7.78132865802918952e-06)
(0.4142412216205269 3.00099352267652961e-06 -8.62819128414429034e-06)
(0.359524670748191832 6.41953238143040428e-06 -8.19096392130937021e-06)
(0.303607362169378447 7.66943191991235111e-06 -7.96673729588178223e-06)
(0.254732556374782204 7.28111165424885889e-06 -6.85931798299185433e-06)
(0.213056908947931917 7.10193788181202615e-06 -6.21187928736499975e-06)
(0.177507639834024178 6.82936580748139037e-06 -5.52016595382779318e-06)
(0.145371791729797389 9.82265501984573655e-06 -7.20359301933458154e-06)
(0.117456818989371672 9.39882059575780986e-06 -6.14192416414556981e-06)
(0.095076070223248349 9.36838374113014593e-06 -5.53498174621239522e-06)
(0.0759627284397313141 8.98482839141204691e-06 -4.96547879587433154e-06)
(0.0581147869335527992 8.49444398741924991e-06 -4.44825317783211513e-06)
(0.04216879590133496 6.94290238411027968e-06 -3.46003574511628055e-06)
(0.0293945958835088832 3.6824667774123894e-06 -1.73817962127316285e-06)
(0.0196489273462578662 3.19389203366778408e-06 -1.41891880096534428e-06)
(0.0129266045139425408 3.85082563483613848e-06 -1.62609951793115944e-06)
(0.546998312603313996 -1.63739148923603116e-06 -4.53125506871743287e-06)
(0.507353479148036524 3.75876731819557032e-06 -5.3359346613489101e-06)
(0.44895862669656178 5.62838367468076889e-06 -4.82486462569863708e-06)
(0.388204097964369554 6.61107496221349267e-06 -4.37050978124014287e-06)
(0.332977877866831584 8.07902726309582184e-06 -4.58340760911677958e-06)
(0.285163979034158299 7.53663665431189379e-06 -3.94683299453113211e-06)
(0.241276648260129845 8.27636693518373001e-06 -4.0730979896131352e-06)
(0.200135161055983141 7.74315074332464102e-06 -3.55778008827734721e-06)
(0.163568943715570486 8.02686057246931288e-06 -3.46441310094775099e-06)
(0.131873196508440621 9.34979412591439367e-06 -3.81452567877195983e-06)
(0.104917195703069288 9.67072326321201214e-06 -3.76890021428761487e-06)
(0.0813839292476356696 9.5904868061786093e-06 -3.60753212721384146e-06)
(0.0601481211561499945 9.1249109284849555e-06 -3.29583477168137436e-06)
(0.0417550216781263916 7.32186375061720172e-06 -2.49350530172297226e-06)
(0.027134142433013559 4.76144488917909109e-06 -1.50764447870079161e-06)
(0.0161371865903753679 3.58106161833081317e-06 -1.05408334978122383e-06)
(0.595153528458014724 -1.93311677920019767e-06 -3.28335372019583065e-06)
(0.555148881677100636 3.85063750244992094e-06 -3.66046452738327109e-06)
(0.497856380723582237 5.90738290870673699e-06 -3.46244344335498158e-06)
(0.438756760480980945 5.56456125288761313e-06 -2.55437608015624973e-06)
(0.382934887155877868 8.10342099144126416e-06 -3.20621496472561117e-06)
(0.330453326232121924 8.68521245144283204e-06 -3.12769340537813312e-06)
(0.280800984177029811 8.49835909942934638e-06 -2.8342888197640359e-06)
(0.234829718741115995 8.06378496919401098e-06 -2.51812998988621703e-06)
(0.193947776289295909 8.10655490731674673e-06 -2.41244235938798133e-06)
(0.158185724357783386 8.54131935163971175e-06 -2.45887512267019962e-06)
(0.126797395120641587 1.04566987085047852e-05 -2.95043569343884051e-06)
(0.0987440625212075429 1.06740348361574147e-05 -2.94400791900696656e-06)
(0.0733110049492877169 1.02008367087150699e-05 -2.71653969682558709e-06)
(0.0513412422431281518 8.17188567713836631e-06 -2.06849475508500347e-06)
(0.0339669736498800154 5.49368949572012383e-06 -1.31303080397521e-06)
(0.0207425442401625477 4.92448874898482602e-06 -1.11759655854734561e-06)
(0.619858811944188903 -1.69960406363864571e-06 -1.78929030498408875e-06)
(0.580291272668983282 4.09912449956709734e-06 -2.50923853075189871e-06)
(0.522364943270218318 6.24518706451482707e-06 -2.44010430982502958e-06)
(0.461712135444179606 6.15824207434123539e-06 -1.87694537538212445e-06)
(0.405148160210051622 7.8981790406732576e-06 -2.02526332514682105e-06)
(0.35176850858698111 9.75626103171903935e-06 -2.27238820239028422e-06)
(0.300474891821649159 9.15046996763100302e-06 -1.98063053663180056e-06)
(0.253574696853588688 8.43864445746267543e-06 -1.72458783361267544e-06)
(0.211794239076550317 8.44359356457479728e-06 -1.65503069379116127e-06)
(0.174651468414013744 8.98775972461140592e-06 -1.70284786485190806e-06)
(0.141291564925415031 1.10435797234065299e-05 -2.03952319213677928e-06)
(0.110811744192182246 1.14513817707873695e-05 -2.06618002198326937e-06)
(0.0830509485245344709 1.10320966345927385e-05 -1.93912621482820066e-06)
(0.0585691687408365635 9.92243245763160745e-06 -1.68292181131330567e-06)
(0.0387836692850626677 8.17071353379850329e-06 -1.32055920123604884e-06)
(0.0236942806440361108 6.17584322913170115e-06 -9.70428976514411082e-07)
(0.637714877657016288 -1.95184929826985453e-06 -1.14324549329085998e-06)
(0.598176782613426883 4.13857454087563221e-06 -1.57620422601801377e-06)
(0.539534413779097943 6.60823321360496257e-06 -1.64168355691961642e-06)
(0.47723203206174214 6.97070421268475462e-06 -1.3665294284940779e-06)
(0.419304843177312592 8.80270084163896819e-06 -1.46179675193657862e-06)
(0.365287841461346519 1.05211643292557267e-05 -1.59363187903681925e-06)
(0.313580010392027431 9.95217319173545079e-06 -1.41471731997086008e-06)
(0.26604299354299471 8.79620712084341881e-06 -1.18504540500310792e-06)
(0.223181196516382324 8.66211791096695968e-06 -1.11599845389325785e-06)
(0.184642958286219655 9.62698743009520125e-06 -1.18868007330247862e-06)
(0.149944681326415974 1.23522723246238443e-05 -1.48466746654426217e-06)
(0.118382852034535885 1.24965344821865404e-05 -1.48071738468182873e-06)
(0.0895318518440026412 1.21214374216343479e-05 -1.42447901051681436e-06)
(0.0636225019531666269 1.08754034148383119e-05 -1.25694578687142819e-06)
(0.0427359631502289283 7.32397706815688821e-06 -8.25467781254237035e-07)
(0.0263557014883571729 5.86962052601260789e-06 -6.55428130652383803e-07)
(0.651161355072587655 -2.03788082491400139e-06 -7.5128640695829574e-07)
(0.611302188382692901 4.49789784590284339e-06 -1.03840141209541352e-06)
(0.550691700707785614 7.26965838802390441e-06 -1.00628846602477284e-06)
(0.486773062762851649 6.97488195613024667e-06 -7.34212812824350137e-07)
(0.42840682769834082 9.16046742381060872e-06 -7.96733043748661971e-07)
(0.374353007408072258 1.12808500397038026e-05 -8.96865222849438298e-07)
(0.321935123560496583 1.03419055139179525e-05 -7.93380857136761847e-07)
(0.273059770405455149 8.73464469082268021e-06 -6.44361592516241315e-07)
(0.229361137820510486 8.12838011760882923e-06 -5.70899366824884346e-07)
(0.189992253029635988 1.06129584506609505e-05 -7.13918131535669115e-07)
(0.154669965229819462 1.28325953937325398e-05 -8.53063896485561678e-07)
(0.122774775814383771 1.30982764382919018e-05 -8.77417926054468955e-07)
(0.0933549391352885144 1.27224129870010928e-05 -8.59881589888457876e-07)
(0.0674416782333621262 1.03432604684912011e-05 -7.02034366044239845e-07)
(0.0460373327067460716 6.58892845877693444e-06 -4.46190654455100205e-07)
(0.02833325108322313 5.51059206954182934e-06 -3.71926055778741821e-07)
(0.660210604754668529 -2.22390696308307822e-06 -4.3951262726217157e-07)
(0.619120661978707076 5.42348958726157506e-06 -6.66518837545867979e-07)
(0.556503497095126365 7.67364831748355452e-06 -4.86096699170057834e-07)
(0.49134455542858313 7.84871558853186737e-06 -3.64216350733081085e-07)
(0.431083600020347901 9.31667516860759517e-06 -3.4881635454181138e-07)
(0.37675815392441131 1.17952466845993898e-05 -3.84603778323345811e-07)
(0.325065014724297607 1.09329039846050822e-05 -3.63558799406821023e-07)
(0.275561325694097858 8.67494894300853802e-06 -2.87129295566003867e-07)
(0.231522090509276135 7.9080817318718481e-06 -2.55222436200556941e-07)
(0.192724512694934264 9.33865228265369467e-06 -2.85551469368574099e-07)
(0.157711566195953057 1.33656373690199009e-05 -4.1130820810429205e-07)
(0.125622597016122245 1.35533957881219508e-05 -4.26258197210785927e-07)
(0.0962770903143369272 1.31791507047699393e-05 -4.3775181139356657e-07)
(0.0697571793622307063 1.17297984764805107e-05 -3.87851043900209193e-07)
(0.047599311196743703 7.55212880733222842e-06 -2.5945796502572026e-07)
(0.0295154284084004626 5.72687877274630107e-06 -1.85305512092752313e-07)
(0.665052489155068316 -2.1038246259725619e-06 -1.83566611085498695e-07)
(0.62301465381858101 5.70717301417259642e-06 -2.71799672484285224e-07)
(0.558641110228246363 8.10709801657806638e-06 -1.86208308966873578e-07)
(0.493430825166862208 7.97999376598111739e-06 -1.24854643244844076e-07)
(0.432723023397812045 9.03170700659342924e-06 -1.22236595275828707e-07)
(0.378126287905366565 1.21134203870075999e-05 -1.42247662674114965e-07)
(0.327650417431621321 1.20128924966192875e-05 -1.57772894411819113e-07)
(0.277320743040402495 1.02350452904961521e-05 -1.40745368025659691e-07)
(0.231635338681272007 8.57177811880368208e-06 -1.21328040420774124e-07)
(0.193130440241481405 8.47506934348904785e-06 -1.08333648718828174e-07)
(0.159208562269102405 1.31431669953184857e-05 -1.58309908979300692e-07)
(0.127884950253527835 1.38563226537226476e-05 -1.63722647822471619e-07)
(0.0982483897416015078 1.33185304770996678e-05 -1.79375533511882396e-07)
(0.0712156817965363814 1.12856369774051831e-05 -1.47401863833922722e-07)
(0.0500384774601349419 3.3330615657869128e-06 -4.67248892533595958e-08)
(0.0335329700993715271 2.35510928487015474e-06 -2.66820323608128618e-08)
(2.72955037982758077e-05 8.26002996847071397e-06 -0.0500241052670187952)
(2.86260466996899288e-05 2.94309183292807267e-06 -0.0649985472547104787)
(1.55309970349071758e-05 1.67397434027247511e-06 -0.0552887779491494646)
(4.06781435013157726e-06 6.59186682087824872e-07 -0.0296786925369355511)
(-6.07464557229647653e-07 -1.97032695535350518e-07 -0.00363468426906710844)
(-6.63954889199327988e-07 -4.24028800535119848e-07 -0.00308471327491901658)
(-1.83265746474904824e-07 -2.06059187046332619e-07 -0.00528662764134191047)
(-1.95743374277437213e-07 -3.2080360456594841e-07 -0.00506792380660412486)
(-1.80076170246581123e-07 -3.58911066078089799e-07 -0.00363091033743677275)
(-1.45034974659854746e-07 -3.27176433302691009e-07 -0.00351743313235261751)
(-1.55145332094877713e-07 -3.98255049699136026e-07 -0.00342024753164028427)
(-4.61433509917492159e-07 -1.41126363947193083e-06 -0.00334238697448650682)
(-1.92868006792398845e-07 -7.50804727409928021e-07 -0.00323931705065852189)
(-2.27622365310360878e-08 -1.14443886914547732e-07 -0.00325148464430824458)
(4.53094638331479226e-09 3.05058030592405599e-08 -0.00337217470146510597)
(1.0256464785865746e-05 3.50133004045948569e-06 -0.0210398396086985788)
(7.95836229468458105e-06 4.69801047706373621e-07 -0.0220342341817518703)
(2.16008594912672464e-06 -1.28931905852042756e-07 -0.0123313569606435715)
(-1.44124107144556468e-08 6.64533995585853245e-09 -0.00284881059502307401)
(-7.61548814143217203e-08 -2.25683068901589835e-08 -0.00243709301570537926)
(-9.31955796744788141e-08 -3.17328736878256664e-08 -0.00257363071510213152)
(-9.29347218183723948e-08 -4.4528254829940499e-08 -0.00276688560111033703)
(-7.10476867622529443e-08 -3.99475393013585765e-08 -0.00257184660552682966)
(-5.90690289969220051e-08 -3.48556273763622965e-08 -0.00229007802848467563)
(-6.38091605924938131e-08 -2.9306983920042284e-08 -0.00223061626885159067)
(-6.01517920180176826e-08 -2.49419400385159976e-08 -0.00222967624127393864)
(-5.32767060052484611e-08 -2.42537250065231182e-08 -0.00225316635469444268)
(-4.84497597750330752e-08 -2.04780043190925721e-08 -0.00228255881098062344)
(-4.63526855993520303e-08 -1.75555900488463653e-08 -0.00232586367017011434)
(5.11252691411510392e-06 1.49803809162252443e-06 0.0071357140743159575)
(2.22379683971498884e-06 8.48434117129373973e-08 0.002545053388344752)
(1.95334953501479937e-07 -8.97155439827499302e-08 -0.000836772591994462841)
(-2.35812414112152576e-08 -1.7505369700715363e-08 -0.00228703395617819603)
(-4.80138712518137475e-08 -8.67264520498269814e-09 -0.00260399079040157409)
(-4.88722204019872914e-08 -1.16864407111341466e-08 -0.00258431246527703658)
(-3.49896712327685999e-08 -1.08258464373307813e-08 -0.00255799138608413593)
(-1.93130240151139861e-08 -3.30108515948258216e-09 -0.00233921728942941684)
(-2.7137587280181772e-08 -1.43838310766033294e-08 -0.00215967794815648088)
(-2.65754238341266473e-08 -1.42091156564432668e-08 -0.00209164928387406456)
(-2.6842878343814169e-08 -1.63402254664967501e-08 -0.00207183002485298922)
(-2.65922638552317517e-08 -1.91331155763809532e-08 -0.00208138315503966168)
(2.84249408961998994e-06 6.04733139578219995e-07 0.00407420400368883537)
(6.20152677140748369e-07 3.67207372023017498e-08 0.000671274144128854167)
(-1.07054495104545471e-08 -2.00728609311779733e-08 -0.00129456692360639561)
(-2.93057173839368411e-08 1.14128859770063848e-10 -0.00183563736393226452)
(-3.88305613973548365e-08 9.29530720123110218e-10 -0.00190332054734771946)
(-5.24686704152791433e-08 -1.52040563057487925e-09 -0.00189311326087139554)
(-3.92321188686844806e-08 6.19936048960701714e-09 -0.00189916625457009144)
(-3.25916700175055164e-08 -2.87504486488685874e-09 -0.0018653827494884874)
(-3.0247813056621119e-08 -5.2885224124838555e-09 -0.00185857628322165188)
(-2.99102134394461189e-08 -6.63419067661187147e-09 -0.00186802670064155937)
(-3.00345381008010258e-08 -9.0458872273745903e-09 -0.00188914012903947473)
(-2.95241751039865256e-08 -1.14287058807389736e-08 -0.00190842548892708485)
)
;
    }
    procBoundary0to1
    {
        type            processor;
        value           uniform (0 0 0);
    }
    procBoundary0to3
    {
        type            processor;
        value           uniform (0 0 0);
    }
}


// ************************************************************************* //
