/*--------------------------------*- C++ -*----------------------------------*\
| =========                 |                                                 |
| \\      /  F ield         | OpenFOAM: The Open Source CFD Toolbox           |
|  \\    /   O peration     | Version:  2206                                  |
|   \\  /    A nd           | Website:  www.openfoam.com                      |
|    \\/     M anipulation  |                                                 |
\*---------------------------------------------------------------------------*/
FoamFile
{
    version     2.0;
    format      ascii;
    arch        "LSB;label=32;scalar=64";
    class       volVectorField;
    location    "0.119999999999999996";
    object      faceTraction;
}
// * * * * * * * * * * * * * * * * * * * * * * * * * * * * * * * * * * * * * //

dimensions      [1 -1 -2 0 0 0 0];

internalField   uniform (0 0 0);

boundaryField
{
    inlet
    {
        type            calculated;
        value           uniform (0 0 0);
    }
    outlet
    {
        type            calculated;
        value           nonuniform List<vector> 0();
    }
    top
    {
        type            calculated;
        value           uniform (0 0 0);
    }
    bottom
    {
        type            calculated;
        value           uniform (0 0 0);
    }
    left
    {
        type            calculated;
        value           uniform (0 0 0);
    }
    symmetry
    {
        type            symmetryPlane;
    }
    interface
    {
        type            calculated;
        value           nonuniform List<vector> 
181
(
(1430.05084805671572 -0.0355794576303096882 -0.0249002517056934186)
(1325.57190918568608 0.00960317927256489415 -0.0276102121092617302)
(1150.47894639421406 0.020542503620577298 -0.026211084548189989)
(971.543558942010804 0.0245421821437195181 -0.0254935593468216988)
(815.144180399302854 0.0232995572935963437 -0.0219498175455739297)
(681.782108633380972 0.0227262012217984422 -0.0198780137195679642)
(568.024447468876929 0.0218539705839404345 -0.0176645310522489246)
(465.189733535351422 0.0314324960635063433 -0.0230514976618706492)
(375.861820765990103 0.0300762259064250546 -0.0196541573252658648)
(304.243424714394678 0.0299788279716164605 -0.01771194158787966)
(243.080731007139775 0.0287514508525184981 -0.0158895321467978322)
(185.967318187368619 0.0271822207597415509 -0.0142344101690627441)
(134.940146884272082 0.0222172876291529299 -0.011072114384372115)
(94.0627068272283537 0.0117838936877196383 -0.00556217478807411684)
(62.8765675080252038 0.0102204545077369136 -0.00454054016308910388)
(41.3651344446160323 0.0123226420314756138 -0.00520351845737969734)
(1750.39460033060482 -0.00523965276555529973 -0.0145000162198957849)
(1623.53113327371716 0.0120280554182258265 -0.0170749909163165139)
(1436.66760542899783 0.0180108277589784635 -0.0154395668022356408)
(1242.25311348598234 0.0211554398790831724 -0.0139856312999684547)
(1065.52920917386223 0.0258528872419066559 -0.0146669043491737087)
(912.524732909305953 0.0241172372937980446 -0.0126298655824996133)
(772.085274432415872 0.0264843741925879506 -0.0130339135667620395)
(640.43251537914557 0.024778082378638832 -0.0113848962824875024)
(523.420619889826071 0.0256859538319018262 -0.0110861219230328142)
(421.99422882700992 0.029919341202926053 -0.0122064821720702689)
(335.735026249821487 0.0309463144422784178 -0.0120604806857203591)
(260.428573592433963 0.0306895577797715279 -0.0115441028070842836)
(192.473987699680265 0.0291997149711519036 -0.0105466712693804143)
(133.616069370004368 0.0234299640019750288 -0.007979216965513505)
(86.8292557856435252 0.0152366236453731155 -0.00482446233184254027)
(51.6389970892010339 0.0114593971786585702 -0.00337306671929990705)
(1904.4912910656451 -0.00618597369344062609 -0.0105067319046266462)
(1776.47642136672016 0.0123220400078397335 -0.0117134864876264552)
(1593.14041831546183 0.0189036253078615421 -0.0110798190187359306)
(1404.02163353913738 0.0178065960092403386 -0.00817400345649998972)
(1225.39163889880888 0.0259309471726120386 -0.0102598878871219545)
(1057.45064394278825 0.0277926798446170124 -0.0100086188972100081)
(898.563149366494713 0.027194749118173888 -0.00906972422324490817)
(751.455099971569894 0.0258041119014207898 -0.00805801596763588111)
(620.632884125747523 0.0259409757034136171 -0.00771981555004154843)
(506.194317944906231 0.0273322219252470425 -0.00786840039254462983)
(405.751664386052369 0.0334614358672152556 -0.00944139421900427357)
(315.98100006786359 0.034156911475703669 -0.00942082534082227564)
(234.595215837721042 0.0326426774678882717 -0.00869292702984189244)
(164.291975178009608 0.026150034166842695 -0.00661918321627199147)
(108.694315679616111 0.017579806386304405 -0.00420169857272067408)
(66.3761415685198841 0.0157583639967513803 -0.00357630898735149163)
(1983.54819822140439 -0.00543873300364366638 -0.00572572897594908394)
(1856.9320725407465 0.0131171983986147107 -0.00802956329840607587)
(1671.5678184646988 0.0199845986064474505 -0.00780833379144009552)
(1477.47883342137447 0.0197063746378919498 -0.00600622520122279669)
(1296.47411267216717 0.0252741729301544649 -0.00648084264046983743)
(1125.65922747833929 0.0312200353015009216 -0.00727164224764890836)
(961.519653829278241 0.0292815038964192378 -0.00633801771722176856)
(811.439029931483219 0.0270036622638805436 -0.00551868106756055708)
(677.741565044962385 0.0270194994066394086 -0.00529609822013172703)
(558.884698924844315 0.0287608311187565122 -0.00544911316752610866)
(452.133007761328031 0.0353394551149008862 -0.00652647421483769277)
(354.597581414983097 0.0366444216665195721 -0.00661177607034646106)
(265.763035278510984 0.0353027092306968521 -0.00620520388745025853)
(187.421339970676684 0.031751783864421089 -0.0053853497962025685)
(124.107741712200792 0.0261462833081552645 -0.00422578944395536529)
(75.8216980609153808 0.0197626983332213971 -0.00310537272484610839)
(2040.68760850245167 -0.00624591775446353345 -0.00365838557853075119)
(1914.16570436296593 0.0132434385308020236 -0.00504385352325764386)
(1726.51012409311397 0.0211463462835358856 -0.00525338738214277401)
(1527.14250259757409 0.0223062534805912038 -0.0043728941711810472)
(1341.77549816740088 0.0281686426932447123 -0.00467774960619705363)
(1168.92109267630826 0.0336677258536183105 -0.00509962201291781856)
(1003.45603325448701 0.0318469542135534217 -0.00452709542390674919)
(851.33757933758227 0.0281478627866989135 -0.00379214529600994206)
(714.179828852424521 0.0277187773150943152 -0.00357119505245843049)
(590.857466515902843 0.030806359776304644 -0.00380377623456793152)
(479.822980244530527 0.039527271438796252 -0.00475093589294163336)
(378.825126510514735 0.039988910342996925 -0.00473829563098185098)
(286.501925900808601 0.038788599749229935 -0.00455833283365380832)
(203.592006250133068 0.0348012909274825755 -0.00402222651798856724)
(136.755082080732706 0.0234367266181020675 -0.0026414969000135612)
(84.3382447627426615 0.0187827856832402801 -0.00209737001808762069)
(2083.71633623227854 -0.00652121863972479881 -0.00240411650226654431)
(1956.16700282461557 0.014393273106889086 -0.00332288451870532036)
(1762.21344226491351 0.0232629068416764888 -0.00322012309127927242)
(1557.67380084112392 0.0223196222596167698 -0.0023494810010379185)
(1370.90184863469131 0.0293134957561939635 -0.0025495457399957195)
(1197.92962370583018 0.0360987201270521335 -0.00286996871311819999)
(1030.19239539358819 0.0330940976445374194 -0.00253881874283763556)
(873.791265297455084 0.0279508630106325325 -0.00206195709605196901)
(733.955641025634009 0.0260108163763482711 -0.00182687797383963109)
(607.975209694834803 0.0339614670421150219 -0.0022845380209141398)
(494.943888735421467 0.0410643052599440617 -0.0027298044687537929)
(392.879282606027914 0.0419144846025340731 -0.00280773736337429965)
(298.735805232923155 0.0407117215584034825 -0.00275162108764306435)
(215.813370346758461 0.0330984334991717907 -0.00224650997134156387)
(147.319464661587517 0.0210845710680862032 -0.00142781009425632156)
(90.6664034663136817 0.0176338946225337891 -0.00119016337849196948)
(2112.67393521493887 -0.00711650228186584861 -0.00140644040723894885)
(1981.18611833186264 0.0173551666792370399 -0.00213286028014677762)
(1780.81119070440423 0.0245556746159473725 -0.00155550943734418501)
(1572.30257737146508 0.0251158898833019617 -0.00116549232234585873)
(1379.46752006511429 0.029813360539544323 -0.00111621233453379726)
(1205.62609255811503 0.0377447893907180143 -0.00123073209063470548)
(1040.20804711775259 0.034985292750736266 -0.00116338815810182743)
(881.796242221112379 0.0277598366176272961 -0.000918813745811211603)
(740.870689629684648 0.0253058615419899484 -0.000816711795841783337)
(616.718440623789888 0.0298836873044918336 -0.00091376470197943743)
(504.677011827049341 0.0427700395808636447 -0.00131618626593373337)
(401.992310451590811 0.043370866521990202 -0.00136402623107451386)
(308.086689005878611 0.042173282255263865 -0.00140080579645941489)
(223.222973959138073 0.0375353551247376016 -0.00124112334048066841)
(152.317795829580064 0.0241668121834631641 -0.00083026548808230597)
(94.4493709068811995 0.018326012072788108 -0.000592977638696805687)
(2128.16796529621843 -0.00673223880311219804 -0.000587413155473595866)
(1993.64689221945878 0.0182629536453523048 -0.000869758951949712515)
(1787.6515527303884 0.0259427136530498113 -0.000595866588693995478)
(1578.97864053395847 0.0255359800511395646 -0.00039953485838350089)
(1384.71367487299949 0.0289014624210989918 -0.000391157104882652147)
(1210.00412129717188 0.0387629452384242873 -0.000455192520557167509)
(1048.48133578118859 0.0384412559891817301 -0.000504873262117821347)
(887.426377729287196 0.0327521449295876607 -0.000450385177682110594)
(741.233083780071411 0.0274296899801718189 -0.000388249729346477705)
(618.017408772740737 0.0271202218991649611 -0.000346667675900250258)
(509.467399261127241 0.0420581343850191178 -0.000506591708733761812)
(409.231840811288691 0.0443402324919124347 -0.000523912473031908749)
(314.394847173125186 0.0426192975267189883 -0.000574001707238024311)
(227.890181748916206 0.0361140383276965515 -0.000471685964268552275)
(160.123127872432036 0.0106657970105181361 -0.000149519645610750898)
(107.305504317988678 0.00753634971158448092 -8.5382503554600988e-05)
(0.0873456121544823882 0.0264320958991062262 -160.077136854459781)
(0.0916033494390074698 0.00941789386536980196 -207.995351215072844)
(0.0496991905117029342 0.00535671788887191747 -176.924089437278184)
(0.0130170059204210396 0.0021093973826810386 -94.9718161181937148)
(-0.00194388658313487213 -0.000630504625713121554 -11.6309896610147447)
(-0.0021246556454378447 -0.00135689216171238042 -9.87108247974083142)
(-0.000586450388719693448 -0.000659389398548262235 -16.9172084522940587)
(-0.000626378797687796593 -0.00102657153461103079 -16.2173561811331339)
(-0.000576243744789058598 -0.00114851541144988536 -11.6189130797976521)
(-0.000464111918911534391 -0.00104696458656860949 -11.2557860235283567)
(-0.000496465062703607251 -0.00127441615903723152 -10.9447921012488774)
(-0.00147658723173597212 -0.00451604364631017028 -10.6956383183568011)
(-0.0006171776217356751 -0.00240257512771176488 -10.3658145621072499)
(-7.28391568993151938e-05 -0.000366220438126551261 -10.4047508617863418)
(1.44990284266073252e-05 9.76185697895697198e-05 -10.7909590446883321)
(0.0328206873147704262 0.0112042561294703677 -67.3274867478355361)
(0.0254667593429906899 0.00150336335266039738 -70.5095493816060639)
(0.00691227503720553537 -0.000412582098726537838 -39.4603422740595207)
(-4.61197142862581759e-05 2.12650878587473504e-05 -9.11619390407385666)
(-0.000243695620525829874 -7.2218582048508856e-05 -7.79869765025722561)
(-0.000298225854958332536 -0.000101545195801042241 -8.23561828832682963)
(-0.000297391109818791958 -0.000142490415455809755 -8.8540339235530876)
(-0.000227352597639210013 -0.00012783212576434778 -8.22990913768587617)
(-0.000189020892790150893 -0.000111538007604359635 -7.32824969115098135)
(-0.000204189313895980517 -9.37823485441354523e-05 -7.1379720603251009)
(-0.000192485734457656881 -7.98142081232513178e-05 -7.1349639720766147)
(-0.000170485459216795156 -7.76119200208740185e-05 -7.2101323350222204)
(-0.00015503923128010625 -6.55296138210963977e-05 -7.30418819513801409)
(-0.00014832859391792689 -5.61778881563085159e-05 -7.4427637445443855)
(0.0163600861251683195 0.00479372189319207404 22.8342850378110427)
(0.00711614988708795821 0.000271498917481399456 8.14417084270319869)
(0.000625071851204734999 -0.000287089740744799404 -2.67767229438227794)
(-7.54599725158887531e-05 -5.60171830422891124e-05 -7.31850865977022114)
(-0.000153644388005803873 -2.77524646559446154e-05 -8.33277052928503181)
(-0.000156391105286359059 -3.73966102756292045e-05 -8.26979988888650297)
(-0.000111966947944859454 -3.46427085994584794e-05 -8.18557243546923097)
(-6.18016768483647093e-05 -1.05634725103442556e-05 -7.48549532617412883)
(-8.68402792965815241e-05 -4.60282594451305748e-05 -6.91096943410072662)
(-8.5041356269205314e-05 -4.54691701006184742e-05 -6.69327770839700964)
(-8.58972107002052836e-05 -5.22887214927895627e-05 -6.62985607952956091)
(-8.50952443367413618e-05 -6.12259698444188831e-05 -6.66042609612689862)
(0.009095981086783958 0.0019351460466503019 13.0374528118042594)
(0.00198448856685038821 0.000117506359047365213 2.14807726121232623)
(-3.42574384334545136e-05 -6.42331549797694486e-05 -4.14261415554046142)
(-9.37782956285979861e-05 3.65212351264204695e-07 -5.87403956458325283)
(-0.000124257796471535466 2.97449830439395275e-06 -6.09062575151270202)
(-0.000167899745328892977 -4.86529801783960503e-06 -6.05796243478845486)
(-0.000125542780379790274 1.98379535667424438e-05 -6.07733201462428951)
(-0.000104293344056017711 -9.20014356763795173e-06 -5.96922479836316278)
(-9.67930017811877255e-05 -1.69232717199483642e-05 -5.94744410630929554)
(-9.5712683006227633e-05 -2.12294101651579987e-05 -5.97768544205299257)
(-9.61105219225631105e-05 -2.89468391275986377e-05 -6.04524841292630821)
(-9.44773603327567121e-05 -3.65718588183646493e-05 -6.10696156456666106)
)
;
    }
    procBoundary0to1
    {
        type            processor;
        value           uniform (0 0 0);
    }
    procBoundary0to3
    {
        type            processor;
        value           uniform (0 0 0);
    }
}


// ************************************************************************* //
