/*--------------------------------*- C++ -*----------------------------------*\
| =========                 |                                                 |
| \\      /  F ield         | OpenFOAM: The Open Source CFD Toolbox           |
|  \\    /   O peration     | Version:  2206                                  |
|   \\  /    A nd           | Website:  www.openfoam.com                      |
|    \\/     M anipulation  |                                                 |
\*---------------------------------------------------------------------------*/
FoamFile
{
    version     2.0;
    format      ascii;
    arch        "LSB;label=32;scalar=64";
    class       surfaceScalarField;
    location    "0.119999999999999996";
    object      phi;
}
// * * * * * * * * * * * * * * * * * * * * * * * * * * * * * * * * * * * * * //

dimensions      [0 3 -1 0 0 0 0];

oriented        oriented;

internalField   nonuniform List<scalar> 
20789
(
1.89967469726743605e-05
-1.90268043881301575e-05
-1.47311599369919967e-06
1.50317340933481461e-06
4.01636745970882885e-05
-2.12011169904054706e-05
-1.62919828950932223e-06
1.66342140100939789e-06
6.14983984843657842e-05
-2.13719396908941814e-05
-1.86901714016589261e-06
1.90626326933669467e-06
8.36990573343474877e-05
-2.22405051504152691e-05
-2.2560486384354695e-06
2.29594217556364929e-06
0.000107136994386329164
-2.34793029192493393e-05
-2.82074393012974243e-06
2.86217834866441869e-06
0.000132451205604676957
-2.53567392171671561e-05
-3.62133961442135768e-06
3.6639271425819745e-06
0.000160305776157537429
-2.78888044520995333e-05
-4.75538094385878494e-06
4.78963339111091511e-06
0.0001911286891947306
-3.0865504760498566e-05
-6.33380495418473048e-06
6.37638978339887242e-06
0.000225565611771086236
-3.44027299083808004e-05
-8.56728428182480866e-06
8.53310418754867886e-06
0.000265244613112062405
-3.97167615755970979e-05
-1.18779631593801462e-05
1.19157570348997405e-05
0.000307102495416432448
-4.15834213357515916e-05
-1.61233977924205054e-05
1.58489468639576303e-05
0.000354964313098458223
-4.80299703452826511e-05
-2.38873183568393072e-05
2.40554479633856165e-05
0.000409991965166356951
-5.36356027032822581e-05
-3.51593989621467326e-05
3.37673241346543896e-05
0.000446044299872729825
-4.05478740135397275e-05
-5.90983661990552331e-05
6.35938865773416916e-05
0.000389706344326849394
4.26535548531931487e-05
-0.000104614445460850605
0.000118298835292710743
0.000208835076546608558
-0.000256577463831089659
0.000437448755755714741
1.91628893887555585e-05
-3.82235734316353019e-05
-1.49171774556559306e-06
1.5256799627084914e-06
3.97919057135463159e-05
-4.18671435079827638e-05
-1.63291412394421235e-06
1.67003622600292948e-06
6.04028198109199643e-05
-4.20226383236638087e-05
-1.86852234325124758e-06
1.90845852219371867e-06
8.19220396744141643e-05
-4.3802157731118902e-05
-2.24778122406025916e-06
2.29040775116517818e-06
0.000104974558338790107
-4.65764808755157335e-05
-2.8038176817665947e-06
2.84864014073243791e-06
0.000129918228672106721
-5.03460671916496801e-05
-3.59304897648224629e-06
3.63877130546433053e-06
0.00015712368277567368
-5.51373303281561358e-05
-4.70363005244477903e-06
4.7467061088167883e-06
0.000187381197490296036
-6.11570126890697495e-05
-6.25763126222751319e-06
6.29166615258850608e-06
0.000220722824323446273
-6.77470756243029899e-05
-8.47164869367066951e-06
8.47444981774296341e-06
0.000259025375024253589
-7.79726780942486441e-05
-1.15940259339687103e-05
1.15474149774200718e-05
0.000301020290586375588
-8.33967818585589063e-05
-1.61633365127813051e-05
1.59817202791217011e-05
0.000348322010668465978
-9.47832311801869495e-05
-2.34554475432492777e-05
2.29069173585711599e-05
0.000404591942179718565
-0.000109405966374354115
-3.46663746085667379e-05
3.41667614087481081e-05
0.000450565455612812716
-8.93085499871189368e-05
-5.77882681083574651e-05
6.05754134048035897e-05
0.000431043097446626655
3.79855389990045101e-05
-0.000118584037366194857
0.000142774466987079376
0.000471871985921185142
-0.000325461043092789245
0.000493467331970293957
1.92688682002030102e-05
-5.75302692148948157e-05
-1.49530058762979315e-06
1.53319209852509216e-06
3.94312241575637222e-05
-6.20698578309793918e-05
-1.6348795458135036e-06
1.67534059777453631e-06
5.99419444932993472e-05
-6.25764629259517683e-05
-1.86533782341320389e-06
1.90856865406689806e-06
8.13709570255935407e-05
-6.52772352636947479e-05
-2.23727756221401587e-06
2.28348015058539466e-06
0.000104258820887272074
-6.95133189325423191e-05
-2.78362807410190304e-06
2.83269917694233472e-06
0.000129009086881610112
-7.51471477634534546e-05
-3.55859845228307418e-06
3.60944518969167359e-06
0.000156040669826761037
-8.22176392538073074e-05
-4.64663333330010654e-06
4.6953768707949846e-06
0.000185997787468960565
-9.11591065708131136e-05
-6.16336568992813771e-06
6.20839851649612652e-06
0.000219213836974073493
-0.0001009677782462916
-8.3202828594251169e-06
8.32499253236560518e-06
0.000256977991754936885
-0.000115727917334022137
-1.13211675896572368e-05
1.13122443893334666e-05
0.000298582871515441664
-0.000124760183371648342
-1.57828960682151038e-05
1.55413756931515348e-05
0.000347644346699882759
-0.000143285465626571121
-2.25898759861197216e-05
2.20306085403705817e-05
0.000407137099083611882
-0.000167985343540470484
-3.35075457462535978e-05
3.25941564075458707e-05
0.000450348847149768621
-0.000132800514241775656
-6.10182892408113329e-05
6.12985155914242997e-05
0.000416301150664109224
4.21307892796062228e-05
-0.000129294270643338536
0.000159196792050984138
0.000703575734964158447
-0.000359009312174753473
0.000543606798005844753
1.92210416163709238e-05
-7.67935124447985851e-05
-1.48751321780228349e-06
1.52978812217727495e-06
3.89641980680720772e-05
-8.18570747526525398e-05
-1.62370870234958217e-06
1.66788061958400661e-06
5.9262753928573715e-05
-8.29220847467535362e-05
-1.84764404787897256e-06
1.89481710856619098e-06
8.04933549949788779e-05
-8.6558002368535537e-05
-2.2095669059942279e-06
2.25982379322399042e-06
0.000103127710345267556
-9.22012814203105783e-05
-2.74134093469165911e-06
2.79500338406548996e-06
0.00012757964699137739
-9.96548527690340087e-05
-3.4949253119707491e-06
3.55072092421383329e-06
0.000154302170098153296
-0.000108995026481887344
-4.5484203688752541e-06
4.6033210345858803e-06
0.000183829407982562736
-0.000120740010525898159
-6.01477881008659344e-06
6.06849681971698714e-06
0.00021676054186343645
-0.000133914028571613993
-8.07776531654056451e-06
8.09290239353155526e-06
0.000254151351618667491
-0.000153126172914886169
-1.09599182583793833e-05
1.09673462672591e-05
0.000295115130302885326
-0.00016549334878995461
-1.51535088686693248e-05
1.49228897654722928e-05
0.000345619281850716078
-0.000193369864677991383
-2.13392766083553954e-05
2.09195341041904649e-05
0.00040646178649795026
-0.000227218465845648412
-3.20662251206564109e-05
3.0456851822774973e-05
0.000449684043744218262
-0.000175651214664798689
-6.39926365842257555e-05
6.3621120858919992e-05
0.000403446824174855275
5.60622391869127954e-05
-0.000143592121720869769
0.000175897987101722599
0.000905841148453558585
-0.00039027127424605862
0.000591452758794036083
1.90349965100847136e-05
-9.58759809877862012e-05
-1.46908580980266803e-06
1.51664816447480964e-06
3.83979694229076289e-05
-0.000101268379084455375
-1.60072001672757712e-06
1.64916840313361571e-06
5.83975267900859691e-05
-0.000102973546579244123
-1.81678274820592409e-06
1.86876905675985779e-06
7.93399226585661608e-05
-0.000107555237449869374
-2.16635624059268864e-06
2.22124552606098487e-06
0.000101637973185498661
-0.00011455822026360168
-2.67924679868042013e-06
2.73816847252621697e-06
0.000125701545768925206
-0.000123779193811295431
-3.40524637952866526e-06
3.46605156697047488e-06
0.000151993747616785055
-0.000135348902392446499
-4.41396494339369668e-06
4.4756839629458811e-06
0.000181004409761825155
-0.00014981163422868058
-5.81976943751264609e-06
5.88075526660732837e-06
0.000213527604991040044
-0.000166472419569413122
-7.75495212133446423e-06
7.79013438539490017e-06
0.000250251420617971984
-0.000189861529599342615
-1.05229206013059298e-05
1.05344576157238242e-05
0.000290408581862531493
-0.000205504305007703057
-1.43245156644339899e-05
1.41783422722019821e-05
0.000342879555197039365
-0.000245421357278347268
-1.9789309662274111e-05
1.93698572720761252e-05
0.000404211235036244505
-0.000286496039962019116
-3.15634167848543326e-05
2.95093362979055032e-05
0.00044691831591059676
-0.000218048479391432377
-6.9627529038247105e-05
6.93177780778232006e-05
0.000388788875226584233
8.17909405988922187e-05
-0.000168369417791242303
0.000200770291655577826
0.00107941362968706138
-0.000424537591407514545
0.000639754035746034253
1.87511317674587171e-05
-0.000114681444245784848
-1.44067969877694274e-06
1.49511544671956784e-06
3.77189442661712769e-05
-0.000120289618445340227
-1.56711212288686925e-06
1.62065165846590939e-06
5.73475511820804916e-05
-0.000122660207950154839
-1.77391726568736546e-06
1.83202804085444963e-06
7.79177959866730787e-05
-0.000128185707174791714
-2.10910316776042299e-06
2.16935407373165741e-06
9.97970154959535398e-05
-0.000136502693231370571
-2.59921916074935361e-06
2.66450547716658124e-06
0.000123381402338575667
-0.000147429454897308109
-3.29218916020713859e-06
3.35811249333604252e-06
0.000149128711316268093
-0.000161165229335398768
-4.24853267013383141e-06
4.31758330067170046e-06
0.000177541919596793245
-0.000178293209793665264
-5.58094009220934204e-06
5.64928971557538982e-06
0.000209321172874685728
-0.000198310439470934406
-7.37808590670786717e-06
7.43682121268594758e-06
0.000245134585464563536
-0.00022568211277315789
-1.00201241924825484e-05
1.00273177211440607e-05
0.000284760145976765077
-0.000245098877479914485
-1.33608873577919318e-05
1.33299469063233935e-05
0.000338793762426640641
-0.000298920988373958406
-1.82877653823236136e-05
1.77538054139652417e-05
0.000401192721720524791
-0.000346379115377900659
-3.19489573904075796e-05
2.94331043655041345e-05
0.000437035885899444575
-0.000255333628530331029
-7.7078303836560603e-05
7.85203733027196014e-05
0.000369910568795853991
0.000101818540760001305
-0.000196691533697102629
0.000243789442982873805
0.00121659700823255443
-0.000455114697154403495
0.000687841945250197793
1.83893042196358579e-05
-0.000133134577930063753
-1.40292494286012469e-06
1.46686241068039182e-06
3.69240504619453396e-05
-0.000138884001520353783
-1.52403713328558061e-06
1.58377289701950169e-06
5.61173347862283198e-05
-0.000141919776203685969
-1.72007360623198583e-06
1.78639684521858897e-06
7.62370482894237652e-05
-0.000148372056981239031
-2.03922400773968025e-06
2.10588489356748557e-06
9.76167789591344544e-05
-0.000157955896536029567
-2.50302449585111906e-06
2.57654456465685425e-06
0.000120630237590179819
-0.0001705137790577324
-3.15876022678987736e-06
3.22967797625601858e-06
0.000145730006890154004
-0.000186341783497737497
-4.05671936513123198e-06
4.13350513087224412e-06
0.000173406459889616839
-0.000206044918487471445
-5.30247957255325192e-06
5.37767931880555875e-06
0.000204368573559806033
-0.000229356810856308886
-6.96615493482275159e-06
7.05038527898055545e-06
0.000239318394980683199
-0.000260638150418542199
-9.44539169392190776e-06
9.45165145173470265e-06
0.000278112801638596822
-0.000284024433134690783
-1.23416453986537801e-05
1.24728321291863932e-05
0.000331997784975663788
-0.000352217021780736712
-1.70926061542244584e-05
1.65036737612350305e-05
0.000391780117816626294
-0.000403776603735388185
-3.24890070755898768e-05
3.01042038078805946e-05
0.000418064729505662801
-0.000285374686380499714
-8.31341184694357391e-05
8.68906752174137365e-05
0.000351317297434887888
0.00010484834615352137
-0.000208080313886890302
0.000271798179891598541
0.00133724285273467323
-0.000468560035204710484
0.000699231613614924525
1.79625284866600349e-05
-0.000151174476022337989
-1.35636989259154208e-06
1.4338389291700982e-06
3.60156264747577511e-05
-0.000157004335851530265
-1.4726591921678672e-06
1.5399767849803277e-06
5.47121581128345256e-05
-0.00016069417555496468
-1.65608321304822847e-06
1.73398730353119579e-06
7.43080823911108684e-05
-0.000168042571144421499
-1.95814794587516599e-06
2.03277919253807106e-06
9.51110355919446387e-05
-0.000178843586320956422
-2.39240235711943263e-06
2.4772025014470363e-06
0.000117464235107549761
-0.000192942080083799249
-3.00845796911945745e-06
3.08359864612094356e-06
0.000141811519359445574
-0.00021077330184360722
-3.84226599163638054e-06
3.92646215727066034e-06
0.000168637299220833107
-0.000232950722709170392
-4.99212740125760115e-06
5.07207752777757244e-06
0.000198592261120947278
-0.000259418736278079496
-6.53039841086980641e-06
6.63735249232585633e-06
0.000232535828897727172
-0.000294599448870013305
-8.78875849444749685e-06
8.80653312446774406e-06
0.000270278616591263985
-0.000322051840263041286
-1.13671807863484242e-05
1.16518171481235388e-05
0.000322302514730472009
-0.000403569124401523477
-1.60652819723191133e-05
1.53935012784977723e-05
0.000376659983543851072
-0.000456405436507647958
-3.27771055405153951e-05
3.10485503403432213e-05
0.000395305898331609821
-0.000306089070621056694
-8.95457660300591658e-05
9.16143884124943951e-05
0.000333271627106830929
0.00010736506020835905
-0.000214896334036919717
0.000274414114050866955
0.0014597676352736638
-0.000471515078978772782
0.00068226208575891819
1.74807083479022782e-05
-0.000168751552468659685
-1.30168443033815315e-06
1.39813489008083589e-06
3.49982773481591477e-05
-0.000174598463528802456
-1.41416857504289627e-06
1.49079480813312732e-06
5.31383670512774865e-05
-0.000178929162144236196
-1.58253577520195209e-06
1.67747929402743465e-06
7.21421310019860617e-05
-0.000187131259347425068
-1.86742702051592573e-06
1.95241439488205189e-06
9.22962208921634188e-05
-0.000199098621105107379
-2.26912022567535208e-06
2.37013252890146818e-06
0.000113901221035880062
-0.000214624305572022855
-2.84532345241340803e-06
2.92256098627157265e-06
0.000137398359747019556
-0.000234360350855769323
-3.60859741521064195e-06
3.6984411256995332e-06
0.000163240782883423199
-0.000258875006972028197
-4.65723653878285775e-06
4.73903090568692556e-06
0.000192043928030916414
-0.000288340219567436004
-6.07401401474209828e-06
6.19235971325363731e-06
0.000224769140859442209
-0.000327386682852057653
-8.05880476482831241e-06
8.12084956194180569e-06
0.000261232318149399968
-0.000358838331142612133
-1.05759051432246979e-05
1.0899222500874008e-05
0.000309970826702179872
-0.000451527499297073645
-1.51274790280941733e-05
1.43473812611855406e-05
0.000355758906220809349
-0.000501198602457196118
-3.23304037728629879e-05
3.13356155844267327e-05
0.000367275822458053996
-0.000319251749639076939
-9.21645240002120705e-05
9.3810491981373702e-05
0.00031015239821462979
0.000119633016522771606
-0.00021974788101564139
0.000264603531970082108
0.00158652370023741368
-0.000470197923936610486
0.000653594386946634962
1.69508692076911124e-05
-0.000185825228426748468
-1.23880449370826248e-06
1.36167621118161617e-06
3.38754892740735032e-05
-0.00019161111212708662
-1.34981317352288679e-06
1.43790561576902478e-06
5.14019309729183896e-05
-0.000196576024849288544
-1.49986547630298596e-06
1.62034913490131136e-06
6.9751299804739916e-05
-0.00020557947335181058
-1.76893623882816663e-06
1.86785609368462604e-06
8.91911466871442499e-05
-0.000218662951047229957
-2.13513219789225001e-06
2.259667789812494e-06
0.000109962831323827555
-0.00023547063420866751
-2.67408931364303653e-06
2.74871587471235918e-06
0.000132518089725261056
-0.000257008136895104657
-3.358689838512202e-06
3.45114602894729071e-06
0.000157240115697208791
-0.000283673954454821025
-4.30858504639882704e-06
4.38546593230216488e-06
0.000184776317870699456
-0.000315988208505166702
-5.58526214003680274e-06
5.69706032755804461e-06
0.00021603140547932822
-0.000358783210258236708
-7.29899581282822582e-06
7.44043001321812314e-06
0.000250883033374619776
-0.000393959929862134923
-9.79994561413525555e-06
1.00699196527897037e-05
0.000296688025806225838
-0.00049682832305313247
-1.36813434606898883e-05
1.31772497104534251e-05
0.000331928703622245969
-0.000534816224977227193
-3.06144594440176365e-05
2.89915467149670202e-05
0.000337083842616557486
-0.000327638872200369379
-8.95925081796433909e-05
9.28246941765142896e-05
0.000281386515250222268
0.000142169860482876942
-0.000221000587353973352
0.000254161069042600502
0.00170726390015621182
-0.000469224369685311571
0.000629870713592783644
1.63732912035899389e-05
-0.000202356579064267536
-1.16696764696558279e-06
1.32508245792456783e-06
3.26467453917719862e-05
-0.000207987165521474456
-1.28034137652643627e-06
1.38301126519437165e-06
4.95075997688634316e-05
-0.000213595043853367813
-1.40886354619768106e-06
1.56710226574682435e-06
6.71498147996722625e-05
-0.00022333945231552081
-1.66547751717265163e-06
1.78330859045506503e-06
8.58181215216715477e-05
-0.00023748823050437473
-1.99313795899306426e-06
2.15013456502050655e-06
0.000105675375646566567
-0.000255391012793767993
-2.50020314904455361e-06
2.56329270571448012e-06
0.000127203499928108834
-0.00027862695191704348
-3.09673618553954708e-06
3.18737674714304417e-06
0.000150672366403234735
-0.00030720176332638756
-3.95435241342552803e-06
4.01328232866372276e-06
0.00017682937047363713
-0.000342234674184724286
-5.05699830457377569e-06
5.14645720675372186e-06
0.000206374226737182116
-0.000388558667991153713
-6.5568511118719163e-06
6.78742534135638904e-06
0.000239914110460562064
-0.000427560571324061363
-8.73170706704351557e-06
8.79248598474336043e-06
0.000284033419695007693
-0.000540485056305460565
-1.19012203254812075e-05
1.1438748608585977e-05
0.000311592385042389866
-0.000561867337216612238
-2.60289382566930582e-05
2.55211904136654854e-05
0.00031105440642279034
-0.000332291610237657356
-8.1204435442978811e-05
8.63952697757406891e-05
0.000252301928202550976
0.000175122585510866999
-0.000218521521429321057
0.000244321296024511308
0.00181529012719058142
-0.000469591602874128437
0.000613867264220954939
1.57381198806974209e-05
-0.000218297363191130572
-1.08691201513863705e-06
1.28963322351506573e-06
3.13043161412187508e-05
-0.00022367347961441822
-1.20676231225722094e-06
1.32696237340622678e-06
4.74590396695507804e-05
-0.000229962011713439034
-1.311713244876064e-06
1.52403136776936141e-06
6.43559325216904035e-05
-0.00024037920123598817
-1.56124642113168622e-06
1.70414569672365908e-06
8.2206167685633559e-05
-0.000255537192719178577
-1.8465991069930921e-06
2.04532150151829659e-06
0.000101073094690771418
-0.000274292934015881546
-2.33094895349847636e-06
2.36591225541712282e-06
0.000121496133426312171
-0.000299133272042294599
-2.82786168742069765e-06
2.91112798250844723e-06
0.000143581319542550236
-0.000329306350678237609
-3.60044482717300008e-06
3.61984665760472626e-06
0.000168233667429740219
-0.000366942307503734862
-4.50580977356444486e-06
4.56106961643235203e-06
0.000195907056219406104
-0.000416522662003818362
-5.83272098104925989e-06
6.1233032727446507e-06
0.000228581471334944191
-0.000460000309867946637
-7.10942374230448717e-06
6.87479774340466468e-06
0.000271515928292836918
-0.00058250140764757772
-1.04030228619725658e-05
9.48500898943087817e-06
0.000293969233272415968
-0.000587265161083387415
-2.07742258121385883e-05
2.37187376530428748e-05
0.000290494966643388517
-0.000332357353613309074
-7.40542780219837372e-05
7.7594266304092672e-05
0.000226816355904056163
0.000218632611287020883
-0.000217415142946528818
0.000237583874857598968
0.0019105814120863832
-0.000470773868460393728
0.000602298945751575821
1.50204081761743925e-05
-0.000233572570181307475
-9.99639137392833462e-07
1.25450451516788615e-06
2.98247048704956618e-05
-0.000238616209214728123
-1.13272111502897341e-06
1.27124479609841874e-06
4.52571828655763027e-05
-0.000245681283565176421
-1.21272465100552351e-06
1.49958091742155043e-06
6.13918856359335359e-05
-0.000256687234248174261
-1.46098532276400549e-06
1.63433141160037153e-06
7.83940011228943752e-05
-0.000272788696651801992
-1.69994982537894584e-06
1.94931951592302607e-06
9.62012767554699504e-05
-0.000292077507885100149
-2.17814603741999322e-06
2.15543395797196224e-06
0.000115450166897419659
-0.000318455312544884165
-2.557192019021467e-06
2.63035434451741074e-06
0.000136018180500687704
-0.000349819924803319718
-3.25777502783507549e-06
3.20333161785062195e-06
0.000159057239339749075
-0.000389967707653901638
-3.97975277202400469e-06
3.96605998615510225e-06
0.000184570094217288163
-0.000442363194822593204
-5.06929933889482407e-06
5.39698537455971836e-06
0.000214806963337131992
-0.000490286504072671016
-5.05732148782098962e-06
5.10671291789523072e-06
0.000253591751319871014
-0.000620203894271270369
-8.92694998689656053e-06
7.84465574128394821e-06
0.000274726999967197518
-0.000610884379427922256
-1.87316833985888792e-05
2.12155519814350598e-05
0.000270335114168860908
-0.000328792729131455793
-6.97515967197553309e-05
7.05788292292814463e-05
0.000205946740146446827
0.000266514415115143353
-0.000214099795710670352
0.000230606803308204143
0.00199153547169822693
-0.000467184927288948851
0.000592177600782139903
1.4159981426532927e-05
-0.000248037622887139271
-9.13523652458487344e-07
1.21867189674158686e-06
2.81650550023285539e-05
-0.000252779538140037482
-1.05868469333344064e-06
1.21703162974972603e-06
4.28984930344993641e-05
-0.000260784313635310935
-1.12741761556709877e-06
1.49705740241091335e-06
5.82892683461367717e-05
-0.000272287137755182062
-1.36783561130427897e-06
1.57696395217622944e-06
7.44236908325691851e-05
-0.000289218581561918409
-1.56840173869978203e-06
1.86385010279580853e-06
9.11174903424253024e-05
-0.000308664252816865585
-2.05294639244515775e-06
1.94589949125706035e-06
0.00010913137707945266
-0.000336531837143716971
-2.29719473130258585e-06
2.35984813035219179e-06
0.000128078577841778281
-0.000368583454100960574
-2.95003760145611162e-06
2.76636021386424707e-06
0.000149362887058279232
-0.000411096912853427569
-3.53385940417004173e-06
3.37874371421164422e-06
0.000172196167824342533
-0.000465586828049180368
-4.22939164351713985e-06
4.61978383329186248e-06
0.000199853836312354844
-0.000518217326912241163
-3.30507617005307601e-06
3.57827730971877211e-06
0.000231964725013841691
-0.000649930859820017763
-7.98643711360497692e-06
5.60246146495014831e-06
0.000253782781357763027
-0.000631342332377097431
-1.84516584951719847e-05
1.7091470958466747e-05
0.000246979910161326225
-0.000319810962405089611
-6.34346774174575942e-05
6.12557103719100132e-05
0.000186271297032904193
0.000314923501856637729
-0.000202938400027504341
0.000215238187084737677
0.00205931329657106947
-0.000454007009762996
0.000572500573397821395
1.30681032308172838e-05
-0.000261429506868809762
-8.66515749823158415e-07
1.19037811396769806e-06
2.63332966308969899e-05
-0.000266256114457581034
-9.61502992478777619e-07
1.17297106347527844e-06
4.03896293457520149e-05
-0.000275230977070962772
-1.10224879695507897e-06
1.49261814752389388e-06
5.51167379534872162e-05
-0.000287290016764189804
-1.2765568691319308e-06
1.55233033847147451e-06
7.03148242404435348e-05
-0.000304684479390392345
-1.49998430304668333e-06
1.76779616666255521e-06
8.58909373325431589e-05
-0.000324110236997787943
-1.9345146398871943e-06
1.80439170682858713e-06
0.000102582002246621076
-0.000353230788467797838
-2.09553014234142412e-06
2.10341968827825657e-06
0.000119886588721968443
-0.000385508317871665251
-2.70556885205871301e-06
2.3258572172049652e-06
0.000139172701836488139
-0.000429997431444722772
-3.19292148468730325e-06
2.80734820225262582e-06
0.000158724186489924774
-0.000485651899612507076
-3.37543747237733146e-06
3.88908804468204533e-06
0.000182985264923784716
-0.00054228081709486336
-2.57464727776349534e-06
2.37710696101704635e-06
0.000209861202826048724
-0.000673902952201007373
-6.46350435395857538e-06
3.55964169848804179e-06
0.000230886827671346741
-0.000646560940274578592
-1.79483478273954921e-05
1.21411802797237541e-05
0.000219762103583112981
-0.000304342794428160714
-5.7446090309051868e-05
5.31023670860270968e-05
0.000164949533608351335
0.000354069173696866502
-0.000190728572562970974
0.000206395318600217475
0.00210960277741598307
-0.000435515073820183453
0.000550175760915621931
1.18279015348400743e-05
-8.98212535511543081e-07
1.20473518390558063e-06
-0.000273563853256319871
2.45210635839385441e-05
-8.1393171491237964e-07
1.1362726117339948e-06
-0.000279271547194509312
3.78021673145828579e-05
-1.16760094724738677e-06
1.44208671496168712e-06
-0.000288786531639342815
5.19805703258035046e-05
-1.16823709434683011e-06
1.58422951823975537e-06
-0.000301884396987395524
6.60524139427072434e-05
-1.53641811520648798e-06
1.62482223196889977e-06
-0.000318844717373724807
8.05617184314479215e-05
-1.77472471174073401e-06
1.83076889653341746e-06
-0.000338675591995994901
9.57643353381235616e-05
-2.0444988076447747e-06
1.84608058482649396e-06
-0.000368234990359786528
0.000111430183727813625
-2.54598347979648938e-06
1.95344751048356516e-06
-0.000400581610072105036
0.000128523231185633533
-2.9417001404945455e-06
2.26657301264179005e-06
-0.000446415307901464932
0.000144314148050355708
-2.59783697719725885e-06
3.32178556620335319e-06
-0.00050216669384789219
0.000165294290953388518
-2.26722684492052665e-06
1.42456839019146988e-06
-0.000562418298442947623
0.000186714436511085946
-4.10704226641053191e-06
1.9716521591371845e-06
-0.000693187676546236625
0.000208329091251361221
-1.32624330835582185e-05
7.62172777794274903e-06
-0.000662534808790411268
0.000190476199965144944
-5.27474291085730916e-05
4.5982044230191715e-05
-0.000279724693470181094
0.000140038761084633918
-0.00018019360022054193
0.00020925350390679659
-0.000410638218248415387
0.000527900070151500912
1.89144610166065111e-05
-1.90020443004064408e-05
-1.38548623084586228e-06
3.99837758454455261e-05
-2.11666627931667962e-05
-1.53179372316379339e-06
6.12010750239747433e-05
-2.13293091397827883e-05
-1.75692534416196191e-06
8.32523310746835054e-05
-2.21850160352063169e-05
-2.12216373341694501e-06
0.000106493536262519279
-2.3405174426532141e-05
-2.65665203555069178e-06
0.000131538575559890628
-2.52519408857501294e-05
-3.41437826710095989e-06
0.000159004892426035872
-2.77335197926765255e-05
-4.48816611135863975e-06
0.000189267542248010073
-3.06289333657927819e-05
-5.96747822727359497e-06
0.000222858559309902334
-3.40609737608756942e-05
-8.09723714107376651e-06
0.000261155588454556678
-3.90192379467663354e-05
-1.11557022795183766e-05
0.000301161083697201824
-4.08734347351423212e-05
-1.5255487056091817e-05
0.000345806889119071542
-4.57985852656289406e-05
-2.27345879687853227e-05
0.000394464918980624803
-4.91579326034813694e-05
-3.46595264899889836e-05
0.000419512039034292269
-3.11252796292894071e-05
-5.30202219995022338e-05
0.000356853591743401695
5.07941358427519389e-05
-9.27501052450142464e-05
0.000251802882312167093
-0.000151526657398219763
1.9079192011719785e-05
-3.81731629786166883e-05
-1.39972582020512891e-06
3.96110792528814833e-05
-4.17986121292840239e-05
-1.5327502188196937e-06
6.01085144174043386e-05
-4.19407178160795e-05
-1.75439369071859212e-06
8.14851842941207187e-05
-4.36967044508828839e-05
-2.11258289825292776e-06
0.000104348039595083937
-4.64330859346344499e-05
-2.63862516547150189e-06
0.000129031106863885896
-5.01431962387061906e-05
-3.38477667045736608e-06
0.000155869688473142721
-5.48421977348986735e-05
-4.43342745839070671e-06
0.000185589330844998778
-6.0711626387931882e-05
-5.89442076958451214e-06
0.000218150012298504842
-6.71046858881939377e-05
-7.98850089703446409e-06
0.000255213506826051245
-7.6793100097725188e-05
-1.08836606207344169e-05
0.000295529712705882967
-8.20705261166561193e-05
-1.5282499079181628e-05
0.000339803538382984637
-9.08815336695949379e-05
-2.2646344582087117e-05
0.000391321207844474842
-0.000102236700253274503
-3.31052833173518948e-05
0.000421564315720816059
-6.78775958926012142e-05
-5.12790466731970267e-05
0.000374165026059439525
7.65831799444521833e-05
-9.69737111755842782e-05
0.000511021513992581311
-0.00021051458384634361
1.91843524616703452e-05
-5.74527245745786185e-05
-1.40002249995649938e-06
3.92517413233231429e-05
-6.19687368280356248e-05
-1.53203869319361624e-06
5.96503998185339389e-05
-6.24554154580381817e-05
-1.74917512320566869e-06
8.09387044974775295e-05
-6.51218246322933335e-05
-2.10034600426246168e-06
0.000103640192214109406
-6.93012819916354793e-05
-2.61683907339519068e-06
0.000128135971005164978
-7.48489317824215373e-05
-3.34857283814138245e-06
0.000154808699926176844
-8.17858254112515049e-05
-4.3756282810923398e-06
0.00018424856714025555
-9.05181911127716344e-05
-5.79654530154798226e-06
0.000216706504295998483
-0.000100032990700679622
-7.84985804712362867e-06
0.000253285067118725845
-0.000114127058138406944
-1.05657801281489377e-05
0.000293314840352931912
-0.000122789047921166241
-1.50941441453588417e-05
0.000340019654154893067
-0.000138576086362951441
-2.16001215003449852e-05
0.000393881459647355664
-0.000158631803451950539
-3.09742451568581915e-05
0.000421430182273547799
-0.000103306078859763178
-5.31385014229200089e-05
0.000365961527695925356
0.00010741984302198128
-0.000104662195540555585
0.000751677226562717663
-0.000233703445149474528
1.91366426352414938e-05
-7.66873466238379557e-05
-1.38944348488556211e-06
3.87875125509009322e-05
-8.17243849401237682e-05
-1.51881504208714498e-06
5.89765656502556381e-05
-8.27619820184764539e-05
-1.7300318742726893e-06
8.00701174819381563e-05
-8.63535706541385177e-05
-2.07129984173345401e-06
0.000102523654219989455
-9.19225749680264558e-05
-2.57352797217276787e-06
0.000126730592944854892
-9.92664536313504276e-05
-3.28426894539281783e-06
0.00015310806785437232
-0.000108433843321754304
-4.27777775117648801e-06
0.00018214700609423356
-0.000119922608945979438
-5.64922134144235308e-06
0.000214352654868746562
-0.000132701385759756972
-7.61499471607336982e-06
0.000250638583633080634
-0.000151174616406418082
-1.0198265393816264e-05
0.000290179389291299122
-0.00016301689146078964
-1.44664254824310805e-05
0.00033850838257128748
-0.000188191172674190933
-2.00531646413860002e-05
0.000393359264254030359
-0.000216303946139216065
-2.92449595279362151e-05
0.000421873352759524246
-0.000140420122177867528
-5.53926390562284007e-05
0.000357535068337176438
0.000145112437538689283