/*--------------------------------*- C++ -*----------------------------------*\
| =========                 |                                                 |
| \\      /  F ield         | OpenFOAM: The Open Source CFD Toolbox           |
|  \\    /   O peration     | Version:  2206                                  |
|   \\  /    A nd           | Website:  www.openfoam.com                      |
|    \\/     M anipulation  |                                                 |
\*---------------------------------------------------------------------------*/
FoamFile
{
    version     2.0;
    format      ascii;
    arch        "LSB;label=32;scalar=64";
    class       surfaceScalarField;
    location    "0.900000000000000577";
    object      phi;
}
// * * * * * * * * * * * * * * * * * * * * * * * * * * * * * * * * * * * * * //

dimensions      [0 3 -1 0 0 0 0];

oriented        oriented;

internalField   nonuniform List<scalar> 
84128
(
-7.96358346757218826e-06
7.85935976164336866e-06
-9.90899078534178483e-06
1.00132144912393303e-05
-1.03249614939539855e-05
1.83985995992492914e-06
-1.16879937479552575e-05
1.22095113066848895e-05
-9.65739643877879519e-06
-1.21671063920995033e-06
-1.31533355712372991e-05
1.37024821825891331e-05
-7.82228329222319361e-06
-2.40706431016347961e-06
-1.51768190273731373e-05
1.57487775360997438e-05
-6.14263809996814817e-06
-2.17300051833200702e-06
-1.77431375324382301e-05
1.82365095135946789e-05
-4.68559642146011943e-06
-1.88435459108065198e-06
-2.08798758578374299e-05
2.1307209538842428e-05
-2.8875624232685923e-06
-2.30966047352710497e-06
-2.45804443359841597e-05
2.50920821484075964e-05
1.06588755390783243e-07
-3.59038686631139215e-06
-2.91437694958094098e-05
2.97399972296896888e-05
4.74774726678044051e-06
-5.44515830386698314e-06
-3.44650599945038814e-05
3.52690388567457601e-05
1.08870760745056217e-05
-7.2047124803952029e-06
-4.09973064841477199e-05
4.20626737233513841e-05
1.8893339904673984e-05
-9.08419060520350719e-06
-4.87602511148568619e-05
4.98381745128876675e-05
2.78251418522131783e-05
-1.12191930268435499e-05
-5.85812973672902295e-05
6.08686902622215407e-05
3.94919532483104177e-05
-1.35466500218097348e-05
-7.05620906891703725e-05
7.24419273075484904e-05
4.77847531671146217e-05
-1.71344295596162156e-05
-8.85499660605255706e-05
9.7391592979812432e-05
6.53868096671561972e-05
-2.9657779672955183e-05
-0.00010393448106195363
0.000115990206062315844
5.54611608477326701e-07
-0.000148103027359538261
0.000212935226485524542
-6.46426108669416189e-06
1.40981584431184695e-05
-1.00011623461974049e-05
1.02266284919765999e-05
-8.26706646542200687e-06
2.93861457689153484e-06
-1.12892829478993751e-05
1.19933412116938586e-05
-8.82082416594843612e-06
-1.45101326300261278e-06
-1.27997463015310877e-05
1.35878301347565309e-05
-9.35009490674707332e-06
-2.62272302810899281e-06
-1.48822867000434065e-05
1.56272615884348374e-05
-9.43838988512873606e-06
-2.71299276472830954e-06
-1.75855313072392578e-05
1.8213872506539938e-05
-8.62230802126041752e-06
-3.23028022654332957e-06
-2.09381602459158766e-05
2.14680341371735246e-05
-6.46249344582541773e-06
-4.94775630076075477e-06
-2.48792099462211781e-05
2.53574735244056246e-05
-2.74634947375411266e-06
-7.83049314526568273e-06
-2.95615844221656166e-05
3.00854941961188767e-05
2.18096685128194602e-06
-1.13107072219188264e-05
-3.48401812939285035e-05
3.57783667425753092e-05
8.93043901805814453e-06
-1.51476782762903335e-05
-4.12097849522489567e-05
4.24032611328807816e-05
1.73142609392275184e-05
-1.90059243915822298e-05
-4.87294124769538248e-05
5.02673235803283017e-05
2.70919306717905881e-05
-2.3531000307992034e-05
-5.80913509379732174e-05
6.06254840130840235e-05
3.86670372981531331e-05
-2.83252673577377629e-05
-6.95545136863397401e-05
7.27580193855912873e-05
4.88523339224495931e-05
-3.59671728339599968e-05
-8.62130164162694493e-05
9.48604670198177933e-05
6.37855911139677918e-05
-6.11164155836636759e-05
-0.000101553228250671383
0.000118078608493481002
-3.04624610858907215e-07
-0.000153136203095162601
0.000217781017947567376
-4.70791186383419934e-06
1.84381500558583321e-05
-9.51652293370952174e-06
9.88444394711100879e-06
-6.80400134231131382e-06
4.17811107217655661e-06
-1.11542873444973158e-05
1.20108834874472126e-05
-8.0236717492755837e-06
-1.10882840435454215e-06
-1.2844788471672648e-05
1.3722291822530684e-05
-9.11871173425480958e-06
-2.34110529415268601e-06
-1.5029334819672072e-05
1.58427943298189566e-05
-9.70404758368011673e-06
-2.80039357485114285e-06
-1.78280535495677912e-05
1.85008347082172174e-05
-9.2595374544369366e-06
-4.23112569202405452e-06
-2.12825834660199147e-05
2.18389429071796626e-05
-7.33257555634804727e-06
-7.35603475300508445e-06
-2.53147770877479994e-05
2.57960784086354922e-05
-3.61174492131654879e-06
-1.20740331845692214e-05
-3.00363705828909409e-05
3.05590374980679272e-05
1.33068403232239992e-06
-1.72164705022073335e-05
-3.53424494924519143e-05
3.63057467248963455e-05
8.12249397207846267e-06
-2.32089004591709235e-05
-4.16673418059969509e-05
4.29367402969391238e-05
1.64916378900855832e-05
-2.90213501201849657e-05
-4.91626363113434136e-05
5.08089165692932607e-05
2.60345298144313832e-05
-3.5625153547789228e-05
-5.85401614318062147e-05
6.10914190859820785e-05
3.71518406934552843e-05
-4.27504971845848254e-05
-7.00089630603556364e-05
7.33168797026972305e-05
4.79163138083638632e-05
-5.51299669947519452e-05
-8.65529068801601542e-05
9.49512314641197413e-05
5.94252643117630427e-05
-8.81153226759306453e-05
-0.000102063566828998698
0.000117553521300798228
-4.85952242353337192e-06
-0.000151774188697725875
0.000215754335906361559
-3.22070465218661816e-06
2.11792096784122858e-05
-8.9820627558195328e-06
9.46170565204107701e-06
-5.34788375414929317e-06
5.59841677341685394e-06
-1.09333493195879602e-05
1.16402220940184931e-05
-7.33070876658726806e-06
2.69701540127156812e-07
-1.28363646285185346e-05
1.3440674057914545e-05
-9.17827024471261721e-06
-1.03695752967454144e-06
-1.52154557371869183e-05
1.57589030636536627e-05
-1.04258667794107325e-05
-2.0065106986434124e-06
-1.81821999407925022e-05
1.86359539122406747e-05
-1.04515735338380591e-05
-4.57003696539998973e-06
-2.18179994719012359e-05
2.21826382845295146e-05
-8.80704892653314238e-06
-9.4190718735080818e-06
-2.59826636596335551e-05
2.64011609949061545e-05
-5.34666192285457125e-06
-1.6086329277142104e-05
-3.07259442371710993e-05
3.12778147453003318e-05
-1.01908572595140382e-07
-2.3452766516751122e-05
-3.60935956857164398e-05
3.70851058059276059e-05
6.76688140765370992e-06
-3.15157273048541925e-05
-4.23476795136267087e-05
4.37857045418186186e-05
1.51099950956371033e-05
-3.92091037635519603e-05
-4.98032141491267397e-05
5.164785274339236e-05
2.43588723455130756e-05
-4.75665098377986184e-05
-5.91516583304713172e-05
6.1844135064407249e-05
3.49327081995802548e-05
-5.68208482617595686e-05
-7.05836056083555358e-05
7.40801201579944303e-05
4.53007064433774866e-05
-7.38035870872318409e-05
-8.69434239215067281e-05
9.52490473257226549e-05
5.34471874422530084e-05
-0.000111189737687948997
-0.000102464384344485952
0.000117392310760452138
-1.34403228800244579e-05
-0.000150930407734639475
0.000212958375888531635
-1.71297253820309019e-06
2.25761445706583575e-05
-8.25041294186059062e-06
8.56644520259326369e-06
-3.74495344713583988e-06
7.6362119762649774e-06
-1.04427585918042455e-05
1.04369398105451294e-05
-6.50487815483674946e-06
3.17162165783051363e-06
-1.2610016193572126e-05
1.24680317121506733e-05
-9.22071311683908292e-06
1.75029590820552574e-06
-1.52997077243773429e-05
1.52283191572080697e-05
-1.12207840913397595e-05
8.24855974961192762e-09
-1.85605990938222384e-05
1.85459468645227688e-05
-1.1778057083171006e-05
-4.05333054394365162e-06
-2.24488149279936431e-05
2.24893989270088119e-05
-1.03847171061595733e-05
-1.10873144054888881e-05
-2.67928707747652517e-05
2.70677580914753201e-05
-6.95043793684094866e-06
-2.0145262580630441e-05
-3.15924902699616302e-05
3.22171093203352956e-05
-1.49338823138835206e-06
-3.0048729606691826e-05
-3.69436449509018093e-05
3.80825298798829714e-05
5.31523024798193955e-06
-4.00353255188742581e-05
-4.31316134076563181e-05
4.48425832926307709e-05
1.3635539940204969e-05
-4.96336028720331763e-05
-5.05329832440067113e-05
5.26371722265629648e-05
2.25657576893581901e-05
-5.93721240953810659e-05
-5.97636161285697981e-05
6.26390122883523098e-05
3.23544172802708521e-05
-7.0239517573420689e-05
-7.11899826357668351e-05
7.48199930259336749e-05
4.00895441473936566e-05
-8.96091645266669507e-05
-8.75969393566108267e-05
9.56673887874890912e-05
4.36358347621142279e-05
-0.000129055265705319553
-0.000104586970947422538
0.000118906195227163445
-2.89078772902738528e-05
-0.000150938421940918603
0.00021004178746662674
2.92627426467538815e-07
2.26847697593457438e-05
-7.23631000199733877e-06
6.83504883812311467e-06
-1.92500800749716824e-06
1.08902702560335648e-05
-9.58945357157972341e-06
8.55302281164993087e-06
-5.51680523473053075e-06
7.71996884708229514e-06
-1.20781440530797457e-05
1.1121601543624966e-05
-9.37037134209079485e-06
6.22571422470234224e-06
-1.51705924820326232e-05
1.45487657179932338e-05
-1.22227029622050347e-05
3.2569270997827307e-06
-1.882436161532399e-05
1.84280455478184911e-05
-1.33524951954028956e-05
-2.75034090795363162e-06
-2.30519223801535016e-05
2.28787386802881103e-05
-1.21038430948229178e-05
-1.25777935327577717e-05
-2.76515759372450694e-05
2.78933880853259725e-05
-8.64923394608462476e-06
-2.44465557349527219e-05
-3.25505054339114718e-05
3.33971585665516387e-05
-3.17907906027389026e-06
-3.69028446839419122e-05
-3.7920573324490533e-05
3.93045096815942404e-05
3.88832809938683155e-06
-4.90775515109673113e-05
-4.40121206037682219e-05
4.59869320128165361e-05
1.24359289631320371e-05
-6.05086841849025034e-05
-5.12564327200216175e-05
5.35839142881727775e-05
2.11877286610598201e-05
-7.10703201154167273e-05
-6.02544428305492848e-05
6.32008411726046795e-05
2.92599375220151284e-05
-8.18450580988753335e-05
-7.19508662657357531e-05
7.54841998569235158e-05
3.11744343751868105e-05
-9.90817740982185045e-05
-8.91570212803983016e-05
9.67151304748044613e-05
2.90210118185969151e-05
-0.000141043271143978971
-0.000110001930565380862
0.000124143341644184196
-5.51928078480576643e-05
-0.000151288278847958903
0.000206594196711539521
2.47973585586347502e-06
2.19471456738380217e-05
-5.80148538782916552e-06
4.05936261564359518e-06
9.89413458927172125e-09
1.49636602492990294e-05
-8.53637305372978971e-06
6.93281459641611334e-06
-4.89012290719325922e-06
1.3660018852918397e-05
-1.13538437906656276e-05
1.03138151053047543e-05
-9.89524568942421842e-06
1.18620325107717432e-05
-1.49703954090666941e-05
1.43392200706412362e-05
-1.36386309163223893e-05
7.26581020076454179e-06
-1.90126169585120227e-05
1.87471435607644609e-05
-1.53326835467525337e-05
-1.05639107851585936e-06
-2.36298420949959175e-05
2.3629954572242818e-05
-1.39531607685018862e-05
-1.44802583716056116e-05
-2.85717642312746599e-05
2.90946924533520734e-05
-1.01877960235120981e-05
-2.94181393828327379e-05
-3.35770687964258795e-05
3.47832619656342188e-05
-4.60007630433226967e-06
-4.41797296195525923e-05
-3.89307000761806896e-05
4.06198466625710513e-05
2.95284104788571297e-06
-5.86758997834274703e-05
-4.48919169678428374e-05
4.69373433102285271e-05
1.19808771933898051e-05
-7.18118035802407274e-05
-5.19414059138449588e-05
5.42164921796965861e-05
2.03522684448319297e-05
-8.20652283905121582e-05
-6.09471986425028553e-05
6.3570720066784698e-05
2.48959752876524618e-05
-8.95306223205702574e-05
-7.35862663669304079e-05
7.67281268672315788e-05
1.87060526137811976e-05
-9.97868260922851638e-05
-9.26466228758709244e-05
9.95415927058360996e-05
1.05486645654529488e-05
-0.000147458249990324147
-0.000119256209354971006
0.000133828558278429352
-9.60578207902123052e-05
-0.000149380560688801116
0.000200794216295423509
4.6166604033095082e-06
1.9856852856227461e-05
-4.51365588267739547e-06
1.98727604228948508e-06
1.52043342070194762e-06
1.91568547180995914e-05
-7.545052920732583e-06
6.44807437011234212e-06
-4.81053795686197882e-06
2.02877844570907475e-05
-1.07003617700498429e-05
1.04035690106663166e-05
-1.09462855113561496e-05
1.80235636530790111e-05
-1.48532830976515019e-05
1.4827513736354605e-05
-1.54264535552651575e-05
1.13062126648492281e-05
-1.92130895131192346e-05
1.96528723806223961e-05
-1.7524203432285852e-05
2.66577259837060198e-07
-2.41654308544282796e-05
2.49402180196597208e-05
-1.6305303009577279e-05
-1.71006064153106623e-05
-2.94238668158482891e-05
3.08253024913070445e-05
-1.20266582417919004e-05
-3.55144676220243605e-05
-3.44545858821826591e-05
3.62722497687308453e-05
-5.59014729240809802e-06
-5.24280899830173889e-05
-3.99262175559712614e-05
4.17380541576404482e-05
2.13470386301662663e-06
-6.8111959857144856e-05
-4.60703360694937443e-05
4.77815435447390661e-05
1.10600317658386633e-05
-8.24281785603566092e-05
-5.357711278260186e-05
5.52681646782117748e-05
1.80379173896520341e-05
-9.09156324377069876e-05
-6.349967352680747e-05
6.53721981613907764e-05
1.75432443331519109e-05
-9.18813771877294245e-05
-7.76450763505594395e-05
8.04905083169142464e-05
4.85695339994730416e-06
-9.35664661445270902e-05
-9.88805279921505859e-05
0.000105346454066172686
-9.09003126503033523e-06
-0.000149250743293006377
-0.00013021440238390923
0.000145953863978600621
-0.000152161514915313291
-0.000142677027901009482
0.000189690673689830465
6.09412233743918473e-06
1.59928335054290022e-05
-1.29908227425692357e-06
-9.31033394370052465e-07
5.97024304482049445e-07
2.48334857799689147e-05
-5.60228693545665522e-06
5.4227412221082487e-06
-6.19882545462979362e-06
2.60956024595658097e-05
-8.77360315161436596e-06
9.76163284672050633e-06
-1.29806222941714755e-05
2.38629102517998615e-05
-1.30904574291936579e-05
1.40329155660130535e-05
-1.84527947130759004e-05
1.59800036143973754e-05
-1.84520206083709419e-05
1.92504123301718308e-05
-2.11127531799654924e-05
1.51654037407785835e-06
-2.44042182894864881e-05
2.58142160192675886e-05
-2.01849765266058501e-05
-2.01210785954396786e-05
-2.9691687845837933e-05
3.17843744911512844e-05
-1.63632908343356886e-05
-4.1404076497459597e-05
-3.55576512074030841e-05
3.76255618397927275e-05
-1.08572946804158953e-05
-5.94390126269082382e-05
-4.21842401012900747e-05
4.36891600442309549e-05
-3.9657330446775154e-06
-7.5870934722353301e-05
-4.99741939767343329e-05
5.08416088869992344e-05
3.52597001157608103e-06
-9.07915721797248975e-05
-5.92229849523306028e-05
6.00946815314304638e-05
7.97675275208214964e-06
-9.69056007814815513e-05
-7.08522568801819261e-05
7.23914494654201695e-05
3.50846457186285962e-06
-9.09685128463949902e-05
-8.60495318962987093e-05
8.9604960218048809e-05
-1.01241203573410301e-05
-8.78447232276037895e-05
-0.000107812617924301398
0.000115723456005121429
-2.13317744994129298e-05
-0.000157994228301916277
-0.000137411575842442187
0.000157362701547645147
-0.000209154593087187567
-0.00013518238335948437
0.000170843674277292371
-2.9336672819855065e-06
5.31037219678740305e-05
5.23166305502111034e-05
-8.64938693443138758e-05
-1.63218302047142826e-05
5.15934680710991925e-05
1.77019272330549909e-05
-3.10737737033180191e-05
-2.78991906309831246e-05
4.51101394855820542e-05
9.30668962381213215e-06
-1.67438790364002651e-05
-3.67159804003830729e-05
3.66239200261832265e-05
-2.3455710962241298e-06
-1.59864908082265151e-06
-3.84326828125215652e-05
1.96375939615646943e-05
-1.41874163264704091e-05
1.22465327875623265e-05
-3.92275153928047372e-05
2.4927800965609051e-06
-2.32268269295772198e-05
2.30454207090563718e-05
-4.12822262201241851e-05
-1.89829828558546075e-05
-3.19478956982523953e-05
3.28645061515308061e-05
-4.03241904850543814e-05
-4.35024805923409389e-05
-4.06756829133653154e-05
4.18160461815583138e-05
-3.51701536853787173e-05
-6.53301944568131189e-05
-4.97957743347860835e-05
5.05329189315845769e-05
-2.85446958868196003e-05
-8.32781265360208085e-05
-6.01423232211258297e-05
6.09240614532162423e-05
-2.23432183852279712e-05
-9.85427844562301912e-05
-7.12338052958321345e-05
7.27835462099477661e-05
-2.07420498310604941e-05
-0.000102119910586718349
-8.40802644016152884e-05
8.76934120545607354e-05
-2.69501931005402282e-05
-9.2452372404378631e-05
-9.89691423903548448e-05
0.000106661149518157852
-3.10338757012067787e-05
-9.91587889602140154e-05
-0.000118643520154482199
0.000134041266008847653
-2.45653104850314697e-05
-0.000191857624803115851
-0.000140592454717757952
0.000167987272231100268
-0.000247583680945990137
-0.000127612865514364725
0.000141476627292253106
-6.8177208867984155e-05
0.000153496126402794301
0.000228540733202185168
-0.000260755979815433317
-0.000147241629662078169
0.000143914196148832289
2.98156798018964681e-05
-4.30720866878898617e-05
-0.000176114330988893657
6.72800248251198985e-05
-1.11576717294874956e-05
1.78604246007285343e-05
-0.000174183253282992462
2.47812211996074373e-05
-2.02889633930940255e-05
3.02005635148778393e-05
-0.000158289865907714145
-3.06260729479070071e-06
-2.60313748711009463e-05
3.28381858388232184e-05
-0.000142394745448173518
-1.79970645810389324e-05
-3.40820699023945586e-05
3.8676795351701241e-05
-0.000126982886388378642
-3.77983891640064872e-05
-4.22980604434703927e-05
4.57016088561826156e-05
-0.000111404359213375265
-6.16932110303852581e-05
-5.11474261140116735e-05
5.37596323477332154e-05
-9.58528649141546094e-05
-8.32811565818617795e-05
-6.05342731115359503e-05
6.29337466529644745e-05
-8.40845803104407904e-05
-9.84277669960277775e-05
-7.09289268465893821e-05
7.4310289535143377e-05
-7.87030292508372482e-05
-0.000109598051939369286
-8.21256624159847666e-05
8.77993852170216697e-05
-8.23354910931644695e-05
-0.000108192574394074415
-9.64934951528101376e-05
0.000106198626881833338
-9.08551623367338823e-05
-0.000103109748108483681
-0.00011173495387282949
0.000130912006527553274
-7.45780718663769206e-05
-0.000151171829686525504
-0.000129479749395248328
0.00016521569913955156
-1.32617251633450697e-05
-0.000288042760744461855
-0.000139358161691819103
0.000174226922989726812
-0.000233427460643712546
-0.000105419991278409727
7.80020024430453756e-05
-5.31596391402966879e-05
0.000215270402801384577
0.000317147108894238073
-0.000325761878997575451
-0.000138957372208793075
0.000229424718329370749
6.58344876112578966e-05
-6.55474704008416796e-05
-0.000207870226920059214
0.000101440501293200151
6.30507135522738552e-06
2.84471774687640332e-05
-0.000201654806569336579
-1.69043773077079309e-05
-8.09565638056786868e-06
4.35657696935793669e-05
-0.000189471775640924972
-3.87734444232748499e-05
-1.70403463486109099e-05
4.0568132846959299e-05
-0.000178073719711055104
-4.49307642661788721e-05
-2.43582198975719663e-05
3.98938687378095464e-05
-0.000167832123837628928
-6.05110636792112813e-05
-3.21819426535847566e-05
4.46530400133816674e-05
-0.000166050701207703553
-7.31981681352262409e-05
-3.92659077795896823e-05
4.89894693940802874e-05
-0.000168835510256969211
-8.60209954062756549e-05
-5.10224031442264983e-05
5.65470817845557301e-05
-0.000172082968804979027
-9.66150709395029519e-05
-6.06367932124181799e-05
6.2071583227350281e-05
-0.000178905508796716302
-0.000112975598567744383
-7.14021733278637449e-05
8.16022802839967996e-05
-0.000201147312652885939
-0.00010624593046173374
-9.31487240008158388e-05
0.000113443901018529634
-0.000207793472192928266
-0.00014161545432450932
-0.000113586472789141285
0.000158738360367948383
-0.000145915747090655251
-0.000283385944195888723
-0.000129058034664568372
0.000199394430053641958
-1.11182992901536574e-05
-0.000465603669006686835
-0.000134729236407521913
0.000177492610028657865
-0.000214429995009255683
-8.39216951321165936e-05
5.38058054322278884e-05
6.21999567459103665e-06
0.000198433306452045031
0.00035280838190489993
-0.000342191397897553492
-3.67491595931637271e-05
0.000270803471758885932
0.000122332627992272313
-0.000120742439107821925
-0.000127737620697577185
0.000154954007235758197
4.58122218063851971e-05
-8.33747654327926882e-06
-0.000140132891592771055
-2.83718830037966714e-05
1.25009809168921807e-05
1.13616791363811671e-05
-0.000126908171916646621
-6.3155755760450601e-05
-9.46797695782577748e-06
2.06255428088278675e-05
-9.82506815223414668e-05
-8.81439112456451298e-05
-2.24416628527205719e-05
3.69973597045037843e-05
-8.18583578433148228e-05
-9.50532150162941569e-05
-1.80151104039686036e-05
3.616506780746896e-05
-0.000119327805826864415
-5.61543028977999593e-05
2.1354803751541962e-05
-9.28885806926902312e-07
-0.000193529288004219929
-1.92795292234281451e-05
5.66682171401451456e-05
-4.92075719945404014e-05
-0.000248351544120374796
-4.38495298898112216e-05
3.7502909723023442e-05
-3.54455938230054338e-05
-0.000290771710564381855
-7.88203543040193178e-05
-1.25245846982155992e-05
2.07898261696793746e-05
-0.0003167985465111925
-0.000112085601224574298
-5.55539013396957936e-05
8.74205579316229126e-05
-0.000293489666778371742
-0.000229377208577355104
-8.92402505854425661e-05
0.000153693248267244593
-0.000198314726313184237
-0.000467548447847759667
-0.00011511035484553898
0.000204097947747187487
-4.97102125327842151e-05
-0.000659079691212531029
-0.000131195874349035875
0.000176067238121724887
-0.000264891817967816265
-7.718553200948215e-05
7.79369187090759306e-05
4.08954863557735738e-05
0.000141378186451875695
0.000360368505424661938
-0.000344208976653915925
3.81917883723953956e-05
0.000224745680736529799
0.00017701479104305091
-0.000128253495928016122
-8.18337409089316603e-05
0.000229618789391630739
5.27638207846196829e-05
-7.40330730805206262e-06
-0.000128096659087528249
-8.14508340858731243e-06
1.68081606144306764e-05
9.22784148152452769e-06
-0.000142017841392755171
-6.03473314666888236e-05
-2.79596952272348999e-06
1.39087208984316036e-05
-0.00013218280831175488
-0.000106278853915604907
-2.61167135768897822e-05
3.44168052755628969e-05
-0.000112277219164814697
-0.000128531015129265984
-3.45229844113203012e-05
4.80957847269151685e-05
-8.10575545940919165e-05
-0.000110343618426070116
5.48153942626527677e-06
1.74894400202376483e-05
-0.000104108817693869836
-3.26032210878211999e-05
0.000112451512992661531
-7.60748818899643789e-05
-0.000174138989500045844
2.61595297177033068e-05
0.000144459278533075395
-0.000144436969699631367
-0.000220600315952213498
-3.72155267536065015e-06
9.57954412920006493e-05
-0.000124432316015516548
-0.000246356551465040392
-6.01693417841866183e-05
2.73807974440289238e-05
-5.35404432841944726e-05
-0.000239875922515104742
-0.00024361579333851232
-2.95013717092630138e-05
3.72595930725852948e-05
-0.000183928060627571897
-0.000559755195251665418
-8.98481664525934326e-05
0.000126107095355328536
-9.79886833188369226e-05
-0.000765488674305560756
-0.000128253747456963667
0.000148723217550736912
-0.000390688337627143024
-8.74524283244251246e-05
0.000115260044796034481
2.96220512441319934e-05
9.28222061514941637e-05
0.000341847310259804117
-0.000322913453061625464
6.80034753036004255e-05
0.000133771428555478435
0.00017911652494468326
-0.000126523832359690905
-2.0051795630066213e-05
0.000282722049411508205
4.12351872352532289e-05
-6.28338012404865967e-06
-8.78132142922766396e-05
2.69329054381332346e-05
1.58507317562575193e-05
1.6832583547329047e-05
-0.000105718344245055482
-6.90827412781486053e-05
1.67990421497258716e-05
9.8414985877696588e-06
-0.000124387942546252988
-9.55053841924708477e-05
-9.03644944348629971e-06
1.69328000182112777e-05
-0.000138529920074116831
-0.000123344477129802197
-4.30581340255831597e-05
5.20141146100717793e-05
-0.000120727300644516414
-0.000150311705689353285
-2.81553772971793973e-05
5.03217320855754648e-05
-9.63037089530220506e-05
-0.000116670619619900154
8.10358788472745491e-05
-2.13908600717682099e-05
-0.000117098437283584677
3.25961688484152547e-06
0.000189270438769070239
-0.00014557489659379179
-0.000150602786251668487
2.35540204092666552e-05
0.000204677535912598321
-0.000198448193154888861
-0.00017950343990208727
1.67847825487574503e-05
0.000129138139044208109
-0.000177191164401047373
-0.000184376705188695237
-0.000197503590781955769
5.24502805346326005e-05
-9.36889048548213892e-05
-0.000164948182732301343
-0.000550290130497065456
-4.5599923771923588e-05
1.67063728883295201e-05
-0.000123993487161946854
-0.000793904817920239141
-0.000115743052211932633
0.000103204429667885767
-0.000538365745617848672
-0.000112004314140894403
0.000135688144262276461
2.26956684222626474e-05
0.000313255071306972339
-0.000294476163202199155
5.13475800021399387e-05
8.44533349071746511e-05
0.000168156275551733484
-0.000173694700475928462
7.75520995856580171e-05
7.93207521871049532e-05
5.30300086752795148e-05
-3.12446840585636873e-05
0.000266069131916490985
-1.19437410908760212e-05
3.04254380211357953e-05
-1.29148033976953674e-05
0.000100686658965945942
-6.47976910082183745e-05
3.82668666358181581e-05
2.36061248850999461e-06
-5.68561545988354551e-05
-9.31020545268444153e-05
1.5957757792596712e-05
-2.75001429586908016e-06
-8.04082106377435415e-05
-0.000115205693943204243
-3.27960810137611453e-05
3.5027248733956868e-05
-0.000103471049662431068
-0.00012381447384563179
-6.01572384681271083e-05
6.71696430381952625e-05
-0.000148714444002226789
-0.00011338705037710329
-8.17784582705494807e-07
3.60982751075574274e-05
-0.000162377815025800112
-0.000114313040427916699
0.000161504661115148009
-8.96651898853867278e-05
-6.76532633400218919e-05
-0.000124011904462435898
0.00021299076067613347
-0.000172381335105697736
-7.35618540558175861e-06
-0.000148860843216213685
0.0001822508499600719
-0.000186365410030444651
4.57485776008107709e-05
-0.000164590986773754553
0.000129781998401588301
-0.000151601114787859543
-0.000159954159382207377
-0.000161900263056853405
3.01635458190541885e-05
-8.80266431270639743e-05
-0.000495117786499149441
-0.000144370925456121081
-9.35779064188685806e-05
3.85095759125337201e-05
-0.000756365975735797985
-0.000140807633846500875
0.000150144054144603004
-0.000692073166182258464
-8.51426970596659891e-06
8.06456287660561697e-06
-9.45928342324726238e-06
-1.12844639780987671e-05
2.16046668936183773e-06
-1.10782673421880885e-05
-1.11545778046169681e-05
-8.20210372257108735e-07
-1.24630029908181212e-05
-9.85873678704954453e-06
-2.06872039503365703e-06
-1.44039151044339079e-05
-8.88237093032825584e-06
-1.89546965472298088e-06
-1.68239966108420884e-05
-8.20056847448129564e-06
-1.8414328776096833e-06
-1.97202149148164773e-05
-6.91355003032266658e-06
-2.68450799119983134e-06
-2.31829525866054206e-05
-4.47102821225819799e-06
-4.23349161981709582e-06
-2.73528277203201427e-05
-7.39912535043629023e-07
-5.94028933604530946e-06
-3.22559225596484892e-05
4.24321188854234272e-06
-7.79544324855015395e-06
-3.81850097535676989e-05
1.03596359137385035e-05
-9.59966494331817963e-06
-4.52770176598038293e-05
1.77374002205557419e-05
-1.19987292285238887e-05
-5.39603373095629428e-05
2.53313529284498539e-05
-1.39023520269604518e-05
-6.4253695483924584e-05
3.31938745860340929e-05
-1.88157948706334203e-05
-7.75966903712148602e-05
5.1262089395595945e-05
-3.05490379027114345e-05
-9.14536533592645655e-05
5.90376190563786695e-06
-0.000102744702935007745
-7.06074621337534893e-06
1.45655446502929028e-05
-9.44140263065421304e-06
-9.44049498600270277e-06
3.86712007460181138e-06
-1.06161884290872151e-05
-1.05215292655040512e-05
-5.06604029827053611e-07
-1.20322990131140239e-05
-1.15571161109044737e-05
-1.81826243053684875e-06
-1.40971111212454135e-05
-1.20277391764275575e-05
-2.29138667282826749e-06
-1.67189317307340174e-05
-1.16250106372986215e-05
-3.38072650699247348e-06
-1.98015586841417881e-05
-1.00759521826897755e-05
-5.71434621604343544e-06
-2.3398444431335953e-05
-7.29019835158232895e-06
-9.0125320604323768e-06
-2.75683529375301851e-05
-2.85440957195258536e-06
-1.28030165999179252e-05
-3.24133001838547864e-05
2.82296372164715934e-06
-1.66054773339439042e-05
-3.80771563356357295e-05
9.75369930559329726e-06
-2.04418610678580031e-05
-4.48179632505421092e-05
1.76309754457319686e-05
-2.50907822427036346e-05
-5.28765776257854799e-05
2.62573179270853162e-05
-2.96557879229222299e-05
-6.24274149432532232e-05
3.43137679710143657e-05
-3.84146937113603775e-05
-7.46705509216886824e-05
4.76950908590307516e-05
-5.92359113410984568e-05
-8.62476609617841275e-05
1.01355300473839787e-05
-0.000109672873310443034
-5.3565856447711893e-06
1.93035901323562251e-05
-8.89798924448391387e-06
-8.0223783675804247e-06
5.7013797306943198e-06
-1.03227580887277572e-05
-9.87350730970531728e-06
4.75416608940939925e-07
-1.19756654313308392e-05
-1.14471429584535135e-05
-1.07618629399295862e-06
-1.41977358238865255e-05
-1.24410721291489264e-05
-2.17921161872326262e-06
-1.69462488244617301e-05
-1.23831783563155936e-05
-4.60130448137583355e-06
-2.011986906519027e-05
-1.0951756360792329e-05
-8.67940023879770565e-06
-2.37811582040385856e-05
-8.10881702989853765e-06
-1.39299315938141316e-05
-2.79619569717232281e-05
-3.76136341864997006e-06
-1.97193108539407585e-05
-3.27736560971742902e-05
2.02074937493026044e-06
-2.56294507182598182e-05
-3.84255073268242601e-05
8.91624362658192004e-06
-3.13052088889418284e-05
-4.51947917851978058e-05
1.6530361874382618e-05
-3.79252784727962346e-05
-5.33197854572993286e-05
2.48608382786471258e-05
-4.50512930732848511e-05
-6.29439287374690209e-05
3.35992536437877643e-05
-5.84781087920699215e-05
-7.52278946853683021e-05
4.39643612987151156e-05
-8.47744051855595549e-05
-8.68901720505870238e-05
1.05566979855549928e-05
-0.0001082309964497066
-4.05297892959316373e-06
2.26994393532654599e-05
-8.32494202794771531e-06
-6.79640044850681178e-06
7.67410854303078806e-06
-1.01626634066600239e-05
-9.36558629897681175e-06
2.30088565659083928e-06
-1.20926361419175601e-05
-1.17316649644971281e-05
5.65573027732860764e-07
-1.44911008101980145e-05
-1.33615103589834573e-05
-1.36389760611865235e-06
-1.73676229014554474e-05
-1.38921874912591262e-05
-5.27950331037224595e-06
-2.0609097427385626e-05
-1.2676497295384451e-05
-1.15543814139051996e-05
-2.43233861597916372e-05
-9.62116298550394498e-06
-1.9200221796424745e-05
-2.85110309561643916e-05
-5.15034641885018908e-06
-2.69975551200797654e-05
-3.32862100689731481e-05
6.87570722520314215e-07
-3.48899043715433151e-05
-3.89251659518695872e-05
7.51718441360542855e-06
-4.2238603612057416e-05
-4.56994405160868691e-05
1.47978800966760746e-05
-5.04964593563992918e-05