<?xml version="1.0"?>
<VTKFile type="UnstructuredGrid"  version="0.1"  >
<UnstructuredGrid>
<Piece  NumberOfPoints="405" NumberOfCells="1536">
<Points>
<DataArray  type="Float64"  NumberOfComponents="3"  format="ascii">0.45 0 -0.2  0.475 0 -0.2  0.5 0 -0.2  0.525 0 -0.2  0.55 0 -0.2  0.452974460927723 0.02813022081136385 -0.1980967811826471  0.4767041358167627 0.02648375001092972 -0.1989455242119576  0.5010277249489239 0.02526405687935994 -0.1999405768065769  0.5258665558029715 0.02390948144073911 -0.2010869214374487  0.5512499211571878 0.02181788947913467 -0.2022259118581342  0.4562417921484207 0.05534386974073187 -0.197827817631549  0.4799172166740647 0.05260244595091999 -0.1988361426815581  0.5041058739793041 0.05028429328726165 -0.1999879853816376  0.528782031817782 0.0478514030450814 -0.2012401677343649  0.553795343647017 0.04459204195374397 -0.2025330169342566  0.460646004208466 0.08169143427859631 -0.1980068822172976  0.4842706104957312 0.07804718043187885 -0.1989756007683268  0.5083927412159063 0.07483596022659907 -0.200040329599051  0.5328934840000061 0.07150391611380896 -0.2011565891570839  0.5575428708811935 0.06735981858414966 -0.2022857099435536  0.4658183399035034 0.1071930602633906 -0.1983693136034288  0.4894069355962395 0.1028574852302413 -0.1991962572710525  0.5134551415488182 0.09895554558117324 -0.2000847346408312  0.5377812357697632 0.09493642439856957 -0.2009925919570486  0.5621233719465124 0.09019056015075276 -0.2018919571930175  0.4713739661157423 0.1319993876967603 -0.1987765694241693  0.4949864682638913 0.1271961437231159 -0.199433833274012  0.5189636163605594 0.1227908743942383 -0.2001267391303657  0.5431330031086378 0.1182901205336963 -0.2008227078362795  0.5672469584529611 0.1131994129595598 -0.2015011515804814  0.477029901719297 0.1562967723502276 -0.1991518230837586  0.5007069899891546 0.1512341430392423 -0.1996530115877501  0.524637731618797 0.1464982157284768 -0.2001715083290076  0.5486846652566967 0.1416966057967704 -0.2006865567629261  0.5726533014103222 0.1364696389033895 -0.2011872151239715  0.482563523267974 0.1802884529389557 -0.1994471170108797  0.506330341906264 0.1751278351775174 -0.1998401251236826  0.5302431745280075 0.1702087861563497 -0.2002209508008073  0.5542073650589119 0.1652560789666692 -0.2005981605250449  0.578096689994183 0.1600348165006828 -0.2009876537076761  0.4878727321339139 0.2041516018514812 -0.1996612488194527  0.5116404727791967 0.1990122743061405 -0.2000060284349342  0.5355322556703774 0.1940417748098445 -0.2002661519565188  0.5595075644084148 0.1890241818335581 -0.2005272290310086  0.5834083937805777 0.1838225221322272 -0.2008845268149686  0.45 0 -0.175  0.475 0 -0.175  0.5 0 -0.175  0.525 0 -0.175  0.55 0 -0.175  0.4534870260334174 0.02781113833396644 -0.173887223068686  0.4772685904079148 0.02624189726411073 -0.1743793036237531  0.5016578322294983 0.02517917039429186 -0.1749892405833623  0.5266157174464219 0.02407433884739517 -0.1756703139720958  0.5523384051758728 0.02208005524822108 -0.1763544797621879  0.4569711574708458 0.05507120867230729 -0.1735489747037654  0.4806916453505075 0.05235484597476648 -0.1742340176843196  0.504946676393628 0.05006572402641034 -0.1750447819836939  0.5297099391209719 0.04765733649039802 -0.1759078572196469  0.5549067498906444 0.04435420450712561 -0.1767372809053104  0.4614131513810003 0.08146153890348712 -0.173590026697213  0.4850837522606899 0.0778094644762151 -0.1742910676346506  0.5092296731478757 0.0745338287417085 -0.1750827186777055  0.5337528034242091 0.07111193539939852 -0.1759049872565542  0.5584673832754132 0.06690999724130926 -0.1767084391170083  0.466530646221766 0.1070078749458257 -0.1737915706059573  0.4901558912492332 0.1026453849620311 -0.1744274965557834  0.5141927638991221 0.09863937339623473 -0.1751129579956729  0.5384951161657167 0.09450103780304731 -0.1758136460511169  0.5628421121037167 0.08971522396020704 -0.1765065406002312  0.4719840920276155 0.1318580896018465 -0.1740461955791528  0.4956233321362615 0.1270212476697681 -0.1745876754970693  0.5195725207046969 0.1225061483018275 -0.1751453451881642  0.5436985361897602 0.1178919544015731 -0.1757087713785254  0.5677884119864446 0.1127769222792182 -0.1762730900861713  0.4775312554291989 0.1561932478797814 -0.1742922898152691  0.5012275382564693 0.1510950954918548 -0.1747429457475266  0.5251260993752027 0.1462609372623209 -0.1751845127163081  0.5491286994183838 0.1413633234671993 -0.1756269142956324  0.5730627507557352 0.1361176463927198 -0.1760813827343919  0.482989216025002 0.180207758213782 -0.1744938289636009  0.5067609945077201 0.1750164774822764 -0.1748791733389507  0.5306387761888522 0.1700137764625523 -0.1752301211627889  0.5545687759588791 0.1649767470316772 -0.1755800677179104  0.5784309932711208 0.1597300581466085 -0.1759625184774948  0.488276683883868 0.2040887741684081 -0.1746490557490557  0.5120601752554125 0.1989174051795775 -0.1749957425098068  0.5359091201467719 0.1938554890377742 -0.1752741191458611  0.5598423865396812 0.1887502054711174 -0.1755551150681651  0.5837280797376014 0.1835194026143487 -0.1759030595968254  0.45 0 -0.15  0.475 0 -0.15  0.5 0 -0.15  0.525 0 -0.15  0.55 0 -0.15  0.4538323827372087 0.02778677185501782 -0.1494031928883828  0.4775066578824884 0.02617322322914425 -0.1496723593377003  0.5018763192621438 0.02514606151445443 -0.1500045411982172  0.5268860531881301 0.02406834039582846 -0.1503728429669602  0.5527517547010879 0.02191773233488148 -0.1507420108596199  0.4574470259003922 0.05494473962980849 -0.1491329676413174  0.4811041691681771 0.05222711861682688 -0.1495415809937641  0.5053628993564234 0.04997470026968419 -0.1500412429960598  0.5302021186927911 0.04758354081247917 -0.1505691380424086  0.5555244137690791 0.04418756759226892 -0.1510618795036822  0.4619342333505514 0.08128187691631901 -0.1491031957543982  0.48557898184204 0.07764483503433627 -0.1495587973943538  0.5097358086842652 0.07438249495818576 -0.1500820078092329  0.5343102402551547 0.07095584964372889 -0.1506250313469676  0.5591071779157913 0.06673638217142056 -0.1511458610172138  0.4670398309966278 0.1068044867416436 -0.1491928187082563  0.4906633626952872 0.1024631268187264 -0.1496383653330328  0.5147041453999296 0.09845005146161509 -0.1501185037105865  0.5390271293568364 0.09429589955991433 -0.1506108594532983  0.56341730945632 0.08953113200152196 -0.151096028684433  0.4724513623276265 0.1316571718745969 -0.1493305885278598  0.496100504406141 0.1268392397403125 -0.1497403303761717  0.5200457808003891 0.1223050331974097 -0.1501551511983139  0.5441701106521437 0.1176710389924284 -0.1505763543266126  0.5682742133366755 0.1125885612373193 -0.1510033819495956  0.4779539984638186 0.1560134007173516 -0.1494742109970295  0.5016620219763257 0.1509239944268971 -0.1498441599327115  0.5255513577282225 0.14606281781757 -0.1501958229465397  0.5495391839198056 0.141141794276909 -0.1505496171616913  0.5734665027420568 0.1359214279808771 -0.1509217762376549  0.4833907247373726 0.1800600267586597 -0.149598827893543  0.5071686470765211 0.1748575433869445 -0.1499402387600219  0.5310330378882014 0.1698187414835583 -0.1502406108981691  0.5549403645922497 0.1647512344997661 -0.1505406306516963  0.5787804818079232 0.1595100895774244 -0.150875055389341  0.4886989487872887 0.2039701061949397 -0.1497075625115121  0.5124863449104857 0.1987612835861067 -0.1500287572641064  0.5363209104826059 0.1936489979235356 -0.1502859312966597  0.5602176553080861 0.1885039072875839 -0.1505457826550994  0.5840609073253239 0.1832610486678899 -0.1508596342074191  0.45 0 -0.125  0.475 0 -0.125  0.5 0 -0.125  0.525 0 -0.125  0.55 0 -0.125  0.4539997140148307 0.02780680625771129 -0.1247175605375571  0.4776188029019063 0.02616179406154051 -0.1248450738506545  0.5019756105654253 0.02513401800142691 -0.1250060754814272  0.5270079356251353 0.02405292171671137 -0.1251888480955856  0.5529322387803994 0.02180502045593462 -0.1253804331107881  0.4577135090876051 0.05490864702559462 -0.1245683532772735  0.48132411115885 0.05217629115574592 -0.1247748313099652  0.5055800831722054 0.04993368734048068 -0.1250335722653423  0.5304555773866215 0.04753659870677348 -0.1253076125506251  0.5558266954504388 0.04406070257027069 -0.1255604613325631  0.4622519322888074 0.08118898478668866 -0.1245311047899314  0.48587150804788 0.07755277901569609 -0.1247803572844382  0.51003232766011 0.07430069432359017 -0.1250702018463823  0.5346362919472789 0.07087112577018526 -0.1253710163531321  0.5594671011193971 0.06661941796275757 -0.12565899381867  0.4673747803597476 0.1066737399383705 -0.1245600016751228  0.4909894195000603 0.1023399892224506 -0.124824540001317  0.5150335533550867 0.09833281029205576 -0.1251102665568294  0.5393720265269302 0.09417849427792183 -0.1254034872314938  0.5637808363695429 0.08941343287332036 -0.1256941361646415  0.4727834542494669 0.1315084282359786 -0.1246207548721005  0.4964327572720282 0.1266981926719423 -0.1248858630098293  0.520377194186644 0.1221637516669438 -0.1251529556454667  0.5445039137543666 0.1175290302104858 -0.1254243668148215  0.5686126246279392 0.112459025740719 -0.1257020838237022  0.4782789842020083 0.1558635865297683 -0.124691837180766  0.5019895289966063 0.150775294003286 -0.1249523776517793  0.5258734602097409 0.1459064548727378 -0.1251983099484554  0.5498535833863289 0.1409802693636158 -0.1254456237053257  0.5737731479977423 0.1357710737953783 -0.1257077242545129  0.4837193229229259 0.1799197476293811 -0.1247612318416353  0.5074976205037487 0.1747055674663875 -0.1250190948039422  0.5313520756527987 0.169650135798735 -0.1252450811324896  0.5552436328307688 0.1645701147561806 -0.12547033983259  0.5790646558304127 0.1593305715204507 -0.1257212467029695  0.4890501412015268 0.2038404045067687 -0.1248381561465428  0.5128349625354629 0.1986041403008908 -0.1250881507379693  0.5366558284467949 0.1934649309490152 -0.1252907570531588  0.5605277292834353 0.1882987822583085 -0.1254946435910054  0.5843388418058763 0.1830462501760433 -0.1257375989171055  0.45 0 -0.1  0.475 0 -0.1  0.
[...]
<PointData  Vectors="Displacement"> 
<DataArray  type="Float64"  Name="Displacement"  NumberOfComponents="3" format="ascii">0.0000000000000000e+00 0.0000000000000000e+00 0.0000000000000000e+00  0.0000000000000000e+00 0.0000000000000000e+00 0.0000000000000000e+00  0.0000000000000000e+00 0.0000000000000000e+00 0.0000000000000000e+00  0.0000000000000000e+00 0.0000000000000000e+00 0.0000000000000000e+00  0.0000000000000000e+00 0.0000000000000000e+00 0.0000000000000000e+00  2.9744609277229770e-03 3.1302208113638515e-03 1.9032188173528555e-03  1.7041358167626567e-03 1.4837500109297175e-03 1.0544757880424367e-03  1.0277249489239304e-03 2.6405687935993619e-04 5.9423193423061418e-05  8.6655580297139909e-04 -1.0905185592608893e-03 -1.0869214374486392e-03  1.2499211571878320e-03 -3.1821105208653280e-03 -2.2259118581342196e-03  6.2417921484207032e-03 5.3438697407318615e-03 2.1721823684510274e-03  4.9172166740646273e-03 2.6024459509199861e-03 1.1638573184419500e-03  4.1058739793040904e-03 2.8429328726164207e-04 1.2014618362368939e-05  3.7820318177818951e-03 -2.1485969549186051e-03 -1.2401677343649154e-03  3.7953436470170099e-03 -5.4079580462560251e-03 -2.5330169342566052e-03  1.0646004208466040e-02 6.6914342785962810e-03 1.9931177827024389e-03  9.2706104957311526e-03 3.0471804318788292e-03 1.0243992316731499e-03  8.3927412159062013e-03 -1.6403977340094137e-04 -4.0329599051022701e-05  7.8934840000060760e-03 -3.4960838861910529e-03 -1.1565891570838593e-03  7.5428708811934491e-03 -7.6401814158503518e-03 -2.2857099435535698e-03  1.5818339903503405e-02 7.1930602633906169e-03 1.6306863965711692e-03  1.4406935596239482e-02 2.8574852302412643e-03 8.0374272894747148e-04  1.3455141548818281e-02 -1.0444544188267671e-03 -8.4734640831201735e-05  1.2781235769763205e-02 -5.0635756014304348e-03 -9.9259195704862256e-04  1.2123371946512317e-02 -9.8094398492472486e-03 -1.8919571930174257e-03  2.1373966115742361e-02 6.9993876967603310e-03 1.2234305758307444e-03  1.9986468263891242e-02 2.1961437231158756e-03 5.6616672598797124e-04  1.8963616360559463e-02 -2.2091256057616823e-03 -1.2673913036570758e-04  1.8133003108637729e-02 -6.7098794663036851e-03 -8.2270783627944998e-04  1.7246958452961151e-02 -1.1800587040440206e-02 -1.5011515804813893e-03  2.7029901719297041e-02 6.2967723502276376e-03 8.4817691624142731e-04  2.5706989989154654e-02 1.2341430392423189e-03 3.4698841224998464e-04  2.4637731618796954e-02 -3.5017842715232518e-03 -1.7150832900754434e-04  2.3684665256696720e-02 -8.3033942032296418e-03 -6.8655676292606450e-04  2.2653301410322201e-02 -1.3530361096610486e-02 -1.1872151239714511e-03  3.2563523267974077e-02 5.2884529389556614e-03 5.5288298912034887e-04  3.1330341906263950e-02 1.2783517751733265e-04 1.5987487631741458e-04  3.0243174528007569e-02 -4.7912138436503006e-03 -2.2095080080729065e-04  2.9207365058911857e-02 -9.7439210333308303e-03 -5.9816052504490407e-04  2.8096689994182966e-02 -1.4965183499317195e-02 -9.8765370767610501e-04  3.7872732133913879e-02 4.1516018514812193e-03 3.3875118054733336e-04  3.6640472779196583e-02 -9.8772569385950832e-04 -6.0284349342184545e-06  3.5532255670377495e-02 -5.9582251901555165e-03 -2.6615195651878980e-04  3.4507564408414688e-02 -1.0975818166441912e-02 -5.2722903100858040e-04  3.3408393780577757e-02 -1.6177477867772839e-02 -8.8452681496855527e-04  0.0000000000000000e+00 0.0000000000000000e+00 0.0000000000000000e+00  0.0000000000000000e+00 0.0000000000000000e+00 0.0000000000000000e+00  0.0000000000000000e+00 0.0000000000000000e+00 0.0000000000000000e+00  0.0000000000000000e+00 0.0000000000000000e+00 0.0000000000000000e+00  0.0000000000000000e+00 0.0000000000000000e+00 0.0000000000000000e+00  3.4870260334173789e-03 2.8111383339664382e-03 1.1127769313139780e-03  2.2685904079147784e-03 1.2418972641107249e-03 6.2069637624692219e-04  1.6578322294982107e-03 1.7917039429186390e-04 1.0759416637694068e-05  1.6157174464218554e-03 -9.2566115260482714e-04 -6.7031397209575574e-04  2.3384051758728493e-03 -2.9199447517789228e-03 -1.3544797621879018e-03  6.9711574708458193e-03 5.0712086723072817e-03 1.4510252962345832e-03  5.6916453505074672e-03 2.3548459747664741e-03 7.6598231568039037e-04  4.9466763936280205e-03 6.5724026410331546e-05 -4.4781983693849925e-05  4.7099391209717428e-03 -2.3426635096019791e-03 -9.0785721964683369e-04  4.9067498906444256e-03 -5.6457954928743918e-03 -1.7372809053103747e-03  1.1413151381000297e-02 6.4615389034871013e-03 1.4099733027870612e-03  1.0083752260689888e-02 2.8094644762151001e-03 7.0893236534938151e-04  9.2296731478757419e-03 -4.6617125829150020e-04 -8.2718677705456034e-05  8.7528034242090689e-03 -3.8880646006014970e-03 -9.0498725655416452e-04  8.4673832754131925e-03 -8.0900027586907394e-03 -1.7084391170082652e-03  1.6530646221765977e-02 7.0078749458256651e-03 1.2084293940427301e-03  1.5155891249233116e-02 2.6453849620310674e-03 5.7250344421659204e-04  1.4192763899121986e-02 -1.3606266037652763e-03 -1.1295799567286302e-04  1.3495116165716622e-02 -5.4989621969526881e-03 -8.1364605111686476e-04  1.2842112103716670e-02 -1.0284776039792966e-02 -1.5065406002311961e-03  2.1984092027615511e-02 6.8580896018465365e-03 9.5380442084721097e-04  2.0623332136261399e-02 2.0212476697681028e-03 4.1232450293067035e-04  1.9572520704696957e-02 -2.4938516981724878e-03 -1.4534518816420851e-04  1.8698536189760098e-02 -7.1080455984269169e-03 -7.0877137852535762e-04  1.7788411986444517e-02 -1.2223077720781770e-02 -1.2730900861712517e-03  2.7531255429198861e-02 6.1932478797813769e-03 7.0771018473089612e-04  2.6227538256469222e-02 1.0950954918547801e-03 2.5705425247340833e-04  2.5126099375202774e-02 -3.7390627376791209e-03 -1.8451271630804837e-04  2.4128699418383758e-02 -8.6366765328007300e-03 -6.2691429563234424e-04  2.3062750755735207e-02 -1.3882353607280256e-02 -1.0813827343919000e-03  3.2989216025001961e-02 5.2077582137819815e-03 5.0617103639915564e-04  3.1760994507720054e-02 1.6477482276457077e-05 1.2082666104935119e-04  3.0638776188852183e-02 -4.9862235374477006e-03 -2.3012116278880280e-04  2.9568775958879107e-02 -1.0023252968322826e-02 -5.8006771791033836e-04  2.8430993271120766e-02 -1.5269941853391493e-02 -9.6251847749482253e-04  3.8276683883867971e-02 4.0887741684081441e-03 3.5094425094429611e-04  3.7060175255412421e-02 -1.0825948204225154e-03 4.2574901932168258e-06  3.5909120146771986e-02 -6.1445109622257988e-03 -2.7411914586107769e-04  3.4842386539681074e-02 -1.1249794528882634e-02 -5.5511506816507310e-04  3.3728079737601446e-02 -1.6480597385651285e-02 -9.0305959682538816e-04  0.0000000000000000e+00 0.0000000000000000e+00 0.0000000000000000e+00  0.0000000000000000e+00 0.0000000000000000e+00 0.0000000000000000e+00  0.0000000000000000e+00 0.0000000000000000e+00 0.0000000000000000e+00  0.0000000000000000e+00 0.0000000000000000e+00 0.0000000000000000e+00  0.0000000000000000e+00 0.0000000000000000e+00 0.0000000000000000e+00  3.8323827372086995e-03 2.7867718550178178e-03 5.9680711161723778e-04  2.5066578824883478e-03 1.1732232291442482e-03 3.2764066229969504e-04  1.8763192621438652e-03 1.4606151445443438e-04 -4.5411982171585108e-06  1.8860531881301577e-03 -9.3165960417154498e-04 -3.7284296696018013e-04  2.7517547010878448e-03 -3.0822676651185306e-03 -7.4201085961988632e-04  7.4470259003921596e-03 4.9447396298084798e-03 8.6703235868258624e-04  6.1041691681770300e-03 2.2271186168268818e-03 4.5841900623599686e-04  5.3628993564234211e-03 -2.5299730315810552e-05 -4.1242996059787685e-05  5.2021186927910627e-03 -2.4164591875208245e-03 -5.6913804240851730e-04  5.5244137690789764e-03 -5.8124324077310913e-03 -1.0618795036821417e-03  1.1934233350551358e-02 6.2818769163190029e-03 8.9680424560185750e-04  1.0578981842039982e-02 2.6448350343362616e-03 4.4120260564619332e-04  9.7358086842651171e-03 -6.1750504181425135e-04 -8.2007809232906965e-05  9.3102402551548148e-03 -4.0441503562711261e-03 -6.2503134696757475e-04  9.1071779157912338e-03 -8.2636178285794403e-03 -1.1458610172137987e-03  1.7039830996627817e-02 6.8044867416435957e-03 8.0718129174371948e-04  1.5663362695287165e-02 2.4631268187264126e-03 3.6163466696718098e-04  1.4704145399929669e-02 -1.5499485383849046e-03 -1.1850371058648709e-04  1.4027129356836320e-02 -5.7041004400856998e-03 -6.1085945329825283e-04  1.3417309456320034e-02 -1.0468867998478052e-02 -1.0960286844330321e-03  2.2451362327626522e-02 6.6571718745968731e-03 6.6941147214017328e-04  2.1100504406140887e-02 1.8392397403125401e-03 2.5966962382831726e-04  2.0045780800389008e-02 -2.6949668025903176e-03 -1.5515119831389340e-04  1.9170110652143711e-02 -7.3289610075715703e-03 -5.7635432661257071e-04  1.8274213336675570e-02 -1.2411438762680718e-02 -1.0033819495955778e-03  2.7953998463818554e-02 6.0134007173515440e-03 5.2578900297057835e-04  2.6662021976325636e-02 9.2399442689704769e-04 1.5584006728849444e-04  2.5551357728222385e-02 -3.9371821824300129e-03 -1.9582294653967580e-04  2.4539183919805512e-02 -8.8582057230910238e-03 -5.4961716169128609e-04  2.3466502742056666e-02 -1.4078572019122925e-02 -9.2177623765488494e-04  3.3390724737372576e-02 5.0600267586596677e-03 4.0117210645704727e-04  3.2168647076521069e-02 -1.4245661305548215e-04 5.9761239978119278e-05  3.1033037888201463e-02 -5.1812585164417099e-03 -2.4061089816902964e-04  2.9940364592249691e-02 -1.0248765500233967e-02 -5.4063065169632880e-04  2.8780481807923124e-02 -1.5489910422575630e-02 -8.7505538934099718e-04  3.8698948787288676e-02 3.9701061949396384e-03 2.9243748848792100e-04  3.7486344910485747e-02 -1.2387164138932384e-03 -2.8757264106398849e-05  3.6320910482605891e-02 -6.3510020764644516e-03 -2.8593129665967069e-04  3.5217655308086106e-02 -1.1496092712416132e-02 -5.4578265509932383e-04  3.4060907325323936e-02 -1.6738951332110095e-02 -8.5963420741910345e-04  0.0000000000000000e+00 0.0000000000000000e+00 0.0000000000000000e+00  0.0000000000000000e+00 0.0000000000000000e+00 0.0000000000000000e+00  0.0000000000000000e+00 0.0000000000000000e+00 0.0000000000000000e+00  0.0000000000000000e+00 0.0000000000000000e+00 0.0000000000000000e+00  0.0000000000000000e+00 0.0000000000000000e+00 0.0000000000000000e+00  3.9997140148307162e-03 2.8068062577112840e-03 2.8243946244286503e-04  2.6188029019062822e-03 1.1617940615405104e-03 1.5492614934548897e-04  1.9756105654253225e-03 1.3401800142690736e-04 -6.0754814272307836e-06  2.0079356251352367e-03 -9.4707828328863134e-04 -1.8884809558559703e-04  2.9322387803992741e-03 -3.1949795440653758e-03 -3.8043311078809079e-04  7.7135090876050659e-03 4.9086470255946145e-03 4.3164672272653508e-04  6.3241111588500142e-03 2.1762911557459148e-03 2.2516869003476602e-04  5.5800831722053225e-03 -6.6312659519313509e-05 -3.3572265342244707e-05  5.4555773866215322e-03 -2.4634012932265212e-03 -3.0761255062511801e-04  5.8266954504387443e-03 -5.9392974297293125e-03 -5.6046133256310417e-04  1.2251932288807362e-02 6.1889847866886654e-03 4.6889521006862812e-04  1.0871508047879980e-02 2.5527790156960723e-03 2.1964271556182606e-04  1.0032327660109953e-02 -6.9930567640983765e-04 -7.0201846382323874e-05  9.6362919472788074e-03 -4.1288742298147595e-03 -3.7101635313214375e-04  9.4671011193971123e-03 -8.3805820372424410e-03 -6.5899381867000123e-04  1.7374780359747547e-02 6.6737399383705025e-03 4.3999832487722358e-04  1.5989419500060213e-02 2.3399892224505690e-03 1.7545999868298799e-04  1.5033553355086752e-02 -1.6671897079442420e-03 -1.1026655682936315e-04  1.4372026526930115e-02 -5.8215057220781857e-03 -4.0348723149382065e-04  1.3780836369542866e-02 -1.0586567126679642e-02 -6.9413616464142835e-04  2.2783454249466865e-02 6.5084282359786578e-03 3.7924512789953613e-04  2.1432757272028084e-02 1.6981926719423191e-03 1.1413699017073569e-04  2.0377194186643820e-02 -2.8362483330561937e-03 -1.5295564546666626e-04  1.9503913754366504e-02 -7.4709697895142231e-03 -4.2436681482151362e-04  1.8612624627939171e-02 -1.2540974259280956e-02 -7.0208382370215037e-04  2.8278984202008344e-02 5.8635865297682966e-03 3.0816281923395098e-04  2.6989528996606314e-02 7.7529400328593169e-04 4.7622348220681076e-05  2.5873460209740948e-02 -4.0935451272622742e-03 -1.9830994845543206e-04  2.4853583386328867e-02 -9.0197306363842770e-03 -4.4562370532570612e-04  2.3773147997742120e-02 -1.4228926204621706e-02 -7.0772425451290355e-04  3.3719322922925794e-02 4.9197476293810537e-03 2.3876815836466829e-04  3.2497620503748624e-02 -2.9443253361257173e-04 -1.9094803942185434e-05  3.1352075652798767e-02 -5.3498642012649927e-03 -2.4508113248960524e-04  3.0243632830768835e-02 -1.0429885243819397e-02 -4.7033983258998677e-04  2.9064655830412615e-02 -1.5669428479549299e-02 -7.2124670296945797e-04  3.9050141201526813e-02 3.8404045067686543e-03 1.6184385345716968e-04  3.7834962535462903e-02 -1.3958596991091744e-03 -8.8150737969322032e-05  3.6655828446794859e-02 -6.5350690509847625e-03 -2.9075705315875035e-04  3.5527729283435380e-02 -1.1701217741691498e-02 -4.9464359100540153e-04  3.4338841805876277e-02 -1.6953749823956761e-02 -7.3759891710553193e-04  0.0000000000000000e+00 0.0000000000000000e+00 0.0000000000000000e+00  0.0000000000000000e+00 0.0000000000000000e+00 0.0000000000000000e+00  0.0000000000000000e+00 0.0000000000000000e+00 0.0000000000000000e+00  0.0000000000000000e+00 0.0000000000000000e+00 0.0000000000000000e+00  0.0000000000000000e+00 0.0000000000000000e+00 0.0000000000000000e+00  4.0702427834373193e-03 2.8201422197097186e-03 4.9491865644481752e-05  2.6686210066033380e-03 1.1634086132689715e-03 1.9643391101706920e-05  2.0194633032087138e-03 1.3138546647256078e-04 -6.9817208662696899e-06  2.0570284417641849e-03 -9.5557624494962273e-04 -4.4584738759254121e-05  2.9969128715576746e-03 -3.2494709174232077e-03 -1.0228046883429496e-04  7.8375224923027433e-03 4.9069232238920105e-03 7.9917600937010522e-05  6.4272564231304206e-03 2.1626050167224595e-03 3.0298248802673600e-05  5.6796251371554847e-03 -8.4250283978455769e-05 -2.6706504122803308e-05  5.5638863481682482e-03 -2.4933326553300060e-03 -8.9046305902527593e-05  5.9412428499853913e-03 -6.0151839933149315e-03 -1.5193875848062006e-04  1.2414821187239999e-02 6.1583067908408170e-03 9.5955170161943725e-05  1.1017747478574187e-02 2.5135992876013998e-03 2.3426166575955207e-05  1.0176278360931584e-02 -7.4304090690238082e-04 -5.5721383185305532e-05  9.7856068866710444e-03 -4.1847869232181333e-03 -1.3887894066028932e-04  9.6157010063559964e-03 -8.4656428310258564e-03 -2.2596155175407464e-04  1.7562288521468138e-02 6.6146685999937897e-03 9.9334901296570737e-05  1.6164588707378105e-02 2.2741511039757168e-03 3.9031850635500385e-06  1.5205051600868515e-02 -1.7385225694216406e-03 -9.5214976813627394e-05  1.4543302637752803e-02 -5.9026312530045116e-03 -1.9758091281987035e-04  1.3946738653180061e-02 -1.0682445224220748e-02 -3.0590455351568833e-04  2.2985551117014516e-02 6.4266121978830346e-03 9.2148949920076896e-05  2.1625338699131733e-02 1.6094681558708110e-03 -2.5655251469002300e-05  2.0563437601065278e-02 -2.9320343768536226e-03 -1.4235847922284241e-04  1.9684626581145469e-02 -7.5751644826254870e-03 -2.6123098559410399e-04  1.8784241232762577e-02 -1.2652211948505765e-02 -3.8664270906816028e-04  2.8491537079122799e-02 5.7661043284002013e-03 7.5253763828448455e-05  2.7193494639638729e-02 6.6873513830747013e-04 -6.2373608038781346e-05  2.6068290482586378e-02 -4.2095787600973595e-03 -1.9301900150721460e-04  2.5038503622962404e-02 -9.1447813449004600e-03 -3.2423328693621139e-04  2.3945566742231080e-02 -1.4359202329334167e-02 -4.6304107809391418e-04  3.3944319126972579e-02 4.8120887570327090e-03 4.8068648498872720e-05  3.2713248252215769e-02 -4.1517812891091812e-04 -1.0532417699752500e-04  3.1555812050783338e-02 -5.4831093200018062e-03 -2.4289121374060287e-04  3.0433678060172352e-02 -1.0574378904399863e-02 -3.7954826109718386e-04  2.9238590057568639e-02 -1.5821335236955256e-02 -5.2797870464339335e-04  3.9293199217715812e-02 3.7241452937109721e-03 -3.6578406824261164e-06  3.8066510553312838e-02 -1.5295937628735851e-03 -1.5788616696800728e-04  3.6872899902008732e-02 -6.6846581462729603e-03 -2.8733666110471428e-04  3.5727445976459514e-02 -1.1865421660970989e-02 -4.1700606181389969e-04  3.4518045207744347e-02 -1.7129522082798273e-02 -5.6700440312254183e-04  0.0000000000000000e+00 0.0000000000000000e+00 0.0000000000000000e+00  0.0000000000000000e+00 0.0000000000000000e+00 0.0000000000000000e+00  0.0000000000000000e+00 0.0000000000000000e+00 0.0000000000000000e+00  0.0000000000000000e+00 0.0000000000000000e+00 0.0000000000000000e+00  0.0000000000000000e+00 0.0000000000000000e+00 0.0000000000000000e+00  4.0661155287041320e-03 2.8194507538588333e-03 -1.8119310958016375e-04  2.6750619712580135e-03 1.1683005982107545e-03 -1.1693727782160357e-04  2.0250327374198248e-03 1.3393935505465638e-04 -7.9962382414426220e-06  2.0539328149590708e-03 -9.5635690732570903e-04 1.0205291505670178e-04  2.9743052356085787e-03 -3.2506987070992045e-03 1.8256214885706423e-04  7.8433732554682098e-03 4.9218311730172080e-03 -2.6824550630147814e-04  6.4373343552350621e-03 2.1733660310708802e-03 -1.6343215820951033e-04  5.6852553241903137e-03 -8.5331758837807505e-05 -1.8358489171408664e-05  5.5552910643766086e-03 -2.5075462205590752e-03 1.3253872661197024e-04  5.9051757831704048e-03 -6.0399346568543559e-03 2.6149183787593983e-04  1.2439970459636298e-02 6.1763535387656648e-03 -2.7255482715996833e-04  1.1036730440061489e-02 2.5185367562821459e-03 -1.7061025433673602e-04  1.0186379969563966e-02 -7.5631038862733686e-04 -3.9161406186109893e-05  9.7792162857627592e-03 -4.2182436175831912e-03 9.6197707025859992e-05  9.5804058856563887e-03 -8.5184675252083317e-03 2.1083363617012602e-04  1.7611071798715312e-02 6.6209888968839347e-03 -2.3628396317961438e-04  1.6199030780286228e-02 2.2621934701456243e-03 -1.6440328134338582e-04  1.5227627537294760e-02 -1.7703982717599876e-03 -7.7249958817271177e-05  1.4549644638074224e-02 -5.9566071751116197e-03 1.1550987717759571e-05  1.3926837073401446e-02 -1.0759786383357155e-02 8.6058735275618706e-05  2.3057928273163480e-02 6.4112418539110129e-03 -1.8992555040339752e-04  2.1679209564675030e-02 1.5744047542787436e-03 -1.6150681035333018e-04  2.0603893377969133e-02 -2.9855901872097149e-03 -1.2819969470381312e-04  1.9710262510104003e-02 -7.6491559310668967e-03 -9.4499194678908578e-05  1.8788297260978984e-02 -1.2749211992583338e-02 -6.7077391792206827e-05  2.8584373962705838e-02 5.7244545550100686e-03 -1.5346891485237650e-04  2.7266684692479067e-02 6.0928626222261255e-04 -1.6826922227888288e-04  2.6127388739259832e-02 -4.2845389409689478e-03 -1.8384001860065319e-04  2.5084336263003326e-02 -9.2368667000047970e-03 -1.9895705366636734e-04  2.3974969276249005e-02 -1.4471253739411293e-02 -2.1359659003043310e-04  3.4053093384828141e-02 4.7438986420993900e-03 -1.3935314978643406e-04  3.2802297648731313e-02 -4.9695485141638778e-04 -1.8732177108859156e-04  3.1630299224735509e-02 -5.5766404365940265e-03 -2.3663973743297311e-04  3.0496221551793094e-02 -1.0681482470466581e-02 -2.8484401721970334e-04  2.9289350095601404e-02 -1.5944989639981234e-02 -3.2939274804930470e-04  3.9414085530440790e-02 3.6308956503844536e-03 -1.6495761949320183e-04  3.8166306795485577e-02 -1.6306036830167595e-03 -2.2237154759408617e-04  3.6957717851626895e-02 -6.7930924041897578e-03 -2.7988992481800751e-04  3.5802149670970923e-02 -1.1984500574155642e-02 -3.3670235160283807e-04  3.4585157442121185e-02 -1.7263379739290634e-02 -3.9229078614632377e-04  0.0000000000000000e+00 0.0000000000000000e+00 0.0000000000000000e+00  0.0000000000000000e+00 0.0000000000000000e+00 0.0000000000000000e+00  0.0000000000000000e+00 0.0000000000000000e+00 0.0000000000000000e+00  0.0000000000000000e+00 0.0000000000000000e+00 0.0000000000000000e+00  0.0000000000000000e+00 0.0000000000000000e+00 0.0000000000000000e+00  3.9714992043286632e-03 2.8118969880080243e-03 -4.8636692973558270e-04  2.6254626891973839e-03 1.1834148320909318e-03 -2.9122540262328719e-04  1.9786234161028936e-03 1.4472068208453142e-04 -7.1574191692244127e-06  1.9802912382076727e-03 -9.4811784446536531e-04 2.9360726628217321e-04  2.8369826255377675e-03 -3.191355992253