<?xml version="1.0"?>
<VTKFile type="UnstructuredGrid"  version="0.1"  >
<UnstructuredGrid>
<Piece  NumberOfPoints="405" NumberOfCells="1536">
<Points>
<DataArray  type="Float64"  NumberOfComponents="3"  format="ascii">0.45 0 -0.2  0.475 0 -0.2  0.5 0 -0.2  0.525 0 -0.2  0.55 0 -0.2  0.4505882609741004 0.0249929559118853 -0.2003563219072804  0.4754562898927499 0.02493301870361946 -0.2001588968119918  0.5003832590704542 0.02504161230835841 -0.1999924535627133  0.5253276697606726 0.02517616400174763 -0.1998322656246247  0.550280009495995 0.02522539565129875 -0.1996098117167644  0.4505821391964311 0.04982340718055546 -0.2004723767736892  0.4755218046792042 0.04994687528885653 -0.2002081567836524  0.5004611707228021 0.05013347060348106 -0.1999748547111768  0.5254190286215135 0.05033589940297367 -0.1997403382482682  0.5503848883787155 0.05049057985259272 -0.199466618092597  0.4502388293843905 0.07468445282049072 -0.2004497650848854  0.4752673734781799 0.07498704443277626 -0.2001871747046867  0.5002619553885811 0.07526007562561576 -0.1999375806263502  0.5252567300174931 0.07553519105143888 -0.1996847283442246  0.5502511499534579 0.07583208908331046 -0.1994093437555669  0.4496889957040082 0.09961442831731243 -0.2003654760012764  0.474787046032111 0.1000516326660922 -0.2001308557627757  0.4998406367809072 0.1004126975255193 -0.1998978515633587  0.5248766567213491 0.1007693210983049 -0.1996613916983395  0.5499095962656824 0.1011922759642375 -0.199414210131404  0.4490298929566616 0.124626615991036 -0.2002689463981914  0.4741780342133902 0.1251480644786003 -0.2000727280196385  0.4992756214118222 0.1255840628528623 -0.1998702322230433  0.5243480454688795 0.1260157225973347 -0.199665787563465  0.5494176628917486 0.1265260599490671 -0.1994587195511336  0.4483698923790753 0.1497080557847676 -0.2002032906600364  0.4735230708081736 0.1502688694605265 -0.2000339656278722  0.4986436114648962 0.1507615902130359 -0.1998618340252394  0.5237438723424765 0.1512501905464809 -0.1996908259898885  0.5488433273636473 0.1518042916440578 -0.1995200071801323  0.4477395683668267 0.1748369412020757 -0.200172949790792  0.4728795722937597 0.1754078279694027 -0.2000186821203455  0.4980067485225423 0.1759310901530253 -0.1998718293277097  0.5231266821754715 0.1764513579219459 -0.1997283242191998  0.5482487352132555 0.1770140362272062 -0.1995812618786522  0.4471456987158751 0.1999799956798846 -0.2001595517048636  0.4722873403185613 0.2005414841069085 -0.2000142845583806  0.4974206543031998 0.2010715166257167 -0.1998919739016438  0.5225432102010333 0.2016045962207806 -0.1997735004433032  0.5476728220005356 0.202166913789557 -0.1996346632362068  0.45 0 -0.175  0.475 0 -0.175  0.5 0 -0.175  0.525 0 -0.175  0.55 0 -0.175  0.4503904575654669 0.02505181427452562 -0.1752088239199234  0.4753299642745907 0.02498451407226598 -0.1750985861214843  0.5002638419159512 0.02504396666565195 -0.1749891638434329  0.5251914351837004 0.02512692187346546 -0.1748768853152984  0.5500852736742754 0.02516832772677298 -0.1747480643489555  0.4503388787908118 0.04986515534182148 -0.175307898577739  0.4753300513869557 0.04998291441913949 -0.1751373809600384  0.5002819234951377 0.05014403752981825 -0.1749672769395189  0.5252236753650273 0.05032255973391562 -0.1747939978768418  0.5501504576640394 0.05047947274819876 -0.1746145123036804  0.4500008404997706 0.07470231403488606 -0.1753151193427088  0.4750572844417226 0.07500550984371537 -0.1751281096752985  0.5000604165274039 0.07527741495088869 -0.1749374077637986  0.5250466606867108 0.07555375115816181 -0.1747429520273678  0.5500183593938576 0.0758560974894482 -0.1745438384289494  0.4494783334425921 0.09962083587731987 -0.1752755168193352  0.4745854568439543 0.1000621011836931 -0.1750942677211366  0.4996435576387557 0.1004361685178609 -0.1749075600820979  0.5246775086666839 0.1008075750904331 -0.174717357710661  0.5496990856258384 0.1012366505237191 -0.1745232576866932  0.4488510811264568 0.1246295887293901 -0.1752248844966134  0.4739946427436301 0.1251590078976419 -0.1750576940932299  0.4990949486939733 0.1256133743493754 -0.1748867208179769  0.5241695413390492 0.1260642238696323 -0.1747133639024611  0.5492359888653958 0.126580204173468 -0.1745353330801734  0.4482102965748402 0.1497156320430696 -0.175188570508604  0.4733576930495227 0.1502850404388237 -0.175033506022594  0.4984815187489451 0.1507954381728904 -0.1748800559345309  0.5235859967360385 0.1513025804511713 -0.1747261349577333  0.5486867345911904 0.1518617058942622 -0.174565576523453  0.4475858980291678 0.1748476570852863 -0.1751725231922367  0.4727262091943205 0.1754271669166092 -0.175024711736157  0.4978596955934886 0.1759670194540862 -0.174886727954312  0.5229841926178923 0.1765050286198244 -0.1747497415824002  0.5481085325355934 0.1770742463968409 -0.1746019276372215  0.4469894820755512 0.1999900644285204 -0.1751642374092033  0.4721334473996333 0.2005605216764392 -0.175022630342748  0.497275618980855 0.2011098495840734 -0.1748999905062091  0.5224053457957369 0.2016626349970805 -0.1747781682029949  0.5475375288495687 0.2022326731103568 -0.1746380840593187  0.45 0 -0.15  0.475 0 -0.15  0.5 0 -0.15  0.525 0 -0.15  0.55 0 -0.15  0.4503242269608409 0.02503243777044646 -0.1501195663897523  0.4752700252346584 0.02498851769680589 -0.1500594038561062  0.5002050466571339 0.02504659350949079 -0.149987312563728  0.5251290698310859 0.02512693212330213 -0.1499123034175937  0.5500133953448021 0.02520019032702247 -0.14983702928116  0.4502251635496706 0.04986341743484698 -0.1501855245058195  0.4752233585812963 0.04999404742654091 -0.1500837491852749  0.5001739831719854 0.05015285574797351 -0.149967447710023  0.5251058954427004 0.05033186636649042 -0.149848078941983  0.5500143958457364 0.05051367486701577 -0.1497324999834684  0.44986593422943 0.07471541908125295 -0.1502038658915714  0.4749240803746135 0.07502241809528934 -0.1500802807757421  0.4999240907642182 0.07529525407343948 -0.1499432750494497  0.524900532866224 0.07557516134825283 -0.1498033010570635  0.5498557641605578 0.07588938431799647 -0.1496647419225098  0.4493386249472827 0.09964030536471877 -0.1501947002446828  0.4744417947592303 0.1000830865475593 -0.1500621622624037  0.4994952972225876 0.1004611719933925 -0.1499203203166509  0.5245216959848495 0.1008376575263197 -0.1497755567743801  0.549530825401514 0.1012701368970849 -0.1496294992995482  0.4487091059753906 0.1246500499591796 -0.1501770568609977  0.4738475276821346 0.1251823288186509 -0.1500424385611244  0.4989439374133984 0.1256428376185752 -0.1499042095602806  0.5240138224147722 0.1260995673006151 -0.1497636458621133  0.5490724835645213 0.1266148277620339 -0.1496187116463517  0.4480660864619378 0.1497328721344109 -0.1501653046654507  0.4732091420572346 0.1503079871976939 -0.1500301040298279  0.4983311678506392 0.1508268163428854 -0.1498983824539837  0.5234339234238967 0.1513411641990694 -0.1497653895441914  0.548531581066776 0.1518995504942332 -0.1496245016924168  0.4474376524004672 0.1748606435381637 -0.1501626404753393  0.4725749613153842 0.1754485691817242 -0.1500268994008211  0.4977087090403047 0.1759992977539636 -0.149902459504186  0.5228344780134037 0.1765467283297838 -0.1497777286931234  0.5479602122008186 0.1771181696150496 -0.1496403700011897  0.4468321097433175 0.1999994489232383 -0.1501599987161102  0.4719733179924094 0.2005819182456501 -0.1500267906438727  0.4971166218536951 0.2011451402131631 -0.1499124131260361  0.5222512702260723 0.2017098536207948 -0.1497975420117335  0.5473906853794362 0.2022856290031681 -0.149664119900221  0.45 0 -0.125  0.475 0 -0.125  0.5 0 -0.125  0.525 0 -0.125  0.55 0 -0.125  0.4502880130416715 0.02501530079095683 -0.1250644645591356  0.4752409758314249 0.02498627849352255 -0.1250297205502388  0.5001745495509863 0.02504862027819386 -0.1249859393006423  0.5250940339337792 0.02513314805619124 -0.124939624616809  0.5499665065696675 0.02522993929202488 -0.1248934051597624  0.4501586716382119 0.04985175188412838 -0.1251012295589299  0.4751618520245596 0.04999692673387995 -0.1250404096394091  0.5001095996257269 0.05016083775911439 -0.1249684104469977  0.5250331599271232 0.05034703746156204 -0.1248933264580123  0.5499296344099952 0.05055226087358131 -0.1248208828140705  0.4497786786955354 0.07471507057971005 -0.125118557645716  0.4748378733951394 0.07503253201009472 -0.1250391665124645  0.4998333772644873 0.07531065447209634 -0.1249494484681114  0.5248012014116619 0.07559779846425607 -0.1248569153491232  0.549745988217559 0.07592732912330878 -0.1247653658451919  0.4492381346036365 0.09964811964187183 -0.1251247597908786  0.4743387514300817 0.1000992119476972 -0.1250319866270089  0.4993871869013315 0.1004827052042965 -0.1249323262801078  0.5244063546964642 0.1008652388695789 -0.1248301700608748  0.5494072030591927 0.1013063464091065 -0.1247270338817344  0.4485968600507932 0.1246612850557791 -0.1251271212404852  0.4737319475028889 0.1252019480832486 -0.1250249196973492  0.4988244318191229 0.125668288061998 -0.1249202733520632  0.523889421547474 0.1261304590301577 -0.124813706692619  0.5489429037650687 0.1266506381551941 -0.1247039532306329  0.4479431123527595 0.1497438490595021 -0.1251321549915468  0.4730833738432033 0.1503279157407937 -0.1250222360945225  0.4982034943679848 0.1508540939263383 -0.1249155495807681  0.5233039566974089 0.1513745939297667 -0.1248077304283559  0.5483996913160061 0.1519370167057519 -0.1246939508357932  0.4473048587447389 0.1748694234058429 -0.1251400193760041  0.4724401248224974 0.1754675686063797 -0.125024420437896  0.4975735935230825 0.1760277077751441 -0.1249185693358806  0.5226994377742388 0.1765830455231487 -0.1248122845682082  0.5478262705331421 0.1771597866459285 -0.1246957569251553  0.4466879726099737 0.2000054823412449 -0.1251428389011791  0.471827965368374 0.2006006130755525 -0.1250274101786605  0.4969722068866076 0.201175511672582 -0.1249281705078868  0.5221090931168347 0.2017501917596713 -0.1248284436141505  0.5472522720188751 0.2023338207820969 -0.124712993269646  0.45 0 -0.1  0.475 0 -0.1  0.5
[...]
<PointData  Vectors="Displacement"> 
<DataArray  type="Float64"  Name="Displacement"  NumberOfComponents="3" format="ascii">0.0000000000000000e+00 0.0000000000000000e+00 0.0000000000000000e+00  0.0000000000000000e+00 0.0000000000000000e+00 0.0000000000000000e+00  0.0000000000000000e+00 0.0000000000000000e+00 0.0000000000000000e+00  0.0000000000000000e+00 0.0000000000000000e+00 0.0000000000000000e+00  0.0000000000000000e+00 0.0000000000000000e+00 0.0000000000000000e+00  5.8826097410035860e-04 -7.0440881146909603e-06 -3.5632190728036623e-04  4.5628989274983838e-04 -6.6981296380543088e-05 -1.5889681199177956e-04  3.8325907045422107e-04 4.1612308358410950e-05 7.5464372867555197e-06  3.2766976067248588e-04 1.7616400174762586e-04 1.6773437537533873e-04  2.8000949599493090e-04 2.2539565129875118e-04 3.9018828323561576e-04  5.8213919643116828e-04 -1.7659281944454636e-04 -4.7237677368919717e-04  5.2180467920413560e-04 -5.3124711143469363e-05 -2.0815678365235062e-04  4.6117072280206349e-04 1.3347060348105149e-04 2.5145288823148239e-05  4.1902862151328544e-04 3.3589940297366314e-04 2.5966175173184155e-04  3.8488837871555317e-04 4.9057985259271886e-04 5.3338190740304298e-04  2.3882938439050573e-04 -3.1554717950931036e-04 -4.4976508488544050e-04  2.6737347817986637e-04 -1.2955567223751771e-05 -1.8717470468670384e-04  2.6195538858103006e-04 2.6007562561576044e-04 6.2419373649826100e-05  2.5673001749298741e-04 5.3519105143885672e-04 3.1527165577543563e-04  2.5114995345787319e-04 8.3208908331044496e-04 5.9065624443309362e-04  -3.1100429599178114e-04 -3.8557168268756536e-04 -3.6547600127635993e-04  -2.1295396788901659e-04 5.1632666092161099e-05 -1.3085576277568431e-04  -1.5936321909265690e-04 4.1269752551928429e-04 1.0214843664132398e-04  -1.2334327865096863e-04 7.6932109830485460e-04 3.3860830166044668e-04  -9.0403734317826782e-05 1.1922759642374469e-03 5.8578986859610777e-04  -9.7010704333838529e-04 -3.7338400896398303e-04 -2.6894639819141837e-04  -8.2196578660990972e-04 1.4806447860030682e-04 -7.2728019638492261e-05  -7.2437858817768128e-04 5.8406285286227114e-04 1.2976777695674659e-04  -6.5195453112056457e-04 1.0157225973347395e-03 3.3421243653499719e-04  -5.8233710825136267e-04 1.5260599490671547e-03 5.4128044886641116e-04  -1.6301076209247348e-03 -2.9194421523239976e-04 -2.0329066003639852e-04  -1.4769291918263702e-03 2.6886946052648763e-04 -3.3965627872171678e-05  -1.3563885351038792e-03 7.6159021303589180e-04 1.3816597476062231e-04  -1.2561276575234434e-03 1.2501905464808829e-03 3.0917401011156583e-04  -1.1566726363527011e-03 1.8042916440577813e-03 4.7999281986769787e-04  -2.2604316331733105e-03 -1.6305879792426762e-04 -1.7294979079194762e-04  -2.1204277062403629e-03 4.0782796940262229e-04 -1.8682120345485308e-05  -1.9932514774575875e-03 9.3109015302522723e-04 1.2817067229026530e-04  -1.8733178245284516e-03 1.4513579219458334e-03 2.7167578080021878e-04  -1.7512647867445779e-03 2.0140362272061279e-03 4.1873812134779720e-04  -2.8543012841249810e-03 -2.0004320115398799e-05 -1.5955170486364520e-04  -2.7126596814387944e-03 5.4148410690852420e-04 -1.4284558380578983e-05  -2.5793456968000784e-03 1.0715166257167052e-03 1.0802609835620587e-04  -2.4567897989667777e-03 1.6045962207806360e-03 2.2649955669680914e-04  -2.3271779994643990e-03 2.1669137895569436e-03 3.6533676379323505e-04  0.0000000000000000e+00 0.0000000000000000e+00 0.0000000000000000e+00  0.0000000000000000e+00 0.0000000000000000e+00 0.0000000000000000e+00  0.0000000000000000e+00 0.0000000000000000e+00 0.0000000000000000e+00  0.0000000000000000e+00 0.0000000000000000e+00 0.0000000000000000e+00  0.0000000000000000e+00 0.0000000000000000e+00 0.0000000000000000e+00  3.9045756546690342e-04 5.1814274525621761e-05 -2.0882391992340524e-04  3.2996427459067987e-04 -1.5485927734025390e-05 -9.8586121484258777e-05  2.6384191595098152e-04 4.3966665651954461e-05 1.0836156567103448e-05  1.9143518370034717e-04 1.2692187346546513e-04 1.2311468470157323e-04  8.5273674275464830e-05 1.6832772677298532e-04 2.5193565104455763e-04  3.3887879081177265e-04 -1.3484465817852553e-04 -3.0789857773904017e-04  3.3005138695561126e-04 -1.7085580860513212e-05 -1.3738096003847742e-04  2.8192349513763809e-04 1.4403752981824607e-04 3.2723060481119860e-05  2.2367536502732030e-04 3.2255973391562048e-04 2.0600212315821477e-04  1.5045766403940021e-04 4.7947274819876346e-04 3.8548769631964810e-04  8.4049977054290476e-07 -2.9768596511395946e-04 -3.1511934270874982e-04  5.7284441722548624e-05 5.5098437153758163e-06 -1.2810967529844266e-04  6.0416527403877480e-05 2.7741495088869192e-04 6.2592236201452914e-05  4.6660686710859011e-05 5.5375115816179866e-04 2.5704797263222649e-04  1.8359393857525432e-05 8.5609748944819682e-04 4.5616157105054822e-04  -5.2166655740787241e-04 -3.7916412268014065e-04 -2.7551681933519838e-04  -4.1454315604576351e-04 6.2101183693137748e-05 -9.4267721136553207e-05  -3.5644236124445807e-04 4.3616851786088700e-04 9.2439917902130078e-05  -3.2249133331608068e-04 8.0757509043313639e-04 2.8264228933898582e-04  -3.0091437416170829e-04 1.2366505237191177e-03 4.7674231330683018e-04  -1.1489188735431888e-03 -3.7041127060984764e-04 -2.2488449661341116e-04  -1.0053572563699909e-03 1.5900789764188396e-04 -5.7694093229914349e-05  -9.0505130602668504e-04 6.1337434937544088e-04 1.1327918202312591e-04  -8.3045866095088762e-04 1.0642238696323681e-03 2.8663609753891927e-04  -7.6401113460424505e-04 1.5802041734680283e-03 4.6466691982663790e-04  -1.7897034251598764e-03 -2.8436795693037196e-04 -1.8857050860394790e-04  -1.6423069504773586e-03 2.8504043882372483e-04 -3.3506022593982933e-05  -1.5184812510547255e-03 7.9543817289038472e-04 1.1994406546913001e-04  -1.4140032639616360e-03 1.3025804511712735e-03 2.7386504226677480e-04  -1.3132654088095451e-03 1.8617058942621938e-03 4.3442347654705380e-04  -2.4141019708322766e-03 -1.5234291471372767e-04 -1.7252319223665352e-04  -2.2737908056795122e-03 4.2716691660922980e-04 -2.4711736156957795e-05  -2.1403044065113563e-03 9.6701945408621476e-04 1.1327204568809648e-04  -2.0158073821077106e-03 1.5050286198243325e-03 2.5025841759986962e-04  -1.8914674644066657e-03 2.0742463968409577e-03 3.9807236277847731e-04  -3.0105179244488012e-03 -9.9355714795548140e-06 -1.6423740920322113e-04  -2.8665526003668245e-03 5.6052167643923223e-04 -2.2630342748040722e-05  -2.7243810191448980e-03 1.1098495840734374e-03 1.0000949379088291e-04  -2.5946542042632735e-03 1.6626349970804098e-03 2.2183179700510004e-04  -2.4624711504312420e-03 2.2326731103567265e-03 3.6191594068135777e-04  0.0000000000000000e+00 0.0000000000000000e+00 0.0000000000000000e+00  0.0000000000000000e+00 0.0000000000000000e+00 0.0000000000000000e+00  0.0000000000000000e+00 0.0000000000000000e+00 0.0000000000000000e+00  0.0000000000000000e+00 0.0000000000000000e+00 0.0000000000000000e+00  0.0000000000000000e+00 0.0000000000000000e+00 0.0000000000000000e+00  3.2422696084088445e-04 3.2437770446463309e-05 -1.1956638975230728e-04  2.7002523465839424e-04 -1.1482303194112226e-05 -5.9403856106187874e-05  2.0504665713390823e-04 4.6593509490789794e-05 1.2687436272075338e-05  1.2906983108595444e-04 1.2693212330212465e-04 8.7696582406359300e-05  1.3395344802081270e-05 2.0019032702246815e-04 1.6297071884009874e-04  2.2516354967049086e-04 -1.3658256515302865e-04 -1.8552450581943124e-04  2.2335858129615132e-04 -5.9525734590843966e-06 -8.3749185274848605e-05  1.7398317198533830e-04 1.5285574797350689e-04 3.2552289976977037e-05  1.0589544270029771e-04 3.3186636649041809e-04 1.5192105801702479e-04  1.4395845736282427e-05 5.1367486701575475e-04 2.6750001653158095e-04  -1.3406577057005007e-04 -2.8458091874705645e-04 -2.0386589157143470e-04  -7.5919625386552822e-05 2.2418095289329369e-05 -8.0280775742126498e-05  -7.5909235781838059e-05 2.9525407343947499e-04 5.6724950550273707e-05  -9.9467133775910463e-05 5.7516134825281063e-04 1.9669894293658334e-04  -1.4423583944231933e-04 8.8938431799647551e-04 3.3525807749026373e-04  -6.6137505271730542e-04 -3.5969463528123401e-04 -1.9470024468281117e-04  -5.5820524076968933e-04 8.3086547559296160e-05 -6.2162262403661658e-05  -5.0470277741240246e-04 4.6117199339246846e-04 7.9679683349095606e-05  -4.7830401515052605e-04 8.3765752631965778e-04 2.2444322561992065e-04  -4.6917459848596569e-04 1.2701368970849335e-03 3.7050070045178697e-04  -1.2908940246094010e-03 -3.4995004082042329e-04 -1.7705686099765968e-04  -1.1524723178654723e-03 1.8232881865085920e-04 -4.2438561124339555e-05  -1.0560625866017400e-03 6.4283761857518559e-04 9.5790439719499598e-05  -9.8617758522775534e-04 1.0995673006150963e-03 2.3635413788670364e-04  -9.2751643547858351e-04 1.6148277620338998e-03 3.8128835364831790e-04  -1.9339135380622976e-03 -2.6712786558917361e-04 -1.6530466545071584e-04  -1.7908579427655053e-03 3.0798719769392256e-04 -3.0104029827837410e-05  -1.6688321493609052e-03 8.2681634288539799e-04 1.0161754601635991e-04  -1.5660765761033181e-03 1.3411641990693662e-03 2.3461045580863525e-04  -1.4684189332241540e-03 1.8995504942331302e-03 3.7549830758315945e-04  -2.5623475995327706e-03 -1.3935646183635826e-04 -1.6264047533929839e-04  -2.4250386846157894e-03 4.4856918172424140e-04 -2.6899400821069926e-05  -2.2912909596952509e-03 9.9929775396354037e-04 9.7540495814062378e-05  -2.1655219865963173e-03 1.5467283297837893e-03 2.2227130687657053e-04  -2.0397877991813907e-03 2.1181696150495257e-03 3.5962999881030463e-04  -3.1678902566824904e-03 -5.5107676170886227e-07 -1.5999871611012515e-04  -3.0266820075906232e-03 5.8191824565017084e-04 -2.6790643872673219e-05  -2.8833781463048626e-03 1.1451402131630838e-03 8.7586873963942677e-05  -2.7487297739277133e-03 1.7098536207947740e-03 2.0245798826650188e-04  -2.6093146205636492e-03 2.2856290031680374e-03 3.3588009977897755e-04  0.0000000000000000e+00 0.0000000000000000e+00 0.0000000000000000e+00  0.0000000000000000e+00 0.0000000000000000e+00 0.0000000000000000e+00  0.0000000000000000e+00 0.0000000000000000e+00 0.0000000000000000e+00  0.0000000000000000e+00 0.0000000000000000e+00 0.0000000000000000e+00  0.0000000000000000e+00 0.0000000000000000e+00 0.0000000000000000e+00  2.8801304167148136e-04 1.5300790956824972e-05 -6.4464559135594065e-05  2.4097583142491483e-04 -1.3721506477446738e-05 -2.9720550238840270e-05  1.7454955098634279e-04 4.8620278193865390e-05 1.4060699357731082e-05  9.4033933779113967e-05 1.3314805619124326e-04 6.0375383190964884e-05  -3.3493430332648570e-05 2.2993929202488018e-04 1.0659484023762594e-04  1.5867163821191212e-04 -1.4824811587162685e-04 -1.0122955892988938e-04  1.6185202455960704e-04 -3.0732661200418555e-06 -4.0409639409102589e-05  1.0959962572688656e-04 1.6083775911439202e-04 3.1589553002301664e-05  3.3159927123193185e-05 3.4703746156204219e-04 1.0667354198767631e-04  -7.0365590004920742e-05 5.5226087358131346e-04 1.7911718592952041e-04  -2.2132130446462324e-04 -2.8492942028994614e-04 -1.1855764571602709e-04  -1.6212660486063089e-04 3.2532010094698257e-05 -3.9166512464496163e-05  -1.6662273551271798e-04 3.1065447209633842e-04 5.0551531888543603e-05  -1.9879858833818487e-04 5.9779846425606325e-04 1.4308465087677677e-04  -2.5401178244099606e-04 9.2732912330877504e-04 2.3463415480816377e-04  -7.6186539636359659e-04 -3.5188035812818748e-04 -1.2475979087860303e-04  -6.6124856991836946e-04 9.9211947697141150e-05 -3.1986627008912247e-05  -6.1281309866842318e-04 4.8270520429653254e-04 6.7673719892197992e-05  -5.9364530353582512e-04 8.6523886957885060e-04 1.6982993912522992e-04  -5.9279694080737811e-04 1.3063464091064632e-03 2.7296611826565988e-04  -1.4031399492067953e-03 -3.3871494422091575e-04 -1.2712124048516439e-04  -1.2680524971111552e-03 2.0194808324860584e-04 -2.4919697349217976e-05  -1.1755681808771404e-03 6.6828806199803665e-04 7.9726647936839628e-05  -1.1105784525261111e-03 1.1304590301577226e-03 1.8629330738092941e-04  -1.0570962349312999e-03 1.6506381551941634e-03 2.9604676936706133e-04  -2.0568876472404291e-03 -2.5615094049790695e-04 -1.3215499154678391e-04  -1.9166261567966751e-03 3.2791574079370700e-04 -2.2236094522517809e-05  -1.7965056320151530e-03 8.5409392633830033e-04 8.4450419231919097e-05  -1.6960433025910726e-03 1.3745939297666158e-03 1.9226957164407860e-04  -1.6003086839940814e-03 1.9370167057519334e-03 3.0604916420684156e-04  -2.6951412552612213e-03 -1.3057659415710744e-04 -1.4001937600407557e-04  -2.5598751775026867e-03 4.6756860637968634e-04 -2.4420437895986534e-05  -2.4264064769174572e-03 1.0277077751440979e-03 8.1430664119363803e-05  -2.3005622257612317e-03 1.5830455231486938e-03 1.8771543179174727e-04  -2.1737294668579227e-03 2.1597866459285402e-03 3.0424307484470123e-04  -3.3120273900263406e-03 5.4823412449431561e-06 -1.4283890117910365e-04  -3.1720346316260442e-03 6.0061307555254269e-04 -2.7410178660549750e-05  -3.0277931133924105e-03 1.1755116725820490e-03 7.1829492113263123e-05  -2.8909068831652058e-03 1.7501917596713153e-03 1.7155638584943469e-04  -2.7477279811248885e-03 2.3338207820968039e-03 2.8700673035398245e-04  0.0000000000000000e+00 0.0000000000000000e+00 0.0000000000000000e+00  0.0000000000000000e+00 0.0000000000000000e+00 0.0000000000000000e+00  0.0000000000000000e+00 0.0000000000000000e+00 0.0000000000000000e+00  0.0000000000000000e+00 0.0000000000000000e+00 0.0000000000000000e+00  0.0000000000000000e+00 0.0000000000000000e+00 0.0000000000000000e+00  2.6778790377125007e-04 4.2843571105743109e-06 -2.0829227649235641e-05  2.2483109408994831e-04 -1.5731962072981030e-05 -3.9380625821025109e-06  1.5782702435139303e-04 5.0356601196386413e-05 1.5535622200051853e-05  7.3468244275803587e-05 1.3889107400433162e-04 3.6698978758832676e-05  -6.3184348974315479e-05 2.4965604323408017e-04 5.9428333868823722e-05  1.1973095122373683e-04 -1.6046064488788693e-04 -3.3423030475037182e-05  1.2537594001721213e-04 -3.4819949414265091e-06 -2.9502803371638611e-06  7.1593395633351686e-05 1.6695068120867022e-04 3.0947021052254694e-05  -9.9985453806487298e-06 3.6061543738536751e-04 6.7458475065077016e-05  -1.2119881903127722e-04 5.8132617108540069e-04 1.0372949854447935e-04  -2.7659710729213623e-04 -2.9347661724093743e-04 -4.6026316546266896e-05  -2.1718801565209588e-04 3.5756957743918774e-05 -2.4080194144427149e-06  -2.2405143242966614e-04 3.2184137877321891e-04 4.5007114795056691e-05  -2.6101184507787119e-04 6.1758664040667988e-04 9.4772699620478772e-05  -3.2189192117905202e-04 9.6030816406793003e-04 1.4464551219051480e-04  -8.3114992659491570e-04 -3.5598098655607836e-04 -6.0645369495116429e-05  -7.3211577886062972e-04 1.0658978150517461e-04 -3.3869316631986461e-06  -6.8636118010487234e-04 4.9848310764115888e-04 5.6561794913699138e-05  -6.7104016550344496e-04 8.8937737637660144e-04 1.1836403783305066e-04  -6.7422928676435340e-04 1.3410804562120626e-03 1.8073812417168474e-04  -1.4864159374072892e-03 -3.3923418832624658e-04 -7.6371898375637869e-05  -1.3530150735529462e-03 2.1286075085882156e-04 -6.4974958340413555e-06  -1.2624390080404734e-03 6.8763002972234281e-04 6.4548030215686540e-05  -1.1998613451100185e-03 1.1577514784511355e-03 1.3682786261875744e-04  -1.1486177852335071e-03 1.6866297405924969e-03 2.1028851552201398e-04  -2.1532390481394346e-03 -2.5425994998986093e-04 -9.3526827623061255e-05  -2.0139874098053221e-03 3.4072215519428679e-04 -1.2060722767482189e-05  -1.8944564071334098e-03 8.7570097672297776e-04 6.7727380652428669e-05  -1.7948717187213938e-03 1.4041877559098561e-03 1.4813509168385065e-04  -1.6996167122566705e-03 1.9744110547182253e-03 2.3090892602914347e-04  -2.8025091408059206e-03 -1.2766067912217737e-04 -1.0949559499170767e-04  -2.6677176564495367e-03 4.8109507175185187e-04 -1.9411395746494753e-05  -2.5338823520948050e-03 1.0507234267775494e-03 6.4930897832812088e-05  -2.4077092793264514e-03 1.6145915896733068e-03 1.4941665259239999e-04  -2.2800066114751745e-03 2.1992236079544755e-03 2.3907436384405472e-04  -3.4300393598784805e-03 8.0460731206266280e-06 -1.1751923323382582e-04  -3.2898589954662221e-03 6.1430676672277523e-04 -2.6021647206373218e-05  -3.1444505677547942e-03 1.1994162406538875e-03 5.4885870676866570e-05  -3.0063683570529525e-03 1.7833162624027322e-03 1.3582252953164598e-04  -2.8617339083624304e-03 2.3758530613580439e-03 2.2635836224050242e-04  0.0000000000000000e+00 0.0000000000000000e+00 0.0000000000000000e+00  0.0000000000000000e+00 0.0000000000000000e+00 0.0000000000000000e+00  0.0000000000000000e+00 0.0000000000000000e+00 0.0000000000000000e+00  0.0000000000000000e+00 0.0000000000000000e+00 0.0000000000000000e+00  0.0000000000000000e+00 0.0000000000000000e+00 0.0000000000000000e+00  2.6177840085568784e-04 -8.2298011416279027e-07 2.3769086355526095e-05  2.1800827156223080e-04 -1.6796674631028507e-05 2.1786746507259387e-05  1.5094617042871248e-04 5.1590499661819372e-05 1.6362463418211506e-05  6.5598966745744782e-05 1.4276168998972495e-04 1.2538114964917292e-05  -7.4768150180222953e-05 2.5833773202737462e-04 1.1411435570304501e-05  1.0499005307987158e-04 -1.7144812199235157e-04 3.5276971894355772e-05  1.0910532708909330e-04 -6.2210840157927709e-06 3.4243688133885307e-05  5.5300310006311212e-05 1.7019608164911006e-04 2.9581293440266338e-05  -2.6418979077899179e-05 3.6960189477660481e-04 2.7752394116503425e-05  -1.3835818140005326e-04 5.9765695161028657e-04 2.7675752164614252e-05  -3.0288584615142863e-04 -3.0826428971801671e-04 2.6946492735143752e-05  -2.4498607518728407e-04 3.2313378270112459e-05 3.3893933550669530e-05  -2.5176172473302899e-04 3.2729075822384882e-04 3.8786828741118568e-05  -2.8834227588233995e-04 6.3115938761242724e-04 4.6009837980196748e-05  -3.4899652507734902e-04 9.8370349805470690e-04 5.4099446728728741e-05  -8.7086771444480594e-04 -3.7100143508047852e-04 3.3663927658196170e-06  -7.7281524429119821e-04 1.0450330105113119e-04 2.4518890515489591e-05  -7.2688706169649531e-04 5.0672244059651276e-04 4.4711255358456283e-05  -7.1105935325744489e-04 9.0709975893172635e-04 6.6355790526453012e-05  -7.1368006137255955e-04 1.3700008033401075e-03 8.7857782259648736e-05  -1.5407016907131596e-03 -3.5131063992232766e-04 -2.6046310179726580e-05  -1.4071942919632208e-03 2.1383514487111665e-04 1.1072235630859881e-05  -1.3160126055294643e-03 6.9900157436786684e-04 4.8519676225007984e-05  -1.2527312364585743e-03 1.1788932291607536e-03 8.6634439717452904e-05  -1.2006777127978325e-03 1.7190257359703625e-03 1.2372298129581177e-04  -2.2208180632264036e-03 -2.6150689652382615e-04 -5.5167681984204937e-05  -2.0805500062646217e-03 3.4501195513678465e-04 -2.6728612843073413e-06  -1.9598793042974226e-03 8.8976243710442058e-04 5.0169180767174253e-05  -1.8593858099516818e-03 1.4275922702321729e-03 1.0317672870355861e-04  -1.7631800539088076e-03 2.0081838311013108e-03 1.5475448014586087e-04  -2.8803079671711846e-03 -1.3042733108840557e-04 -7.8537112049019257e-05  -2.7441112727927407e-03 4.8786074606102384e-04 -1.4907543793703113e-05  -2.6089681290522352e-03 1.0663813426922189e-03 4.7979751772682479e-05  -2.4819076454832968e-03 1.6388587890079382e-03 1.1076178930896479e-04  -2.3535289379880871e-03 2.2327059084697788e-03 1.7296722498884578e-04  -3.5160815909635349e-03 7.7409167787380371e-06 -9.1584779201577375e-05  -3.3741231641338494e-03 6.2205890156122995e-04 -2.4912133659158890e-05  -3.2273303065396258e-03 1.2149940551164098e-03 3.8580744338810348e-05  -3.0886517031679835e-03 1.8065347156420353e-03 1.0171129569589683e-04  -2.9440337829391913e-03 2.4073934110109751e-03 1.6679443651591584e-04  0.0000000000000000e+00 0.0000000000000000e+00 0.0000000000000000e+00  0.0000000000000000e+00 0.0000000000000000e+00 0.0000000000000000e+00  0.0000000000000000e+00 0.0000000000000000e+00 0.0000000000000000e+00  0.0000000000000000e+00 0.0000000000000000e+00 0.0000000000000000e+00  0.0000000000000000e+00 0.0000000000000000e+00 0.0000000000000000e+00  2.7376557313077497e-04 9.2951140231090696e-07 8.2665669261683706e-05  2.2400250833770410e-04 -1.7538219225945032e-05 5.1634412061963172e-05  1.5695983195751468e-04 5.1645616611447690e-05 1.5533990273885183e-05  7.3493811226522829e-05 1.4372486246612404e-04 -1.6996856569031384e-05  -6.3532210926440662e-05 2