<?xml version="1.0"?>
<VTKFile type="UnstructuredGrid"  version="0.1"  >
<UnstructuredGrid>
<Piece  NumberOfPoints="405" NumberOfCells="1536">
<Points>
<DataArray  type="Float64"  NumberOfComponents="3"  format="ascii">0.45 0 -0.2  0.475 0 -0.2  0.5 0 -0.2  0.525 0 -0.2  0.55 0 -0.2  0.4528248127535053 0.02703691792824083 -0.1993660184365858  0.4769044419551167 0.02564021157406582 -0.199730419182563  0.5014902901427368 0.02498386531817898 -0.2001837729728853  0.5264212066774175 0.02433742109258794 -0.2006953272629251  0.5517236184942195 0.02307537359981619 -0.2011709355746074  0.4551403649374748 0.05309615312368924 -0.1995770272258245  0.4793313910007587 0.05128932640147797 -0.1998664689535008  0.5038443028316698 0.05009034210696523 -0.200300136427798  0.5287254133559322 0.04890762070872537 -0.2007654451976629  0.5538955344499531 0.04713165819770344 -0.2012094580868495  0.4575035920932172 0.07875512707803263 -0.1997982444907751  0.4818379507047316 0.07678944154411761 -0.2000188756990214  0.5063946523657481 0.07521671281227871 -0.2003578917735928  0.5312417675633332 0.07363931270637898 -0.2007166499220538  0.5562976809233929 0.07163284290147895 -0.2010541154335068  0.4597684473411789 0.1041236906568241 -0.199916724806864  0.4842221651288912 0.1021348606574868 -0.2000937311096193  0.5088453501701171 0.1003334372889009 -0.2003712388976857  0.5336832625000713 0.09850932542450698 -0.2006605048856109  0.5586687369865704 0.09643269676089637 -0.2009326682417848  0.4617885648581171 0.1293083304834567 -0.1998846012247933  0.4863838795429557 0.1273627311017883 -0.2000885879284069  0.511089133019959 0.1254322553945584 -0.2003572249461315  0.5359396215039486 0.1234723151515437 -0.2006298692970837  0.5608904700347871 0.1214051753052886 -0.2008918410832347  0.4636243201890331 0.1543884267056975 -0.1997629908575572  0.4883486335910519 0.1524844569440255 -0.2000318538428178  0.5131421649588055 0.1505020800259458 -0.2003298845296906  0.5380194410381175 0.148481829473357 -0.2006245871187279  0.5629602729916438 0.14644180175395 -0.2009165415064978  0.4654026360969589 0.1794318727823759 -0.1996344986888362  0.4902284182822641 0.1775406516068149 -0.1999649334299692  0.5150953915173415 0.1755424950840825 -0.2003002697461521  0.54000394949629 0.1735029365208903 -0.2006293540259459  0.5649502806451802 0.1714720442947898 -0.2009635432479678  0.4672361220753641 0.2044646261006257 -0.1995513296202578  0.4921305994063283 0.2025549433508792 -0.1999086878657787  0.5170652760108084 0.2005532045711177 -0.2002734617324229  0.5420021676460001 0.1985102114303831 -0.2006290006669858  0.5669533986841918 0.1964700531596478 -0.2009870869591403  0.45 0 -0.175  0.475 0 -0.175  0.5 0 -0.175  0.525 0 -0.175  0.55 0 -0.175  0.4529965589498658 0.02704813931230895 -0.1746008184615757  0.4771504285693679 0.02566647731214936 -0.1748313274499277  0.5017580684526762 0.02506197072952895 -0.1751152025850753  0.5267261281744611 0.0244943886231312 -0.1754326480601366  0.5521502810298851 0.02324633230947175 -0.175725859152202  0.4553145583660434 0.05319465799293109 -0.1746134730316594  0.4796096995619465 0.05136960190368832 -0.1748848627114062  0.5041740643769207 0.05014896927978464 -0.1752246807662144  0.5290804569817144 0.0489453848140526 -0.17558435216469  0.5542949807221299 0.04713870630229569 -0.1759121240769197  0.4576368526915247 0.07884651449844951 -0.1747027550740695  0.4820992506084638 0.07685780440244076 -0.1749658501918908  0.5067089917718837 0.07524315363738973 -0.175280237038672  0.5315697779644387 0.07362082399021341 -0.1756063708054591  0.5566272125399234 0.07158515638424343 -0.1759191397769733  0.4598885566577549 0.1041690547225902 -0.1747446818773933  0.484470766657844 0.1021599813768355 -0.1750055230972061  0.5091405374829295 0.1003337115507432 -0.1752985849032495  0.533984655215122 0.09848120931693082 -0.1755985589219469  0.5589582659664541 0.09638531888701783 -0.1758980612979358  0.4619573244363906 0.1293017198064746 -0.1747082016221081  0.4866487783786496 0.1273455135826542 -0.174994992304326  0.5113874751226718 0.1254149990510655 -0.1752951490128598  0.5362403866044056 0.1234498778686302 -0.1755968810862849  0.5611800300849996 0.1213718549578461 -0.1759048045480695  0.4638740079135931 0.1543561516030139 -0.1746220695096689  0.4886550769135457 0.1524457186181142 -0.1749542219045928  0.5134650107334006 0.1504758940855777 -0.1752821168822749  0.5383422977676504 0.1484647836846952 -0.1756065544668673  0.5632790157074703 0.1464197505198351 -0.1759409546555419  0.4657276043903761 0.1793901839263482 -0.1745376330870632  0.4905774187660112 0.1774981159705136 -0.1749125484354915  0.5154484047779557 0.1755140805677882 -0.175268459176814  0.5403559815345099 0.1734858278301728 -0.1756178794911147  0.5653055119339224 0.1714535189053513 -0.1759819558799229  0.4675777991130148 0.2044124100325828 -0.1745094707401139  0.4925014531131364 0.2025154996024703 -0.1748976153362392  0.51743462493016 0.2005262941081477 -0.1752603752484867  0.5423709589816927 0.1984909451985078 -0.1756160990906202  0.567329023663383 0.1964517812843839 -0.1759913643204696  0.45 0 -0.15  0.475 0 -0.15  0.5 0 -0.15  0.525 0 -0.15  0.55 0 -0.15  0.453235648605999 0.02708769320879216 -0.1497289631703677  0.4772841826708155 0.02566742669971013 -0.1499049470831568  0.5018546484809067 0.02507715723164429 -0.1500789817700046  0.526836733419393 0.02452037171462433 -0.1502725486999149  0.5523372218645711 0.02322952884931085 -0.1504494963418908  0.4556128921775058 0.05322884432007777 -0.1496436790540855  0.4798387841097946 0.05138649486099089 -0.1498921969001442  0.5043768767906764 0.05017157857979242 -0.1501543058019532  0.5293027781292328 0.04897439423365428 -0.1504272122096307  0.5545670268906491 0.04714290861851522 -0.1506755878415406  0.457960185218202 0.07889012165925605 -0.1496262737206412  0.4823821397784904 0.07688400131231551 -0.1499147103538391  0.5069790487659736 0.0752602054963234 -0.1502017436707178  0.5318503171606028 0.07362856987224485 -0.1504958617159034  0.55692539805802 0.07157751321077019 -0.1507815193930497  0.4602336198400533 0.1042182613043391 -0.1496026341114232  0.4847905655810111 0.1021844243339013 -0.1499213714711065  0.5094522646682954 0.1003400892377472 -0.1502241509877806  0.5342988369499151 0.09846992067385039 -0.1505304314555776  0.5592718609914804 0.09635522828541482 -0.1508418136758049  0.4623333831369516 0.1293540942394039 -0.1495497445448684  0.4870031960024975 0.1273642368957687 -0.1499042773056608  0.511732700369441 0.1254124519564014 -0.1502310590224462  0.5365831156005848 0.1234272652937675 -0.1505577649051949  0.5615158008155291 0.1213249282059332 -0.1508973742279011  0.4642895552350997 0.1544061111177294 -0.1494804174241808  0.489045577363347 0.1524601491725337 -0.1498747351574326  0.5138424846927763 0.15046839640489 -0.1502316142699265  0.5387145799544463 0.148436885198421 -0.1505848590444187  0.5636447907140414 0.1463645581923962 -0.1509561500784743  0.4661801256529009 0.1794391548153426 -0.1494240001346204  0.4910011700757425 0.1775122133267084 -0.1498537133704227  0.515855689239484 0.1755055272917485 -0.1502329929029226  0.5407568673510484 0.1734567876622218 -0.1506058884637755  0.5657030257428241 0.1713978819270496 -0.1510056006110666  0.468069003302549 0.2044676942800498 -0.1494376053969777  0.4929532102693834 0.2025315456033676 -0.1498726299277083  0.5178657095241468 0.2005188845569001 -0.1502421446488263  0.5427959074946606 0.1984632077628576 -0.1506059805633387  0.5677545431140694 0.1964000169534509 -0.1510101761537863  0.45 0 -0.125  0.475 0 -0.125  0.5 0 -0.125  0.525 0 -0.125  0.55 0 -0.125  0.4533917084991323 0.02714472491806577 -0.1247759255663174  0.4773878206299247 0.02567747138180272 -0.1249111191202191  0.5019319709091128 0.02508082086987663 -0.1250427415407812  0.5269163295612556 0.02451811713094019 -0.125182813168126  0.5524536782824323 0.02317811100517363 -0.1253162847551339  0.4558578803897353 0.05329359215970851 -0.1246500858305954  0.4800406339534228 0.05140842395595515 -0.1248660258845713  0.5045536745701797 0.05018142098739343 -0.1250865846549044  0.5294822765795175 0.04897134910434243 -0.1253072455345108  0.5547722949959335 0.04709095550255636 -0.125510963346815  0.4582689991038134 0.07896048403791513 -0.1245653816868029  0.4826642501192386 0.07691522465201429 -0.1248463441300035  0.5072419259288435 0.07527066244714938 -0.1251199700441024  0.5321115619824568 0.07361854861168643 -0.1253910820931264  0.557196047602225 0.07152694844507361 -0.125656801118512  0.4605953397915564 0.1042947969212557 -0.1244918088368371  0.4851351248683163 0.1022208525413168 -0.1248266549902279  0.5097812581581027 0.1003479104597015 -0.1251426008295462  0.5346217465275935 0.09845028135071753 -0.1254541303374264  0.559593108486823 0.09629821881366801 -0.1257709786382719  0.4627433179853502 0.1294350957948344 -0.1244188023828116  0.4873986085702121 0.1274032686406216 -0.1248031775929556  0.512113059215066 0.1254174781094769 -0.1251586026660608  0.5369546612472684 0.1234001125859661 -0.1255078894808168  0.5618806462380457 0.1212606663821307 -0.1258701342208823  0.4647456240398266 0.15449002670697 -0.1243536428999811  0.4894844509846594 0.1525010809676106 -0.1247826466053083  0.5142649356702379 0.1504722481155637 -0.1251727796599041  0.5391270172807631 0.148405752906675 -0.1255552303129355  0.5640498425802024 0.1462961926448879 -0.1259579921537592  0.466680317070303 0.1795286225505875 -0.1243144623734725  0.4914788859485617 0.1775568496016476 -0.1247794213614695  0.5163146020634665 0.1755103895601321 -0.1251892224217508  0.5412055268820336 0.1734246024105493 -0.1255902321340684  0.5661461713053674 0.1713280706126461 -0.1260252193389955  0.4686201059207107 0.2045673904310099 -0.1243519942215577  0.4934712785724609 0.2025803885627091 -0.1248200122038127  0.518360661032317 0.2005254366484801 -0.1252122634890131  0.5432803505752596 0.1984314388348048 -0.125596305482255  0.5682365357699678 0.1963289063929437 -0.1260340672882158  0.45 0 -0.1  0.475 0 -0.1  0.5 
[...]
<PointData  Tensors="Piola Kirchhoff sec Stress"> 
<DataArray  type="Float64"  Name="Piola Kirchhoff sec Stress"  NumberOfComponents="9" format="ascii">1.3519003754356962e+04 8.5528330934947608e+03 9.6846561155828192e+02 8.5528330934947571e+03 2.8420481819847570e+04 3.4757602135917123e+03 9.6846561155828181e+02 3.4757602135917123e+03 1.4752992633758526e+04  4.1041369224178170e+03 4.0748783494290383e+03 8.1207439904132528e+01 4.0748783494290360e+03 7.1825253556704629e+03 1.6203032080449043e+03 8.1207439904132798e+01 1.6203032080449043e+03 3.6904729928703664e+03  5.3471077827351792e+02 2.9054936864308124e+03 -1.7251822705406332e+02 2.9054936864308070e+03 1.6153647289434002e+01 -5.4658601693236403e+02 -1.7251822705406329e+02 -5.4658601693236392e+02 6.1074288610637643e+02  -3.0617535416591218e+03 2.8432935492586148e+03 -4.6124791861678938e+02 2.8432935492586134e+03 -6.2041217263553526e+03 -2.8580539188625116e+03 -4.6124791861678938e+02 -2.8580539188625116e+03 -1.6105580251672432e+03  -1.7703639314424800e+04 6.2437351576020737e+03 1.1194990944558115e+03 6.2437351576020747e+03 -2.8802968951780724e+04 -5.7852320615405333e+03 1.1194990944558115e+03 -5.7852320615405333e+03 -1.2835812784534841e+04  6.4633284086163246e+02 1.4089225174818589e+03 1.0653994164500041e+02 1.4089225174818596e+03 1.4651505195340080e+04 -1.2483694681966129e+02 1.0653994164500038e+02 -1.2483694681966132e+02 4.7564141899636770e+03  6.0398252099962826e+02 4.4876580508726493e+03 -2.7444713247117949e+02 4.4876580508726474e+03 7.5043287034489686e+03 -2.5409650405483148e+02 -2.7444713247117932e+02 -2.5409650405483151e+02 3.1523136506934147e+03  1.9948016369433140e+03 4.5394869102066341e+03 -3.1128465954408387e+02 4.5394869102066332e+03 2.8910414676798318e+03 7.0771218838151881e+01 -3.1128465954408375e+02 7.0771218838151910e+01 2.8166702735188874e+03  3.4554311921245380e+03 3.7059548620419146e+03 -3.0090176837819962e+02 3.7059548620419146e+03 -1.2654797000857484e+03 5.3667764264432969e+02 -3.0090176837819968e+02 5.3667764264432947e+02 3.0055745929226568e+03  4.9779233345664279e+03 9.5166668941925067e+01 -1.2633909729760803e+02 9.5166668941925437e+01 -4.2528216292786201e+03 9.2167027805278633e+02 -1.2633909729760788e+02 9.2167027805278599e+02 3.7990368732220809e+03  2.5956451044864652e+03 1.1799388001059144e+03 -1.2160813589100201e+01 1.1799388001059144e+03 1.2723657783370329e+04 -7.8351329736080118e+00 -1.2160813589100222e+01 -7.8351329736080322e+00 6.2412208955307024e+03  2.3617446255971922e+03 3.6598101742659596e+03 -1.2711557719774181e+02 3.6598101742659592e+03 8.8578638468333975e+03 7.7756308610199000e+01 -1.2711557719774180e+02 7.7756308610199028e+01 4.7314266310265348e+03  3.8553528416346103e+03 4.2669921250042144e+03 -1.1000397315408050e+02 4.2669921250042125e+03 5.2603196739036994e+03 2.0046213474198791e+02 -1.1000397315408046e+02 2.0046213474198780e+02 4.4173742787003694e+03  5.6486083377489103e+03 3.1567107943577112e+03 -2.6869683642989465e+01 3.1567107943577112e+03 2.3098442360862723e+03 3.6155096777138129e+02 -2.6869683642989397e+01 3.6155096777138129e+02 4.6270341550627318e+03  7.4736383380580492e+03 -1.4887950265728114e+02 6.7699404795894310e+01 -1.4887950265728105e+02 2.2694553178950682e+03 5.3604889229589617e+02 6.7699404795894338e+01 5.3604889229589617e+02 6.1349710871444859e+03  3.2282741738942786e+03 7.5697191199192559e+02 -2.8934804116741098e+01 7.5697191199192662e+02 1.0194882891262305e+04 8.2394704277716741e+01 -2.8934804116741205e+01 8.2394704277716713e+01 6.4084112654729524e+03  3.3983758908123041e+03 2.5718658500664756e+03 -7.9451829177406808e+01 2.5718658500664746e+03 8.5461192757586214e+03 1.7299793545832554e+02 -7.9451829177406836e+01 1.7299793545832551e+02 5.4353743616695929e+03  4.8842637061182040e+03 3.0799018018168613e+03 -2.1760230752161100e+01 3.0799018018168613e+03 6.4399788952270537e+03 2.2258918889982343e+02 -2.1760230752161107e+01 2.2258918889982348e+02 5.2503482930948185e+03  6.6477648170737775e+03 2.1790182056044455e+03 5.4068058141408734e+01 2.1790182056044455e+03 4.9425102239918242e+03 2.6100330756803055e+02 5.4068058141408763e+01 2.6100330756803072e+02 5.5390311505662512e+03  8.2665322049839961e+03 2.2340486653862442e+01 6.9329607106736816e+01 2.2340486653862605e+01 5.9711506266884453e+03 3.7912134824264024e+02 6.9329607106736816e+01 3.7912134824264029e+02 6.6626191251758828e+03  2.8451774020699072e+03 5.2830462683629503e+02 1.3770345958492817e+01 5.2830462683629526e+02 7.7028233852802177e+03 1.3000605322431514e+02 1.3770345958492822e+01 1.3000605322431514e+02 5.8142209015542194e+03  3.7062123804190692e+03 1.4823829356482468e+03 -3.5441565570728585e+01 1.4823829356482456e+03 7.7322729887350843e+03 1.7897131806383067e+02 -3.5441565570728606e+01 1.7897131806383078e+02 5.4442035047891741e+03  5.1858467954596217e+03 1.7719068807545234e+03 1.1504708197436118e+01 1.7719068807545234e+03 6.8083201200974163e+03 2.0274162903919651e+02 1.1504708197436102e+01 2.0274162903919657e+02 5.4477666503803739e+03  6.7168874278592748e+03 1.1960795799885202e+03 5.2150366716135949e+01 1.1960795799885204e+03 6.2526098420001199e+03 2.0725286523549678e+02 5.2150366716135927e+01 2.0725286523549681e+02 5.7189850892405802e+03  7.9681405513659665e+03 3.2896522100861119e+01 4.0834081139253897e+01 3.2896522100860878e+01 7.4524696824282955e+03 2.3762818918290805e+02 4.0834081139253875e+01 2.3762818918290802e+02 6.4082634119942204e+03  2.6846632969149127e+03 6.5186377540363139e+01 5.9999949857876238e+01 6.5186377540363097e+01 5.7837155451709914e+03 2.4238295091926923e+02 5.9999949857876238e+01 2.4238295091926912e+02 4.9303423043498315e+03  3.8468641560750425e+03 4.5969677771857249e+02 3.0968224657831720e+00 4.5969677771857215e+02 6.7960832613556477e+03 1.9309684208511010e+02 3.0968224657831493e+00 1.9309684208510984e+02 5.1282222294678277e+03  5.2099124484390477e+03 6.7143795528102885e+02 2.3360277750952740e+01 6.7143795528102919e+02 6.7130182688238456e+03 1.9336510395800644e+02 2.3360277750952712e+01 1.9336510395800647e+02 5.3217156743580654e+03  6.4050247638596047e+03 3.9967917052981744e+02 3.3660801641593004e+01 3.9967917052981733e+02 6.6836233683712790e+03 1.8722936750063715e+02 3.3660801641593004e+01 1.8722936750063715e+02 5.5410749586680922e+03  7.2653274296312684e+03 -1.9109927223472454e+01 6.8615396023002058e+00 -1.9109927223472454e+01 7.5685812629480324e+03 1.4258413247849688e+02 6.8615396023002058e+00 1.4258413247849688e+02 5.8430428289731963e+03  3.2160203156991624e+03 7.6594298796526346e+01 4.7207476859180311e+01 7.6594298796526360e+01 5.2482528914546801e+03 2.3898440974762892e+02 4.7207476859180311e+01 2.3898440974762889e+02 4.6412511390078771e+03  4.2830475283666683e+03 -5.7180055151910899e+01 7.9047871043222173e+00 -5.7180055151910864e+01 6.1589083804143047e+03 2.0026769941677949e+02 7.9047871043221969e+00 2.0026769941677949e+02 4.9139199889201082e+03  5.3257261318956853e+03 1.2291829805847071e+01 2.2736884336777297e+01 1.2291829805847110e+01 6.5094923409432722e+03 1.9453578275590343e+02 2.2736884336777297e+01 1.9453578275590343e+02 5.1726959148196738e+03  6.1485695456513758e+03 -7.5829777310319272e+01 1.7723745991924609e+01 -7.5829777310319329e+01 6.7286962596362919e+03 1.8595124634238360e+02 1.7723745991924606e+01 1.8595124634238371e+02 5.3447581991409097e+03  6.7083535505005648e+03 -7.1210758080887871e+01 -1.3457037849629028e+01 -7.1210758080887885e+01 7.1480733108764061e+03 1.1050089096396827e+02 -1.3457037849629041e+01 1.1050089096396827e+02 5.4012758246277081e+03  3.9648820191557302e+03 -1.4490584605466429e+02 5.3476809397654442e+01 -1.4490584605466432e+02 5.1868767542920714e+03 2.3929880463437297e+02 5.3476809397654428e+01 2.3929880463437297e+02 4.5035000234113277e+03  4.8772882680822458e+03 -2.4679258321463868e+02 1.5881038076302969e+01 -2.4679258321463868e+02 5.9669630524329077e+03 2.0045764292264980e+02 1.5881038076302962e+01 2.0045764292264977e+02 4.8556454370842839e+03  5.6532787909671288e+03 -2.1469067054956696e+02 2.2611264344905997e+01 -2.1469067054956690e+02 6.4267744885157217e+03 2.0152482300328771e+02 2.2611264344906004e+01 2.0152482300328768e+02 5.1446510505141023e+03  6.1682475510225531e+03 -2.0437191870457625e+02 1.1990865691339678e+01 -2.0437191870457619e+02 6.6928953594391578e+03 1.9855631341019426e+02 1.1990865691339666e+01 1.9855631341019429e+02 5.2944695678952367e+03  6.5373316152370880e+03 -7.3472754040378248e+01 -2.3267452697983771e+01 -7.3472754040378220e+01 6.7639894977631102e+03 1.4670588452616605e+02 -2.3267452697983767e+01 1.4670588452616605e+02 5.2569546361075409e+03  4.7531617478228764e+03 5.6375514001921367e+01 8.1789485623192490e+00 5.6375514001921324e+01 5.7329115214235644e+03 1.1823282671478347e+02 8.1789485623192419e+00 1.1823282671478350e+02 4.6272836513052989e+03  5.7470493424701863e+03 -6.4089011526605617e+01 -6.3282883623742139e+00 -6.4089011526605617e+01 6.1798957364797388e+03 1.9031116191245263e+02 -6.3282883623742041e+00 1.9031116191245260e+02 4.9932333189716264e+03  6.2398567720375368e+03 -4.9745256285671296e+01 4.0207431659829505e+00 -4.9745256285671296e+01 6.5746067760094656e+03 2.1628481193430682e+02 4.0207431659829487e+00 2.1628481193430687e+02 5.3078815111682316e+03  6.4165567774513820e+03 -3.5218688290088835e+01 3.1875241789223110e+00 -3.5218688290088835e+01 6.7106839412716427e+03 2.2933722876069641e+02 3.1875241789223061e+00 2.2933722876069641e+02 5.4247442507818705e+03  6.6525661824285771e+03 7.2832016456097657e+00 -2.5003526566788764e+01 7.2832016456097497e+00 6.6579114351121516e+03 2.2704371137759844e+02 -2.5003526566788757e+01 2.2704371137759853e+02 5.3768809787068840e+03  1.5481128166786712e+04 9.6175780472010501e+03 3.5060486361243733e+02 9.6175780472010501e+03 2.9933212028349280e+04 1.7392537709845224e+03 3.5060486361243727e+02 1.7392537709845221e+03 1.7733506120328144e+04  4.2717034981397583e+03 4.8557729780743985e+03 1.0961700734520652e+02 4.8557729780743985e+03 7.4290787788857951e+03 8.5668208896519138e+02 1.0961700734520653e+02 8.5668208896519229e+02 4.3792738252144154e+03  1.0116453533102058e+03 3.7247784876838627e+03 -1.2547789469729037e+02 3.7247784876838632e+03 8.1404942933069947e+02 -2.9445016709018824e+02 -1.2547789469729049e+02 -2.9445016709018836e+02 7.3159877302853863e+02  -2.1050294050255411e+03 3.8469980660561537e+03 -3.1745922297928934e+02 3.8469980660561537e+03 -4.0647563914182169e+03 -1.4580354996720018e+03 -3.1745922297928951e+02 -1.4580354996720018e+03 -2.0456679779813639e+03  -1.7395040704201128e+04 7.7172046020533116e+03 1.3071513896963157e+02 7.7172046020533098e+03 -2.6267048311739461e+04 -2.8778821313771618e+03 1.3071513896963154e+02 -2.8778821313771623e+03 -1.5930820482880519e+04  2.0238187573814510e+03 7.2415770761384499e+02 3.1142779165644032e+02 7.2415770761384294e+02 1.5903106909191827e+04 4.6664255759375783e+02 3.1142779165644032e+02 4.6664255759375772e+02 5.4677624406016630e+03  1.2673281832392995e+03 5.1281860043560891e+03 -3.4906646388805200e+02 5.1281860043560891e+03 9.2008761519346699e+03 6.8257505885419334e+01 -3.4906646388805189e+02 6.8257505885419533e+01 3.0317863246807347e+03  1.5608999295215353e+03 5.1889230475812110e+03 -6.2580613661514246e+02 5.1889230475812064e+03 2.6976229588193255e+03 -2.1394015266188887e+02 -6.2580613661514269e+02 -2.1394015266188890e+02 2.0413597816177446e+03  2.3438308722891215e+03 4.3330168183348778e+03 -5.9218623425755595e+02 4.3330168183348778e+03 -3.1864122344255979e+03 -5.0711841140910656e+02 -5.9218623425755618e+02 -5.0711841140910639e+02 1.4962194720137579e+03  5.5284448296896571e+03 3.6778044573340361e+02 -4.1063665880244105e+02 3.6778044573340321e+02 -8.7559714636442532e+03 -9.0873280539746315e+02 -4.1063665880244110e+02 -9.0873280539746338e+02 2.4513855683454512e+03  3.7876616370554834e+03 8.8681341984301014e+02 2.1055490737814713e+02 8.8681341984301127e+02 1.3694664511881972e+04 3.5773881493251118e+01 2.1055490737814713e+02 3.5773881493251096e+01 6.6593436704543001e+03  2.5867799137247980e+03 3.4353778234190622e+03 -2.8804980577399499e+02 3.4353778234190631e+03 8.8158201347888698e+03 -1.0132524534925533e+02 -2.8804980577399499e+02 -1.0132524534925537e+02 4.3346598914086790e+03  3.5078776595870459e+03 4.2518684172802168e+03 -4.4099436128510280e+02 4.2518684172802168e+03 4.7646976589941805e+03 2.2831427454012121e+00 -4.4099436128510280e+02 2.2831427454012094e+00 3.9352053259786157e+03  5.0116909875512974e+03 3.0928676531270257e+03 -3.4348013301782856e+02 3.0928676531270266e+03 1.1907643679016205e+03 1.4821150713765257e+02 -3.4348013301782851e+02 1.4821150713765255e+02 4.0402529345508624e+03  6.9590315539922913e+03 -1.7867754341549963e+02 -7.7892244013589703e+01 -1.7867754341549917e+02 6.6311466260768100e+02 2.2051685113488654e+02 -7.7892244013589703e+01 2.2051685113488654e+02 5.5098122316991576e+03  4.4960437227302937e+03 5.2919641776571746e+02 1.9666679490327647e+02 5.2919641776571734e+02 1.0681767809374222e+04 1.1628010122873225e+02 1.9666679490327641e+02 1.1628010122873225e+02 6.7493299169041875e+03  3.8103393854526112e+03 2.3177286179056209e+03 -1.1995508304414126e+02 2.3177286179056209e+03 8.3995982636091849e+03 9.4062100206584589e+01 -1.1995508304414126e+02 9.4062100206584589e+01 5.2189924978283461e+03  4.6931878153729749e+03 2.8715715533559815e+03 -1.5428331250179696e+02 2.8715715533559810e+03 6.0961450545735834e+03 1.4439982855705330e+02 -1.5428331250179698e+02 1.4439982855705330e+02 5.0044648731784664e+03  6.3030340208510715e+03 1.9942408502703536e+03 -7.6117752565594458e+01 1.9942408502703543e+03 4.5775398150502288e+03 2.4829262744577025e+02 -7.6117752565594415e+01 2.4829262744577025e+02 5.3347245019832990e+03  7.8940834587379240e+03 -1.4083557052356119e+02 3.5705058752183625e+01 -1.4083557052356090e+02 5.4423918054420737e+03 3.2852661987498919e+02 3.5705058752183653e+01 3.2852661987498919e+02 6.5264889323363477e+03  4.2133032373805945e+03 3.5663210427575342e+02 2.2988348778198952e+02 3.5663210427575365e+02 8.1126583997423204e+03 3.1369525246817796e+02 2.2988348778198946e+02 3.1369525246817790e+02 6.1691079074387744e+03  4.2049216690276735e+03 1.3476117395348494e+03 6.4258882590072721e+00 1.3476117395348490e+03 7.6123494600031881e+03 2.1604918770455677e+02 6.4258882590072739e+00 2.1604918770455672e+02 5.3502901021392199e+03  5.1839526186176990e+03 1.6515169240680459e+03 1.4485551340941987e+01 1.6515169240680452e+03 6.6840537303192259e+03 1.9581115142368168e+02 1.4485551340942020e+01 1.9581115142368165e+02 5.3785087578929661e+03  6.6151767452533786e+03 1.1059241425776245e+03 4.5567371732836463e+01 1.1059241425776254e+03 6.2722473074661903e+03 2.0184446621963977e+02 4.5567371732836449e+01 2.0184446621963974e+02 5.7218058234648061e+03  7.8976844445602756e+03 -4.9776485347965171e+01 4.6501806061117961e+01 -4.9776485347964659e+01 7.5238468487479340e+03 2.0765462835755909e+02 4.6501806061117961e+01 2.0765462835755912e+02 6.5501017687966532e+03  3.9519345816644027e+03 6.3534435229156493e+01 2.1377436216074506e+02 6.3534435229156493e+01 6.2931815388775449e+03 5.1131927769789371e+02 2.1377436216074503e+02 5.1131927769789331e+02 5.4384909685968823e+03  4.3167027929426195e+03 5.0270457126529072e+02 6.4530629334157766e+01 5.0270457126529072e+02 6.7969845251991783e+03 3.0637401236224628e+02 6.4530629334157766e+01 3.0637401236224628e+02 5.1284873667437878e+03  5.2989762645187511e+03 6.8570551689425474e+02 8.3940475327288624e+01 6.8570551689425452e+02 6.7049203657398803e+03 2.1655652974069235e+02 8.3940475327288652e+01 2.1655652974069238e+02 5.3410231378749786e+03  6.4563245232470590e+03 4.2923383336194695e+02 8.1438245255951372e+01 4.2923383336194684e+02 6.8251778739610054e+03 1.4685804766689844e+02 8.1438245255951315e+01 1.4685804766689844e+02 5.6353889870538524e+03  7.3948623405979688e+03 -2.5985262643479814e+01 2.6723190842327590e+01 -2.5985262643479910e+01 7.8796745720880181e+03 6.1562685495263487e+01 2.6723190842327572e+01 6.1562685495263473e+01 6.0907604058462466e+03  4.1848600144945840e+03 9.6127509794483657e+01 1.8098472323952899e+02 9.6127509794483657e+01 5.8060789048378556e+03 5.6423194104760921e+02 1.8098472323952896e+02 5.6423194104760910e+02 5.1579476435373053e+03  4.6418582700436127e+03 6.0543907945923671e+01 7.4321137614053626e+01 6.0543907945923671e+01 6.2526774142725008e+03 3.4063935768178777e+02 7.4321137614053612e+01 3.4063935768178766e+02 4.9487771195681926e+03  5.4240777990558981e+03 1.0348052067402173e+02 9.6377430655954996e+01 1.0348052067402161e+02 6.5530006623727122e+03 2.2544358350690541e+02 9.6377430655954953e+01 2.2544358350690533e+02 5.2214988839037060e+03  6.2555830255680366e+03 1.6948709066194667e+01 7.8770087974329400e+01 1.6948709066194681e+01 6.8410401721723974e+03 1.2502694902128235e+02 7.8770087974329414e+01 1.2502694902128235e+02 5.4428742663487255e+03  6.8954294834651946e+03 -3.3426107177768387e+01 3.1501701119659749e+00 -3.3426107177768387e+01 7.4350085737604068e+03 -9.5379700480535075e+00 3.1501701119659717e+00 -9.5379700480534702e+00 5.5965315128372395e+03  4.5930758057000448e+03 -4.9746223499853535e+01 1.0453932466331842e+02 -4.9746223499853542e+01 5.6395631618025618e+03 5.0329286482505762e+02 1.0453932466331847e+02 5.0329286482505745e+02 5.0104246259028096e+03  5.0788785312721957e+03 -1.2575823413714407e+02 6.6616616660679441e+01 -1.2575823413714407e+02 6.0757455809091207e+03 3.1568030188118809e+02 6.6616616660679426e+01 3.1568030188118809e+02 4.8928697783830094e+03  5.6987714052951687e+03 -1.1848800734589314e+02 9.6259718867999538e+01 -1.1848800734589317e+02 6.4568359921956353e+03 2.2904860816557641e+02 9.6259718867999510e+01 2.2904860816557638e+02 5.1766004731728735e+03  6.2525226404802443e+03 -1.1973052193578698e+02 7.5697009208106223e+01 -1.1973052193578698e+02 6.7332337174133936e+03 1.5241447687630338e+02 7.5697009208106209e+01 1.5241447687630341e+02 5.3497887315905054e+03  6.6794103682852065e+03 -3.1974078946598148e+01 -1.0912506976342925e+01 -3.1974078946598141e+01 6.8988627088106505e+03 3.6669370669239413e+01 -1.0912506976342929e+01 3.6669370669239449e+01 5.3177965404749903e+03  5.2389416936918942e+03 6.0494241782642497e+01 9.8954021841423213e+01 6.0494241782642504e+01 5.9315435722546235e+03 2.7753231332008119e+02 9.8954021841423156e+01 2.7753231332008130e+02 5.0038485391936865e+03  5.7965838397043062e+03 -3.5358652578360420e+01 7.0324744796049785e+01 -3.5358652578360399e+01 6.1113647790930745e+03 2.2252916117767236e+02 7.0324744796049771e+01 2.2252916117767228e+02 4.8828984376563985e+03  6.1956282125541675e+03 -2.1780270212471983e+01 1.1448314240424830e+02 -2.1780270212471976e+01 6.5290363006065854e+03 2.1967801183283595e+02 1.1448314240424830e+02 2.1967801183283598e+02 5.2548543576405609e+03  6.4604883546040246e+03 -1.0687668824511311e+01 1.1031944158017832e+02 -1.0687668824511327e+01 6.7071504211416332e+03 2.1905070741071370e+02 1.1031944158017829e+02 2.1905070741071367e+02 5.4194542784503064e+03  6.7446677550543573e+03 2.1414262379352451e+01 1.1191123646737868e+01 2.1414262379352458e+01 6.6921226927466741e+03 1.9766628631270137e+02 1.1191123646737866e+01 1.9766628631270140e+02 5.3622866211027167e+03  1.7001063873999363e+04 1.0592673890962324e+04 1.3661668639902999e+02 1.0592673890962325e+04 3.2023429874680129e+04 1.0544174197193277e+03 1.3661668639902996e+02 1.0544174197193274e+03 1.9419257368984599e+04  4.6485171987136719e+03 5.2201274218419021e+03 7.9461415386060438e+01 5.2201274218418994e+03 7.7967290317334073e+03 4.9849444815192498e+02 7.9461415386060438e+01 4.9849444815192476e+02 4.9670082981010901e+03  1.1450860188699035e+03 3.9685213545244947e+03 -8.9406402781007401e+01 3.9685213545244924e+03 9.1445878774146843e+02 -2.0696374604888985e+02 -8.9406402781007444e+01 -2.0696374604888999e+02 8.2634807754057783e+02  -2.1496863387071999e+03 4.1363892268560221e+03 -2.4168465182082298e+02 4.1363892268560221e+03 -4.0457472294944323e+03 -8.7449285402181829e+02 -2.4168465182082301e+02 -8.7449285402181829e+02 -2.3964179181805780e+03  -1.8694953454099996e+04 8.4583549748693185e+03 2.2429928403892859e+02 8.4583549748693204e+03 -2.7618794516429210e+04 -1.95602