<?xml version="1.0"?>
<VTKFile type="UnstructuredGrid"  version="0.1"  >
<UnstructuredGrid>
<Piece  NumberOfPoints="405" NumberOfCells="1536">
<Points>
<DataArray  type="Float64"  NumberOfComponents="3"  format="ascii">0.45 0 -0.2  0.475 0 -0.2  0.5 0 -0.2  0.525 0 -0.2  0.55 0 -0.2  0.452974460927723 0.02813022081136385 -0.1980967811826471  0.4767041358167627 0.02648375001092972 -0.1989455242119576  0.5010277249489239 0.02526405687935994 -0.1999405768065769  0.5258665558029715 0.02390948144073911 -0.2010869214374487  0.5512499211571878 0.02181788947913467 -0.2022259118581342  0.4562417921484207 0.05534386974073187 -0.197827817631549  0.4799172166740647 0.05260244595091999 -0.1988361426815581  0.5041058739793041 0.05028429328726165 -0.1999879853816376  0.528782031817782 0.0478514030450814 -0.2012401677343649  0.553795343647017 0.04459204195374397 -0.2025330169342566  0.460646004208466 0.08169143427859631 -0.1980068822172976  0.4842706104957312 0.07804718043187885 -0.1989756007683268  0.5083927412159063 0.07483596022659907 -0.200040329599051  0.5328934840000061 0.07150391611380896 -0.2011565891570839  0.5575428708811935 0.06735981858414966 -0.2022857099435536  0.4658183399035034 0.1071930602633906 -0.1983693136034288  0.4894069355962395 0.1028574852302413 -0.1991962572710525  0.5134551415488182 0.09895554558117324 -0.2000847346408312  0.5377812357697632 0.09493642439856957 -0.2009925919570486  0.5621233719465124 0.09019056015075276 -0.2018919571930175  0.4713739661157423 0.1319993876967603 -0.1987765694241693  0.4949864682638913 0.1271961437231159 -0.199433833274012  0.5189636163605594 0.1227908743942383 -0.2001267391303657  0.5431330031086378 0.1182901205336963 -0.2008227078362795  0.5672469584529611 0.1131994129595598 -0.2015011515804814  0.477029901719297 0.1562967723502276 -0.1991518230837586  0.5007069899891546 0.1512341430392423 -0.1996530115877501  0.524637731618797 0.1464982157284768 -0.2001715083290076  0.5486846652566967 0.1416966057967704 -0.2006865567629261  0.5726533014103222 0.1364696389033895 -0.2011872151239715  0.482563523267974 0.1802884529389557 -0.1994471170108797  0.506330341906264 0.1751278351775174 -0.1998401251236826  0.5302431745280075 0.1702087861563497 -0.2002209508008073  0.5542073650589119 0.1652560789666692 -0.2005981605250449  0.578096689994183 0.1600348165006828 -0.2009876537076761  0.4878727321339139 0.2041516018514812 -0.1996612488194527  0.5116404727791967 0.1990122743061405 -0.2000060284349342  0.5355322556703774 0.1940417748098445 -0.2002661519565188  0.5595075644084148 0.1890241818335581 -0.2005272290310086  0.5834083937805777 0.1838225221322272 -0.2008845268149686  0.45 0 -0.175  0.475 0 -0.175  0.5 0 -0.175  0.525 0 -0.175  0.55 0 -0.175  0.4534870260334174 0.02781113833396644 -0.173887223068686  0.4772685904079148 0.02624189726411073 -0.1743793036237531  0.5016578322294983 0.02517917039429186 -0.1749892405833623  0.5266157174464219 0.02407433884739517 -0.1756703139720958  0.5523384051758728 0.02208005524822108 -0.1763544797621879  0.4569711574708458 0.05507120867230729 -0.1735489747037654  0.4806916453505075 0.05235484597476648 -0.1742340176843196  0.504946676393628 0.05006572402641034 -0.1750447819836939  0.5297099391209719 0.04765733649039802 -0.1759078572196469  0.5549067498906444 0.04435420450712561 -0.1767372809053104  0.4614131513810003 0.08146153890348712 -0.173590026697213  0.4850837522606899 0.0778094644762151 -0.1742910676346506  0.5092296731478757 0.0745338287417085 -0.1750827186777055  0.5337528034242091 0.07111193539939852 -0.1759049872565542  0.5584673832754132 0.06690999724130926 -0.1767084391170083  0.466530646221766 0.1070078749458257 -0.1737915706059573  0.4901558912492332 0.1026453849620311 -0.1744274965557834  0.5141927638991221 0.09863937339623473 -0.1751129579956729  0.5384951161657167 0.09450103780304731 -0.1758136460511169  0.5628421121037167 0.08971522396020704 -0.1765065406002312  0.4719840920276155 0.1318580896018465 -0.1740461955791528  0.4956233321362615 0.1270212476697681 -0.1745876754970693  0.5195725207046969 0.1225061483018275 -0.1751453451881642  0.5436985361897602 0.1178919544015731 -0.1757087713785254  0.5677884119864446 0.1127769222792182 -0.1762730900861713  0.4775312554291989 0.1561932478797814 -0.1742922898152691  0.5012275382564693 0.1510950954918548 -0.1747429457475266  0.5251260993752027 0.1462609372623209 -0.1751845127163081  0.5491286994183838 0.1413633234671993 -0.1756269142956324  0.5730627507557352 0.1361176463927198 -0.1760813827343919  0.482989216025002 0.180207758213782 -0.1744938289636009  0.5067609945077201 0.1750164774822764 -0.1748791733389507  0.5306387761888522 0.1700137764625523 -0.1752301211627889  0.5545687759588791 0.1649767470316772 -0.1755800677179104  0.5784309932711208 0.1597300581466085 -0.1759625184774948  0.488276683883868 0.2040887741684081 -0.1746490557490557  0.5120601752554125 0.1989174051795775 -0.1749957425098068  0.5359091201467719 0.1938554890377742 -0.1752741191458611  0.5598423865396812 0.1887502054711174 -0.1755551150681651  0.5837280797376014 0.1835194026143487 -0.1759030595968254  0.45 0 -0.15  0.475 0 -0.15  0.5 0 -0.15  0.525 0 -0.15  0.55 0 -0.15  0.4538323827372087 0.02778677185501782 -0.1494031928883828  0.4775066578824884 0.02617322322914425 -0.1496723593377003  0.5018763192621438 0.02514606151445443 -0.1500045411982172  0.5268860531881301 0.02406834039582846 -0.1503728429669602  0.5527517547010879 0.02191773233488148 -0.1507420108596199  0.4574470259003922 0.05494473962980849 -0.1491329676413174  0.4811041691681771 0.05222711861682688 -0.1495415809937641  0.5053628993564234 0.04997470026968419 -0.1500412429960598  0.5302021186927911 0.04758354081247917 -0.1505691380424086  0.5555244137690791 0.04418756759226892 -0.1510618795036822  0.4619342333505514 0.08128187691631901 -0.1491031957543982  0.48557898184204 0.07764483503433627 -0.1495587973943538  0.5097358086842652 0.07438249495818576 -0.1500820078092329  0.5343102402551547 0.07095584964372889 -0.1506250313469676  0.5591071779157913 0.06673638217142056 -0.1511458610172138  0.4670398309966278 0.1068044867416436 -0.1491928187082563  0.4906633626952872 0.1024631268187264 -0.1496383653330328  0.5147041453999296 0.09845005146161509 -0.1501185037105865  0.5390271293568364 0.09429589955991433 -0.1506108594532983  0.56341730945632 0.08953113200152196 -0.151096028684433  0.4724513623276265 0.1316571718745969 -0.1493305885278598  0.496100504406141 0.1268392397403125 -0.1497403303761717  0.5200457808003891 0.1223050331974097 -0.1501551511983139  0.5441701106521437 0.1176710389924284 -0.1505763543266126  0.5682742133366755 0.1125885612373193 -0.1510033819495956  0.4779539984638186 0.1560134007173516 -0.1494742109970295  0.5016620219763257 0.1509239944268971 -0.1498441599327115  0.5255513577282225 0.14606281781757 -0.1501958229465397  0.5495391839198056 0.141141794276909 -0.1505496171616913  0.5734665027420568 0.1359214279808771 -0.1509217762376549  0.4833907247373726 0.1800600267586597 -0.149598827893543  0.5071686470765211 0.1748575433869445 -0.1499402387600219  0.5310330378882014 0.1698187414835583 -0.1502406108981691  0.5549403645922497 0.1647512344997661 -0.1505406306516963  0.5787804818079232 0.1595100895774244 -0.150875055389341  0.4886989487872887 0.2039701061949397 -0.1497075625115121  0.5124863449104857 0.1987612835861067 -0.1500287572641064  0.5363209104826059 0.1936489979235356 -0.1502859312966597  0.5602176553080861 0.1885039072875839 -0.1505457826550994  0.5840609073253239 0.1832610486678899 -0.1508596342074191  0.45 0 -0.125  0.475 0 -0.125  0.5 0 -0.125  0.525 0 -0.125  0.55 0 -0.125  0.4539997140148307 0.02780680625771129 -0.1247175605375571  0.4776188029019063 0.02616179406154051 -0.1248450738506545  0.5019756105654253 0.02513401800142691 -0.1250060754814272  0.5270079356251353 0.02405292171671137 -0.1251888480955856  0.5529322387803994 0.02180502045593462 -0.1253804331107881  0.4577135090876051 0.05490864702559462 -0.1245683532772735  0.48132411115885 0.05217629115574592 -0.1247748313099652  0.5055800831722054 0.04993368734048068 -0.1250335722653423  0.5304555773866215 0.04753659870677348 -0.1253076125506251  0.5558266954504388 0.04406070257027069 -0.1255604613325631  0.4622519322888074 0.08118898478668866 -0.1245311047899314  0.48587150804788 0.07755277901569609 -0.1247803572844382  0.51003232766011 0.07430069432359017 -0.1250702018463823  0.5346362919472789 0.07087112577018526 -0.1253710163531321  0.5594671011193971 0.06661941796275757 -0.12565899381867  0.4673747803597476 0.1066737399383705 -0.1245600016751228  0.4909894195000603 0.1023399892224506 -0.124824540001317  0.5150335533550867 0.09833281029205576 -0.1251102665568294  0.5393720265269302 0.09417849427792183 -0.1254034872314938  0.5637808363695429 0.08941343287332036 -0.1256941361646415  0.4727834542494669 0.1315084282359786 -0.1246207548721005  0.4964327572720282 0.1266981926719423 -0.1248858630098293  0.520377194186644 0.1221637516669438 -0.1251529556454667  0.5445039137543666 0.1175290302104858 -0.1254243668148215  0.5686126246279392 0.112459025740719 -0.1257020838237022  0.4782789842020083 0.1558635865297683 -0.124691837180766  0.5019895289966063 0.150775294003286 -0.1249523776517793  0.5258734602097409 0.1459064548727378 -0.1251983099484554  0.5498535833863289 0.1409802693636158 -0.1254456237053257  0.5737731479977423 0.1357710737953783 -0.1257077242545129  0.4837193229229259 0.1799197476293811 -0.1247612318416353  0.5074976205037487 0.1747055674663875 -0.1250190948039422  0.5313520756527987 0.169650135798735 -0.1252450811324896  0.5552436328307688 0.1645701147561806 -0.12547033983259  0.5790646558304127 0.1593305715204507 -0.1257212467029695  0.4890501412015268 0.2038404045067687 -0.1248381561465428  0.5128349625354629 0.1986041403008908 -0.1250881507379693  0.5366558284467949 0.1934649309490152 -0.1252907570531588  0.5605277292834353 0.1882987822583085 -0.1254946435910054  0.5843388418058763 0.1830462501760433 -0.1257375989171055  0.45 0 -0.1  0.475 0 -0.1  0.
[...]
<PointData  Tensors="Piola Kirchhoff sec Stress"> 
<DataArray  type="Float64"  Name="Piola Kirchhoff sec Stress"  NumberOfComponents="9" format="ascii">1.8601740906548559e+04 7.8889388563031316e+03 1.6179228861049044e+03 7.8889388563031280e+03 3.8165819398727013e+04 7.3413591831332815e+03 1.6179228861049046e+03 7.3413591831332842e+03 1.9747772953463907e+04  8.0225493968392066e+03 2.0062901278444199e+03 1.4978841151830588e+02 2.0062901278444185e+03 1.5879241087699136e+04 4.1275757912441268e+03 1.4978841151830594e+02 4.1275757912441268e+03 7.4568874552563548e+03  8.1821934449448054e+02 -1.2098332345662190e+02 -1.5216901009137058e+02 -1.2098332345662112e+02 2.4610681315291035e+03 -1.3278527945275491e+02 -1.5216901009137038e+02 -1.3278527945275519e+02 1.0576831833552885e+03  -6.0306092403105577e+03 -8.0922643979263341e+01 -3.4402534263129417e+02 -8.0922643979263682e+01 -1.0504657870379140e+04 -4.4458077089206854e+03 -3.4402534263129428e+02 -4.4458077089206845e+03 -2.8551128958366248e+03  -2.5772396858745440e+04 6.5189677726787695e+03 2.1293387857550647e+03 6.5189677726787704e+03 -4.1728309805729768e+04 -9.2138465593668461e+03 2.1293387857550642e+03 -9.2138465593668479e+03 -1.5246545572526666e+04  2.1112719126291795e+03 2.4658371433287762e+03 5.2284451131804781e+02 2.4658371433287780e+03 2.4364546100453412e+04 8.5146154620788036e+02 5.2284451131804769e+02 8.5146154620788047e+02 4.4189413747451399e+03  8.2408795814422945e+02 3.9792529180904194e+03 -1.5186782631623778e+01 3.9792529180904194e+03 1.3380295988904865e+04 -2.9716595615635521e+02 -1.5186782631623874e+01 -2.9716595615635464e+02 2.8169324024103971e+03  1.5287692920917359e+03 3.4206923872391967e+03 -4.1721323047547736e+02 3.4206923872391976e+03 3.9168262826604259e+03 -1.6042264037924681e+02 -4.1721323047547713e+02 -1.6042264037924693e+02 2.1786403488171604e+03  3.2931669529026026e+03 1.8651741220878614e+03 -5.3392749603609923e+02 1.8651741220878619e+03 -4.2296593626814156e+03 7.7048822710119498e+02 -5.3392749603609934e+02 7.7048822710119509e+02 2.9871953672553495e+03  6.3975832772862486e+03 -2.8674847177028378e+03 -4.0903015643194749e+01 -2.8674847177028382e+03 -1.0727207603619416e+04 1.8153099253595112e+03 -4.0903015643194685e+01 1.8153099253595105e+03 4.9948491624033804e+03  6.3418012725092940e+03 3.8462221845378076e+03 2.8415387300998276e+02 3.8462221845378053e+03 2.4110662637193440e+04 1.8169181044002400e+02 2.8415387300998282e+02 1.8169181044002394e+02 6.8760560206161881e+03  5.2597084562371820e+03 4.8403623873393299e+03 7.3837302870035529e+01 4.8403623873393281e+03 1.4320344360117953e+04 1.6917333115705127e+01 7.3837302870035487e+01 1.6917333115705137e+01 5.1929896920539541e+03  6.0459006172674344e+03 4.6039615496528886e+03 -7.6436870012348734e+01 4.6039615496528895e+03 6.1222750789461388e+03 7.0941722355098037e+01 -7.6436870012348791e+01 7.0941722355098022e+01 4.8048314138546730e+03  7.2494579055256499e+03 2.3276728032546221e+03 -4.6611671128477717e+01 2.3276728032546221e+03 -1.0269243439384086e+03 3.5334223523911783e+02 -4.6611671128477795e+01 3.5334223523911760e+02 5.2666445993951911e+03  8.6549874219140565e+03 -3.3288105880887256e+03 2.5853713315796693e+02 -3.3288105880887256e+03 -5.2310334905680602e+03 7.6267075852103005e+02 2.5853713315796682e+02 7.6267075852103005e+02 7.5315975305927323e+03  1.0920334661522018e+04 3.9190999337644180e+03 9.4685496178954224e+01 3.9190999337644180e+03 2.3907019096470587e+04 5.2384858825412095e+01 9.4685496178954125e+01 5.2384858825412039e+01 9.7887886089435888e+03  1.0120131652614293e+04 4.9884364854642563e+03 5.9008676557890951e+01 4.9884364854642608e+03 1.5136257392828391e+04 1.1108814328404374e+02 5.9008676557890922e+01 1.1108814328404372e+02 8.0982201408157543e+03  1.0816585158988528e+04 4.5926662735859563e+03 7.8233000166123418e+01 4.5926662735859582e+03 8.3919220303636157e+03 1.5732268056146233e+02 7.8233000166123389e+01 1.5732268056146239e+02 7.7675542826053461e+03  1.1675312020717078e+04 2.1634282944005849e+03 1.9448123461890142e+02 2.1634282944005845e+03 3.2528714339182798e+03 2.0365642273021587e+02 1.9448123461890142e+02 2.0365642273021601e+02 8.2670305611456442e+03  1.2582197633955344e+04 -2.9393593165997745e+03 4.2335816232312294e+02 -2.9393593165997745e+03 1.9918019670244591e+03 5.8976426373672541e+02 4.2335816232312288e+02 5.8976426373672541e+02 1.0462947456320830e+04  1.5011672810083506e+04 3.4817220193457952e+03 -3.8946921661701985e+01 3.4817220193457929e+03 2.3834257148766821e+04 1.2425597151432244e+01 -3.8946921661702007e+01 1.2425597151432230e+01 1.2650591545767638e+04  1.4359062682330898e+04 4.5954896175629228e+03 3.5921308689997041e+01 4.5954896175629219e+03 1.6290027084742078e+04 1.3809527469758834e+02 3.5921308689997026e+01 1.3809527469758828e+02 1.0836919707676041e+04  1.4851126440468146e+04 4.1198267309881494e+03 1.3896575380836231e+02 4.1198267309881512e+03 1.1007353919488116e+04 1.6185085507824178e+02 1.3896575380836231e+02 1.6185085507824166e+02 1.0484221413075293e+04  1.5477514755161785e+04 1.8960497606676836e+03 2.7398492912368704e+02 1.8960497606676836e+03 7.7680947773424723e+03 1.4228908965756304e+02 2.7398492912368704e+02 1.4228908965756295e+02 1.1036249679748364e+04  1.6169092761279380e+04 -2.2031918217307784e+03 5.1271673998993765e+02 -2.2031918217307780e+03 8.6689799864014385e+03 5.2890109654652440e+02 5.1271673998993776e+02 5.2890109654652440e+02 1.3152742237646014e+04  1.7530814690424188e+04 2.4086190003833894e+03 -1.0165486338024115e+02 2.4086190003833899e+03 2.2806430387083041e+04 3.9973503278299205e+01 -1.0165486338024114e+02 3.9973503278299205e+01 1.4340639021565970e+04  1.7108257896744093e+04 3.7379942232639141e+03 2.3691009458615703e+01 3.7379942232639141e+03 1.7206631012135284e+04 1.3121731005279318e+02 2.3691009458615689e+01 1.3121731005279321e+02 1.2796965856829593e+04  1.7456540499113184e+04 3.3967844021318024e+03 1.4684228785098466e+02 3.3967844021318024e+03 1.3384168306931855e+04 1.2780512799506221e+02 1.4684228785098466e+02 1.2780512799506232e+02 1.2457705845003617e+04  1.7945969894205176e+04 1.6145942486978245e+03 2.7078414999203881e+02 1.6145942486978245e+03 1.1669483244043829e+04 9.5566986087315115e+01 2.7078414999203881e+02 9.5566986087314987e+01 1.3002794682818394e+04  1.8487500268255557e+04 -1.3098952798603987e+03 4.7875231389966734e+02 -1.3098952798603989e+03 1.3696634139856364e+04 4.1055835906582467e+02 4.7875231389966717e+02 4.1055835906582445e+02 1.4838423544342473e+04  1.8483576177884275e+04 1.4672434973848624e+03 -1.3162431556400961e+02 1.4672434973848619e+03 2.1018113142737730e+04 2.8390396667052112e+01 -1.3162431556400963e+02 2.8390396667052112e+01 1.4950968259660929e+04  1.8186568763980653e+04 2.7044546098970936e+03 4.0619334684227066e+00 2.7044546098970936e+03 1.7403708708684924e+04 9.0783651869650356e+01 4.0619334684227812e+00 9.0783651869650342e+01 1.3719255611129080e+04  1.8360429272542173e+04 2.5439551433044894e+03 1.2522199100784172e+02 2.5439551433044890e+03 1.4964239498113537e+04 6.9182200225233530e+01 1.2522199100784167e+02 6.9182200225233544e+01 1.3405922153669440e+04  1.8740074144861675e+04 1.2707018694867675e+03 2.2000241720049141e+02 1.2707018694867672e+03 1.4361924909646634e+04 4.4229295635742325e+01 2.2000241720049141e+02 4.4229295635742353e+01 1.3883499746214526e+04  1.9162884670604413e+04 -5.1247721352842586e+02 3.5432853740269917e+02 -5.1247721352842586e+02 1.6679323067690733e+04 2.7158542627937970e+02 3.5432853740269934e+02 2.7158542627937982e+02 1.5262521326278837e+04  1.7705496014370037e+04 4.4440670461681788e+02 -1.1190592507016049e+02 4.4440670461681788e+02 1.8518991887403019e+04 1.1481140816873480e+02 -1.1190592507016059e+02 1.1481140816873477e+02 1.4308604536718014e+04  1.7568649628351966e+04 1.5318863954944011e+03 -2.5516749299120438e+01 1.5318863954944011e+03 1.6767843436112671e+04 6.8024481328818254e+01 -2.5516749299120473e+01 6.8024481328818254e+01 1.3567782301682699e+04  1.7637392181227799e+04 1.6317950530398202e+03 8.7495356986986394e+01 1.6317950530398202e+03 1.5521782329388599e+04 2.4922914835618144e+00 8.7495356986986394e+01 2.4922914835618148e+00 1.3294871626003269e+04  1.7971380725091796e+04 8.1230297916516247e+02 1.6205786664549566e+02 8.1230297916516258e+02 1.5805144202578387e+04 -1.2953562050004845e+01 1.6205786664549586e+02 -1.2953562050004845e+01 1.3747632548296042e+04  1.8279791229985080e+04 -1.0279400017113329e+02 2.0791142839240138e+02 -1.0279400017113329e+02 1.7604001809521425e+04 7.1519786071328980e+01 2.0791142839240140e+02 7.1519786071328937e+01 1.4614615208201127e+04  1.6437282909968177e+04 4.2249069963675836e+01 -6.8115434739016621e+01 4.2249069963675900e+01 1.7160339457813625e+04 1.6057346781256473e+02 -6.8115434739016649e+01 1.6057346781256473e+02 1.3770857601635576e+04  1.5307955530630732e+04 4.1198548288718717e+02 1.2622604936778197e+02 4.1198548288718723e+02 1.5719636373485753e+04 1.8156478478614119e+01 1.2622604936778190e+02 1.8156478478614112e+01 1.2637864760781800e+04  1.5485789196565440e+04 3.2198576778186890e+02 2.5490906346489379e+02 3.2198576778186879e+02 1.5023150525476418e+04 -1.0533637568287251e+02 2.5490906346489388e+02 -1.0533637568287254e+02 1.2175636484903287e+04  1.6799019090238737e+04 3.7935885446362150e+00 2.2619992449740246e+02 3.7935885446359432e+00 1.6085706527745520e+04 -4.1828296373999279e+01 2.2619992449740258e+02 -4.1828296373999272e+01 1.2971681320248881e+04  1.7349965097602802e+04 -1.5599659761323835e+02 1.4810283755428878e+02 -1.5599659761323838e+02 1.7499213922981420e+04 6.4617080689645036e+01 1.4810283755428893e+02 6.4617080689645036e+01 1.3856176242924239e+04  1.9148397660635343e+04 1.0304174056096244e+04 7.0264505595573235e+02 1.0304174056096248e+04 3.6284908008039565e+04 3.8762167619301999e+03 7.0264505595573235e+02 3.8762167619301999e+03 2.1532085025793371e+04  6.5856307795057191e+03 4.0785443870790291e+03 1.9347125104681729e+02 4.0785443870790268e+03 1.2643829146675518e+04 2.2027653606840222e+03 1.9347125104681734e+02 2.2027653606840222e+03 7.0782168508042841e+03  6.0286629023014109e+02 2.0137621423479568e+03 -1.3932140617070246e+02 2.0137621423479575e+03 1.7738384063670087e+03 -6.2044095302985603e+01 -1.3932140617070249e+02 -6.2044095302985582e+01 7.4959904558920095e+02  -5.2500008064022959e+03 2.3934506604016733e+03 -3.6641298671594569e+02 2.3934506604016742e+03 -7.6608589572242827e+03 -2.2919418415027294e+03 -3.6641298671594564e+02 -2.2919418415027299e+03 -4.5482714901281042e+03  -2.9137670385272479e+04 9.7964023956745241e+03 2.8335952551621045e+02 9.7964023956745241e+03 -4.2829149641950113e+04 -5.2253058628617755e+03 2.8335952551621045e+02 -5.2253058628617755e+03 -2.5573182857371350e+04  3.4790201467617826e+03 2.6773730709593001e+03 4.4452426538215673e+02 2.6773730709592996e+03 2.5364057915351703e+04 1.7935291838344015e+03 4.4452426538215684e+02 1.7935291838344010e+03 6.1314080310221680e+03  2.0204168211515998e+03 5.5693532209236564e+03 -4.5020098816630548e+02 5.5693532209236573e+03 1.5811770112024074e+04 7.8704992823494922e+02 -4.5020098816630559e+02 7.8704992823494922e+02 3.8275380379586909e+03  1.3193010388258438e+03 5.1830949788850567e+03 -9.9980230217737062e+02 5.1830949788850530e+03 3.4596982527937312e+03 -2.3271721254671345e+01 -9.9980230217737062e+02 -2.3271721254671625e+01 1.7114323798497203e+03  2.0015249064881709e+03 3.6541460868230365e+03 -1.0344009434079421e+03 3.6541460868230365e+03 -8.3714272900850410e+03 -8.7201432170683324e+02 -1.0344009434079423e+03 -8.7201432170683336e+02 7.8493797906234192e+02  8.5601907023110616e+03 -2.1117918978370744e+03 -1.0900524437049864e+03 -2.1117918978370740e+03 -1.8600722336882049e+04 -2.2294950685719932e+03 -1.0900524437049867e+03 -2.2294950685719941e+03 3.4071629403941670e+03  6.9698008174933411e+03 3.9918902741278039e+03 1.7920186624904062e+02 3.9918902741278034e+03 2.5048777436152792e+04 4.5527691900609926e+02 1.7920186624904059e+02 4.5527691900609921e+02 7.6326489874221916e+03  5.4349476415851832e+03 5.1153370232753714e+03 -5.3597465084513635e+02 5.1153370232753696e+03 1.4543356810687859e+04 1.5991384840094778e+02 -5.3597465084513613e+02 1.5991384840094798e+02 5.3421145686123418e+03  5.5512456724574122e+03 4.9551368048283330e+03 -8.5110468201378637e+02 4.9551368048283330e+03 5.0310712800635893e+03 1.7080493021498791e+02 -8.5110468201378637e+02 1.7080493021498805e+02 4.4346358764547922e+03  6.4578580024714665e+03 2.3588546437297814e+03 -6.6616872915759927e+02 2.3588546437297809e+03 -3.7996803851235823e+03 2.9177969305146729e+02 -6.6616872915759916e+02 2.9177969305146723e+02 4.5295203017545546e+03  8.7448983733502882e+03 -3.5909510495944751e+03 -1.4867618595717175e+02 -3.5909510495944751e+03 -8.6850176391969508e+03 2.1551682917281963e+02 -1.4867618595717184e+02 2.1551682917281963e+02 6.9761593627321818e+03  1.0894203035348684e+04 3.7954004195643192e+03 2.0718017835961380e+01 3.7954004195643192e+03 2.4015070815028859e+04 -2.9539315977198683e+01 2.0718017835961383e+01 -2.9539315977198665e+01 9.7295687412845618e+03  9.7756879497130576e+03 4.7063063841796638e+03 -3.3100627725650691e+02 4.7063063841796647e+03 1.5111580752702332e+04 1.0144974425566589e+02 -3.3100627725650691e+02 1.0144974425566583e+02 7.8541657330776534e+03  9.9535144794459557e+03 4.1995723272020105e+03 -4.0719980141307599e+02 4.1995723272020086e+03 7.6145521599768326e+03 3.0496578407470713e+02 -4.0719980141307599e+02 3.0496578407470713e+02 7.2550716151143915e+03  1.0617433981753025e+04 1.5983659488110077e+03 -1.5820459277854656e+02 1.5983659488110077e+03 1.8730010705899165e+03 5.8184355784140223e+02 -1.5820459277854647e+02 5.8184355784140246e+02 7.6559870220618459e+03  1.1723580815031222e+04 -3.4595449110134737e+03 3.1332734965526305e+02 -3.4595449110134737e+03 -2.3944712475958884e+01 9.1729147337665472e+02 3.1332734965526299e+02 9.1729147337665495e+02 9.8567412338928898e+03  1.4519482955489311e+04 3.1798729940211788e+03 -5.1416981021594090e+01 3.1798729940211801e+03 2.3466467743864054e+04 -2.2961380429681759e+02 -5.1416981021594125e+01 -2.2961380429681759e+02 1.2063859856597395e+04  1.3676542643385192e+04 4.0283758262115143e+03 -1.3573515307485573e+02 4.0283758262115134e+03 1.6204057551753765e+04 2.7809907899868360e+01 -1.3573515307485582e+02 2.7809907899868328e+01 1.0378155388380419e+04  1.3851291734089284e+04 3.5010065197055042e+03 -7.9233006834500230e+01 3.5010065197055055e+03 1.0664361182248946e+04 2.6507955406777455e+02 -7.9233006834500245e+01 2.6507955406777461e+02 9.9373587326962843e+03  1.4327022283253151e+04 1.2671193520396391e+03 1.3465632456338793e+02 1.2671193520396389e+03 7.2081905085744374e+03 5.5314382931047248e+02 1.3465632456338813e+02 5.5314382931047226e+02 1.0454454767516107e+04  1.4958664067529835e+04 -2.5904987780634433e+03 4.9048933109547988e+02 -2.5904987780634438e+03 7.3660651883274677e+03 1.0515778855803198e+03 4.9048933109547966e+02 1.0515778855803194e+03 1.2449018508853125e+04  1.6883530579971401e+04 2.1049164681873990e+03 -9.3345725492888263e+01 2.1049164681874008e+03 2.2257484633736345e+04 -2.7736514731549141e+02 -9.3345725492888235e+01 -2.7736514731549141e+02 1.3587060080724581e+04  1.6373332632674292e+04 3.1322794301901354e+03 6.2047011376060524e-01 3.1322794301901354e+03 1.7164982930576065e+04 -2.8411935075878592e+01 6.2047011376065675e-01 -2.8411935075878581e+01 1.2334447985848248e+04  1.6560715268154861e+04 2.7957347938801313e+03 1.1360191448545581e+02 2.7957347938801308e+03 1.3352332008873176e+04 1.6040153773454250e+02 1.1360191448545581e+02 1.6040153773454250e+02 1.2015502234044374e+04  1.6960060669520022e+04 1.1074167089991922e+03 2.6586590379109322e+02 1.1074167089991922e+03 1.1578206054918852e+04 4.0936831305504279e+02 2.6586590379109327e+02 4.0936831305504279e+02 1.2563397717556087e+04  1.7368378941369421e+04 -1.5526009180661322e+03 5.0016659490702096e+02 -1.5526009180661322e+03 1.2921298923367964e+04 8.8988875170047277e+02 5.0016659490702102e+02 8.8988875170047220e+02 1.4261171369423335e+04  1.7929282221062389e+04 1.1914896149106667e+03 -8.1073972704981458e+01 1.1914896149106669e+03 2.0563698362363637e+04 -2.2345756638970013e+02 -8.1073972704981472e+01 -2.2345756638970013e+02 1.4226061446453221e+04  1.7612070115349965e+04 2.1861523907099777e+03 9.0014891001424900e+01 2.1861523907099772e+03 1.7445000102948950e+04 -6.0895766285699004e+01 9.0014891001424886e+01 -6.0895766285699004e+01 1.3366680683157329e+04  1.7770129263727547e+04 2.0582407012753733e+03 2.1983680562158233e+02 2.0582407012753733e+03 1.5164283579220168e+04 4.6030489979656494e+01 2.1983680562158233e+02 4.6030489979656522e+01 1.3173273218308155e+04  1.8113897493954893e+04 9.2001464619388173e+02 3.0146575298081234e+02 9.2001464619388173e+02 1.4548699056924981e+04 2.2508000339448049e+02 3.0146575298081245e+02 2.2508000339448057e+02 1.3679709548983174e+04  1.8432733535005929e+04 -6.5797197688705398e+02 3.9794207324847741e+02 -6.5797197688705387e+02 1.6377398217364278e+04 5.9491603336805258e+02 3.9794207324847747e+02 5.9491603336805258e+02 1.5034293307320188e+04  1.7454170248887352e+04 3.1179791212417604e+02 -3.7393321034886803e+01 3.1179791212417638e+02 1.8359194769149006e+04 -5.5826695633212353e+01 -3.7393321034886711e+01 -5.5826695633212360e+01 1.3827802315858711e+04  1.7249618775935345e+04 1.1893858947664910e+03 1.7691816757283738e+02 1.1893858947664910e+03 1.6961676756099841e+04 -5.9331591881655349e+01 1.7691816757283740e+02 -5.9331591881655342e+01 1.3376204908972491e+04  1.7420037523894036e+04 1.2429297943664214e+03 3.1797691721575916e+02 1.2429297943664217e+03 1.5870118798934478e+04 -5.7507686124134089e+01 3.1797691721575916e+02 -5.7507686124134061e+01 1.3295511850945901e+04  1.7806525443953844e+04 5.6349958054380102e+02 3.2236341132375713e+02 5.6349958054380079e+02 1.6074472273211133e+04 3.9715992642437584e+01 3.2236341132375713e+02 3.9715992642437641e+01 1.3799222269552280e+04  1.8065473399000264e+04 -1.6904721630242565e+02 2.5964852727301928e+02 -1.6904721630242568e+02 1.7658566291015632e+04 2.5024724270301130e+02 2.5964852727301928e+02 2.5024724270301124e+02 1.4725993397757051e+04  1.6508939006715336e+04 -4.2451793736788680e+01 7.1940787500213233e+01 -4.2451793736788900e+01 1.7120799478120793e+04 5.6817169764429316e+01 7.1940787500213261e+01 5.6817169764429288e+01 1.3388937056828881e+04  1.5575407516576755e+04 3.2766045309762632e+02 3.6971143695669804e+02 3.2766045309762632e+02 1.6162588534488954e+04 -7.0158601075166317e+01 3.6971143695669809e+02 -7.0158601075166331e+01 1.2669927281414935e+04  1.5829703544524180e+04 1.8756588659908576e+02 5.6215444473503976e+02 1.8756588659908599e+02 1.5687713820824965e+04 -1.5069334373869071e+02 5.6215444473503987e+02 -1.5069334373869074e+02 1.2598180111948730e+04  1.6946960628499397e+04 -1.4773611928664596e+02 4.6557409965043468e+02 -1.4773611928664604e+02 1.6412793679522387e+04 -8.4931853372530057e+01 4.6557409965043468e+02 -8.4931853372530057e+01 1.3290184815285000e+04  1.7335905619083696e+04 -2.0035415280788982e+02 2.2593848067885779e+02 -2.0035415280788982e+02 1.7496744235548878e+04 6.2625304355170073e+01 2.2593848067885781e+02 6.2625304355170115e+01 1.3969899783975810e+04  2.0808056986093645e+04 1.1523043663520353e+04 3.2912576255520150e+02 1.1523043663520353e+04 3.8399228702430883e+04 2.0224516857506324e+03 3.2912576255520150e+02 2.0224516857506326e+03 2.3322634027703767e+04  6.8337616763234701e+03 4.7377389950388078e+03 1.0582216937158087e+02 4.7377389950388078e+03 1.2591063485233179e+04 1.2175525849337228e+03 1.0582216937158087e+02 1.2175525849337234e+03 7.6531790544825690e+03  5.1898280799179315e+02 2.6144435985875884e+03 -1.2661211693963054e+02 2.6144435985875903e+03 1.4032661801278741e+03 -3.3974602649743950e+01 -1.2661211693963070e+02 -3.3974602649743886e+01 7.2268642667217784e+02  -5.5768973664689756e+03 3.1200022203311755e+03 -3.4145508034296586e+02 3.1200022203311737e+03 -7.9111122337451607e+03 -1.2180197533294520e+03 -3.4145508034296586e+02 -1.2180197533294522e+03 -5.3040818285637033e+03  -3.2842750630253846e+04 1.1418702221826657e+04 4.2120434595129120e+02 1.1418702221826652e+04 -4.7280955569