<?xml version="1.0"?>
<VTKFile type="UnstructuredGrid"  version="0.1"  >
<UnstructuredGrid>
<Piece  NumberOfPoints="405" NumberOfCells="1536">
<Points>
<DataArray  type="Float64"  NumberOfComponents="3"  format="ascii">0.45 0 -0.2  0.475 0 -0.2  0.5 0 -0.2  0.525 0 -0.2  0.55 0 -0.2  0.4529544254205513 0.02821213382295328 -0.1979865488763598  0.4767299173430581 0.02645246729982827 -0.1989142952560772  0.5011767050252411 0.02520295746394231 -0.1999376520710448  0.5261406740419554 0.02388269353054133 -0.2010700230620827  0.5516277404075105 0.02180501149329208 -0.2021766405967636  0.4560687101094019 0.05530267950773634 -0.1977250777192853  0.479949120987963 0.05248511531956176 -0.198807362460519  0.5043628648145032 0.05020348248372013 -0.199985205305651  0.5292712596927756 0.04784266126665166 -0.2012107376303037  0.5545173443979274 0.04466487410645988 -0.2024241378946055  0.4602169675862792 0.08169908289330814 -0.1979268617267235  0.4842237155721529 0.07807051781251705 -0.1989484865100749  0.5086595656551837 0.07496975477968228 -0.2000350583415025  0.5334749996993693 0.0717754688981363 -0.2011352312399798  0.5584941875882024 0.06783627596294964 -0.2022086360374872  0.4649890250183258 0.1075055834004583 -0.1982685754237757  0.4891265015372803 0.1033176289290872 -0.1991485581670868  0.5135736267537135 0.09960009345211875 -0.2000785581517108  0.5382932987462395 0.09579589715994584 -0.2010103844325305  0.5631386600641574 0.0913718540702286 -0.2019140658058386  0.4700182759312446 0.1328717054547615 -0.1985978960779158  0.4943005087306498 0.1283463009591289 -0.1993439894592154  0.5187610728298923 0.1241927454890411 -0.200124350189167  0.5434040127859294 0.1199753524538365 -0.2009037920440088  0.5681271794848237 0.1152863479536708 -0.2016610246331116  0.4750877927571576 0.1579062523804376 -0.1988653621686099  0.4994933000012725 0.1532182079382194 -0.1995119626681801  0.5239832927040207 0.1487902760862668 -0.2001767096941358  0.5485770858558366 0.1443206444748621 -0.200838967495442  0.5732173238846615 0.1395272266354739 -0.2014892260436071  0.4800634083036842 0.182705352820544 -0.1990639000781731  0.5045646655606172 0.1779692009100674 -0.1996549850226537  0.5290897422512048 0.1733963309685274 -0.2002362622585914  0.5536556617565845 0.1687997473453467 -0.200813948649202  0.5782386570661073 0.1640017268470682 -0.2014031505115533  0.4849059056368737 0.207360694012871 -0.1992203864911445  0.5094090934679125 0.2026261964828011 -0.1997918766501114  0.5339426224910171 0.1980009750810925 -0.2002989130237826  0.5585327346099247 0.1933583808749471 -0.2007993130123442  0.5831203099110381 0.1885779367987862 -0.2013671133150224  0.45 0 -0.175  0.475 0 -0.175  0.5 0 -0.175  0.525 0 -0.175  0.55 0 -0.175  0.4535990538232728 0.0279011237082649 -0.1737828107446177  0.4773544236007279 0.02621673082229534 -0.1743231307336008  0.5018270386888434 0.02516296940236052 -0.174958517387871  0.5268701659325535 0.02408398232694615 -0.1756521175281496  0.552621857633084 0.02207394734921594 -0.1763213496788565  0.4569630444822314 0.05517211002903552 -0.1734001395118793  0.4808128017278467 0.05235938952011047 -0.1741556657659471  0.5052447546511343 0.050116266823421 -0.1750075507267625  0.5301942807151009 0.04778523998482283 -0.1758871044455182  0.5555525787543906 0.04456558084362672 -0.1766991750074751  0.4611130828433773 0.0816995512204939 -0.1734191416643387  0.4851215086269025 0.07803311759311399 -0.1742010882245001  0.5095586980417151 0.07486625133594735 -0.1750482736809853  0.5343755506903902 0.07159923905736085 -0.1759042819234623  0.5594159886849659 0.06761368812436469 -0.1767130778546135  0.4657985505345192 0.1075647739330785 -0.1735825029987349  0.4899565694800228 0.1033217493527081 -0.1743180910809262  0.5144019321203669 0.09950447938947493 -0.1750874477309973  0.5391058969189889 0.09560468357307447 -0.1758589517339026  0.563937176081005 0.09114646311606442 -0.1766043054254384  0.4707282344444086 0.1329323491213069 -0.1737707007016422  0.4950370853262359 0.1283580213328354 -0.1744464888845652  0.5194992750468835 0.1241104024743614 -0.1751318223108828  0.5441259189928811 0.119805496400534 -0.1758167580060407  0.5688247007458448 0.1150897601556515 -0.1764928471106715  0.4757243860205651 0.1579459971973927 -0.1739372204244482  0.5001530665633021 0.1532197540833277 -0.1745651883461823  0.5246447121816038 0.1487165080972381 -0.175183400314202  0.5492272472447884 0.1441757008508401 -0.1757995850950689  0.5738450205640167 0.1393574303098277 -0.176422972318161  0.480664809914259 0.1827226232276291 -0.1740733332613748  0.5051762136555997 0.1779594673602859 -0.1746732469144718  0.5296974372311385 0.1733259592962753 -0.1752411018181614  0.5542593147796412 0.1686680993326238 -0.1758054931564574  0.5788323344723447 0.1638420339417803 -0.1763990991473177  0.4854936296780535 0.2073750577174003 -0.1741999414405551  0.5100198211353921 0.2026198346236969 -0.1747804341123025  0.5345458443658974 0.1979288432240691 -0.1752994091316786  0.5591282202319144 0.1932192203886295 -0.1758140414167913  0.5837141710129548 0.188410111534578 -0.1763873534797792  0.45 0 -0.15  0.475 0 -0.15  0.5 0 -0.15  0.525 0 -0.15  0.55 0 -0.15  0.4540127441642596 0.02793596122159562 -0.1492918837622251  0.4776304064822586 0.0261724382712073 -0.149610892108618  0.5020611582485703 0.02515157767164816 -0.1499789965016836  0.5271378473660974 0.02409944144575155 -0.1503803806191972  0.5530262919271735 0.02196016210915857 -0.1507595579360639  0.4575542549290884 0.05514431361989033 -0.1489540184435972  0.4813030996615863 0.05230007371610095 -0.1494434550250806  0.505704741715129 0.05008655703808738 -0.1500087402523223  0.5307011038714821 0.0477735512712803 -0.1505932600182923  0.556163792129904 0.04447696254058776 -0.1511169985424285  0.4617815698441226 0.08165398084119714 -0.1488675874748865  0.4857266623182643 0.07797806896315039 -0.1494326410072804  0.5101440001175837 0.07481354421054277 -0.1500496321771243  0.5349851421211423 0.07153821628267566 -0.1506765453293844  0.5600766248939938 0.06752805801511527 -0.1512593752330126  0.4664822093206383 0.1075169794420792 -0.1488971319502526  0.4906032840368756 0.1032726921607418 -0.1494833323430676  0.5150326229152514 0.09943595985520398 -0.1500921815490688  0.5397400045108808 0.09551125175273431 -0.1507056727054637  0.5645838127236409 0.09104814689483366 -0.1512970510809206  0.4713986140961101 0.1328877322984644 -0.1489660477446243  0.4956860857031045 0.1283114026969567 -0.14955318580003  0.5201350255495052 0.124033641144234 -0.1501384672055844  0.544753565637679 0.1196963767580702 -0.1507252489411826  0.5694435735726342 0.1149778018754821 -0.1513091296141501  0.4763788928146548 0.1579068494944826 -0.1490416359240626  0.5007944004825791 0.1531723768109166 -0.1496268170747111  0.5252747820096133 0.1486343263063132 -0.1501901793405437  0.5498446018737286 0.1440572485606757 -0.1507526305663778  0.5744441595169919 0.1392284280215509 -0.1513300736384582  0.4813193126008621 0.1826950587079145 -0.149117623335106  0.5058204723797833 0.1779110964638469 -0.1497050321238615  0.5303311855864297 0.1732382506351582 -0.1502467611963203  0.5548788926735132 0.1685395600406246 -0.1507857771082088  0.5794310254233597 0.163689777436588 -0.1513628271641488  0.4861780354158513 0.207362595050239 -0.1492220032860668  0.5106944348372708 0.2025724819757114 -0.1498001367241379  0.5352128067635304 0.1978351486090086 -0.1503051815290062  0.5597765984991319 0.1930772137365953 -0.1508074475074964  0.5843359631317939 0.1882313083452522 -0.1513740168628291  0.45 0 -0.125  0.475 0 -0.125  0.5 0 -0.125  0.525 0 -0.125  0.55 0 -0.125  0.4542378303893211 0.02800380623165453 -0.1245907331045728  0.4777785230523362 0.02618032449956188 -0.1247727685866295  0.5021839786375508 0.02515037885683191 -0.1249861377721241  0.5272748691432699 0.02408882989333247 -0.1252220496411399  0.5532263119659786 0.02184922209439686 -0.1254521158780602  0.4579264086152596 0.0551903099853688 -0.1243530099784388  0.4816056551114412 0.05229448017937156 -0.1246562288594817  0.5059844884300629 0.05007451719736185 -0.1250092584072894  0.5310016854360972 0.04774491399569256 -0.1253752434693859  0.556512314543359 0.0443575263323095 -0.1257035731985214  0.4622540333003254 0.0816690812878211 -0.1242351976352137  0.4861511908214698 0.07795618930610897 -0.1246233978161014  0.5105505114135206 0.07477968613846062 -0.1250469193826216  0.5354027226469489 0.07148415041709419 -0.125477767601374  0.5605174963358041 0.06741774947791343 -0.1258821317005425  0.4670187697260015 0.1075109170609325 -0.1241849543762047  0.4911088934765184 0.1032376862335679 -0.1246307216431894  0.5155221542623541 0.09938088488621007 -0.1250912731182284  0.5402280333905504 0.0954318880312372 -0.1255556327460242  0.5650748187640526 0.09093355618938233 -0.1260084883700671  0.4719747968560247 0.132869609149053 -0.1241684682224373  0.4962423600998365 0.1282671413791153 -0.1246565881691723  0.5206757717612015 0.1239620572430231 -0.1251403162923216  0.5452841895303149 0.1195958504548126 -0.1256251840876149  0.5699639736302476 0.1148494419011768 -0.1261124618562579  0.4769846568955545 0.1578842546311615 -0.1241726247630258  0.5013860548060555 0.1531215074185572 -0.1246941199209291  0.525851328530852 0.1485501501496085 -0.1251936131456292  0.5504065552317154 0.1439389657570277 -0.125692015058427  0.5749888329525852 0.1390808889250484 -0.1262076661894241  0.481958235625267 0.1826746633778346 -0.1242005857735938  0.5064472155260111 0.1778555551297688 -0.1247486426417737  0.5309424809469752 0.1731435035803374 -0.1252508795656172  0.5554733399572437 0.1684048092916342 -0.1257504137340704  0.5800047229081049 0.1635188884461184 -0.1262894993067996  0.4868641958908608 0.2073456686775312 -0.1242916482348562  0.511366335528138 0.2025120920670572 -0.1248380230006012  0.5358683389644576 0.1977298234706671 -0.1253114656703946  0.560413022947196 0.1929254460102111 -0.1257820554817108  0.5849488498403139 0.1880337477982707 -0.126319249000814  0.45 0 -0.1  0.475 0 -0.1  
[...]
<PointData  Tensors="Piola Kirchhoff sec Stress"> 
<DataArray  type="Float64"  Name="Piola Kirchhoff sec Stress"  NumberOfComponents="9" format="ascii">2.1351157720290837e+04 8.6564356691422017e+03 1.8348504509909455e+03 8.6564356691421963e+03 4.2175644842764850e+04 7.6549334560370735e+03 1.8348504509909460e+03 7.6549334560370726e+03 2.2076508027332831e+04  9.6741914472542703e+03 2.4966435640395352e+03 2.1905889988751576e+02 2.4966435640395348e+03 1.7763099157715875e+04 4.4001784061437729e+03 2.1905889988751565e+02 4.4001784061437729e+03 8.7563189708752452e+03  1.9454327785890891e+03 5.2094257669582032e+02 -1.7080416829901137e+02 5.2094257669582100e+02 3.3646557595747581e+03 1.3656648771692554e+02 -1.7080416829901134e+02 1.3656648771692542e+02 1.8849892599627365e+03  -5.2294208001610314e+03 7.1730260222148252e+02 -4.9617988526791538e+02 7.1730260222148286e+02 -9.7287313416003217e+03 -4.3474768528901341e+03 -4.9617988526791510e+02 -4.3474768528901332e+03 -2.4293653191029389e+03  -2.4954143557502412e+04 6.9005544648939631e+03 1.8851426429606149e+03 6.9005544648939631e+03 -4.1757490398618444e+04 -9.5564677701218097e+03 1.8851426429606145e+03 -9.5564677701218116e+03 -1.5320168762286974e+04  4.5062361741764680e+03 2.3227599699250909e+03 5.8925237506491669e+02 2.3227599699250900e+03 2.6394726271584041e+04 7.1043224419671697e+02 5.8925237506491669e+02 7.1043224419671719e+02 6.3707963772386511e+03  3.2632218237726593e+03 3.9828402441740773e+03 -4.7732814622412441e+01 3.9828402441740791e+03 1.4503481568711932e+04 -2.5844920114329369e+02 -4.7732814622412427e+01 -2.5844920114329386e+02 4.6961999380643874e+03  4.6521921639562461e+03 3.8841899238147766e+03 -4.0339444238968468e+02 3.8841899238147739e+03 5.7402249264089560e+03 7.4646598681896577e+01 -4.0339444238968451e+02 7.4646598681896549e+01 4.5876754478305002e+03  6.3138855719962285e+03 2.6849780625091817e+03 -5.0797016431817610e+02 2.6849780625091812e+03 -2.4890214092646356e+03 9.3116415272710913e+02 -5.0797016431817610e+02 9.3116415272710913e+02 5.0592905392277989e+03  8.2971996057043671e+03 -2.1719392452307193e+03 -2.8013626231201567e+02 -2.1719392452307188e+03 -9.0104751974700703e+03 1.7068152170748976e+03 -2.8013626231201556e+02 1.7068152170748981e+03 6.6664295670652346e+03  1.2278174880481112e+04 3.2169659368042931e+03 3.0356391989375788e+02 3.2169659368042921e+03 2.9119293904424099e+04 5.1352416762360508e+02 3.0356391989375794e+02 5.1352416762360508e+02 1.1902357106656284e+04  1.0951384594091338e+04 4.7274017944268417e+03 6.8065512165008002e+01 4.7274017944268444e+03 1.8870025798509017e+04 4.3016535416042086e+02 6.8065512165007988e+01 4.3016535416042092e+02 9.9428213655506152e+03  1.2301733700880650e+04 4.9603070849811875e+03 -5.4462146651030579e+01 4.9603070849811902e+03 1.1476522818637446e+04 5.5217045933972497e+02 -5.4462146651030622e+01 5.5217045933972497e+02 9.9267693322312716e+03  1.3740609800728487e+04 2.9796948944237602e+03 1.1280030895127222e+01 2.9796948944237597e+03 4.8793895099974070e+03 8.3930857703136201e+02 1.1280030895127171e+01 8.3930857703136257e+02 1.0327758859967729e+04  1.4973727789657021e+04 -2.2321443576994739e+03 2.1562287472281133e+02 -2.2321443576994739e+03 1.4917434602927028e+03 1.1463067586080208e+03 2.1562287472281145e+02 1.1463067586080210e+03 1.2470466093872366e+04  2.0076925358927914e+04 2.9293099464468623e+03 6.6718945125161298e+01 2.9293099464468610e+03 3.2266036196276771e+04 6.9737820956274140e+02 6.6718945125161298e+01 6.9737820956274095e+02 1.7664701294880302e+04  1.8448599249023759e+04 4.6981906407899560e+03 3.6210466957983456e+01 4.6981906407899551e+03 2.3260338308852686e+04 7.4780849002703781e+02 3.6210466957983492e+01 7.4780849002703769e+02 1.5338505908013978e+04  1.9383967892338347e+04 4.7636685672873973e+03 7.8678266531112001e+01 4.7636685672873964e+03 1.7296981172127951e+04 7.8707508463722263e+02 7.8678266531112030e+01 7.8707508463722252e+02 1.5115235877428722e+04  2.0780499485461605e+04 2.7414192781718361e+03 2.2230128636569751e+02 2.7414192781718352e+03 1.3116160844562497e+04 8.5703579446753201e+02 2.2230128636569742e+02 8.5703579446753213e+02 1.5789149290777474e+04  2.2302556829841506e+04 -1.5223187123161385e+03 3.7439420255519957e+02 -1.5223187123161385e+03 1.2607472808115519e+04 1.1885798073772530e+03 3.7439420255519963e+02 1.1885798073772530e+03 1.8113673378272015e+04  2.5837008053773599e+04 2.3840930884235513e+03 -8.5289052530138804e+01 2.3840930884235513e+03 3.4186143742330685e+04 7.6273270705676509e+02 -8.5289052530138790e+01 7.6273270705676509e+02 2.2011506000943202e+04  2.4090763119102441e+04 4.1074234006691422e+03 -1.3042200385141394e+01 4.1074234006691404e+03 2.6935463397955573e+04 8.3913187057828384e+02 -1.3042200385141429e+01 8.3913187057828361e+02 1.9551516312557851e+04  2.4600496767016270e+04 4.0818794068944326e+03 1.0104595018002759e+02 4.0818794068944312e+03 2.2381265957744290e+04 8.3141013652657853e+02 1.0104595018002752e+02 8.3141013652657853e+02 1.9151254113666531e+04  2.5932328047888055e+04 2.3621712661062952e+03 2.4864988867665221e+02 2.3621712661062957e+03 2.0069445181038631e+04 8.3290896746156886e+02 2.4864988867665221e+02 8.3290896746156932e+02 1.9968292395206317e+04  2.7713062939976975e+04 -8.5744092236796507e+02 3.9579083357016827e+02 -8.5744092236796473e+02 2.1444917583815892e+04 1.1529321540970361e+03 3.9579083357016833e+02 1.1529321540970361e+03 2.2391374572782588e+04  2.8688437380847769e+04 1.4997383928174784e+03 -1.3653270862887351e+02 1.4997383928174784e+03 3.3788005250186521e+04 7.7102040480857488e+02 -1.3653270862887354e+02 7.7102040480857499e+02 2.3955883947392693e+04  2.7302047225514765e+04 3.1294118402559648e+03 -3.7185912543993261e+01 3.1294118402559648e+03 2.8999331800324107e+04 8.0607842963200983e+02 -3.7185912543993233e+01 8.0607842963200915e+02 2.2039443979439071e+04  2.7573878969155576e+04 3.1730711300153603e+03 8.2378867214829953e+01 3.1730711300153598e+03 2.5837187392448508e+04 7.7552163679249657e+02 8.2378867214829953e+01 7.7552163679249691e+02 2.1615371613609084e+04  2.8753223979196515e+04 1.8871662959759924e+03 2.0565281190783693e+02 1.8871662959759919e+03 2.4778190761397884e+04 7.5827986705540104e+02 2.0565281190783688e+02 7.5827986705540081e+02 2.2392378520681261e+04  3.0503014604976386e+04 -3.3293492736417443e+02 3.1677339319152293e+02 -3.3293492736417460e+02 2.7041135320735859e+04 1.0188847472360351e+03 3.1677339319152293e+02 1.0188847472360351e+03 2.4586326127053489e+04  2.9422290626971055e+04 9.0405796645509292e+02 -1.5376629789283311e+02 9.0405796645509281e+02 3.2039753005106813e+04 6.9723006914858638e+02 -1.5376629789283317e+02 6.9723006914858638e+02 2.4282836493778599e+04  2.8457971914115522e+04 2.1277654191931842e+03 -5.9424456143855565e+01 2.1277654191931847e+03 2.9327132291918224e+04 7.1477136605749627e+02 -5.9424456143855551e+01 7.1477136605749627e+02 2.2934812454706185e+04  2.8534402448997891e+04 2.2226029977596222e+03 5.3372610460952089e+01 2.2226029977596227e+03 2.7409369720756386e+04 6.7881604637678538e+02 5.3372610460952131e+01 6.7881604637678504e+02 2.2550332187785778e+04  2.9468590212920994e+04 1.3459239655040583e+03 1.4671326096808028e+02 1.3459239655040583e+03 2.7159653022530627e+04 6.6287044878691586e+02 1.4671326096808031e+02 6.6287044878691574e+02 2.3181931367187291e+04  3.0901154174226747e+04 -1.1703311365905861e+01 2.0714286499065437e+02 -1.1703311365906035e+01 2.9507560523780565e+04 8.3866644484909693e+02 2.0714286499065437e+02 8.3866644484909693e+02 2.4869473561448220e+04  2.8704565102576908e+04 2.6214462043430001e+02 -1.5428120201596252e+02 2.6214462043429990e+02 2.9730231594261477e+04 6.9969025418993874e+02 -1.5428120201596249e+02 6.9969025418993851e+02 2.3519954310522960e+04  2.8074621429009363e+04 1.1428174653857159e+03 -9.2011117101458808e+01 1.1428174653857159e+03 2.8455027239643096e+04 6.4371792165409477e+02 -9.2011117101458822e+01 6.4371792165409477e+02 2.2672509540216975e+04  2.7956144202660995e+04 1.3419552662891203e+03 2.3261319016624899e+01 1.3419552662891203e+03 2.7424225052870250e+04 5.8508832802260770e+02 2.3261319016624761e+01 5.8508832802260747e+02 2.2282413535251952e+04  2.8682005644263420e+04 7.8449367802517202e+02 1.0370448844124147e+02 7.8449367802517190e+02 2.7801394614035176e+04 5.8205263532795436e+02 1.0370448844124157e+02 5.8205263532795414e+02 2.2828769001570836e+04  2.9616045755245075e+04 6.7966421068109085e+01 1.1489363461053807e+02 6.7966421068109071e+01 2.9471095126428616e+04 6.5880522432980865e+02 1.1489363461053806e+02 6.5880522432980831e+02 2.3821773663370655e+04  2.7787769067183857e+04 6.2348037087543815e+01 -1.6622452760789400e+02 6.2348037087543858e+01 2.8451218213395012e+04 6.7414502267383921e+02 -1.6622452760789400e+02 6.7414502267383921e+02 2.2935858455040237e+04  2.6535823456071335e+04 2.9961488934272728e+02 -1.3452633341986745e+01 2.9961488934272728e+02 2.7182011034420677e+04 5.8622351250674058e+02 -1.3452633341986761e+01 5.8622351250674069e+02 2.1806762081398236e+04  2.6214003707603304e+04 2.9826898202789232e+02 1.3022376856837019e+02 2.9826898202789232e+02 2.6290075274239585e+04 4.8730049350091639e+02 1.3022376856837008e+02 4.8730049350091639e+02 2.1118769234345942e+04  2.7530272944849334e+04 9.6397650824327499e+01 1.5250457084698229e+02 9.6397650824327499e+01 2.7262933189255811e+04 5.5293571551666150e+02 1.5250457084698226e+02 5.5293571551666139e+02 2.1922915358855673e+04  2.8495987139223853e+04 -7.6429569390856457e+01 1.0351020597576168e+02 -7.6429569390856329e+01 2.8640888756154531e+04 6.4686676995368771e+02 1.0351020597576165e+02 6.4686676995368771e+02 2.2850696157060334e+04  2.1068961198582463e+04 1.0906463279300457e+04 8.4684730634255311e+02 1.0906463279300457e+04 3.8987277479809716e+04 4.2226370258868637e+03 8.4684730634255334e+02 4.2226370258868637e+03 2.3403072554653478e+04  7.6850652674846633e+03 4.5102589653709092e+03 2.6392830382598260e+02 4.5102589653709092e+03 1.3728893315611191e+04 2.4274258502606617e+03 2.6392830382598254e+02 2.4274258502606622e+03 7.9589534164428096e+03  1.6766914421692127e+03 2.6175992452942437e+03 -1.3340977778197023e+02 2.6175992452942428e+03 2.5961337695487559e+03 1.2799358258063121e+02 -1.3340977778197049e+02 1.2799358258063097e+02 1.5202316665721396e+03  -4.3095295697596921e+03 3.1511649222127644e+03 -4.3936563753914942e+02 3.1511649222127630e+03 -6.9882197138256624e+03 -2.2154707143077912e+03 -4.3936563753914913e+02 -2.2154707143077926e+03 -3.8915954840101235e+03  -2.7354069249685581e+04 1.0177018139111475e+04 8.3319246428120294e+01 1.0177018139111473e+04 -4.1478866409270944e+04 -5.1193881755189159e+03 8.3319246428120564e+01 -5.1193881755189168e+03 -2.4518960241186276e+04  5.4306948425970795e+03 2.4850769686578437e+03 5.7738509205806940e+02 2.4850769686578442e+03 2.7809248881762447e+04 2.3088081013571614e+03 5.7738509205806918e+02 2.3088081013571614e+03 7.9616166823587719e+03  3.9256497608018858e+03 5.8179959878083855e+03 -4.1643985689073560e+02 5.8179959878083864e+03 1.6924509966486472e+04 1.0622907899509898e+03 -4.1643985689073560e+02 1.0622907899509901e+03 5.1356713200960457e+03  3.8621648821605195e+03 5.6924182391979657e+03 -1.0175135371898066e+03 5.6924182391979639e+03 5.1124505089794256e+03 1.5440629707187460e+02 -1.0175135371898060e+03 1.5440629707187455e+02 3.4258637792643208e+03  4.5369908821782174e+03 4.3572984294000335e+03 -1.1022886931287974e+03 4.3572984294000335e+03 -6.3874275761652771e+03 -7.0882937983590443e+02 -1.1022886931287969e+03 -7.0882937983590466e+02 2.4131412882263335e+03  9.7782985854098879e+03 -1.5360072363287838e+03 -1.0843779192582497e+03 -1.5360072363287850e+03 -1.6538789772531640e+04 -1.8065106333409560e+03 -1.0843779192582497e+03 -1.8065106333409565e+03 4.4554414179564346e+03  1.2048196300760601e+04 3.3337986933612560e+03 2.7546146258168295e+02 3.3337986933612556e+03 3.0232602470671776e+04 9.4677706872848773e+02 2.7546146258168295e+02 9.4677706872848773e+02 1.2058464953173050e+04  9.9258543317274271e+03 4.9936775877721821e+03 -5.0358504539338981e+02 4.9936775877721830e+03 1.8486106417520594e+04 4.8656663282042490e+02 -5.0358504539338981e+02 4.8656663282042524e+02 8.9168571741537435e+03  1.0643408784137180e+04 5.3212057029626785e+03 -8.7678429892679742e+02 5.3212057029626776e+03 9.7522751626575155e+03 4.2671650274412156e+02 -8.7678429892679708e+02 4.2671650274412156e+02 8.3814251172296699e+03  1.1990848615488825e+04 3.0867273835100445e+03 -7.2392881944717362e+02 3.0867273835100445e+03 1.8712622183020374e+03 5.1927997788290918e+02 -7.2392881944717374e+02 5.1927997788290907e+02 8.6474356836670540e+03  1.3821574847107498e+04 -2.2975891698732657e+03 -1.9600375889808117e+02 -2.2975891698732653e+03 -2.0555551785293396e+03 4.5035234674655896e+02 -1.9600375889808120e+02 4.5035234674655908e+02 1.0805582639339180e+04  1.9218920398311042e+04 2.7811123363598695e+03 8.4389925049760421e+01 2.7811123363598690e+03 3.2148283709733241e+04 5.5730380752527299e+02 8.4389925049760421e+01 5.5730380752527276e+02 1.6967162151724347e+04  1.7090240488206837e+04 4.3594384120636232e+03 -3.1921171238559180e+02 4.3594384120636232e+03 2.2465569513192429e+04 5.6658630475290636e+02 -3.1921171238559180e+02 5.6658630475290624e+02 1.4099708125190626e+04  1.7560016493228504e+04 4.4427455156906080e+03 -4.4097590478236276e+02 4.4427455156906071e+03 1.5832129942889018e+04 6.7050997137807224e+02 -4.4097590478236276e+02 6.7050997137807224e+02 1.3652634658939949e+04  1.8946153662519599e+04 2.3697189022305183e+03 -2.3555640130468069e+02 2.3697189022305179e+03 1.1286768608728589e+04 8.6706352193364137e+02 -2.3555640130468063e+02 8.6706352193364137e+02 1.4370174688906813e+04  2.0338315384705758e+04 -1.8165448056970179e+03 1.5886683007283673e+02 -1.8165448056970179e+03 1.0127442452032090e+04 1.0695833729116302e+03 1.5886683007283673e+02 1.0695833729116302e+03 1.6473425950617191e+04  2.4897029303598065e+04 2.0918224801110650e+03 1.1427844286628199e+01 2.0918224801110659e+03 3.3554908122089480e+04 4.7906000243130262e+02 1.1427844286628210e+01 4.7906000243130211e+02 2.1074791994892366e+04  2.2901268508510391e+04 3.5330445838939304e+03 -1.4970939601155527e+02 3.5330445838939318e+03 2.6190629784707544e+04 6.0767590884778383e+02 -1.4970939601155530e+02 6.0767590884778338e+02 1.8529676475572356e+04  2.3127838134914608e+04 3.5877525818457730e+03 -1.4092990560134811e+02 3.5877525818457721e+03 2.1491304872635581e+04 7.2056977276393297e+02 -1.4092990560134811e+02 7.2056977276393309e+02 1.8083075665214379e+04  2.4396074874889993e+04 1.9505897226720901e+03 1.8710625874525846e+01 1.9505897226720906e+03 1.9081015737857382e+04 8.8583503868560422e+02 1.8710625874525849e+01 8.8583503868560399e+02 1.8910586620353097e+04  2.5817210539921529e+04 -1.0562712069289169e+03 2.5215533545868345e+02 -1.0562712069289162e+03 1.9701151935400485e+04 1.1786179656492882e+03 2.5215533545868357e+02 1.1786179656492884e+03 2.0971653676083311e+04  2.8061486766783142e+04 1.2471122741898230e+03 -2.6362937656018758e+01 1.2471122741898214e+03 3.3215161238607958e+04 5.1373767509170739e+02 -2.6362937656018765e+01 5.1373767509170762e+02 2.3246028839904935e+04  2.6537761891297792e+04 2.5928336685218087e+03 -3.6755753844620401e+01 2.5928336685218078e+03 2.8554882534128348e+04 6.1866041523343370e+02 -3.6755753844620401e+01 6.1866041523343358e+02 2.1419182900289652e+04  2.6637901240854717e+04 2.7181110213597335e+03 2.6934988001689771e+01 2.7181110213597331e+03 2.5473177498894936e+04 6.7763295698867626e+02 2.6934988001689771e+01 6.7763295698867569e+02 2.1024066124583311e+04  2.7734738576339489e+04 1.5634679485908819e+03 1.2743600668660596e+02 1.5634679485908821e+03 2.4419318118345982e+04 7.8834335499183430e+02 1.2743600668660599e+02 7.8834335499183430e+02 2.1792458790575714e+04  2.9118575628523246e+04 -4.4671035648280372e+02 2.3619244176114034e+02 -4.4671035648280377e+02 2.6027078108570255e+04 1.0537995465874267e+03 2.3619244176114032e+02 1.0537995465874274e+03 2.3664696545294137e+04  2.9177298619967547e+04 7.0308451919247386e+02 -2.7931698012446009e+01 7.0308451919247375e+02 3.1779807534990439e+04 5.7184910745447542e+02 -2.7931698012446009e+01 5.7184910745447553e+02 2.3877956970144314e+04  2.8156327569431473e+04 1.7251987451648113e+03 3.2501203125469466e+01 1.7251987451648099e+03 2.9268757275913915e+04 6.0408951281051293e+02 3.2501203125469480e+01 6.0408951281051293e+02 2.2710778695202524e+04  2.8160323976007319e+04 1.8732772821323686e+03 1.2202863975569400e+02 1.8732772821323683e+03 2.7497756991323462e+04 6.0436898562218369e+02 1.2202863975569396e+02 6.0436898562218369e+02 2.2405508401697341e+04  2.9009694845916212e+04 1.1238450659515900e+03 1.7173097108325297e+02 1.1238450659515904e+03 2.7257289553655362e+04 6.6132693198258607e+02 1.7173097108325297e+02 6.6132693198258630e+02 2.3018801337293931e+04  3.0194715981467878e+04 -7.0410894602941070e+01 1.7726203929793351e+02 -7.0410894602941042e+01 2.9180814223542839e+04 8.4360171849109247e+02 1.7726203929793351e+02 8.4360171849109247e+02 2.4536199993869770e+04  2.8734900894059967e+04 1.8859757207166155e+02 -3.4995574726266526e+01 1.8859757207166174e+02 2.9731443115195656e+04 6.5779756506369131e+02 -3.4995574726266483e+01 6.5779756506369142e+02 2.3386993712785643e+04  2.8100003814845684e+04 9.0540888175229168e+02 9.3047065460343532e+01 9.0540888175229168e+02 2.8710437375504931e+04 5.8061615093526541e+02 9.3047065460343603e+01 5.8061615093526575e+02 2.2712843673214385e+04  2.8028699377703018e+04 1.0676854127544484e+03 2.1821084952097112e+02 1.0676854127544489e+03 2.7797931223579471e+04 5.3215165558364743e+02 2.1821084952097112e+02 5.3215165558364743e+02 2.2456786481653678e+04  2.8702003141346799e+04 6.1803776820213784e+02 2.2810560370013911e+02 6.1803776820213795e+02 2.8096110328189072e+04 5.5805988051269583e+02 2.2810560370013911e+02 5.5805988051269560e+02 2.2972123880640622e+04  2.9550428333621057e+04 3.8664821464870855e+01 1.2535592876934605e+02 3.8664821464870940e+01 2.9665350834737521e+04 6.5044507805769672e+02 1.2535592876934611e+02 6.5044507805769672e+02 2.3977317148586895e+04  2.7963290596108851e+04 1.5769207994222836e+00 1.3059364653178857e+01 1.5769207994222836e+00 2.8493786116875319e+04 6.4698056038823461e+02 1.3059364653178893e+01 6.4698056038823449e+02 2.2808328959262974e+04  2.7012580121018967e+04 2.3873723981675678e+02 2.2705532153300587e+02 2.3873723981675667e+02 2.7775371343943949e+04 5.3990975525720080e+02 2.2705532153300589e+02 5.3990975525720114e+02 2.2045862243970361e+04  2.6812504597056504e+04 1.9586011877542862e+02 4.2607081983577041e+02 1.9586011877542862e+02 2.7098966336460020e+04 4.7865848139951942e+02 4.2607081983577024e+02 4.7865848139951936e+02 2.1707616703506526e+04  2.7836829660051422e+04 -1.6268278808310004e+01 3.9696752927363656e+02 -1.6268278808309752e+01 2.7730229292855878e+04 5.3066614438891531e+02 3.9696752927363656e+02 5.3066614438891531e+02 2.2334156667494753e+04  2.8624166785282534e+04 -1.0432552765743377e+02 1.8216676629136214e+02 -1.0432552765743375e+02 2.8901194051412127e+04 6.3829237963311857e+02 1.8216676629136217e+02 6.3829237963311834e+02 2.3089503923890505e+04  2.3354512668702875e+04 1.2323994438047263e+04 4.3508165809167815e+02 1.2323994438047270e+04 4.2018843458213094e+04 2.4366590857256592e+03 4.3508165809167804e+02 2.4366590857256597e+03 2.5814479429734358e+04  8.0505740768740534e+03 5.2161680558814414e+03 1.5519823235528082e+02 5.2161680558814414e+03 1.3791369291189865e+04 1.4758090072281732e+03 1.5519823235528074e+02 1.4758090072281732e+03 8.6564955222906574e+03  1.7460084382878936e+03 3.2391470459585676e+03 -1.2184182698686480e+02 3.2391470459585676e+03 2.3845051674211154e+03 1.0634396773931256e+02 -1.2184182698686483e+02 1.0634396773931256e+02 1.6207869234346877e+03  -4.5079259672485041e+03 3.8811123599893372e+03 -3.7608734636164007e+02 3.8811123599893385e+03 -7.1748297801889748e+03 -1.2326934244356496e+03 -3.7608734636163973e+02 -1.2326934244356505e+03 -4.5633790262707189e+03  -3.0364182523101994e+04 1.1733982908056185e+04 2.7349297140602255e+02 1.1733982908056183e+04 -4.5194418453726823e+04 -3.3576648617652722e+03 2.73492971406