<?xml version="1.0"?>
<VTKFile type="UnstructuredGrid"  version="0.1"  >
<UnstructuredGrid>
<Piece  NumberOfPoints="405" NumberOfCells="1536">
<Points>
<DataArray  type="Float64"  NumberOfComponents="3"  format="ascii">0.45 0 -0.2  0.475 0 -0.2  0.5 0 -0.2  0.525 0 -0.2  0.55 0 -0.2  0.4520802082563585 0.02676555344700483 -0.199211075960734  0.4763130480609842 0.02569980306793152 -0.1996280181192115  0.5009385136647123 0.02502160567156634 -0.2001253842100949  0.5258750084417751 0.02429197901325855 -0.2006902023773852  0.5511541783485543 0.02304414580359961 -0.2011359697186333  0.4541676586525495 0.05286513981999119 -0.199288182072937  0.4784203856376469 0.05123715430601353 -0.199703995401035  0.5029735860103897 0.04996196339148749 -0.2002109588969259  0.5278243604436645 0.04864321059404827 -0.2007536100389863  0.5528848418595117 0.04677520078329012 -0.2012229318061602  0.4567183696936551 0.07844278453411152 -0.1995134397009493  0.480998037653266 0.07641257462836887 -0.1998518974856676  0.5055294413850432 0.07467830196174732 -0.2002533386220251  0.5302836734948225 0.07289045109473427 -0.2006687227654341  0.5551271133903123 0.07061506227867344 -0.2010261000412173  0.4595130623545865 0.1035508876925854 -0.1997517480042815  0.4838091946603245 0.101252051651231 -0.1999840831450964  0.5083196714679734 0.09918886378322563 -0.2002595052264616  0.5329829763131501 0.0970673320456896 -0.2005349396006554  0.5576526185262688 0.09455351400044019 -0.2007690307728418  0.4623460615627115 0.1283101688980328 -0.1999366645941328  0.4866866423129942 0.1258532068422658 -0.2000755342215271  0.5111788068080283 0.1235656567641751 -0.200236846296644  0.5357658008638727 0.1212250448211706 -0.2003900630708879  0.5603201295653188 0.1185997535590304 -0.2005068039147395  0.4651409447433497 0.1528402731761604 -0.2000534818523226  0.4895288606593861 0.1503058049932185 -0.2001187238311376  0.5140110735322956 0.1478842749325623 -0.2001908903881067  0.5385388787831652 0.1454160411829976 -0.2002531217339187  0.5630232328202814 0.1427642305990266 -0.2002913944255901  0.4678564266423836 0.1772593011855009 -0.2001058625076821  0.4922881299522605 0.1747064321601351 -0.200118600010477  0.5167655206412367 0.172216123905721 -0.2001277352702953  0.5412528013742735 0.1696872697190102 -0.2001325709627499  0.5656990761567944 0.1670510617111312 -0.2001392063255053  0.4704413401144901 0.2016641784303009 -0.2000976686898159  0.4949045933416895 0.1991341803973871 -0.2000919857076177  0.5193914712993699 0.1966246821940798 -0.2000553114423272  0.5438902494145516 0.1940695469687098 -0.2000198005304369  0.5683299896762097 0.1914320869151731 -0.2000503203578816  0.45 0 -0.175  0.475 0 -0.175  0.5 0 -0.175  0.525 0 -0.175  0.55 0 -0.175  0.4522961250295934 0.02666965769341364 -0.1745831324741755  0.4765731796483642 0.02564686355511886 -0.1748054701838189  0.5012207830583727 0.02503010333629308 -0.1750924127297308  0.526196484810869 0.02440897828657868 -0.1754018834299996  0.5516225294458769 0.02320644686440908 -0.1756787574917395  0.4544217523504234 0.05280717289776065 -0.1745798435164782  0.4787164865745214 0.05118947382986818 -0.1748418656448619  0.5032992152648551 0.04989994042835403 -0.1751756480005608  0.5281689299373168 0.04856810825549919 -0.1755205830747658  0.5532900790040844 0.04668130223644466 -0.1758210772574291  0.4569227788192211 0.07839181119726683 -0.1747151643471662  0.4812470359862958 0.0763570062074434 -0.1749366029794123  0.5057908768482529 0.07456855181692525 -0.1752106802209193  0.5305361730823255 0.07271903779362382 -0.1754892720063429  0.5553865098484417 0.07042288589132668 -0.1757406705380963  0.4596464345730427 0.1035014351775986 -0.1748705457942892  0.4839816697804525 0.10118949891447 -0.1750263359766655  0.5084888343524838 0.09906519008507839 -0.1752129596513133  0.5331259081240739 0.09687823264578264 -0.1753999282854105  0.5577825088521514 0.09435109586982343 -0.1755729212051667  0.462419600149841 0.1282593145304679 -0.1749967754392988  0.4867839371362019 0.1257883281003453 -0.1750882457328233  0.5112628902734681 0.12344917746316 -0.1751921440037495  0.5358176808350829 0.1210565966376692 -0.1752929374759709  0.5603479799975747 0.118426165704503 -0.1753856271663597  0.4651687834579051 0.1527924914806125 -0.1750768384421831  0.4895666531708693 0.1502435098369732 -0.1751160537121154  0.5140310980965912 0.1477831490284855 -0.1751545810438192  0.5385300672432456 0.1452798034447159 -0.1751891484505115  0.5629895578267413 0.1426271902184739 -0.1752212019899892  0.4678526313342156 0.1772133863850383 -0.1751089913870999  0.4922842072610922 0.1746479700402341 -0.1751117119181544  0.5167436683385469 0.1721298663332311 -0.1751063374441259  0.5412129322121702 0.1695766839494409 -0.175099518778391  0.5656427753120171 0.1669393119988557 -0.1750976814408061  0.4704424798550644 0.201621124161799 -0.1750978888354129  0.494892293037814 0.19907579048365 -0.1750858468110269  0.5193585202987071 0.1965391722564778 -0.1750560216180763  0.5438391904686326 0.1939600301739211 -0.1750282346521063  0.5682845754561596 0.1913242381166102 -0.1750202244288689  0.45 0 -0.15  0.475 0 -0.15  0.5 0 -0.15  0.525 0 -0.15  0.55 0 -0.15  0.4524279681829016 0.02664643542939436 -0.1498232765199008  0.4766469161473716 0.02562059355124853 -0.1499281800016332  0.5012833751791472 0.02502551374967407 -0.1500590522172167  0.5262918422706183 0.02442036268603736 -0.1502000547379141  0.5517994990373302 0.0231635254988519 -0.1503339157608509  0.4545643897234007 0.05273774230738616 -0.1498090962829704  0.478829345530156 0.05114245562713141 -0.1499400858431028  0.503414730683314 0.04987641803047444 -0.1501143878101651  0.5283283158076907 0.04855896636882308 -0.1502932760179927  0.5535219191610795 0.04665579872670825 -0.1504509600136383  0.4570381135717606 0.07830372635129235 -0.1498830444692479  0.4813535247807612 0.07629530966447508 -0.1499979629668221  0.5059062988525923 0.07451970017256597 -0.1501451082109691  0.5306820839788413 0.07267527383626315 -0.1502954170679875  0.5555833588498352 0.07039432300744067 -0.1504334919373903  0.4597179358432723 0.103407746000394 -0.1499770108569302  0.4840567331039143 0.1011194749494546 -0.1500551626896102  0.5085706690316708 0.09899966819029471 -0.1501510491285687  0.5332231493392089 0.09681432916491531 -0.1502485152807589  0.5579114072813056 0.09431572303262022 -0.1503409811224372  0.4624475004489231 0.1281717119388718 -0.1500569876768298  0.4868200330250223 0.1257181613223406 -0.1500949968595995  0.5113016152628286 0.1233796339258967 -0.1501381745610438  0.5358609038146853 0.1209885769433272 -0.1501812754416491  0.5604086786619134 0.1183876298871542 -0.1502239935315718  0.4651620826971062 0.1527163911515368 -0.1501097542792643  0.4895682012269003 0.1501795000441702 -0.1501125569109437  0.5140313064768121 0.1477178584840073 -0.1501125393421276  0.5385276121462442 0.1452157589953149 -0.1501115897185433  0.562993146810693 0.1425869043978669 -0.1501127678533318  0.467824072279938 0.1771511332100392 -0.1501311596842955  0.4922618454183173 0.1745919038907191 -0.1501081877941295  0.5167171143480516 0.1720698913059154 -0.150080035921976  0.5411785999827278 0.1695164691906868 -0.1500513932914262  0.5656052555831061 0.1668939020825173 -0.1500248607483431  0.4704030027370221 0.2015658959165113 -0.1501179420235092  0.4948634414290471 0.1990206187961648 -0.1500864702684235  0.5193249171987931 0.1964760478952871 -0.150048674590657  0.5437905648802229 0.1938962580629447 -0.1500115021003468  0.5682208452130348 0.1912739215257195 -0.1499760581570895  0.45 0 -0.125  0.475 0 -0.125  0.5 0 -0.125  0.525 0 -0.125  0.55 0 -0.125  0.452470588236417 0.02663701457344923 -0.1249545810171124  0.4766661628374583 0.02561045780193317 -0.1249884546435081  0.5012981591089315 0.02502192077838608 -0.1250301933749166  0.526322168398592 0.02442166121100858 -0.1250768522681854  0.5518580293065209 0.02313952283299329 -0.1251260691205705  0.454612003694099 0.05269608879327762 -0.1249643076675419  0.4788603270965671 0.05111488365610815 -0.1250025047301234  0.5034479967746325 0.04986599622605826 -0.1250591434862524  0.5283847039215098 0.04855919247977157 -0.1251161972274875  0.5536067654435401 0.04664746495080177 -0.1251624816516851  0.4570690864890996 0.07824176134847005 -0.1250107626320521  0.4813795224964362 0.07625477716662844 -0.1250371805396694  0.5059392932421617 0.07449876069289588 -0.1250775526477614  0.5307357133530866 0.07266944826028963 -0.1251177396951184  0.5556618279938014 0.07040185270209869 -0.1251511848854645  0.4597223316801942 0.1033393301764414 -0.1250681153551276  0.4840639341329765 0.1010730564784753 -0.1250719470589752  0.5085856247298135 0.09897116263326974 -0.125083285628467  0.5332528625421572 0.09680266100103066 -0.1250942251862461  0.557960684690146 0.09432843558527114 -0.1251020774986336  0.4624239024378399 0.128106753131923 -0.1251187145053145  0.4868026913968266 0.1256725176221529 -0.125097537946605  0.5112902892830734 0.1233489667623652 -0.1250781313051101  0.535858495990039 0.1209740355897606 -0.1250580809029573  0.560419770473231 0.1183992480003042 -0.1250371379200301  0.465114917891162 0.1526603197262482 -0.1251547859951195  0.4895274171576651 0.1501390048555533 -0.1251105313169545  0.5139938414095515 0.1476892483713209 -0.1250652364501991  0.538493876535443 0.1452008548899897 -0.1250193231758057  0.5629666592427549 0.1425952040917133 -0.12497295351176  0.4677595757147388 0.1771049756258163 -0.125171695532258  0.492202782598599 0.1745577767486179 -0.1251095216350158  0.5166589490479926 0.1720443032130627 -0.1250481279347675  0.5411193522000466 0.1695018087169761 -0.1249864701665125  0.5655465885657368 0.1668981661082818 -0.1249217339502068  0.4703248770789817 0.2015264545039588 -0.1251595122581235  0.4947931438836619 0.1989890938574766 -0.1250936592733941  0.5192550654479349 0.1964499490990922 -0.1250319066748004  0.5437145492121287 0.1938798878782692 -0.1249698933731031  0.5681361620869673 0.1912754495728925 -0.1249007322305907  0.45 0 -0.1  0.475 0 -0.1
[...]
<PointData  Vectors="traction"> 
<DataArray  type="Float64"  Name="traction"  NumberOfComponents="3" format="ascii">2.2976969760363263e+03 -1.8753419321258648e-02 -6.5737007047005469e-02  2.2100443540486864e-13 -2.5387188971668817e-18 9.2886126458555638e-16  -3.1777353179741033e-15 -2.3679430758992090e-19 1.3445161372966716e-14  -1.2211177512357122e-13 -3.9320884411955197e-18 3.4574587304893166e-13  9.9390134575090577e-02 -1.0158472405286485e-02 1.4122719890864460e+03  1.4025709120500708e+03 -1.0703153571581395e-05 -4.5166061856020373e-02  1.5737499954347304e-13 -1.3250276504316546e-18 7.0554309215952976e-16  6.2909560938455185e-15 -1.1833309748771982e-18 1.1406857080488164e-14  -3.2161641628857093e-14 -1.2025840797420966e-17 9.7734642510132758e-14  6.5063324485539767e-02 -2.3945964444596703e-02 8.0553943071072013e+02  1.0235038583014430e+03 -3.2508061440940398e-03 -4.3985675178012509e-02  2.6288769422125050e-13 -7.8669340399885041e-19 4.4454100085990694e-16  3.8934225245690520e-15 -5.1512742773468734e-19 7.4029197563932270e-15  -4.2914820110423406e-14 -9.4294813159928116e-18 1.1390819667160203e-13  5.2531634966697133e-02 -3.3843765992485945e-02 4.4049841276431096e+02  7.8375107148411564e+02 -6.1748994916556383e-03 -4.1632750872900609e-02  4.4959149941398079e-14 -6.2534710694139555e-19 2.5520025296325811e-16  1.8767070751650358e-15 -1.9474254764921326e-19 3.6520110187895109e-15  -3.6899990611438484e-14 -8.1598119651610205e-19 4.7223265684931944e-14  2.0577348450939375e-02 -1.2570123241600237e-02 2.4108521549385151e+02  6.6825377302878007e+02 -8.4882764820893870e-03 -4.0863392212499121e-02  6.0907432803981044e-14 -1.7484704545282976e-18 1.2966693038429054e-16  -4.4311023132138400e-15 -1.5166902635396840e-19 2.0924279183461590e-15  -3.9369927495561241e-14 -2.2442038497009237e-19 2.7600923989776803e-14  4.2919839782334188e-03 -1.0535169699809484e-03 1.6755882909314448e+02  3.2684730883782095e+02 -1.6749948516544256e-02 -3.8918007798100868e-02  7.1091253042518364e-14 -3.0132400954572185e-18 1.7476792553651867e-17  4.3516991015984975e-15 -4.6316939242280352e-19 6.3238782650033259e-16  -1.1020570315210189e-14 -1.2812637596336796e-18 8.2071941219344502e-15  -1.7772349386306425e-05 2.4441634018432900e-03 7.9828059635068641e+01  1.1357384222755994e+02 -2.0513397504117334e-02 -3.2165993845962276e-02  4.5006865952753825e-14 -6.6743739546102001e-18 -1.1494774830050150e-16  2.7654033068410453e-15 -1.2375655581851133e-18 -9.6481650261465936e-16  -3.9766490648352830e-14 -4.2314588863649874e-18 -3.2406206913483531e-15  5.3056119488058447e-03 -1.4925280333765414e-02 7.4309758461420445e+00  1.6913467445472147e+01 -2.2047339219945755e-02 -2.3832013396186059e-02  1.7605537890108901e-14 -5.2488418843811843e-18 -1.3178357174919058e-16  8.8689087451176594e-16 -2.0120029493201098e-18 -1.9681901891248094e-15  -3.5003170186902608e-16 -1.4740866227513777e-17 -4.1557767933630853e-14  7.1198792680724843e-03 -2.4307931676170975e-02 -5.2579048102555781e+01  -1.2549126524073354e+02 -4.6382879737493091e-03 -2.8536071400563703e-03  -9.6295377383623645e-15 -5.6681703763875917e-18 -1.0223962862456326e-16  2.3408613548511187e-16 -1.4547694902097266e-18 -4.7108914303258237e-16  1.7575563611035951e-15 -8.3549573784770474e-18 2.7900633689680019e-15  2.7334765540654397e-02 -9.0498864109332638e-02 -5.2311147156175161e+02  1.5317979840242183e+03 -1.2502279547505766e-02 -4.3824671364670345e-02  8.8235900711755814e-14 -1.4320459790108779e-18 5.4523817330225457e-16  8.0459539285199287e-15 -5.6160364996413835e-19 7.7301498185811836e-15  -3.3500962450146972e-14 -1.6463788494543393e-18 3.2561597691687806e-14  -1.6960474951215181e+02 3.8839657285521398e-02 1.7073823198855601e-02  7.0128545602503516e+02 -5.3515767857925015e-06 -2.2583030928010197e-02  4.1693958971779401e-13 -3.1371753433279011e-19 3.2296605683242820e-16  3.6691871675868529e-15 -3.4992095638149766e-19 2.6342849415728015e-15  -2.2585093868785674e-14 -2.1387046653202277e-18 3.2316267244059533e-14  -4.1134962094641288e+01 -3.9783098352390188e-03 6.0720803960127257e-03  5.1175192915072188e+02 -1.6254030720470195e-03 -2.1992837589006255e-02  3.1546418458687001e-13 -3.6681673610017340e-19 2.3080570569314479e-16  1.4203535451850473e-14 -1.4719205917916447e-19 2.7321337278856124e-15  -5.4997172235821363e-14 -2.5624844528546177e-18 1.5315478381024867e-14  -4.7693364714599333e+01 -4.0017523313846609e-03 6.7738663528769654e-03  3.9187553574205805e+02 -3.0874497458278213e-03 -2.0816375436450322e-02  8.3604325364946532e-14 -1.2271589414317631e-18 1.3168037996902639e-16  5.8113109973824664e-15 -1.7977599449958904e-19 1.3572730440116613e-15  -2.2251136947702536e-14 -7.6704858196243481e-19 1.2715279653347274e-14  -4.7393967818089585e+01 6.4239061184981697e-06 -1.7517285652090139e-05  3.3412688651438970e+02 -4.2441382410446978e-03 -2.0431696106249550e-02  -3.8583070597366032e-14 -1.5386808119204063e-19 6.6888318276574010e-17  -7.7288377403121349e-15 -7.1952048221787733e-20 8.9456537198373916e-16  2.1911410118609815e-16 -2.0938141767119624e-19 6.8563687963350785e-15  -4.7264070926510882e+01 -1.6825264324570850e-05 2.6479755466132043e-05  1.6342365441891070e+02 -8.3749742582721384e-03 -1.9459003899050437e-02  2.2353088288233296e-13 -8.0060707325352289e-19 1.2380909409848245e-17  1.0500436566284795e-14 -2.8347313634379492e-19 2.8593812013808878e-16  4.9925101106859693e-15 -1.3166018921046420e-19 3.1645478877406922e-15  -4.7250227671720154e+01 7.2550812233136126e-06 -3.1621765846991687e-05  5.6786921113779975e+01 -1.0256698752058665e-02 -1.6082996922981124e-02  9.9610565399887297e-14 -7.3325144550988507e-18 -4.7780623734171514e-17  6.2636747635612654e-15 -1.0914034056000030e-18 -4.2351636241196825e-17  1.3881284734070971e-14 -6.5570581863827977e-19 6.8043027179343232e-16  -4.6747745623977714e+01 9.8181117031960200e-05 -1.3042524586169820e-04  8.4567337227361463e+00 -1.1023669609972885e-02 -1.1916006698093024e-02  7.8047546505347716e-15 -7.6017237988210026e-18 -6.8499570228175953e-17  1.4269609605844063e-15 -1.6661388338552840e-18 -9.0294794553597338e-16  2.2034837652076363e-15 -6.8402215909476747e-18 -3.0313011635823727e-15  -4.4186789091400506e+01 3.5202224854232264e-04 -9.2947755154484176e-04  -4.1830421746911142e+01 -1.5460959912497810e-03 -9.5120238001880077e-04  -1.4490807500784904e-14 -1.0087108453338866e-17 -2.5686085861209410e-17  1.8671323605890282e-16 -1.2357369197079960e-18 -2.5966300009385504e-16  1.1160817561121557e-15 -5.0101779760760386e-18 -6.5470427669862952e-15  1.2402147752464277e+01 -2.3537557402957186e-02 -1.2856055831522505e-02  1.6077945524185125e+03 -1.7040544331821283e-04 -2.9985533039190018e-02  1.9438446633914424e-13 -4.7792178629163179e-19 2.1415159933120185e-16  -4.5711687249158040e-15 -4.3272842684249909e-19 1.0417640895495824e-15  -8.2724479377909870e-14 -6.1676752625014347e-18 1.5032346747376157e-15  -1.4368447186639773e+02 -5.1344077089908796e-03 8.8382020293383858e-03  7.3896791797892661e+02 -3.5190460360874422e-05 -1.5679037035018391e-02  -2.3178747657756824e-14 -6.9690961731217699e-19 9.9527121751083757e-17  -1.0595363885376854e-14 -2.0416462825047151e-19 9.7509272713507505e-16  -4.7406087029880664e-14 -3.6838439837901986e-19 4.7772151298798597e-15  -4.8490598461947719e+01 -4.6715654094955427e-05 -2.0222923454571692e-05  5.4604050299720382e+02 -1.0410346220651786e-03 -1.5488703741747448e-02  2.0869782448982663e-13 -3.1229006118005111e-19 8.4819988337129756e-17  5.0585784944001336e-14 -1.5172846849378983e-19 4.8883864354862197e-16  -4.9896873259676572e-14 -3.0883126696187394e-19 2.6120359649563729e-15  -4.8451645093956699e+01 -6.1594667999243058e-05 -1.5998848814754901e-04  4.2173255144133145e+02 -2.2068320952784840e-03 -1.5055654834239530e-02  1.0139823515897717e-13 -7.8040780067963178e-19 4.7659263565701056e-17  1.1450505032122574e-14 -1.0778555865944970e-19 3.9924706676505410e-16  -3.0807354144696565e-14 -2.0788973825805285e-19 2.2939514296866450e-15  -4.8214786961113560e+01 -1.5159560809115792e-05 -1.6715763364811119e-04  3.6149232742646984e+02 -2.9319743659552821e-03 -1.4798986477179796e-02  2.3406199713516118e-13 -4.3309912364011803e-19 3.0527833357166894e-17  7.7381054829104067e-15 -1.2173234032523705e-19 2.1426985669447994e-16  -2.8338472897928908e-14 -5.4545014126250641e-20 1.1003531269452916e-15  -4.8063949422212936e+01 2.6821870363568973e-05 -1.3775032402063965e-04  1.8710586126267586e+02 -6.3696030554822617e-03 -1.4407113128072684e-02  1.3426044746188112e-13 -3.1155272108014495e-18 2.7084688483314642e-18  1.7107033498264320e-14 -2.1573885148164082e-19 1.0792856383278917e-16  -2.0885835308371722e-14 -3.1315831573068344e-20 7.5968098404480143e-16  -4.7332617171867554e+01 2.2501721937444718e-05 -1.1269418623157907e-04  7.6444950771174732e+01 -8.8146101176393796e-03 -1.3216406812620341e-02  9.7352964507197891e-15 7.8810055151349140e-19 -3.2235637242348290e-18  9.4308688259253665e-15 -7.2982428655120672e-19 2.4209401438401539e-17  -1.0495387474755332e-14 -5.5328943415877880e-19 2.0274620998185670e-16  -4.7108326390843807e+01 8.0226904181844564e-05 -1.4113430564348424e-04  1.9306608140927811e+01 -1.0460423780463531e-02 -1.1666242286583499e-02  -3.9969229710099314e-16 -5.5489075406201367e-18 -2.5233270299303453e-17  1.8862235074481074e-15 -8.9542402832958660e-19 -1.0537861636255906e-16  -3.3765732318170024e-15 -4.8435439557335323e-18 -3.0227646808391388e-17  -4.4918883676066386e+01 5.8951058902953653e-04 -7.1100077623840628e-04  -6.0291586306449261e+01 -4.4431308203990542e-03 -2.2827949465220603e-03  -6.5862429984153849e-15 -6.9379541520044358e-18 -1.5950214869116784e-17  4.9542292168798250e-15 -1.7779853098031454e-18 -2.0242008797703911e-16  7.5188782338878165e-16 -5.0268176718218539e-18 -1.0361485335589970e-15  7.6444254659407163e+00 -2.3889489464226636e-02 -9.1652799735641582e-03  1.6432943469818920e+03 -8.3056202639817736e-03 -2.4262066399340466e-02  4.6251868882530246e-13 -1.9015502540916424e-18 2.7246093192954882e-17  9.8780826824020224e-15 -3.7398408519602419e-19 6.9572463430892700e-17  -7.7098357075271612e-14 -5.4771904488731170e-18 2.2434136930605934e-16  -1.2607060146073432e+02 -1.1277508125378069e-02 1.1194990972298622e-02  7.5670701543994187e+02 5.2512304650020154e-04 -1.3044881147671612e-02  3.8445732948785254e-13 -2.3882573469737400e-18 3.4819042628611356e-17  3.3575097479710576e-14 -2.6385364162480081e-19 1.4896467664737131e-16  -1.7107874664940731e-14 -2.6557680921493351e-19 3.5415136173768826e-16  -4.9365984811238704e+01 -1.4534009716640680e-05 -8.0683662997908412e-06  5.6343264151441485e+02 3.4998558958487378e-05 -1.2815586510703289e-02  6.0262621890819079e-13 -6.5315429049624001e-20 1.4892820289548592e-17  3.5113480311533862e-14 -7.0345748458440635e-20 9.3233313786442264e-17  -3.6838431732676385e-14 -8.6069386644518215e-20 3.6599241019285758e-16  -4.8298375319189482e+01 -5.4367775719339257e-05 -1.0912045136954700e-04  4.3769350014831156e+02 -1.1030448344242097e-03 -1.2820774870129266e-02  4.6161522693746860e-14 -5.7031189747724897e-19 9.2102569907510377e-18  1.5477951012651171e-14 -5.3801027370994629e-20 7.1375868516779244e-17  -3.5535417821426722e-14 -2.7705941582655209e-20 2.5228372680193191e-16  -4.8427230079746614e+01 5.1954707974328647e-06 -1.1978246642788725e-04  3.7660912741881157e+02 -1.7818320503785558e-03 -1.2636321561230160e-02  1.6255213340974214e-13 -9.8180469982945142e-19 1.1529447435443910e-17  1.5726946509844704e-14 -1.0237594578371074e-19 3.9587116064541606e-17  -9.1563041031021657e-15 -2.6728337822819101e-21 1.7146329592520494e-16  -4.8255609332687179e+01 5.8394925546107099e-05 -1.1845778804719387e-04  2.0017858813546169e+02 -5.3414133965724309e-03 -1.2122740181247050e-02  6.4690349355984219e-14 -2.2779928147209395e-18 5.8319161795620396e-18  1.3548657993945628e-14 -2.2370710882093666e-19 2.4063283369625779e-17  -2.4366569595622191e-14 -5.5443924546608821e-20 8.1396269697142858e-17  -4.7376761094935205e+01 3.0074956855062425e-05 -1.2855262152785087e-04  8.8175492078737051e+01 -7.6749219657000498e-03 -1.1097396404838516e-02  -1.4741941122958525e-14 -1.9505965124373536e-18 -1.4668791409585393e-18  2.9789741060013233e-15 -5.7216440566292053e-19 7.1719522248285169e-18  -2.0221363763237951e-14 -4.4103109140821237e-19 4.5705003806696260e-17  -4.7015337000934984e+01 8.3672263456863579e-05 -1.5227352798719110e-04  2.9079255649184290e+01 -9.3962517912727569e-03 -1.0170213291338454e-02  1.9614096695541177e-14 -3.9997925587337488e-18 -1.1188903984688430e-17  5.5365292307044680e-15 -8.7841052069020334e-19 -3.6929057399220120e-18  -1.7580160030364997e-14 -5.4217880540185428e-18 -2.4093987510932825e-18  -4.6520231474980314e+01 2.2666796440841359e-04 -1.1985131378202025e-04  -7.2177081071243080e+01 -6.7236904853398786e-03 -3.1304189308484697e-03  8.4066617537355377e-15 -2.4397911102486734e-18 -8.8910932443439530e-18  1.4749694644302571e-15 -7.9384979854214610e-19 -3.0339594891456532e-17  2.9562536929550217e-15 -1.4547604613922036e-18 -4.9717971598099732e-17  -9.5524241212154415e+00 -2.1448278417883632e-02 -8.9267983367977456e-03  1.6582780856902839e+03 -1.8689300116952714e-04 -1.5698272331120741e-02  2.0797516554752111e-13 -2.2332783652206391e-19 -3.0167155005381401e-19  9.3750099072512829e-15 -1.5817389173862115e-19 7.4690418443628976e-18  -7.6242735827690158e-14 -1.3950530251717609e-18 2.4959615534559995e-17  -1.1625074438805977e+02 -7.3393665559045324e-03 1.3328941973732550e-02  7.6411160150571311e+02 4.3149242556204107e-04 -8.7989155174601971e-03  2.5267701505567551e-13 -2.8692197255782013e-19 4.6266543284120281e-18  3.1685700211703963e-14 -2.5917972868707626e-19 1.2544976523396031e-17  -3.1558712126323198e-14 -1.2711329327360428e-19 3.8967174528368012e-17  -4.9735262722027940e+01 1.3616158463113318e-05 -1.7249500346111043e-05  5.7100699711104778e+02 1.5470577248846836e-04 -8.5936878098067538e-03  2.8023706539166332e-13 -8.5035647381073495e-20 -3.3042422982359985e-18  3.7793370674550146e-14 -9.2727842425178206e-20 1.3382016348947799e-17  -3.8540487087031016e-14 -4.7711850457799980e-20 3.9840035619373829e-17  -4.9176875552253335e+01 -5.6979012651021884e-05 -1.1667176383846712e-04  4.4545006040144358e+02 -7.8626386711173402e-04 -8.7119502505576020e-03  3.7949328520331825e-13 -2.1678034709146326e-19 -6.2960414189849135e-20  4.6236853027648791e-14 -5.6865868891630274e-20 8.8759759576292706e-18  -2.5710775739214996e-14 5.1198864273039455e-20 2.6501607023859310e-17  -4.9168534620034208e+01 3.9240582453081009e-05 -1.2652662142272558e-04  3.8430811781965258e+02 -1.3092358867329639e-03 -8.6936262919071802e-03  1.2065888978788876e-13 -5.7215005216963095e-19 4.1563869940466769e-18  2.1138287608465993e-14 -6.0619515691857847e-20 6.4049210951998090e-18  -3.8511152333753978e-14 3.3217886274366608e-20 2.0926725547457737e-17  -4.8817440088042993e+01 7.2255392446363809e-05 -1.2623174260972537e-04  2.0777202739737578e+02 -4.9258426165940837e-03 -8.6873136877619675e-03  1.7898922661437101e-13 -5.1953260213584356e-19 -2.2426413186095835e-18  7.0866404613870536e-15 -2.2368355491010451e-19 3.0739854624292916e-18  -4.2749708673949982e-14 -8.1538598392391171e-20 1.0679988339434161e-17  -4.7698586753698379e+01 4.3385304900786285e-05 -1.6221210931789928e-04  9.5483648659749022e+01 -7.2412391637347168e-03 -7.9594943105760051e-03  9.8973962669215280e-14 -1.8122673828591669e-18 -3.2218086806385190e-18  3.6889776622777860e-15 -7.5978294321139440e-19 1.6726999926924971e-18  -4.9436774226409835e-14 -6.2381217431089877e-19 5.5589158949886825e-18  -4.7427486860780149e+01 1.0115430855529422e-04 -1.7939017367986999e-04  3.4861161838072569e+01 -9.0094132628958552e-03 -7.4431020757340215e-03  4.2793060792518454e-14 -1.2440047632291512e-18 -1.9974329165805211e-18  4.7886021469292676e-15 -8.6119122783190436e-19 -4.6968749342891792e-19  -1.8738765704544949e-14 -5.9269070019389493e-18 -7.8966900548385704e-19  -4.6935080430208842e+01 3.1937204572594837e-04 -1.0031884170164725e-04  -7.9385347005069320e+01 -8.6343484819874170e-03 -3.2557685497628373e-03  1.7006488330815854e-14 -1.6191290899777802e-19 -9.8901606995553144e-18  -9.8044893873191850e-16 -4.3232002606038614e-19 -2.5151789970007660e-18  2.2248940782510881e-16 -5.1897717978769338e-18 -2.9808738081669926e-18  -9.4130388886251275e+00 -2.1523254596802252e-02 -5.5869743206418201e-03  1.6668229236124655e+03 -1.2307063216396466e-03 -1.2942259524980482e-02  2.7157930629195083e-13 -2.5259514990951209e-19 -1.2397709258512742e-18  1.4735036763033144e-14 -3.3172940327190416e-20 9.3805703480777354e-19  -7.4275992121114448e-14 -8.7735364729366193e-19 3.4983297746742562e-18  -1.1232493596251624e+02 -2.5626543251564900e-03 7.5502121860882478e-03  7.6857619253307337e+02 5.1163507857156362e-04 -7.0673226490625216e-03  2.6688057740914410e-13 1.6157749069984295e-19 -1.5251980904955148e-18  -5.0034968995954460e-15 1.2958629505623486e-20 1.1858729838217587e-18  -3.7341285745826786e-14 -9.8838778794055250e-20 3.9121585011328144e-18  -4.9886498648323908e+01 8.9475137555125988e-05 2.9990059052941017e-04  5.7540120373915295e+02 4.2545195811572958e-04 -7.1237750255975759e-03  8.5560169595926434e-14 1.6156094156327892e-19 -3.2174276813391995e-19  1.5140974082813097e-14 4.6538653606701672e-21 1.5663227809390419e-18  -3.9494334668217946e-14 8.4945992709851825e-20 5.3300605260595584e-18  -4.9856311810674910e+01 -9.0180844742453705e-06 -1.5560923673405827e-04  4.5024591278510178e+02 -3.2132958007133870e-04 -7.2375898298520681e-03  1.7840450078707591e-13 -1.6502587672097710e-20 -8.9235492855641940e-19  3.7554660758715383e-14 6.2549244540068820e-21 7.6348905256621683e-19  -3.9483489660484290e-14 1.3104406598259130e-19 3.5266562848076902e-18  -4.9506109078927892e+01 6.1333497083748611e-05 -1.7113461667831890e-04  3.8933009513854603e+02 -8.1388089132393459e-04 -7.2916179427539272e-03  1.5969309888453780e-13 -7.3424744289996279e-19 -5.6113015101528028e-18  7.3081057621046078e-15 -5.7727544096264375e-20 7.4289216637211582e-19  -4.4292793867582555e-14 6.8115418133984786e-20 2.4544202594061035e-18  -4.9094751622660198e+01 7.8606394246674301e-05 -1.5006016643229141e-04  2.1272950546309551e+02 -4.8648267285611082e-03 -7.2985665131756021e-03  7.8113836815997630e-14 -7.6464301529753719e-19 -3.5958594201754716e-18  1.5436199382050904e-14 -2.9125340921907967e-19 1.7960312761484662e-19  -3.8748915554550099e-14 1.8026217940815545e-20 1.7222321617252052e-18  -4.8015463741433848e+01 7.5166260188371626e-05 -2.0500554002357465e-04  9.9641898290186717e+01 -7.1007849449528015e-03 -6.6988592194457816e-03  4.7446314097993188e-14 -2.5064951693920342e-18 -1.2427104439205154e-18  1.6018511834983931e-14 -1.0864991016504575e-18 6.8715964771577632e-21  -2.5332171565261887e-14 -4.9875904827018268e-20 7.8866274507722607e-19  -4.7943263292963742e+01 1.3700872704532882e-04 -1.9983675536881215e-04  3.8267852259835585e+01 -8.8290581967821104e-03 -6.3176861263780134e-03  8.8611741828393284e-14 -2.6512455065823366e-18 -3.8899768194679136e-18  7.6065479188764728e-15 -1.1090818973513737e-18 -2.4078337912345374e-19  -1.1700561188470077e-14 -3.3732874090881667e-18 -3.0168320873271008e-19  -4.7387856505573581e+01 5.0095843758060307e-04 -1.4009237300957557e-04  -8.2114659237417655e+01 -1.0220785405572804e-02 -3.2149407925973665e-03  2.5636198092248509e-14 7.4905276616424199e-19 -6.0566035683078737e-18  6.1446447729658318e-15 -5.4095829463933205e-19 -8.7197767822302895e-19  3.8031203510952080e-15 -4.0037819244509465e-18 -3.4591729471484547e-19  -8.6628410194716619e+00 -2.2340284331507736e-02 -5.1649161504851732e-03  1.6738493195086271e+03 -1.8850208899580739e-04 -4.3775133251068464e-03  3.4130468867989135e-13 7.8388069704544012e-21 -2.7386827281618302e-19  -1.4930100961891800e-15 2.3421291615855356e-20 7.0508750559644458e-20  -9.7828013918916940e-14 -3.6996688786546702e-19 4.9100655704569947e-19  -1.3555438410542303e+02 -1.0109614964603727e-03 3.4305828634029235e-03  7.7198287995507690e+02 6.6766708950946932e-04 -2.6984499197333766e-03  3.1670070863510184e-13 5.5291362465525698e-20 -2.2846335736344324e-18  1.7816