<?xml version="1.0"?>
<VTKFile type="UnstructuredGrid"  version="0.1"  >
<UnstructuredGrid>
<Piece  NumberOfPoints="405" NumberOfCells="1536">
<Points>
<DataArray  type="Float64"  NumberOfComponents="3"  format="ascii">0.45 0 -0.2  0.475 0 -0.2  0.5 0 -0.2  0.525 0 -0.2  0.55 0 -0.2  0.451237614226924 0.02552274861493882 -0.2001525714292533  0.4758355228197009 0.02512153568750344 -0.2000971786973179  0.5006260354030997 0.02500022020498889 -0.2001146786635304  0.5255409600713279 0.02488911593579685 -0.2001689964348676  0.5505709588780692 0.02457998583358518 -0.2002354623603065  0.451750374370507 0.05067920824853234 -0.2002249727324831  0.4764595060668145 0.05032269533470429 -0.2001663795585036  0.5012523329764353 0.05009006274715348 -0.2001677496809188  0.5261575689526887 0.04986921388249906 -0.2001872239550944  0.5511524389674978 0.04949596430365741 -0.2002105052656992  0.4520646235990834 0.07573416725531064 -0.2001971446680402  0.4768795113635417 0.07545075449254754 -0.2001719370959588  0.501734766710364 0.07517370257014194 -0.2001722659876489  0.5266586238392432 0.07489117990080103 -0.2001759519812575  0.5516311888066872 0.07453896550869599 -0.2001798248417737  0.4522692891093332 0.1007304499848699 -0.2001247812413402  0.4771526887580792 0.1005031684216603 -0.2001337767200836  0.5020653884020858 0.1002246302874231 -0.2001521730100405  0.5270126812663447 0.09992813548293913 -0.2001657051074382  0.5519801860666962 0.09962508393484334 -0.2001786312918068  0.4523939843723811 0.1257091443162275 -0.200031245788895  0.4773331564127175 0.1255167970200032 -0.2000796395646432  0.5022859427575027 0.1252496159504935 -0.200125649706925  0.5272524533374341 0.1249636240975735 -0.2001641795022147  0.5522247553912176 0.1247059990150383 -0.2002029193913259  0.4525020873813058 0.1506899685528829 -0.1999477127009564  0.4774724299435447 0.1505071847418747 -0.2000283352288366  0.5024508844675096 0.1502577225287532 -0.2001022524825493  0.5274313120638885 0.1499901226840603 -0.2001693075012095  0.5524122737663357 0.1497586093757979 -0.2002380656844451  0.4526422965689574 0.1756855920032479 -0.1998942335519401  0.4776233652643435 0.1754971611509597 -0.19999092511841  0.5026125173261078 0.1752597047382404 -0.2000851269818792  0.5276023215798272 0.1750062478088803 -0.2001755287628658  0.5525926090335413 0.1747797369035688 -0.2002677359002895  0.4528174640573218 0.2006921701519517 -0.1998610048541519  0.4778115912808467 0.2004939632713517 -0.1999629961340145  0.5028150244608329 0.2002600730926583 -0.2000720719062043  0.527808689777892 0.2000127493236493 -0.2001797579482879  0.5527993810130715 0.1997819147547301 -0.2002826767192597  0.45 0 -0.175  0.475 0 -0.175  0.5 0 -0.175  0.525 0 -0.175  0.55 0 -0.175  0.4511337925645617 0.02557479736550132 -0.1750582003627484  0.4758354537957968 0.02516961670441947 -0.1750651197039597  0.500647765821532 0.02503902537094735 -0.1750808836582564  0.5255786686386841 0.02492859924965785 -0.1751153688863372  0.5506378831755158 0.02461879791163246 -0.1751588249028348  0.4516765831277877 0.05070839280102378 -0.1751011740215268  0.4764580606045522 0.05034696284720134 -0.1751132526363927  0.5012780150449035 0.05011028456170472 -0.1751308369564212  0.5261922670739294 0.04988097322179131 -0.1751585792521408  0.5511938120255073 0.04949697078111958 -0.1751960435356235  0.4520330245292655 0.07572829229898129 -0.1750860986772971  0.4768940094453964 0.07544461773306625 -0.1751162020250554  0.5017642217244147 0.07517236982130943 -0.1751404543503623  0.5266905225853319 0.07488888320882564 -0.1751661107993181  0.5516604361843822 0.07453036331364347 -0.1752030140128452  0.4522793482116264 0.1007056830456172 -0.1750352509721541  0.4771902823889067 0.1004791050319099 -0.1750872281211847  0.502107645687991 0.1002122102340922 -0.1751279190823651  0.5270529935701532 0.09992410580088325 -0.1751652118517152  0.5520163803523286 0.09961962944477125 -0.175212085957733  0.4524436824961592 0.12567551175063 -0.1749708030895313  0.477394248129639 0.1254868759859039 -0.1750454602278149  0.5023463933750371 0.1252347963607643 -0.1751085025458112  0.5273099413695553 0.1249621270941678 -0.1751662657206188  0.5522802057122795 0.1247058717708157 -0.1752306089299203  0.4525831116430651 0.1506602328564975 -0.1749131761088711  0.477555109574214 0.150480784057329 -0.1750067996120352  0.5025305244023064 0.1502447082743179 -0.1750912597779853  0.5275085432479669 0.1499905937996975 -0.1751706907756685  0.5524904344236937 0.1497617351556123 -0.1752539833553243  0.4527388105817024 0.1756612102382824 -0.1748748433254734  0.4777202883281607 0.1754762808397713 -0.1749798239474815  0.5027072934442114 0.1752493752997687 -0.1750794642094554  0.5276956473477843 0.175007033957809 -0.1751756143969633  0.5526883463007212 0.1747838534685412 -0.1752736266604206  0.4529145892085866 0.2006672913962702 -0.1748562196084572  0.477912369257651 0.2004748222427234 -0.1749652896435443  0.5029143793393782 0.2002514381545819 -0.1750728081143023  0.5279080194552604 0.2000141836839636 -0.175177501909503  0.5529020680097829 0.1997871744784964 -0.1752820181053066  0.45 0 -0.15  0.475 0 -0.15  0.5 0 -0.15  0.525 0 -0.15  0.55 0 -0.15  0.4512192615177926 0.02559070104260495 -0.1499978726059412  0.4758797024516982 0.02517358922748068 -0.1500402286884024  0.5006746385599438 0.02504455177317718 -0.1500574052569568  0.5256034699183805 0.02493605415504752 -0.1500827855062664  0.5506754252798735 0.02462017204058423 -0.1501161787677258  0.4517717846254404 0.05073153610764992 -0.1499995256745958  0.4765263656154236 0.05035951223216574 -0.1500606920905865  0.5013307777234013 0.05011943670216271 -0.1500936048611567  0.5262434180010402 0.04989017597222613 -0.1501301308726752  0.5512493950153357 0.04950070262044043 -0.1501782852461031  0.4521344134460525 0.07575245787835419 -0.1499807878706894  0.4769765243104448 0.07545779539385625 -0.1500580827971207  0.5018351460553142 0.07518010908997161 -0.1501043523771998  0.5267579478697365 0.07489290796715581 -0.1501503371505192  0.5517249412357746 0.07452751414656283 -0.1502108577528597  0.452389340135716 0.1007235895565678 -0.1499453535682266  0.4772840789552173 0.1004878575939681 -0.15003606441465  0.5021914359814267 0.1002160045879079 -0.150098901885272  0.5271322259410852 0.09992330712831847 -0.150158838484054  0.5520902570947989 0.099610209611749 -0.1502322635688967  0.4525579303891254 0.1256874993961525 -0.1499037553027797  0.4774961246692447 0.1254918132396615 -0.1500067761022541  0.5024401298250206 0.1252357235014821 -0.1500876817552169  0.5273995336088163 0.1249590110132286 -0.1501647078446009  0.55236541105688 0.1246936906794638 -0.1502518624693101  0.45270056117997 0.1506663012261118 -0.149868200390654  0.4776629975488679 0.1504825033700984 -0.1499807541118187  0.5026322994106818 0.1502441604994519 -0.1500777752284838  0.5276073686709716 0.1499871470194881 -0.1501710652726626  0.5525872098889216 0.1497504137540767 -0.1502709977018697  0.4528592803626887 0.1756635152623379 -0.1498453190996683  0.4778326471070556 0.1754763584876172 -0.149964328166559  0.5028148278729624 0.1752485307758947 -0.1500722396832909  0.5278014849532139 0.1750045184305324 -0.1501770901169399  0.5527944389416739 0.1747758742063748 -0.1502867057161102  0.4530362208672482 0.2006676152556734 -0.1498413487620323  0.4780259563331786 0.2004737587473084 -0.1499616951708342  0.5030236502238312 0.2002506992237149 -0.1500722338768844  0.5280170997284603 0.2000132452527883 -0.1501797460257737  0.5530137908295936 0.1997834858518101 -0.1502922522111396  0.45 0 -0.125  0.475 0 -0.125  0.5 0 -0.125  0.525 0 -0.125  0.55 0 -0.125  0.4512940204558754 0.02561537244506372 -0.1249552366632135  0.4759347032774212 0.02517753447112312 -0.1250044017220433  0.500712767226807 0.02504596443259815 -0.1250330296709856  0.5256355352250577 0.02493630858153991 -0.1250627198617946  0.5507122889473863 0.02460719546241338 -0.1250988257790688  0.4518807066964069 0.0507617669138726 -0.1249244436623483  0.4766159621009328 0.05037322772633748 -0.1250013449314134  0.5014030549606072 0.050126067912005 -0.1250540750331132  0.52630813112816 0.0498918196404118 -0.1251036091815613  0.5513142287414848 0.04948805361616031 -0.1251613167204867  0.4522581418209088 0.07578397014344122 -0.1248940478134653  0.4770865327180444 0.0754774212121912 -0.1249918150446171  0.5019310886300365 0.07518981839463371 -0.1250624879448712  0.5268464252647387 0.0748942075931424 -0.1251285596190924  0.5518094371972456 0.074516049950355 -0.1252060881724114  0.4525208733017618 0.1007522847760767 -0.1248641323704081  0.4774051418343024 0.1005077359729718 -0.1249758556917  0.5023017382677477 0.1002258256363333 -0.1250628885147198  0.527235800431933 0.0999232804358428 -0.1251448826335979  0.5521884737268137 0.0995989123507225 -0.1252385897820372  0.4526918683578141 0.1257113659487936 -0.1248371547176861  0.4776222290980716 0.1255098326327372 -0.1249590343927232  0.502558265856956 0.1252444643030199 -0.1250606423361957  0.5275123403904888 0.1249581250794126 -0.1251575724993137  0.5524736325325024 0.1246830189679832 -0.1252643352369887  0.4528346561303079 0.1506856209173265 -0.1248180689226198  0.4777909840979436 0.1504974417894089 -0.124946559771742  0.5027546856073372 0.1502516211519084 -0.1250597398484039  0.5277260617581003 0.1499862610098086 -0.1251690073933976  0.5527031476876564 0.1497412721693234 -0.1252859331830328  0.4529947648050739 0.1756805311341751 -0.1248092809899192  0.4779623594258979 0.1754894418324111 -0.1249420379358522  0.5029400732113437 0.175255461116163 -0.1250621004431742  0.5279244813705651 0.1750043586308333 -0.1251790306826363  0.5529167566683489 0.1747686483775186 -0.1253031497051311  0.453175201739079 0.20068418367531 -0.1248168512305979  0.4781586730767194 0.2004857795503203 -0.1249497097984167  0.5031525447034841 0.2002575041568972 -0.1250689949618095  0.5281448013161691 0.2000141415280248 -0.1251851061725622  0.5531425127892977 0.1997779961539434 -0.1253102819995753  0.45 0 -0.1  0.475 0 -0.1  0.5 0 -0.1  
[...]
<PointData  Vectors="traction"> 
<DataArray  type="Float64"  Name="traction"  NumberOfComponents="3" format="ascii">2.3662773263152080e+03 -5.6562469504852324e-02 -4.0210385769150155e-02  3.8704660631501417e-13 -4.5285691057565869e-18 -7.2987926979227049e-19  1.6534430736707526e-14 -3.0317588930267191e-19 1.3015248766397941e-16  2.6707947259598371e-15 6.1086883094931222e-19 3.7501066904170214e-15  2.0467954327179641e-02 3.6729282108276542e-03 2.4343117485197393e+01  1.4652299401996693e+03 9.6095145957516490e-03 -3.0028374148231247e-02  3.4937008340622959e-13 -3.3391530210940830e-18 -5.7366928690564784e-18  2.3870591953143373e-14 -1.3966100980865825e-19 -3.3396253402948639e-17  1.5493234413376993e-15 -7.7224188029045239e-20 -1.3531674788221383e-15  2.0417025390913435e-03 -1.5636720489259614e-05 2.7086673932475422e+00  8.9453104126235417e+02 2.8343469591176798e-02 -2.7220900053938811e-02  2.7229604692321634e-13 4.7157833769051232e-18 -1.3075553602217355e-17  1.5765349196882718e-14 1.4389923616649149e-19 -7.8873246400503994e-17  2.3555883922103843e-15 9.7532848744004838e-21 -9.2010194788601937e-16  -1.4556054262761291e-04 1.4957585778813023e-05 -6.1716742537701315e+00  6.2173603032906442e+02 3.0716665647000253e-02 -2.4499664688100380e-02  8.5365038798282811e-14 3.3417200120101992e-18 -1.1496570670783937e-17  8.1121665127223930e-15 2.2674826478255994e-19 -9.6687183864357592e-17  9.0839162197587220e-16 1.8772412541746089e-20 -1.3048674065699467e-15  -1.3723794353629306e-04 -1.6778155356628003e-06 -5.7859762048114716e+00  5.1445663096497765e+02 3.3380587958764238e-02 -2.4446159603266085e-02  9.7714918338405329e-14 2.2487856893678430e-18 -1.0174968481264883e-17  8.2243236216622495e-15 2.5492297569198049e-19 -8.2106390617430116e-17  2.5560439300870726e-15 1.8645812399803937e-20 -1.2824714669588135e-15  -1.2840383404273597e-04 -1.2935785485553305e-05 -5.7182224747629720e+00  2.6831913240548732e+02 3.1823388218486778e-02 -1.7436989390199133e-02  1.0591901834624423e-13 9.2523511761385572e-18 -1.3759906877334265e-17  5.6124301969391727e-15 4.2585594506867932e-19 -8.6295732661778753e-17  2.7731503830162973e-15 1.9075142627370127e-20 -1.0006838347488370e-15  -1.1232825643915702e-04 -2.4247733594832904e-05 -5.4820377080495701e+00  1.4675633016576927e+02 2.5843862578894365e-02 -1.2075480435384421e-02  3.7547464868832649e-14 6.0712199798032734e-18 -1.3476414682092237e-17  4.8137687985691029e-15 5.3480733009789167e-19 -1.1314845022027822e-16  2.3241525995533872e-15 4.1954232416689094e-20 -8.6761856307288030e-16  -1.0411927884879702e-04 -3.3159924132883050e-05 -5.4900363443968052e+00  9.9258496478791955e+01 1.6397727236172964e-02 -7.0315228435755004e-03  1.6595110402108278e-14 6.0453074738913995e-18 -9.4157806797691667e-18  2.2245049410335416e-15 5.6077613519575067e-19 -1.0153441592315498e-16  1.0122179156065641e-15 3.7692035428028922e-20 -1.5735399637933938e-15  -1.0074928649209771e-04 -3.4317794427209933e-05 -5.4911556069568856e+00  1.1312609292936450e+02 4.4089214765358688e-02 -1.6495826178211295e-02  2.4528247902402016e-14 8.2540939085605360e-18 -6.4729231519892451e-18  2.0508582122906240e-15 7.1807754975920346e-19 -4.9735385131230889e-17  1.7114621325106151e-15 6.5286787545498005e-20 -6.9661392467528935e-16  -2.8617649864993863e-04 -9.9803905839390903e-05 -1.6325474442879422e+01  1.5775182175434709e+03 -3.7708313003234892e-02 -2.6806923846100107e-02  2.4353769160127812e-13 -8.4428718239671879e-18 -2.4649263421747099e-19  2.9696041160318064e-14 -5.5786263637863474e-19 9.7509435062121499e-17  3.1724834367116657e-15 5.0989932197708352e-20 3.8574461418173079e-16  1.6995450674147328e+00 1.6381419433962176e-05 -3.0921346090135674e-05  7.3261497009983361e+02 4.8047572978758097e-03 -1.5014187074115611e-02  2.2823970747395995e-13 -8.9766607489002983e-18 5.2255198105001414e-18  2.7566870065512703e-14 -4.8304069447738325e-19 -1.1493988575571677e-17  7.7653624935558189e-15 -1.5733567304617009e-20 3.0628823645331718e-16  8.7745025460244719e-01 -6.1600855932467969e-06 -1.3032127119572052e-05  4.4726552063117794e+02 1.4171734795588401e-02 -1.3610450026969428e-02  1.8405291973598564e-13 7.5382834504721035e-18 -1.2753780486146273e-17  2.0116436724996618e-14 1.5634956617040213e-19 -2.5272886743276003e-17  6.4255144826175641e-15 -4.2301487701961585e-20 -1.3494543118391413e-16  1.1809929925019280e+00 3.6078513766439310e-06 -2.6823121902583419e-05  3.1086801516453198e+02 1.5358332823500114e-02 -1.2249832344050192e-02  1.3792809403763980e-13 5.7465261356364920e-18 -8.6835965251725406e-18  1.6618719507336144e-14 3.2221181312347790e-19 -3.0933931637622446e-17  4.1588954540219188e-15 4.7457936266713330e-20 -2.1694051298729921e-16  1.3850124534112418e+00 1.4467693658763746e-06 -2.7047286134875322e-05  2.5722831548248905e+02 1.6690293979382109e-02 -1.2223079801633053e-02  2.0216839333782391e-13 2.5101517283982702e-18 -7.3721833697153902e-18  1.2840729441581855e-14 4.3563759087834659e-19 -3.4962531797246053e-17  2.5696692352377883e-15 5.6911161618538151e-20 -2.4820388076293269e-16  1.4702745054139292e+00 1.2450254083164904e-07 -2.6085827873627255e-05  1.3415956620274358e+02 1.5911694109243400e-02 -8.7184946950995736e-03  1.1281814317018258e-13 1.3787601934871756e-17 -1.4734988659643680e-17  1.6691614142087044e-14 8.7323595190885064e-19 -2.9107865063628358e-17  2.7413586180491997e-15 2.6978868053084439e-20 -1.8144391482871242e-16  1.6826435315929686e+00 -1.2077594940519042e-06 -2.0558109936194980e-05  7.3378165082884635e+01 1.2921931289447181e-02 -6.0377402176922199e-03  8.6264234702778117e-14 1.2837780915495699e-17 -8.9279990379064393e-18  6.9552477189523241e-15 1.1489653639652266e-18 -2.5518400831848412e-17  2.8633360561368578e-15 1.6765166855304862e-19 -1.4460273934799975e-16  1.8094335700682802e+00 -4.5157993750982607e-07 -1.5053024179869868e-05  4.9629248239395992e+01 8.1988636180864768e-03 -3.5157614217877498e-03  2.5900036913112119e-14 1.0500719134152997e-17 -6.5038908473347715e-18  3.1568693941431023e-15 8.1116981461522514e-19 -3.6852443531090151e-17  1.1637408533526371e-15 7.7963754876661215e-20 -1.9215241784831748e-16  1.8717230909921372e+00 2.5414299086826284e-07 -1.1551754398327612e-05  3.7708697643121575e+01 1.4696404921786217e-02 -5.4986087260704298e-03  1.3660858798072819e-15 7.0580033464719703e-18 -5.4126486557455698e-18  2.1783423023238061e-15 6.4627914526262475e-19 -2.1712916795849812e-17  1.3298728117152981e-15 1.7434125397069174e-19 -2.5087531595003002e-16  4.0452104315067565e+00 7.1413347818294108e-06 -8.1144793967433351e-06  1.9265322856594767e+03 -7.3229091376877664e-03 -1.4814647299462630e-02  4.2156758011066913e-13 -2.5802337952625196e-18 -1.2272444800811167e-18  2.1613538416947937e-14 -2.7041743871392826e-19 1.2777344010382447e-17  2.1845110606347126e-15 -2.5701631591787681e-20 -2.0282375271321843e-17  1.5188460697850319e+00 -1.0847060076005754e-06 -3.3829609604393248e-05  8.9842109980967041e+02 6.1928668964330632e-03 -8.9875440229248062e-03  2.1619605279064639e-13 -4.6777228810193912e-18 -5.2745891380249692e-18  9.6458295463210321e-15 -3.9393218267590006e-19 9.4102680657119179e-18  3.4440726474242700e-15 -8.9223629706585345e-20 7.0516537315494006e-17  8.3079236861946826e-01 1.3878972188771492e-06 -1.3113359108109944e-05  5.8356164969516749e+02 1.4143389619716961e-02 -7.9853995390996059e-03  5.5360600897662699e-14 2.4338632463126789e-18 -8.5814443121089450e-18  1.6793214248113105e-14 2.7264068665733499e-19 -5.2133698260152601e-18  2.7145317237087771e-15 -6.1614189756837179e-20 2.0568932281332387e-18  1.0749087372043000e+00 1.8873452346726991e-06 -1.2866219453430549e-05  4.1950904681910362e+02 1.4274863015585360e-02 -6.9240132815895604e-03  1.9203445258259372e-13 7.3533768809755359e-18 -5.6549485872306412e-18  4.0397267466539051e-14 3.4822067065561691e-19 -7.5857293016562479e-18  5.4787663552099360e-15 1.0720841304589392e-19 -2.8771156628754713e-17  1.2382418324932603e+00 1.6230803400528917e-06 -1.3506760100630358e-05  3.5080678328229396e+02 1.5790226839024674e-02 -7.2618056590319060e-03  1.1875036151079362e-13 1.2977123846307469e-18 -2.3261363305005563e-18  1.6607869470265725e-14 5.2437442838905583e-19 -7.4642257744504649e-18  3.2819590204931516e-15 8.6405572124861820e-20 -2.6981322252106277e-17  1.3157396967222714e+00 1.4358956088992636e-06 -1.3403170883765156e-05  1.8616808503132722e+02 1.7845556491726138e-02 -6.7335018668563864e-03  1.4560733206476613e-13 4.5436791985101008e-18 -7.2225757002632346e-18  2.1015371356853980e-14 9.5705385441808076e-19 -6.9385170353568551e-18  4.4559630365446600e-15 8.6005126456961842e-20 -2.6840648968322882e-17  1.5365477700805410e+00 1.7745389070994515e-06 -1.0729153615193718e-05  1.0340339682545579e+02 1.5069939161161876e-02 -4.9410404388580244e-03  1.0904842081476410e-14 -7.3199551132970980e-19 -3.9409408587001803e-18  1.2296533637726263e-14 1.4049750347792702e-18 -6.0912272341178193e-18  2.8239866672972775e-15 3.3177929992746989e-19 -2.5567192370690717e-17  1.6838904041583183e+00 3.6283404555368799e-06 -7.6740851249516006e-06  7.0257724926270825e+01 1.0492164525624693e-02 -3.1603530790836189e-03  6.2077573192584904e-14 6.2195586506749742e-18 -4.5569411450630256e-18  7.5192461954386981e-15 1.2699390413288418e-18 -7.2675719394858463e-18  3.1076782351585575e-15 2.6507643243996871e-19 -2.9515768165323403e-17  1.7647938980627249e+00 5.4926934839600535e-06 -5.7444990834601108e-06  4.9526301136084641e+01 1.6841543976240107e-02 -4.2507699089975783e-03  -7.7041718729371559e-15 7.8718181325374379e-18 -3.5130643207711534e-18  9.1933589962611252e-15 1.4001615189595186e-18 -8.4654460298886905e-18  1.6997913552615030e-15 3.1957618880174345e-19 -4.3443647637654520e-17  3.9304933449629536e+00 1.9894463458661730e-05 -1.6527286764275639e-06  2.1009707015961185e+03 -9.4451261977267689e-03 -9.8217487095998944e-03  2.4172081629409271e-13 -7.6935881164924039e-19 -8.5484312405471122e-19  1.9707928469120557e-14 -1.0302414411720848e-19 -1.0802242825654817e-19  1.6819073797529118e-15 -1.1496732662396511e-20 1.2391866549232950e-19  1.4406282534919703e+00 -5.0400810786348796e-06 -1.3816658288603473e-05  9.8484588487302017e+02 6.5028653250514615e-03 -6.0536114666712246e-03  3.9863416378439406e-13 -2.6995007879176196e-18 -2.9290805601291148e-18  1.3759330679665727e-14 -2.8155366131689895e-19 1.3964128428796851e-18  4.3085833495913224e-15 -4.1058923755577603e-20 2.3741462217865038e-18  7.8873489017721299e-01 6.4598496138683022e-07 -7.4664915428277304e-06  6.7302494596016504e+02 1.5670051736012731e-02 -5.9160258036915136e-03  5.4836735900252871e-13 8.3861280059216343e-18 -6.1501356139205355e-18  3.8757981480020827e-14 7.4111192011644808e-20 -4.3200493835933655e-19  1.6563077498652609e-15 -4.7208417695384139e-20 2.7630755477539853e-18  1.0061832972627145e+00 1.7932541814914783e-06 -8.3068068216125021e-06  4.9189358237695808e+02 1.5740808589225184e-02 -5.0877570743977519e-03  1.9272325850344428e-13 -1.4774960767156831e-18 -2.6397545276582798e-18  3.0895779551487499e-14 -1.7747059082497596e-19 -1.5166330531654731e-18  1.4019050358935562e-15 5.7442768694563141e-20 -1.6398744693785998e-18  1.1560186562057195e+00 2.2176548871184333e-06 -8.2868479138333234e-06  4.1154365887886303e+02 1.6380756020828880e-02 -4.9359983153621266e-03  2.9444812811640200e-13 4.0844744334328664e-18 1.7814458287163273e-19  2.3118359437626474e-14 2.7511097189411460e-19 -1.1865523611487930e-18  4.1886238584516356e-15 9.5280222615981988e-20 -2.7931694155302505e-18  1.2309824825175519e+00 2.4808951085405674e-06 -7.9646249476796253e-06  2.2167750110783709e+02 1.9332005180794382e-02 -4.9830208233262946e-03  -1.1302447280616323e-13 -3.0147311720822709e-18 -1.8922815644768833e-18  1.1297659036920304e-14 4.9354021975801717e-19 -1.2054053665170740e-18  4.0308751220693682e-15 7.2545397656242266e-20 -3.1024735141707114e-18  1.4573018473899795e+00 4.0687856462114530e-06 -5.8585721964480818e-06  1.2490906220477351e+02 1.7971628504145257e-02 -4.1678951322620889e-03  1.2525013087599680e-13 1.6980839589902856e-17 -3.4486351469332100e-18  7.3332999087064664e-15 5.8298141967142924e-19 -1.2919427199862908e-18  3.0315666385988788e-15 1.5171578181522291e-19 -3.0327954390574960e-18  1.6193856222301695e+00 6.6214899399211442e-06 -3.6141562672944752e-06  8.4816905722381250e+01 1.5722670228939223e-02 -3.3913745056608712e-03  1.2982415989196648e-14 1.5677695746514356e-18 -2.3641105875594015e-18  8.9433696778475284e-15 9.3229584794008236e-19 -1.2500686014182812e-18  2.8755728069501022e-15 1.1737307095318300e-19 -3.4495455302101045e-18  1.7087327201935048e+00 8.8636477695912333e-06 -2.3093610259728752e-06  6.1223967306062711e+01 1.0799947661405475e-02 -2.0665387599939572e-03  4.5477502625114763e-14 7.0652631664471889e-18 -1.5552558494791018e-18  3.3552349446455784e-15 4.7343989891113247e-19 -1.8811453224563986e-18  2.6037550068377560e-15 2.1435801007873511e-19 -5.0902807804447673e-18  3.8686591149384428e+00 2.7636006269730050e-05 1.2761003854625786e-06  2.1898076053035907e+03 -9.1847948385111317e-03 -5.7487028230620912e-03  2.6625153187632479e-13 -2.3776381735332997e-19 -1.5187859549697746e-19  2.3148478402910970e-14 -2.6864840370627789e-20 -3.1083789096208279e-20  2.4348800751251167e-15 -5.9356172109414712e-21 2.4882116305732265e-19  1.3738333313844753e+00 -2.8594297484611802e-06 -9.2744178790900869e-06  1.0281698879862190e+03 6.9116240450421565e-03 -3.9743334558936692e-03  5.5680668493749396e-13 1.6818962084460976e-19 -2.3171442965593958e-18  4.6564530607194952e-14 -9.2110877596191012e-20 -1.6572241766457090e-19  3.5657387494993262e-15 -5.3584478833159508e-21 1.9043099400707459e-19  7.5485204773880077e-01 7.1256402123675746e-07 -4.7605862164782380e-06  7.1459466647148031e+02 1.4355036721555883e-02 -3.1948026310034505e-03  5.0807341802724017e-13 3.1010340455764171e-18 -1.0659804531668935e-18  8.3003585286806870e-14 1.6627928379124580e-19 -1.9164645791076586e-19  8.0987823133859943e-15 -2.4700461140627505e-20 2.5287411690075347e-19  9.6643448455799186e-01 1.9066600734747723e-06 -4.7765287946393125e-06  5.2860780290418154e+02 1.7333548203746434e-02 -3.2805872436773467e-03  4.1211024605747433e-13 6.5731599825087883e-18 -1.0965645366013347e-18  2.7117547814593888e-14 4.8681547384286924e-19 -4.9119909260847652e-19  9.3040556191583572e-15 9.6627527588428620e-20 -1.3915427202766749e-19  1.1120915662208544e+00 2.7090976789905854e-06 -4.5322711938318421e-06  4.4478054362136896e+02 1.6372000280539652e-02 -2.9329959555474535e-03  6.9555547066578418e-14 1.5161906011448436e-18 -1.5129568602525899e-18  2.2951233548965223e-14 1.0737249471879393e-18 -4.0398888936299621e-19  4.3472560276886568e-15 3.6112106549166643e-20 -2.9588713740433018e-19  1.1861436211928433e+00 3.1999019834918396e-06 -4.2789316844320359e-06  2.4633812612241329e+02 2.0452603374400292e-02 -3.3366121562986473e-03  3.6595135576929670e-14 5.6990209481283110e-18 -1.5773493511890285e-18  9.5696890878324939e-15 5.4567741625899365e-21 -2.5990331818039120e-19  6.2299869581917326e-15 1.1174130212724570e-19 -3.2117188327125737e-19  1.4166315360867083e+00 5.5512544458483657e-06 -2.8803003720700499e-06  1.3874575539342851e+02 1.9818397145653071e-02 -2.9591859911743887e-03  1.1031339701134490e-13 7.9211710859479065e-18 -1.2871903014665349e-18  1.3602064441021879e-14 1.5417483656559076e-18 -3.3317989205251767e-19  7.0822213827277634e-16 7.0205013853323156e-20 -3.6583294178304827e-19  1.5853942883490182e+00 8.4504711903524154e-06 -1.5253561967003156e-06  9.4875634419451330e+01 1.6991286103265030e-02 -2.4117525269536596e-03  1.3112697902717613e-15 4.4342606084400660e-18 4.5312659336645951e-19  6.5270446054619376e-15 7.3895776792337216e-19 -3.7022005018139866e-19  3.8330209028138337e-15 3.3589959300266049e-19 -3.7720271196802960e-19  1.6800421564133792e+00 1.0954021697550649e-05 -7.2892983399862657e-07  7.3054580023873882e+01 1.3823535833983854e-02 -1.8546788630347320e-03  6.4746065976196965e-14 1.4322831385916623e-17 -1.2463283227116349e-18  6.9890214526111381e-15 1.2816824020491216e-18 -3.9150665857600777e-19  1.5789600535197795e-15 1.8246771092266656e-19 -5.3897318366658347e-19  3.8402597736825661e+00 3.2075011752337019e-05 1.9812103640875469e-06  2.2445805869849492e+03 -9.3043830701710871e-03 -4.6853390252318697e-03  5.4645184635918071e-13 -1.5396358312368031e-18 -5.8567318849942214e-19  3.2778437257037064e-14 -5.7003445056513595e-20 1.1952335253785112e-20  3.3272897322762654e-15 -1.4881682565682256e-21 5.6580225035509528e-21  1.3238174685207142e+00 -1.9794120172959113e-06 -5.9067665731185174e-06  1.0552936824375704e+03 7.0532703361518350e-03 -2.6375828955652620e-03  7.9670237507071514e-13 -2.1951569893891674e-18 2.3161054227787471e-19  3.7087703526835984e-14 6.6663848848826305e-21 -4.4612440971692772e-20  3.4691801682095130e-15 1.9049804887673508e-20 2.2823446935554994e-20  7.2933210047570363e-01 6.6680913972644756e-07 -3.0107973957070015e-06  7.3779210196418774e+02 1.6580492400252934e-02 -2.2382325586088520e-03  2.6873648555471633e-13 4.7027596779884557e-18 -7.3875925929593337e-19  1.0220112694930053e-13 5.0284464396598263e-19 -1.8582130639484541e-19  1.3607933892855217e-14 2.6897992668106373e-20 -5.0619838600495376e-21  9.3810312488835157e-01 2.0572723647190508e-06 -2.9103163719368287e-06  5.5055039936688263e+02 1.7574897847203858e-02 -1.9769600191902330e-03  1.5869431970115751e-13 2.6690543023929199e-18 -5.2505976475986989e-19  5.4439137413145266e-14 6.1756700010231543e-19 -1.0412352648634916e-19  1.2731429374797789e-14 8.5133927659778851e-20 -2.7837661036506233e-20  1.0825316543978638e+00 3.1055586673487739e-06 -2.6722466390041686e-06  4.6588343581865831e+02 1.5900668325833967e-02 -1.7096765588144097e-03  1.2154751010664708e-13 6.5171322112661151e-18 -3.9224007930196422e-19  3.4876490107330433e-14 7.3447607711048672e-19 -1.8190604504606018e-19  8.1286981482472537e-15 1.4706983243970887e-19 -6.0772443539199200e-20  1.1565718169216488e+00 3.7348446942171411e-06 -2.4766450854225361e-06  2.6210302492816783e+02 2.1365235624014493e-02 -2.0935861149900324e-03  -1.5188799931729466e-13 7.7864449340592833e-19 -6.6559600148465623e-19  7.3140175587154679e-15 3.4962347515126594e-19 -1.5305051769936716e-19  4.0139300606635457e-15 9.2194493660797078e-20 -6.8118265048534429e-20  1.3902098341722466e+00 6.4870108226797918e-06 -1.5711140150113816e-06  1.4950593740183692e+02 2.1083190151843789e-02 -1.9217275361025628e-03  1.3499307260745959e-13 3.6516420816256475e-18 -4.6852780427473835e-19  8.0949042083014554e-15 6.6159597286668421e-19 -2.8077113959479454e-19  1.9580123355278643e-15 1.3616970458987424e-19 -7.8498674639626867e-20  1.5646144565398890e+00 9.6304394127107627e-06 -7.2391520306535542e-07  1.0375041013635246e+02 1.7406870815278207e-02 -1.5678893956269709e-03  4.5372029593497729e-14 7.1116443908561778e-18 -7.3819037710015547e-19  1.2464361418391368e-14 6.0861139738239111e-19 -1.5320662772986021e-19  3.4878658913974659e-15 2.1642383864727403e-19 -7.8766471968510511e-20  1.6631699033587994e+00 1.2229647842964601e-05 -2.5705507137009391e-07  8.1645338123092372e+01 1.7937397085484374e-02 -1.5825357365591914e-03  4.5377976711890544e-14 1.6301141342782762e-17 -1.8739360598796906e-18  3.4042005246741692e-15 1.3155080151052667e-18 -2.3188326325559041e-19  1.4281500937018544e-15 1.2544756047093577e-19 -5.0021226520682175e-20  3.8273027415573750e+00 3.4639498101102890e-05 1.3608003085773057e-06  2.3108115635453005e+03 -8.0413752271234935e-03 -1.7189427696998013e-03  3.5049757422976574e-13 -2.1213011799348437e-18 -2.2665940601857139e-19  2.9754857950976860e-14 -6.3290452197279663e-20 -2.0414206363135589e-20  2.6674171981419276e-15 2.2784310904795477e-21 -1.0902870549836149e-21  1.2627814227921217e+00 -1.2919762273321870e-06 -1.9883580355204215e-06  1.0836653829798952e+03 8.3202999070495845e-03 -1.1158224233058110e-03  1.5187277221002183e-13 -7.3562211785855272e-20 -8.8701147436923372e-19  2.1934321628539844e-14 -2.2840768148842326e-20 -5.1239289547946703e-20  6.9343542394411942e-15 -8.6253668128130533e-22 -1.6805048381658397e-21  6.9861542749467076e-01 7.18