/*--------------------------------*- C++ -*----------------------------------*\
| =========                 |                                                 |
| \\      /  F ield         | OpenFOAM: The Open Source CFD Toolbox           |
|  \\    /   O peration     | Version:  2206                                  |
|   \\  /    A nd           | Website:  www.openfoam.com                      |
|    \\/     M anipulation  |                                                 |
\*---------------------------------------------------------------------------*/
FoamFile
{
    version     2.0;
    format      ascii;
    arch        "LSB;label=32;scalar=64";
    class       volVectorField;
    location    "0.810000000000000497";
    object      faceForces;
}
// * * * * * * * * * * * * * * * * * * * * * * * * * * * * * * * * * * * * * //

dimensions      [1 1 -2 0 0 0 0];

internalField   uniform (0 0 0);

boundaryField
{
    inlet
    {
        type            calculated;
        value           nonuniform List<vector> 0();
    }
    outlet
    {
        type            calculated;
        value           uniform (0 0 0);
    }
    top
    {
        type            calculated;
        value           nonuniform List<vector> 0();
    }
    bottom
    {
        type            calculated;
        value           uniform (0 0 0);
    }
    left
    {
        type            calculated;
        value           uniform (0 0 0);
    }
    symmetry
    {
        type            symmetryPlane;
    }
    interface
    {
        type            calculated;
        value           nonuniform List<vector> 
104
(
(-0.0497639393409016959 1.12373545479953541e-05 5.15873098956628379e-06)
(-0.0219565736205524185 -3.27466450543117329e-06 3.87337756448650479e-06)
(-0.022485979803321135 -4.39943651495064442e-06 4.06588175475902029e-06)
(-0.0223868885155572468 -3.05087874950501732e-06 3.40953976306167677e-06)
(-0.0211385112781827984 -2.82101833973510887e-06 3.74967643997584003e-06)
(-0.0195739340750013049 -7.36556338869674009e-08 8.20032698646971903e-08)
(-0.0196753784713977753 -6.34224499064545431e-08 -8.41261535457359805e-10)
(-0.0197299122983331451 -2.25953563547007898e-08 -1.7737342960229411e-07)
(-0.019850268674458077 5.68590188740216195e-08 -2.16912733287562751e-07)
(-0.0198031592772936055 8.20240246520214665e-08 -1.85843497296514956e-07)
(-0.019950331469672445 6.75473106154707911e-08 -1.59612454379430704e-07)
(-0.0200552465309408526 7.5693109425368789e-08 -1.44300785648846644e-07)
(-0.0196345816595244888 1.17423303352095403e-07 -1.83940778542724987e-07)
(-0.0380375797433982268 -1.20720044212628898e-06 3.08734097735245036e-06)
(-0.023902387515806818 -6.8149701623413548e-08 -5.15395466134101939e-08)
(-0.0233550249081523296 1.51676379702341548e-08 -2.18732903933751144e-07)
(-0.0228378263034046645 1.11989286382593072e-08 -2.62321006604883624e-07)
(-0.0221572860430752083 -3.31851574978533716e-08 -2.98770037223249029e-07)
(-0.0214522131925149392 -6.81303474134526287e-09 -3.00717929539889179e-07)
(-0.0208567558512834234 4.37519320337772173e-08 -2.71138509500151167e-07)
(-0.0202841781634329685 9.47505949975481564e-08 -2.31855564328191877e-07)
(-0.0201384271104367261 1.1764298773520502e-07 -2.14009249234036577e-07)
(-0.0201666569286308404 1.31516992308803169e-07 -2.16071909964007554e-07)
(-0.0202774524069642033 1.09191322016771509e-07 -2.01132672314260797e-07)
(-0.0205905604897851854 8.28524444620945121e-08 -1.87635070205331892e-07)
(-0.0208424595476794684 7.5035550085432398e-08 -2.06696594052874256e-07)
(-0.0327912188229748242 -4.17400579295893364e-06 2.91103776456178988e-06)
(-0.0245289529550986631 2.01833631368506757e-08 -1.27867347961853032e-07)
(-0.0236754960802439025 4.94920173726115715e-09 -2.27030458296090514e-07)
(-0.022760456640091617 -6.4053307855715723e-08 -2.25597827882730371e-07)
(-0.0222532688639789748 -7.54107756221064621e-08 -2.07671989950260689e-07)
(-0.0222211489385404914 -5.69111006508720757e-09 -1.75007190842797095e-07)
(-0.0222714640098157363 5.57089943526949876e-08 -1.72861545886712226e-07)
(-0.02202118055578298 1.3145518476753299e-07 -1.85024719751521238e-07)
(-0.0216168821491662839 1.80598918135310901e-07 -2.11859321557149412e-07)
(-0.0212756487046562824 1.96498611366440704e-07 -2.13978014469793731e-07)
(-0.0210261961077859959 1.49948156959939763e-07 -2.036322173505444e-07)
(-0.0211330531683642173 1.15166071620133063e-07 -1.89158089800385768e-07)
(-0.021321615820995201 9.45107355778959409e-08 -1.78013230135725364e-07)
(-0.0317183888673994926 -1.10812150297396559e-06 4.13600487970409645e-06)
(-0.0248575853000829392 3.40456098002163348e-08 -1.76180274051810512e-07)
(-0.0245676165656825776 -4.32282387388963982e-08 -2.73630198046800026e-07)
(-0.0245120873660910066 -1.13651856991791604e-07 -2.1867055366293373e-07)
(-0.0247383117849905854 -6.65380833920742466e-08 -1.9733885177861302e-07)
(-0.025209064580780035 3.74101391153151417e-08 -2.00570792745620753e-07)
(-0.0251119778891526722 1.31390114920984486e-07 -1.75702952557473205e-07)
(-0.0243586767239896314 1.93266238266311362e-07 -1.59169257535829171e-07)
(-0.0233230199591392129 2.38214587970413781e-07 -1.76195524360545866e-07)
(-0.0225027854428102268 2.48656201705576686e-07 -2.02855501072468714e-07)
(-0.0220171895505264573 1.80112296882306397e-07 -1.97063195987577142e-07)
(-0.0220950013557477433 1.38071876632936761e-07 -1.73257307343726211e-07)
(-0.0223758404543769086 1.17222132769465989e-07 -1.55622229731289176e-07)
(-0.0342345333631262974 -1.27359631423623468e-06 3.81747838739338405e-06)
(-0.0267922137187483096 4.29731677132095178e-08 1.1914343739648942e-07)
(-0.0265674609885740362 3.66361964600913506e-08 -2.86708821504372613e-07)
(-0.0273225204939111926 -2.98722112517770319e-08 -2.78360362624514694e-07)
(-0.0275522754820637025 4.77538040126150361e-08 -2.57115744340829152e-07)
(-0.0271036070774457183 1.48800159389662899e-07 -2.17263845934774866e-07)
(-0.0261157968984679634 1.94744273215837175e-07 -1.64074601044100665e-07)
(-0.0249396823069334937 2.24512052942016544e-07 -1.43619397005945531e-07)
(-0.023854953949365286 2.34656461078162306e-07 -1.46251340421699978e-07)
(-0.023156795788095895 2.23795563674546682e-07 -1.58337019793313522e-07)
(-0.0227184822147487829 1.82257593066721628e-07 -1.71230200304821472e-07)
(-0.0227016547544659601 1.57414829729960658e-07 -1.49353490194475831e-07)
(-0.0229223923642256772 1.50952021565062784e-07 -1.21561901759730292e-07)
(-0.0400544570799042446 -9.38559534928825266e-07 2.80375675430255825e-06)
(-0.0323970455265009602 5.24017091571121533e-07 6.06906597689635237e-07)
(-0.0300613574761957013 1.93787851304459776e-07 -3.12044516492020532e-07)
(-0.0298683026217375497 1.42627847922134699e-07 -3.36716078943936191e-07)
(-0.029503972772098104 2.09080039008364344e-07 -3.04283136347563257e-07)
(-0.0283680116348925086 3.69040233214514614e-07 -3.70279734224709628e-07)
(-0.0265183107990024924 8.8567300934898697e-07 -6.78440878531593313e-07)
(-0.0246754789010103191 4.98362777230352237e-07 -3.13864136766414576e-07)
(-0.023751231874304498 2.32560097118936363e-07 -1.47692762880416006e-07)
(-0.0232045886810486324 2.29028766074235771e-07 -1.68113285075790039e-07)
(-0.0227823337691923644 1.9978764344697626e-07 -1.62865807102909115e-07)
(-0.0226081661450743265 1.75706094402842301e-07 -1.59991557216569174e-07)
(-0.0224027934733389278 1.91034170172906632e-07 -8.2034019956133909e-08)
(-0.0452345120180746574 -6.91771406132263266e-08 -1.22340820803711506e-07)
(-0.0397735313076788902 4.21150658910942259e-07 -6.6767734245204682e-07)
(-0.0353721500577794321 7.33226895061322083e-07 -1.36821881927909445e-06)
(-0.0328980846427389464 9.68509632741632108e-07 -1.118771360013776e-06)
(-0.0314484802214212364 7.04392572701211179e-07 -5.54448898295425363e-07)
(-0.0293235350080906648 1.52941162219630385e-06 -9.4259733646436618e-07)
(-0.0263352832637392328 1.51336962693771748e-06 -7.38277029434589193e-07)
(-0.0243692435359116645 7.48125574244277739e-07 -3.30709737171938451e-07)
(-0.0235870344143068941 3.10379255044680513e-07 -1.36214131139795459e-07)
(-0.0231368831267923618 2.7189582205808865e-07 -1.35660109389223825e-07)
(-0.0230825200650180209 2.35707928677769942e-07 -1.14144418059955467e-07)
(-0.0232941712101207531 2.41477543834084298e-07 -1.35187343856967113e-07)
(-0.0229503196569779723 3.14876310195721448e-07 -1.16497243325307717e-08)
(-0.0537333702296741572 -9.25583116268319743e-07 -5.98807388870655215e-07)
(-0.0518056510084999172 1.32069545163743679e-07 -2.82054188233351766e-07)
(-0.0481294234101366583 1.15562791804298655e-06 -1.7987763188019384e-07)
(-0.0432201562814627516 1.84312657353400739e-06 -7.55359984796016765e-09)
(-0.0379370495421214107 2.10552533678482219e-06 7.915752212131497e-08)
(-0.0324058833672357868 2.05048794318408365e-06 1.62827919402403203e-07)
(-0.028151332790731752 1.94257261532011971e-06 1.54544917453394239e-07)
(-0.0257745334027890023 8.38900283407751598e-07 5.51430967386055206e-08)
(-0.024420102350451868 5.35275355818051872e-07 1.07566969440734579e-08)
(-0.0239535491789430455 4.48196391162897817e-07 -1.45411646319561304e-09)
(-0.024717350156605724 3.61213102854127132e-07 -2.33987940659665624e-08)
(-0.0258369052495404997 2.29245412073154766e-07 -4.68065384891672198e-08)
(-0.0244804105996432667 7.56401908823900275e-07 1.05524795682945762e-07)
)
;
    }
    procBoundary3to0
    {
        type            processor;
        value           uniform (0 0 0);
    }
    procBoundary3to1
    {
        type            processor;
        value           uniform (0 0 0);
    }
    procBoundary3to2
    {
        type            processor;
        value           uniform (0 0 0);
    }
}


// ************************************************************************* //
