/*--------------------------------*- C++ -*----------------------------------*\
| =========                 |                                                 |
| \\      /  F ield         | OpenFOAM: The Open Source CFD Toolbox           |
|  \\    /   O peration     | Version:  2206                                  |
|   \\  /    A nd           | Website:  www.openfoam.com                      |
|    \\/     M anipulation  |                                                 |
\*---------------------------------------------------------------------------*/
FoamFile
{
    version     2.0;
    format      ascii;
    arch        "LSB;label=32;scalar=64";
    class       volVectorField;
    location    "0.810000000000000497";
    object      U;
}
// * * * * * * * * * * * * * * * * * * * * * * * * * * * * * * * * * * * * * //

dimensions      [0 1 -1 0 0 0 0];

internalField   nonuniform List<vector> 
7236
(
(0.531652674462936625 -0.16906591380385011 0.449228891480286663)
(0.897283105399397263 -0.174840340847496001 0.721007554827533204)
(1.06383458810201192 -0.113303774235849336 0.739260156096355536)
(1.21740024274161862 -0.0718959777274537498 0.73530373325836218)
(1.34186443715545689 -0.0491265307553487574 0.731571173944364772)
(1.43486152503603015 -0.0362572060149827374 0.729161965583782323)
(1.50674061978340057 -0.0296162259307523115 0.73198993548362834)
(1.56025652351903243 -0.0241610601755545412 0.738650672958502619)
(1.59791960544492206 -0.0193774341743974954 0.748128984859136481)
(1.62329099993766146 -0.0162360813080582381 0.762224432578440192)
(1.63985673305990209 -0.0147327934682530744 0.77760464816352648)
(1.65183081475681681 -0.0167540872215760014 0.793194956671278262)
(1.66397498816334055 -0.0217433587319320228 0.806929782172876475)
(1.67946672943681641 -0.0268927458543044146 0.816713202604623656)
(1.6989848357862336 -0.0295121504397802929 0.821330551752711524)
(1.72178480411343626 -0.029696838147710479 0.819825439424015312)
(1.746525264212474 -0.0283593512731949993 0.813516932381105673)
(1.77264256411804788 -0.0274932016343173574 0.803859288175361675)
(1.80051583154550787 -0.0269394870852189827 0.792955432894828283)
(1.8301395285328832 -0.0262656602366506814 0.781379226374918079)
(1.85991287423101515 -0.0243663205027426569 0.76899403518324605)
(1.88870649650768896 -0.0232721135089757857 0.75652380425693766)
(1.91812354573585031 -0.0234279886386391037 0.74527421469309596)
(1.94800901498644952 -0.0222561727417918166 0.736097733243323948)
(1.97570994039033287 -0.0199255672341386476 0.725274190079625236)
(2.00114079629364072 -0.0194697737136949878 0.712169283874631853)
(2.02611209912450407 -0.019660706017167795 0.699493129253234258)
(2.0524158293466308 -0.0215324628424153272 0.688800888414075163)
(2.0784089014937317 -0.0195181676736102365 0.678749731664125999)
(2.10166966081622464 -0.0186485048717833397 0.666821783357946174)
(2.12336637546901885 -0.0185610033305624589 0.654712227461742735)
(2.14305899757235352 -0.0183715279581796072 0.644687912480266467)
(2.14960527053703609 -0.0107384492928810759 0.63390484551213766)
(2.11313122571150025 0.0130533353665063089 0.617456265630423662)
(1.96699573498335867 0.070660424079531714 0.589004726210567653)
(1.60693405174798598 0.206117569175201937 0.536410147602769172)
(0.819839517217280545 0.248144461917392978 0.43326706812000948)
(-0.0512787472321117876 0.0710765252989376539 0.237350906436364972)
(0.664565334747217462 -0.432429796415759293 0.504017321797177065)
(0.992543190132390452 -0.431288194613805076 0.752287495931975636)
(1.13571888214187311 -0.33953904659445 0.827690870998008976)
(1.26047714168219338 -0.283868424040245426 0.860224384638225925)
(1.36680177871881159 -0.236506692747045555 0.857659465916812191)
(1.45341253620520638 -0.19519399040894031 0.832072231851125443)
(1.53693143223557338 -0.161001376182824646 0.796867707075308629)
(1.61228349871733712 -0.133289868312790327 0.76766636946606337)
(1.66900141567377736 -0.110251050458325853 0.756528994444307767)
(1.70457909829721466 -0.0898721752562883502 0.762996471400318232)
(1.71856167306657603 -0.0707668768537336734 0.771871784920467485)
(1.7178921442313515 -0.0572427760944878225 0.785884865821155798)
(1.71332778615750936 -0.0559666868062956083 0.80058769510764527)
(1.71474305470316613 -0.0636835411614743857 0.813255946054034506)
(1.72473881831001208 -0.0707430272186468367 0.821414809350383801)
(1.74124757351567805 -0.0730402929338823254 0.821524432772621216)
(1.76026822655152571 -0.071069214586838278 0.815310129152943208)
(1.7819616048491036 -0.0712280358368262978 0.804375411968448195)
(1.80812129795915211 -0.0732406873630569999 0.791625537686684977)
(1.83961864823890453 -0.0755638120652916828 0.77735625601344216)
(1.87325293871164122 -0.0743734684626057296 0.761209634864364104)
(1.90564340371598995 -0.0749210494067330812 0.74445335013762437)
(1.93880150058000145 -0.0781121221459068621 0.72915903047018471)
(1.97425588095900917 -0.07755568863785961 0.71945351368824273)
(2.00612427554326933 -0.0724027916608672301 0.707894637194139476)
(2.03311110414656682 -0.0715770689026775514 0.693375760035178756)
(2.05920326601193082 -0.0706121494975884278 0.67884551725462694)
(2.08857672554913387 -0.0755316260355461538 0.66764436947452388)
(2.11852326070929742 -0.0707129241985432339 0.659871553395389498)
(2.14339929061061296 -0.0691515801964568411 0.648424880711997775)
(2.16593649855245163 -0.0682097584113634386 0.636138335175987057)
(2.19154370121392494 -0.0697564815368525853 0.627470436486161853)
(2.21546958075792233 -0.0578784482523362551 0.621993535305344958)
(2.22273027210480922 -0.0249036896629559121 0.612462009715568523)
(2.15507617925089168 0.064726775040999926 0.603446231863600802)
(1.93281465157837151 0.309948544719417018 0.582887632566021718)
(1.40675711196556308 0.557776433295463336 0.525462436988718862)
(0.393363517618013803 0.379970937434546963 0.443511980444913467)
(0.832735793015213277 -0.531722557932364226 0.51642420372747655)
(1.02807229486481022 -0.574929941133282663 0.822511130511866195)
(1.0480333772752477 -0.504057489402187753 0.9499530935158782)
(1.00823365760051797 -0.438758308248660023 0.98810491419337243)
(0.985492432647328664 -0.350614816665712814 0.923713696279903074)
(1.08478404873994561 -0.276126330387502339 0.745110232001771622)
(1.27386516117213433 -0.200172617886622162 0.488507203295738102)
(1.53710321219475188 -0.128211886717478935 0.324694905024536185)
(1.75367878523892573 -0.0998525575270357568 0.373816194180215666)
(1.86000150930250174 -0.0760240170703237461 0.460102045184811514)
(1.87255703236362669 -0.0785942388672059011 0.599592469288747765)
(1.85064998291514238 -0.0885021646889618818 0.678846990375302828)
(1.83093296835705233 -0.10202297160572521 0.712587961370576783)
(1.81843387587551852 -0.114611093975155287 0.739269751511897777)
(1.81809785176784589 -0.123594572493869959 0.758922230775395223)
(1.828523049348034 -0.128227883687598271 0.765009339809167632)
(1.84640666692149935 -0.129292128247420646 0.756712951356147911)
(1.87316273872592487 -0.132344363540561061 0.736776119875122815)
(1.90911357993617625 -0.136771244195729363 0.710624035861835979)
(1.95478948627059657 -0.140431934912830458 0.680460578169014285)
(2.00162718035918719 -0.135822834823431743 0.650683945924746765)
(2.0448681497094543 -0.132432933531794833 0.623888741115162793)
(2.09143542418559303 -0.134668768350262591 0.59347811755340163)
(2.14930622048391173 -0.132171198075450691 0.578003938514909721)
(2.19889152606112415 -0.116800547793082118 0.568639061378373278)
(2.23494740825851101 -0.115735085979248975 0.561468416820075533)
(2.26784756585141922 -0.107831334161297476 0.532565126958053248)
(2.30490808172911699 -0.122371978251625019 0.513460233970006619)
(2.34221192896695474 -0.10351181173482818 0.51538690362355144)
(2.34951979267799249 -0.104666390522575939 0.516839418008188445)
(2.35477903776596831 -0.0976588927208530272 0.48848958041336793)
(2.35290636173197631 -0.106861500574512686 0.450424164046251851)
(2.3478143393344566 -0.0792766945204100848 0.434174666760406724)
(2.28244264312842926 -0.020238944860857408 0.424925054054723139)
(2.11719239115815361 0.168603117997377261 0.47698520032531766)
(1.8168419944108587 0.53939932958351533 0.537602376383139902)
(1.42334931181617264 0.906058173989904736 0.530474914696119515)
(0.52919295329053484 0.737724414083745117 0.470718887834303545)
(0.85970503662421438 -0.515753029856480416 0.562421814534608489)
(0.944608653159694001 -0.629728513303514981 0.908922721960226943)
(0.65503876121719451 -0.485800671473519186 1.03940380798681842)
(0.185577429982276082 -0.347454679444123116 0.865473645117789125)
(0.153883041403644172 -0.26037093079598328 0.355696180802845929)
(0.691800958012186995 -0.249796232476584917 -0.189391152298393733)
(1.34211425029220877 -0.231599528194092963 -0.482378221567680066)
(1.85540902791254636 -0.13377195065350081 -0.558175680719012468)
(2.18774767347944854 -0.00312729330327127242 -0.587367676373911518)
(2.38102500731656175 0.134419660950865771 -0.52398786051602797)
(2.47502100153091753 0.19507463746255238 -0.41793679666194028)
(2.55302438846712887 0.17841752651100859 -0.378222395719046034)
(2.59117854205318476 0.080187685381253232 -0.342148091995529924)
(2.58094538591441625 -0.0232229343871007826 -0.259675950639844166)
(2.54588641745064281 -0.0879215629111406716 -0.145880175950018232)
(2.51707124117370773 -0.105361301982165811 -0.0595404613701355293)
(2.5232421513682497 -0.10861764534229372 -0.0518821451381956192)
(2.58195496619817311 -0.122145710817420816 -0.137115631363302626)
(2.6581527894047583 -0.142612543993928753 -0.255459595537405493)
(2.72510902853657377 -0.161749119144075915 -0.350989977814295695)
(2.77588189989204048 -0.150327044875196159 -0.385037314559688537)
(2.81116657823455629 -0.143098463070354065 -0.387197500550854778)
(2.818185137699877 -0.156203341649472777 -0.374744025705500694)
(2.81108267749494578 -0.153104364251996916 -0.355661606199433988)
(2.80442472141023869 -0.121629144157608893 -0.328444582676892638)
(2.79799591310367468 -0.119443907002431543 -0.306788750662311316)
(2.78313870969237032 -0.0904363219527272444 -0.294168731791386362)
(2.75419029667939474 -0.144843590906468228 -0.303940285211605321)
(2.69428934477660409 -0.0802123216042626153 -0.332859818054587808)
(2.62705953088786082 -0.0784179067314192402 -0.380524583461056332)
(2.52036529206491977 -0.0352994495301676009 -0.456996929913894068)
(2.34704238968570023 -0.0680071770575115253 -0.609537021598613449)
(2.1396860641027402 0.0262212600764822022 -0.879665386917510839)
(1.82284463522417184 0.110575864359603426 -0.869285735937172177)
(1.71004290897002731 0.392322305882963185 -0.156529063865073204)
(1.38937913281509218 0.834391509609965221 0.37452933359395113)
(1.1936879954969406 1.22039258173982512 0.510876380577291123)
(0.497349579556436772 1.18107084345389479 0.467621978422342821)
(0.816924261616544189 -0.524645605662385717 0.628141670050619272)
(0.747736705711733673 -0.503053796159009803 0.896937449106036122)
(0.0720597128823475541 -0.215327885462077206 0.994556262894510379)
(-0.495769909422012045 -0.0799287454348304727 0.342047745380279933)
(0.49219903070395532 -0.568347431028607408 -0.221842587753181275)
(1.17164905867045754 -0.73592966007772076 -0.430040868465267789)
(1.67126158077058506 -0.659152495958282736 -0.508326552969042056)
(2.01686938892945644 -0.475996408652699543 -0.540971402500769805)
(2.23782053784269319 -0.28967828938145157 -0.560935376894643678)
(2.39443301422358479 -0.123334527011512832 -0.579420968912828238)
(2.51632996582463031 -0.00703668461002578127 -0.594546861030563867)
(2.62064205291766505 0.050306078001529593 -0.618673752852465619)
(2.70862614776247579 0.0400561078802069356 -0.63052057004281159)
(2.76951274515191503 0.00383668761514721623 -0.628972974520895178)
(2.80770514497450652 -0.0342551831459655259 -0.612170370094395344)
(2.80519792091034326 -0.0750292795461138806 -0.587160648190531931)
(2.80276957482117028 -0.114026821548799145 -0.56743918633414292)
(2.80233467035905015 -0.163092723255466227 -0.550998500605011543)
(2.78831955383948893 -0.209522990226426481 -0.527922599016117933)
(2.74365965694118108 -0.251865841833388449 -0.493287958219611189)
(2.67787521919938554 -0.241463277690188716 -0.457674241044115415)
(2.59531377817571496 -0.212510913274779861 -0.419037624061793013)
(2.51298824323492687 -0.197599056429030445 -0.359903005084981131)
(2.46743868424277668 -0.188400671209181164 -0.291787305054952817)
(2.44192101973309939 -0.17402366387209664 -0.224178132171177241)
(2.42741487855631144 -0.162898972622908811 -0.165220773488644501)
(2.41742726104971162 -0.145565206359080018 -0.125479793721855998)
(2.40103681882921904 -0.145830070455733096 -0.11446193364148699)
(2.36130688230282137 -0.10968940805317072 -0.13978514037870543)
(2.28580426609841458 -0.0682215435607244902 -0.20206204693418911)
(2.14612324561756207 -0.0158099755681565327 -0.315154060882877507)
(1.92388906051075281 0.0269367189380849796 -0.521826067801415716)
(1.69203704703499969 0.111210214317857534 -0.883250119686530999)
(1.34057138064953563 0.207999691590781632 -1.59701809893620239)
(1.07883953278081757 0.547148611399029594 -1.39804917693724295)
(0.872219548254814292 1.06241046521774907 -0.0415625368940900144)
(0.87333902919553541 1.43753125471008381 0.472306306284429323)
(0.412062712860112756 1.48374436215978811 0.452299879835366514)
(0.485138135525935765 -0.294716932621520322 0.454779963325022407)
(0.546995365109346432 -0.29581078508998615 0.772048301485369626)
(-0.366687363912870379 0.0642840287111838826 0.811921410363565577)
(0.172567089281710606 -0.439101706097272837 -0.122736569071487958)
(0.956377817334612801 -1.00742495587965863 -0.344569452756982531)
(1.42196011414377566 -1.05846276918802973 -0.428484103330401489)
(1.73165512186959347 -0.873919618848877811 -0.467779501846121826)
(1.94269160386566719 -0.63801287465854184 -0.490707234905838674)
(2.0852343047914772 -0.428179779006902905 -0.506003500775835113)
(2.18438393489262817 -0.251543239837022981 -0.522339604450652306)
(2.26219180104775575 -0.127830657731413888 -0.539848847772467888)
(2.33806341557234854 -0.062009919424345715 -0.555733131236899713)
(2.40941517341959921 -0.0593970024782567718 -0.562595206777489087)
(2.46532203622618118 -0.0953063463820165158 -0.555368022170674935)
(2.49781521397707085 -0.145085225274350499 -0.53622166016498507)
(2.50630320783332028 -0.195740278332650813 -0.510228388212912054)
(2.49571433538909648 -0.239683898923592709 -0.480076795021535885)
(2.44593312955747155 -0.261567458873963432 -0.444664397452018412)
(2.36639871776370736 -0.269971193654842234 -0.414712815646185617)
(2.24612367648790867 -0.264813465314760688 -0.391902725168764399)
(2.1119569796868598 -0.226717578704460659 -0.374749668198478159)
(2.05667924161841453 -0.181139833313897103 -0.313176983175654233)
(2.07840100169263886 -0.18083713405759147 -0.20835788740743566)
(2.12396070882619492 -0.197142943747493166 -0.106766259913014305)
(2.18685129755773788 -0.206051875362214754 -0.0285195638729696457)
(2.24763214847856929 -0.206595670612214594 0.026147097267293664)
(2.29918528329049465 -0.198716929061244607 0.0566461006279831772)
(2.32708447324157053 -0.178212901882289193 0.0586432640589314852)
(2.32432296609300026 -0.130661619941057239 0.024928237342558647)
(2.24829240033628119 -0.0416921183910547721 -0.0467314290396810272)
(2.08951820742741479 0.0670291642930453402 -0.169407816000557682)
(1.79208374346282029 0.183045249339614913 -0.389873739497922478)
(1.38869655950563975 0.340163410443612535 -0.844509406646453131)
(1.04683752379403838 0.43494802100404989 -1.84407091763598086)
(0.609411915648828351 0.614402568552956274 -2.2136028298363315)
(0.435212374526937229 1.21804936830622634 -0.573643115726998554)
(0.528864466086556462 1.4990227813778807 0.425366277269738025)
(0.322159328943733392 1.67020859298798818 0.432261832860770856)
(0.335037666071300422 -0.0787806948023905274 0.00830491047344247835)
(0.321102668573232886 0.00523780993514066928 0.446916481761097384)
(-0.723889363847464606 0.208073475116064999 0.422985696609909756)
(0.757489576993434111 -1.04086685924784894 -0.301680422914410662)
(1.21283289689540297 -1.3401921115263471 -0.40046259423007069)
(1.46326107242312697 -1.27334919590400508 -0.429691365949376347)
(1.6638887245558136 -1.04312324776779475 -0.442042382234597353)
(1.8235067733595991 -0.774910638279010522 -0.438014012893814975)
(1.94156908106611681 -0.531280328548268788 -0.422543165261117237)
(2.0192494624756443 -0.324901384331306331 -0.412618343237263208)
(2.06731515051071613 -0.198624408318204465 -0.417433548948268007)
(2.09925720619471434 -0.135853205809283728 -0.425336192486800102)
(2.12293302058832589 -0.127262021753589721 -0.423921462617603551)
(2.13249179465256278 -0.149785927633404287 -0.405896348234921489)
(2.12371499426352539 -0.184678649916025034 -0.377857980933128834)
(2.08507528539790732 -0.220265628829637045 -0.351644147214728919)
(2.0010130687107992 -0.240523661869046196 -0.329217479591335238)
(1.81320066640842081 -0.231678240118566942 -0.327836393741079479)
(1.59978992569189438 -0.21945816531584561 -0.360716012778316608)
(1.4591565862094209 -0.193953515537926752 -0.414680681673698259)
(1.5523569596410709 -0.148276568726850744 -0.352195337984129331)
(1.75150557071410429 -0.150439465967695724 -0.206249144740144497)
(1.95997689077181469 -0.194553407845249188 -0.0545229737126640968)
(2.14243980915778387 -0.252707648084540104 0.0588675947834412516)
(2.27924293605629336 -0.283157086002017166 0.13157632549939316)
(2.36944362162273814 -0.288428408488612675 0.169673561521154009)
(2.42185518424566615 -0.275649366053936251 0.180560702251720884)
(2.44734005020024048 -0.243338614676294196 0.169952554392892585)
(2.43402478011182888 -0.179565849158345947 0.141585123990394829)
(2.36701274889488689 -0.0648873684015043861 0.086537092768430024)
(2.22271725824020461 0.105504969356290404 -0.0184487492198447955)
(1.89160947463079254 0.348092582306469445 -0.242567095220279916)
(1.27850339139658797 0.622997034749892764 -0.718067499951190236)
(0.857624169251940738 0.702482614563559538 -1.88672146822128339)
(0.292416334241190901 0.720725846983082952 -2.54130608982477169)
(0.11885270400609084 1.30602919187584643 -0.953817576692336022)
(0.225010660003378743 1.54811936375622272 0.367676827778423587)
(0.241540667628461159 1.77456247380914256 0.413044821867080914)
(-0.0611965380578146367 0.288398575893242526 -0.970817876752655962)
(0.125679726565320893 0.340326288907098484 -0.325043850742923746)
(0.270820039432190296 -0.0769917028848293161 -0.439475175506896798)
(1.031474767676263 -1.34054292309316581 -0.43632132415079905)
(1.23737222757240817 -1.53259010554083708 -0.412545860404858078)
(1.38343303207949053 -1.42528163157190946 -0.401170392363926875)
(1.53371663347345577 -1.16970219991429403 -0.373669390911070654)
(1.68611661314320305 -0.857079989961549882 -0.320540878173755983)
(1.79546306641670705 -0.574258399450702783 -0.251799598015387371)
(1.84878746201430966 -0.324792772141534958 -0.204963037236283785)
(1.85055562016797803 -0.15642190608823292 -0.198651108472376492)
(1.8128727798482569 -0.0729110937930801395 -0.230216401240331603)
(1.76966640079807913 -0.0764420762862683401 -0.258314971469777055)
(1.74589315929126165 -0.106697658033142281 -0.24395146081997357)
(1.65849664232206973 -0.131159352163472548 -0.211585620698573701)
(1.48984703292064635 -0.149976840172089732 -0.20599373592866721)
(1.25217929819068075 -0.144984453621902182 -0.241432480062396981)
(1.02904547493266696 -0.0961752897897242276 -0.345123605254867016)
(0.941800308102921147 -0.0771753053787799653 -0.486749071299080294)
(1.05903346949106991 -0.0919308648974323933 -0.496677711826016277)
(1.48503072429720562 -0.150779945139082494 -0.267514366995209363)
(1.89439821027107547 -0.230645972763041052 -0.0271682549882428445)
(2.17558606392404652 -0.320170728088172707 0.108725113850305893)
(2.34347559617154433 -0.376499524925786866 0.178935231076221168)
(2.42327931646977435 -0.379260943824162478 0.217679717016221075)
(2.44361861067228325 -0.36314688842686299 0.235192713866907405)
(2.43526978295422669 -0.332360973038079655 0.238630602255901408)
(2.40876552556290102 -0.283306606539843076 0.232194083757419539)
(2.35710043938156621 -0.196989241802383863 0.216696738417471446)
(2.26314379357525031 -0.0658206744041779368 0.180762630806857144)
(2.10869578518057832 0.153590266405486425 0.0888212964422504109)
(1.81110593356306016 0.519029792852143457 -0.141511252969540924)
(1.12503763146638436 0.954106598545128026 -0.623003359122376699)
(0.648036640763763216 1.02636661085311287 -1.96073485221609034)
(0.00415351688148696274 0.827456924352273138 -2.56773436195795046)
(-0.108797282569597031 1.35358831438946003 -1.05515289577254245)
(0.00041979529341421018 1.57532923146531112 0.34338030301300082)
(0.200812880088275469 1.81149205655457957 0.39763202623622862)
(-0.189647540962135319 0.485390659230403032 -1.30565789053365311)
(-0.12447252080949725 0.304515135183874686 -0.605983946809588447)
(0.849939484336659334 -0.711652778243989981 -0.622404098045864607)
(1.13565756735777224 -1.55822746565366499 -0.471313711416306846)
(1.19398060857160648 -1.6626801432434537 -0.402381387772881682)
(1.27283605823333712 -1.52752638602529522 -0.343221267299055333)
(1.39592807022328524 -1.24707976826559075 -0.244516771631237778)
(1.58609860962096128 -0.892939429151001218 -0.131108731801878292)
(1.75084611736295015 -0.568063251997346197 -0.0358362060260835474)
(1.82985107790315293 -0.300181630376190278 -0.00605571141949973191)
(1.8158727714382128 -0.107801042181841805 -0.0504149256330911275)
(1.73419241414993031 0.0103429398553072649 -0.138278350435980552)
(1.60548620857443081 0.0603591123492730197 -0.218428374010325971)
(1.51032874124126448 0.0595367224531146433 -0.22754821515047513)
(1.41018385559621584 0.0676466598214653103 -0.194238684803468925)
(1.27580017205661767 0.0895154183490800559 -0.189238811956314312)
(1.06843275961687034 0.0949354500216362807 -0.252984386689228513)
(0.870974601913981683 0.0856900724044740991 -0.381666262986480487)
(0.893613352381293358 0.00224833033320207638 -0.42536184736899274)
(1.30492989975894469 -0.18622370017001505 -0.289568240582171565)
(1.85913388691799142 -0.315459752018485529 -0.0250199685085989859)
(2.16784240195709721 -0.385302144426979576 0.102534504416591399)
(2.28948780137327734 -0.412222165099138282 0.148157713991122125)
(2.29187233482168073 -0.406251135641971517 0.162770100268539553)
(2.23822188610824879 -0.384378321982694671 0.174513977402533604)
(2.17490907759132224 -0.352923612701918799 0.19696261907126586)
(2.11474480063853854 -0.304566217486367197 0.228340957457568106)
(1.99846000921624967 -0.23347252549756331 0.24774794211779988)
(1.84171594991043341 -0.0945573156787795355 0.249002280796682157)
(1.68256395214304622 0.0956739486741704781 0.232523168335935171)
(1.5135938263109896 0.388813747251203101 0.127666195071253652)
(1.33485467691731774 0.814792891271655773 -0.131011379378870335)
(0.776138554929594493 1.31108776360610024 -0.647423716872333133)
(0.366095464990846109 1.30696623680134993 -2.14351444332759478)
(-0.286078525607911693 0.971277204052556908 -2.46749828659511516)
(-0.290753050209236363 1.34207940329616515 -0.952550648752642171)
(-0.146775729835994795 1.54431137163904819 0.343300146833637354)
(0.175170972140965886 1.81150359202651412 0.385446569795033833)
(-0.139498781082763146 0.564817534427095702 -1.35525015396393433)
(0.189497241239340475 0.0201168536561230626 -1.02140840125703569)
(1.01299652901261039 -1.05608624274341811 -0.618804726180737674)
(1.07544502715377965 -1.67395812204801131 -0.453663663458811928)
(1.09539969602118936 -1.736539347261568 -0.367413286161981434)
(1.15823364538558415 -1.58894662961665478 -0.241941011593024974)
(1.37290698737755612 -1.28924920118686615 -0.104065942533955375)
(1.61864576756567113 -0.915235669185623046 0.0358060740318493567)
(1.78372971072355369 -0.546300390289688798 0.148711266175196644)
(1.86346813810301293 -0.238303025493222798 0.184615683703750727)
(1.8491598352003229 -0.000105953945289477547 0.132120416635088833)
(1.74829784890377438 0.186520485190112495 0.0229366099620591721)
(1.60265768984389645 0.284098262944156132 -0.0811884824932193466)
(1.49777642310296955 0.295077345135736968 -0.149586688011116131)
(1.39894913129094234 0.29910574334751705 -0.138162870849911995)
(1.23256222544169902 0.315298232541797341 -0.0934688882659402698)
(0.961696252476416991 0.286635766786881796 -0.14808480273120983)
(0.756034076117866882 0.172058656902799645 -0.303562553593869855)
(1.22535730303615198 -0.140371630825066346 -0.194195239326909852)
(1.76983117957457914 -0.334612548898948148 0.0132219836211974473)
(1.9814086602806269 -0.412234275812349893 0.0649818948781351879)
(1.92570277656291289 -0.39130081459422339 0.0270417403947016723)
(-0.0790689061533316473 0.562605440314249527 -1.34577959258552582)
(0.67799778201930383 -0.12178955723876074 -0.977186142561537241)
(1.02959135578173555 -1.22393444251936589 -0.581595841289276327)
(1.00605353320245894 -1.74645038741979786 -0.444984045179682708)
(0.988680651932306143 -1.78091240456862665 -0.313000141249485664)
(1.13477793753489697 -1.64148819824569125 -0.144144558731775729)
(1.40487284339976393 -1.32937402379410963 0.0152450127240852593)
(1.60315928473391711 -0.888070999391482818 0.16105739164622157)
(1.70777864382125566 -0.447692645076681606 0.267070322689627826)
(1.756600100856059 -0.0883344217330351289 0.288604439659185474)
(1.75262127863803574 0.201665401619797235 0.223588688729579099)
(1.70775653115116799 0.425254069105980737 0.111639406078262685)
(1.60421175232515512 0.562185171233041125 -0.00618720292831365093)
(1.46279575986256782 0.581784222065125922 -0.0858763266685918514)
(1.35435158699647706 0.565047142152966031 -0.0768772915013593017)
(1.1762007599344706 0.544577653527680616 -0.00994577178171669393)
(1.02437732278455873 0.415177206708646052 -0.01237501865376546)
(1.22012147437854401 0.16172688495670412 0.0537423578236960742)
(1.48134037665360263 -0.212180178929708751 0.0739142229735447465)
(1.36542005426508206 -0.384092925073426739 -0.0695487945721336293)
(1.05799729303235468 -0.349540473737246282 -0.265306060609843075)
(0.700794979314708799 -0.207539919224456831 -0.384418183546009484)
(-0.0707093635857201086 0.534765066397327238 -1.2618273366600008)
(0.856097846049787448 -0.488593780592786853 -0.729972286928096681)
(0.946036554850413602 -1.35198493163438793 -0.548363688263783344)
(0.897832099888555835 -1.77979273894601864 -0.429839561967755579)
(0.930610843093508056 -1.83110859229940681 -0.253523300169090582)
(1.16104771925962025 -1.69823187740300607 -0.0629401968223846642)
(1.3895399338098624 -1.31893728363358576 0.0838650096161519532)
(1.46993181937664019 -0.798257335460739625 0.203289213656700135)
(1.49492302702188273 -0.314702355811760537 0.279448833184623213)
(1.52155381629311326 0.0721848703543039871 0.281325163009422285)
(1.53799881831664731 0.38515089315347717 0.219344770653317034)
(1.53015388683931852 0.636658321882567546 0.124700917178793919)
(1.47847588093014259 0.803582845946685831 0.0190603681317588342)
(1.34727904745167626 0.849795499477438265 -0.0521413558670248967)
(1.22506724458040317 0.793381773716048455 -0.0256524129924178106)
(1.05289763894242006 0.72260204593345656 0.038469112297432731)
(0.798717476803725068 0.472323379221197936 0.0651838429077524067)
(0.887847233329457919 0.0754197249693256133 0.0715333900222244745)
(0.391208080181407181 -0.294262333768143036 -0.235206423243899343)
(-0.557928004529857691 -0.320599963929253162 -0.663069095260379826)
(-0.506367191549497608 -0.25374873977120227 -0.591555538251096635)
(-0.0525821067327767733 -0.101252119300580895 -0.265375179140019735)
(0.115020488802413612 0.551711251152847693 -1.44173190577310018)
(0.877329586100546011 -0.750823446779334436 -0.660301181459903686)
(0.867837260429698998 -1.4367167970328103 -0.548803108202690737)
(0.751183648657405389 -1.79751064631960622 -0.40582922447419939)
(0.896122047770493313 -1.90909434942207179 -0.187871336949357287)
(1.17132303868372611 -1.73615391298774324 -0.0253649934319661527)
(1.26651023242366367 -1.25949773148786437 0.0835913509477364813)
(1.19876639612324554 -0.677961770909752404 0.167766789507250685)
(1.15350848306942289 -0.18520176202748434 0.214572953096916735)
(1.17347209277357134 0.20891005531883497 0.212010220118507675)
(1.21599035376940123 0.534546406196869328 0.157254306231393803)
(1.25666676979107073 0.801608715676958461 0.0942409221560521204)
(1.26855055656343119 0.978872877448342393 0.024157979588875389)
(1.19633814401131744 1.04919186068977854 -0.0231338920621739254)
(1.0638489030632996 1.02033211055800099 0.00447975111732663162)
(0.857650790063079205 0.896093042160106212 0.0658462976673172551)
(0.634519495242036657 0.487279253282543179 0.119327956027843199)
(-0.400151058243084279 0.0749478498085264788 -0.2944594254166919)
(-1.2686483652628866 -0.204115698337009321 -0.656886907455211055)
(-1.1700358860920268 -0.441885788788259792 -0.569379211162512111)
(-0.848956562108049262 -0.400196011162056609 -0.359788250384385444)
(-0.343947654847044149 -0.154922177699816116 0.0173767780391404433)
(0.751248299792414143 0.315982794907073594 0.0835522462854552533)
(0.829463696585232557 0.646874483325513117 0.0469122950719721293)
(0.929328114616435164 0.915477109176530912 0.0198628581851734085)
(1.01028191699422676 1.13944064024098557 -0.00358668225700842919)
(1.01613135357769857 1.19670526388899789 -0.00815773374140447288)
(0.993879432852518452 1.07857425910450333 0.0480352804839337538)
(0.803004047939682053 0.973241814452867615 0.101802590427301026)
(0.431704089037634409 0.722186228180278666 0.110161537687823052)
(-1.12556934363042815 0.26979862186798903 -0.328096665632500784)
(-1.47611052226119988 -0.294763371742830071 -0.502148691387129253)
(0.60730408829675453 0.974381112549555284 -0.0767900157927167704)
(0.754045039963388675 1.20064234394228553 -0.0510196778334967294)
(0.839448579157716313 1.23622510395611718 -0.00996072209446019832)
(0.875732910780064988 1.11943927447869673 0.0598925122880333907)