/*--------------------------------*- C++ -*----------------------------------*\
| =========                 |                                                 |
| \\      /  F ield         | OpenFOAM: The Open Source CFD Toolbox           |
|  \\    /   O peration     | Version:  2206                                  |
|   \\  /    A nd           | Website:  www.openfoam.com                      |
|    \\/     M anipulation  |                                                 |
\*---------------------------------------------------------------------------*/
FoamFile
{
    version     2.0;
    format      ascii;
    arch        "LSB;label=32;scalar=64";
    class       surfaceVectorField;
    location    "0.810000000000000497";
    object      Uf;
}
// * * * * * * * * * * * * * * * * * * * * * * * * * * * * * * * * * * * * * //

dimensions      [0 1 -1 0 0 0 0];

internalField   nonuniform List<vector> 
20789
(
(-0.0086523496804169573 0.000246088697486943574 -0.0315120031539728104)
(-0.00638887191756176091 0.00373006863481552394 -0.0288273387287227185)
(-0.00860554494487260173 0.00261049772542376645 -0.028410472560881056)
(-0.00748781352616514212 0.00266049594788579473 -0.0286413127849935063)
(0.000331128210500653128 -0.00322836224261810511 -0.0362559875577080082)
(-0.0038919191995750238 -0.00465388288797032989 -0.033834761551112244)
(-0.00835895758864551967 -0.00197465903987987992 -0.0332936194826556758)
(-0.00561027472668996444 -0.00166756876099415801 -0.0346160827844679553)
(0.0164595146262251149 -0.00487712647277145812 -0.0411340538796779245)
(0.00947493727021269522 -0.00800281422002022645 -0.0378916607421086946)
(0.00368683370063581329 -0.00427571445277859057 -0.037043409371739687)
(0.0078008592505033128 -0.00399422219424332321 -0.0387126995699967544)
(0.0336179513959614512 -0.00498437441685642586 -0.0478677046691670799)
(0.0253168855422489618 -0.00846314864717840135 -0.043580105972677502)
(0.0224561045516118059 -0.00523180075253087355 -0.042790188049003211)
(0.0280851135779707772 -0.00507571331252719676 -0.044464538734249423)
(0.0460861650328530451 -0.00378766499594021533 -0.0567051088748396215)
(0.0381213383633305924 -0.00632921717885803151 -0.0512859924410682885)
(0.0382621930177280967 -0.0044569324047859819 -0.0505157330193782908)
(0.0462895608914042703 -0.00445642304529236637 -0.0520913027906254669)
(0.0526501748243394588 -0.00240740790138382421 -0.0680786554965367163)
(0.04529525354340945 -0.00368402589903344367 -0.0614071811851913396)
(0.0453810710063539333 -0.00286678996449873068 -0.0604823920316438224)
(0.0560832831962166517 -0.00291328137974759989 -0.0620157571128284527)
(0.0562072006327598572 -0.00168066420243201983 -0.0825632341811828041)
(0.0499367813547653486 -0.0023704980689961833 -0.0743930153858373827)
(0.0489133720554761897 -0.00180954579642943441 -0.0731148818170589548)
(0.062480312955033257 -0.00179853610424394929 -0.0746940640169757031)
(0.0594247584074690735 -0.00168786632823670919 -0.100414707415989846)
(0.0535243214467701969 -0.0024525079323136096 -0.0907210394737193726)
(0.0506924095938323313 -0.00156638917221397903 -0.0889258703272706313)
(0.0674389425414135962 -0.00145088041498764764 -0.0909708220827643993)
(0.0646472643059268354 -0.00234504962909167164 -0.122085882722323513)
(0.0579892326189403798 -0.00364724661239995132 -0.110390535908001491)
(0.0529256449465999035 -0.00198434780279102031 -0.107841434198762298)
(0.0732925230228479163 -0.00172583588291091994 -0.110493688334546189)
(0.0734749742901523728 -0.00352128042638635928 -0.147895306058620363)
(0.0652981405202096715 -0.0059767340931254154 -0.134124229388047245)
(0.0576663119524038273 -0.00301161105168534218 -0.130739791227882818)
(0.0820934348490035548 -0.00265191779488362306 -0.134846398016357394)
(0.0881226915518418114 -0.00516686304431556234 -0.179490450116015665)
(0.0771588200046186279 -0.00905573552704284565 -0.161921685308500485)
(0.0665182519040171533 -0.00441956394656141827 -0.157566576244886208)
(0.0964249178041106242 -0.00393759409574272537 -0.162657852825811522)
(0.107062287524377783 -0.0073616578116842803 -0.216868104791744842)
(0.0958110476414298501 -0.0131707564162186104 -0.196674448757681003)
(0.0811363911784149239 -0.00644867099717968701 -0.190616507371976523)
(0.116972704523023913 -0.00597785201749272913 -0.200122833339666628)
(0.139539092376096102 -0.0101359609524132623 -0.270107058437700998)
(0.119240109059279328 -0.0185568989619185332 -0.236427531873515062)
(0.100109530915540951 -0.00872236548263367883 -0.229803750972036369)
(0.151904564292248495 -0.00797781572120806644 -0.238049296328177507)
(0.159313857502137418 -0.0160613751936056516 -0.331299552869259162)
(0.152320357268318135 -0.0244980986633003099 -0.300816465678963918)
(0.126688695221769815 -0.0124819726372224181 -0.285000951604458375)
(0.178850706575590185 -0.0119586407519479965 -0.316419596940230696)
(0.206728112420671628 -0.0118729924540507802 -0.482364596041917337)
(0.199208881090134182 -0.0409536690744966778 -0.361218782144536399)
(0.163388303868463203 -0.0220885179430535504 -0.335899290908228176)
(0.308540376237831815 -0.0212191045453176096 -0.375660635126386977)
(0.136131213799902479 -0.00609343668657868608 -0.611052349780167647)
(0.146036768752823648 -0.00182229662981566961 -0.470938607584180657)
(0.289852419276174555 -0.00657870295412797939 -0.666883809378979397)
(-0.00312790941087822197 -0.00126875281563150564 -0.0311500971258621556)
(-0.002598384198650184 0.00488550556738054885 -0.0285748614673455963)
(-0.00507211632004528432 0.00523870047419063706 -0.0283039006608418568)
(-0.00400854229518304937 0.00558093936133532368 -0.028773412961180328)
(0.00689849205894828548 -0.00983356780984903818 -0.0354704347355129235)
(0.00290399531402747366 -0.0100264682187046743 -0.0334395841289679696)
(-0.00190570557708832932 -0.00728991909479438215 -0.0320814148430069099)
(0.000718784956676073845 -0.00647885286152049666 -0.0339142456655599014)
(0.0199056722752514494 -0.0118577212612242366 -0.040337712835108272)
(0.0157292917853379573 -0.0148778865966297316 -0.0376733600481466563)
(0.011148589022314765 -0.0115242826678907881 -0.0360227674652757943)
(0.0152815154380850429 -0.010841447095966442 -0.0382109688664347621)
(0.029641401430213498 -0.0101629932535123625 -0.0469983937445787037)
(0.0269138103920714862 -0.0138509945771620561 -0.0432940420954658345)
(0.022241389099704599 -0.0111629836732478702 -0.0416992884073735318)
(0.0282829850986719422 -0.0108164939249618067 -0.0438209748059897042)
(0.0365179727982912414 -0.00686060698157672268 -0.0559880647514200136)
(0.0348293756663889884 -0.0103172480779398605 -0.0510426066941233464)
(0.0297462799245139381 -0.00817760681431892525 -0.0495881104376786896)
(0.0379040273307170855 -0.00812441359232214146 -0.0514516284121833908)
(0.0413844080962807309 -0.00418333749510483525 -0.0677215410744920199)
(0.0401113761751573997 -0.00666055927107750412 -0.0613808354805234144)
(0.034515007116528551 -0.00485050953581192545 -0.0599349886345440092)
(0.0450446996962153706 -0.00480113010800897917 -0.0615622946326700518)
(0.0449976014276546529 -0.00340449370431663428 -0.082550820678373979)
(0.0438932449512385026 -0.00478219912670282531 -0.074704436972571342)
(0.0376273914712797197 -0.00333487601640560655 -0.0730166046896835175)
(0.0508189705030681685 -0.00301148529663792337 -0.0746282382615630624)
(0.0490048856315851225 -0.00452475451709663089 -0.100696867965730991)
(0.0473079181344936844 -0.00521972757896080851 -0.0912909926274934613)
(0.0401334978793246658 -0.00388621521873384239 -0.0890514927001137269)
(0.0562316322970142293 -0.00315045097335519674 -0.0910238640292497098)
(0.0553653473874385488 -0.00731725070038518124 -0.122428882573725223)
(0.0519415430825827737 -0.00787260491908848767 -0.111268566488276807)
(0.0436171186203095085 -0.00613755426891337066 -0.108175293395729025)
(0.0629361103524610915 -0.00491208667702015215 -0.110972239141599219)
(0.0656006807898537742 -0.0115165646301776912 -0.148150608637927395)
(0.0596773855968426026 -0.0126194227744344089 -0.134994548217411137)
(0.0499280596715235697 -0.00990664168161981863 -0.130771396040081561)
(0.072856254288663963 -0.00828052763549694433 -0.134958693385425932)
(0.0814371211616577301 -0.0171006616064840571 -0.179105683950165795)
(0.0718815174381141619 -0.0190957527012565777 -0.162884400593770268)
(0.0603200520407084426 -0.0148046678782709565 -0.157308421536863807)
(0.0881022265475519262 -0.012817980125659767 -0.163311645467474342)
(0.103230636204660164 -0.0243157984993860182 -0.216233875839451223)
(0.0906802706723445484 -0.0276792261645957202 -0.196979081848985105)
(0.076774893150469814 -0.0213359624085323017 -0.189255594714224568)
(0.109938523605848368 -0.0192279665313080661 -0.198900571243807056)
(0.134024351158418348 -0.03282309732642779 -0.267136939114777872)
(0.115614066567331142 -0.038476671738265307 -0.237212283410799973)
(0.098047325784769282 -0.0290663700311020422 -0.227299265205362061)
(0.144693760798816018 -0.0267007635728173376 -0.239766671442347895)
(0.159172165689811157 -0.0506924139764366663 -0.330735694954241211)
(0.145457146491698719 -0.0507457163967368827 -0.298410966473304395)
(0.125877197313105482 -0.0387811093039246366 -0.27966378901958211)
(0.178117041528350284 -0.0367003911675563843 -0.309805447384018051)
(0.200686165423066498 -0.0372953706452690201 -0.489906535882785987)
(0.196302801662620041 -0.0860642729127710226 -0.363956797332701087)
(0.160159174192533782 -0.0647397248485557519 -0.329644393555015125)
(0.285039098456913997 -0.064661087673391987 -0.382964289592569618)
(0.125459890483547137 -0.0155791335804579042 -0.615170225897616718)
(0.137090841576710476 -0.0054564339815897896 -0.483587013394567777)
(0.27574204770543026 -0.0230027993028319618 -0.6809461210531913)
(0.00134237880421784399 -0.00401413621294955791 -0.0308643484704514068)
(0.00113719632757441468 0.00381860472113203231 -0.02772875666261344)
(-0.00099699604428480932 0.00535496938585473033 -0.0272216349945073148)
(-2.23943226155344554e-05 0.00623216847038915445 -0.0281622292897999935)
(0.0125405420006669439 -0.0156742862036187078 -0.0356425094416016955)
(0.00968482636760478223 -0.016060217903857546 -0.0330279595805501869)
(0.00516759242890774215 -0.0124048084315669903 -0.0318313303452410143)
(0.00771742516308289092 -0.0109489315655460738 -0.0339449198575300717)
(0.0237641348813791287 -0.0173373650859514443 -0.0406296893085042257)
(0.0208407165809280405 -0.0210416185870110767 -0.0374257147794119296)
(0.0159773799528119716 -0.0172583924061476233 -0.0360918312494203711)
(0.0201534322791726284 -0.0160415893470405718 -0.0384427624283318337)
(0.0321540773090614532 -0.0142940765150397827 -0.0473382550450104772)
(0.0301315406839736954 -0.0186925954799592349 -0.0432058673700192464)
(0.0252213510686567152 -0.0154531133296612923 -0.0419084464379442662)
(0.0313227706878729112 -0.0148009580348136792 -0.0441339025928931816)
(0.0376917355490775305 -0.0100719206350533864 -0.0564353774232267541)
(0.0364824017333354872 -0.0137452588461515462 -0.0511873666774141645)
(0.0313695229956678645 -0.0113345678879815531 -0.0499279513876753414)
(0.0396695378051599781 -0.0111389087843849332 -0.0518615821461069423)
(0.0412611050617842992 -0.00698794180459600279 -0.0683637313786027573)
(0.0403177813784224501 -0.00907826821027882432 -0.0618566940673352522)
(0.0348253327815336022 -0.00760554330372980453 -0.0604757936857381329)
(0.0456010213964096883 -0.00744088426910553824 -0.0621384057518174909)
(0.0438974808999586658 -0.00631722887656454429 -0.0834446089216908382)
(0.042782595155907481 -0.00675763163567234988 -0.0755779857518609072)
(0.0367678734904632043 -0.00610686977121715265 -0.0737983692919874645)
(0.0502680760991456033 -0.00550798273759152673 -0.0754057547327934008)
(0.0471580425516840082 -0.00837281296791340078 -0.101862691150039264)
(0.0451284827129982205 -0.00764584370628875604 -0.0925884848169037655)
(0.0384327403565119588 -0.00735885721240404217 -0.0900759715128903599)
(0.0548532169182539206 -0.00599996975719204254 -0.0920298953289995225)
(0.0529348644554408568 -0.0130637240842677617 -0.123834232131962735)
(0.0489131623086199313 -0.011850758261592419 -0.112962133770013809)
(0.0413197529568015628 -0.0112495559272864885 -0.109407955095597476)
(0.060926812103204997 -0.00900036789515789616 -0.112229286317997431)
(0.0626966004109030528 -0.0201190768018081577 -0.149728340173253982)
(0.0559706901323823794 -0.0191119585238892567 -0.13697752086092313)
(0.0471772645383451775 -0.0175469357204046106 -0.132135981274801112)
(0.0703391836828632239 -0.0144848664498429466 -0.136443949832086631)
(0.0779183692041959253 -0.0295535040855331825 -0.180757798492589605)
(0.067418957827686754 -0.0289983417258968812 -0.165041528433954809)
(0.056997187998030073 -0.0258759343803709255 -0.158743002139601741)
(0.084928112783507273 -0.0221792500598081178 -0.16501774005716785)
(0.0988010517911104003 -0.0416846971559280202 -0.217957489420333966)
(0.0853650394571922877 -0.041907069915700805 -0.19914308287346566)
(0.0728444573684152857 -0.0367220062199607178 -0.190733412872602648)
(0.106140435842148537 -0.032621195223712561 -0.200626755375368754)
(0.128144102237162355 -0.056175997440521451 -0.268486310769326497)
(0.108478177477560292 -0.0581085261642012782 -0.239454495485785873)
(0.092552203235985453 -0.0500960344986330075 -0.228737919533171769)
(0.13903238024708825 -0.0459412880164924778 -0.24191895552119963)
(0.154567082581035325 -0.0853444147577919476 -0.331632068851764494)
(0.137862873164149136 -0.0772955829979425219 -0.29983094025390028)
(0.120496358600780479 -0.0659114401496030677 -0.280822279457542678)
(0.171960011908104671 -0.0613029837708819053 -0.310434944915267019)
(0.187099313511504134 -0.0642426922535501155 -0.489220487347531763)
(0.186323593663723086 -0.126016999082345399 -0.364540849189949778)
(0.152980194380850698 -0.105797347625215032 -0.331570110868172507)
(0.275656841063158464 -0.105589287032203535 -0.382558040519379416)
(0.112580722837230224 -0.0292069998816800631 -0.611991541654484883)
(0.12308878465532988 -0.0136056318432477077 -0.482280132513034421)
(0.26068717268025593 -0.0437148182961297899 -0.675846375004815481)
(0.00680389147895704965 -0.00812877189660314754 -0.0298923677727122201)
(0.0044937093484863971 0.000239289177356557289 -0.0260484204433562572)
(0.00240096993395239999 0.00323282198932148225 -0.025895408633708504)
(0.00330222198984836878 0.00495468227181284498 -0.0270061531793212919)
(0.0182119426971660489 -0.0214446555443259107 -0.034811164918360421)
(0.0164144665034641826 -0.0218432903908317884 -0.0311366780996987016)
(0.0115070251436342023 -0.0179242354915153529 -0.0312555298935627418)
(0.013908729919045416 -0.0155202726847025151 -0.0326811980896408796)
(0.0278950355444886923 -0.02237049213727689 -0.0400018928409269503)
(0.0266108648537116931 -0.026019268369058355 -0.0357711563430267235)
(0.0211055397499817533 -0.0225040606805313459 -0.0358849786084881189)
(0.0251868697257164459 -0.0206360173554860672 -0.0372330815996709114)
(0.0345811686819219449 -0.018035650275137205 -0.0470549790024229336)
(0.0339297604623260626 -0.0223121575045661866 -0.0421012084175771129)
(0.0283653775656048379 -0.0194297022624365379 -0.0419635627644773454)
(0.0344727696107297171 -0.0185006354757587949 -0.0432594418256089797)
(0.0384281341962340248 -0.0126381198890001597 -0.0566086833215226487)
(0.0384297105360239741 -0.0160488592577013173 -0.0507873831643490051)
(0.0326546869749134508 -0.0140477364237240887 -0.0502776632110375349)
(0.0411237027458910762 -0.013848070534377966 -0.0514653129722194499)
(0.040393035746733183 -0.00881283787107163541 -0.0690709484405934437)
(0.0405885541315328183 -0.0104990435875134507 -0.0622202379276200548)
(0.0344543246887331969 -0.00949866495529346107 -0.0611949988146664875)
(0.0455678427890045118 -0.00935921893961958601 -0.0622899379889187491)
(0.0416509369326673595 -0.00813286468327886064 -0.0847218616470738484)
(0.0414726901203824952 -0.00791016255711316299 -0.0767046722265233571)
(0.0349190472134218582 -0.00781080063146142711 -0.0749454512612870161)
(0.0488724235097639306 -0.00699120440920420003 -0.0761323444733999211)
(0.0437361033886705733 -0.0112184780830937858 -0.103687927436878324)
(0.0423826328334699215 -0.00941324677691771083 -0.0944326050194269628)
(0.0353541233009152522 -0.00983298584650726254 -0.0916544034746798464)
(0.0522545188125075888 -0.00778522271839817478 -0.0933356967608494487)
(0.0485739667467582487 -0.0180200344922373315 -0.126105422498974218)
(0.0449376492460097365 -0.015393897087093664 -0.115394381786711908)
(0.0372663593583982128 -0.0155765519909054125 -0.111329688886372388)
(0.0572853586835430223 -0.0121304038618073942 -0.114115620222229153)
(0.057554104938442617 -0.0281043760689230968 -0.152290709121623902)
(0.0509753445283800261 -0.0253711067164625534 -0.139802780592743092)
(0.0423572361448175533 -0.0246257389363549357 -0.134283479091655444)
(0.0658122893164802963 -0.0199342149102469529 -0.138819424767794158)
(0.0718145677125069104 -0.0414110178912837773 -0.183426812814830892)
(0.0613128756944578968 -0.0387420678104744565 -0.168057407794340447)
(0.0513273766531982117 -0.0364102955653127502 -0.161002228004353265)
(0.0794121938763925339 -0.0308422099106987826 -0.167813730968016217)
(0.091433292700103086 -0.0583224933370454085 -0.220640088938917567)
(0.0779355943679621854 -0.0559076937481825173 -0.202132313699145139)
(0.0661705404934297692 -0.0514869651838084363 -0.193020257498516368)
(0.099563754689484571 -0.0454373594714282195 -0.203582670967838553)
(0.118589795125196171 -0.0791791631994941958 -0.270799124970359684)
(0.0985564615408989625 -0.0772807733506415406 -0.242420694020041905)
(0.0838642715293700797 -0.0701656794611484474 -0.230969051070076148)
(0.130101253776228276 -0.0640434466258575641 -0.245174462269848709)
(0.14550224436888895 -0.117893884313668054 -0.332739720592085564)
(0.126949697624256369 -0.104202573068891302 -0.302004333420659465)
(0.11130973504709922 -0.0933339681747316213 -0.282637054834834145)
(0.162157061993761009 -0.0865519908311629116 -0.312528878110671759)
(0.172839165990006483 -0.0909465040279414522 -0.48731190349690312)
(0.170857357222346462 -0.163525304454547105 -0.365068320724498074)
(0.141787084114569861 -0.143722922259208685 -0.332041189895261546)
(0.259480551344032029 -0.143475414026819764 -0.382758327835336642)
(0.100376959075017771 -0.0462900894992153422 -0.60646888481658201)
(0.111686128801323253 -0.0266739490128547058 -0.480940279982108365)
(0.244694197184294304 -0.065638742086979493 -0.668741281306580171)
(0.0129029873491670419 -0.0135895348929163679 -0.0272927307703427352)
(0.00828775808718127359 -0.00555120530161700397 -0.0227808491721649617)
(0.005626409087162265 -0.00157340361719408243 -0.0241286065652515473)
(0.00638761321439529958 0.0013839969126913682 -0.0242402887839712443)
(0.0248232482006242039 -0.0265814969269033904 -0.0320966695243649972)
(0.0240179234537599706 -0.0266806161710982509 -0.0274599601773716437)
(0.0183635187126853297 -0.0235011842643598097 -0.0298340535060378498)
(0.0205614816422860502 -0.020216590176432802 -0.0289129289786690911)
(0.0330620290001194389 -0.0260215191201914053 -0.037870471919676886)
(0.0334038577031218892 -0.0291277654131536223 -0.0327167062699816602)
(0.0272548309740536787 -0.026668016885135773 -0.0348795586384031131)
(0.0312906208525490503 -0.0244193719453256811 -0.033773188881157136)
(0.0379630119022133714 -0.0202195294697915355 -0.0458336125795032051)
(0.0385807423332001145 -0.0241093651042847447 -0.0400668037399468727)
(0.0325506286833158534 -0.0219956862797970679 -0.0414795811135856077)
(0.0388076226645549457 -0.0210953498533377019 -0.0407175529111513321)
(0.0399999708432142442 -0.0136942295237592691 -0.0563989377704464043)
(0.0410948035376257209 -0.0167534256492953247 -0.0499101672963177118)
(0.034900131284019198 -0.0153088183875385413 -0.0504054209888836341)
(0.0437108275374402874 -0.0153167745036168132 -0.0500039002769549004)
(0.0401653739754938219 -0.0093578421097744377 -0.0698539617135499891)
(0.0414714219014069435 -0.0105435794511797871 -0.0625197421858195712)
(0.0348934891417619908 -0.010091101215729122 -0.0619721357773686671)
(0.0465013755477430152 -0.0100327090140958971 -0.061914152673964884)
(0.0397311407163318253 -0.00902569361552834661 -0.0864154155988764439)
(0.0405851947717201372 -0.00792907767031819991 -0.0781042288263259638)
(0.0336260806187768657 -0.00860211938829560929 -0.0763627238830236754)
(0.0481587013217066456 -0.00742332311853245025 -0.0767865063472035758)
(0.040275332457178889 -0.0135343638156761627 -0.106139059369260547)
(0.0397847311458823724 -0.0102970867863087807 -0.0967896151107310726)
(0.0324873908256717026 -0.0118154244352215963 -0.0936560665364133127)
(0.0499433273533103905 -0.00878165860605540499 -0.0949399896334304216)
(0.0438421901588986127 -0.0227978672809982172 -0.129091739880480783)
(0.0407889161610756612 -0.0183887509331139565 -0.118449604399033445)
(0.0330632380141330992 -0.0197900701791406293 -0.113736364608188589)
(0.0535235594171173737 -0.0147342835910260084 -0.116555510123229344)
(0.051693271189648532 -0.0361054555701586163 -0.155569479265459637)
(0.0454724671190881308 -0.0313553740364712411 -0.143270980909851714)
(0.0370143723335189939 -0.031817274872034576 -0.136939924654455508)
(0.0607944251353893864 -0.0251284150204826306 -0.141929716083001617)
(0.06450535645846045 -0.0532724980853167412 -0.18676290867865461)
(0.0542958485876830557 -0.0482610023325451068 -0.171680783466788223)
(0.0446617630210929539 -0.0470139218491643432 -0.163779850250532683)
(0.0729931052886981513 -0.0393333360151473174 -0.171429214348972847)
(0.0821837326299936638 -0.0747875121031994911 -0.223912918780269449)
(0.0691335156516618976 -0.0695430566951866364 -0.205632486873624093)
(0.0578851412819657227 -0.0661167472376629067 -0.195825325239278786)
(0.0915640896874862498 -0.0580722837127998492 -0.207381964336975255)
(0.106514577562468987 -0.102130261798339506 -0.273625902470341686)
(0.0865436285464805527 -0.0958270102982309857 -0.245822157924934559)
(0.0727317716465638031 -0.089882784484837025 -0.233685930190355662)
(0.118864872850182407 -0.0817282058811687889 -0.249151008146554082)
(0.132023356538530728 -0.149623806698301831 -0.334332933553071809)
(0.113562332757900397 -0.130814361744588159 -0.304657673453735178)
(0.0995450473772344496 -0.120923050266147802 -0.284816677428697484)
(0.149903695137463766 -0.112107723619074673 -0.3153657988951864)
(0.154206102262105571 -0.118634802356789332 -0.484225302044177464)
(0.148110440546920963 -0.198871877840854916 -0.36654010613785204)
(0.124888736730160765 -0.180021313807966377 -0.332938345784026313)
(0.237351889403270011 -0.179872562311028245 -0.383913506036525354)
(0.0852464015754713644 -0.0681247286848653821 -0.59818679711759204)
(0.0987275233014999198 -0.0433691442109119391 -0.478406709011712061)
(0.224844800834937159 -0.0885015567251867391 -0.659148084315719585)
(0.0199774819936544487 -0.0192907542240052 -0.0229480785791938563)
(0.0133305804100434869 -0.0130426260012938694 -0.0175897089715537948)
(0.00967983195366347617 -0.008570246721595896 -0.021737445757428784)
(0.0102306176570170302 -0.00454183571228694311 -0.0189625398045094214)
(0.0326090754118149792 -0.0297985020892956691 -0.0280799969229882929)
(0.0325269408071673927 -0.0302133827199227538 -0.0234035109413793484)
(0.026239640170101379 -0.0277572761114833304 -0.0274340861631295931)
(0.0286097239574320365 -0.0244283681176393867 -0.0232715475070369611)
(0.0391656546613652762 -0.0277532594816670142 -0.0349130380902516468)
(0.040623833538065611 -0.0301560564267285766 -0.029664562144002888)
(0.0343543282744401338 -0.0289537370327597188 -0.0329560003752355016)
(0.039012789148980917 -0.0271376222639158511 -0.0291845119566636266)
(0.0419940852470280304 -0.021011097291284718 -0.0441433584567613932)
(0.043434263710407317 -0.023963709409730409 -0.0381643294789619641)
(0.0374651467267766644 -0.0231795930511386368 -0.0402790360291587074)
(0.0445695297778082519 -0.022835703703221015 -0.0374735536985355069)
(0.0420894480743833552 -0.0136852096058264795 -0.0560309717116908718)
(0.0439825879702131217 -0.0158705877435953088 -0.0491478360338634193)
(0.0377767371154559689 -0.0156455389447332401 -0.0500204518410750226)
(0.0474660720714707024 -0.0160322067567462596 -0.0481699891958626697)
(0.0403278208350928494 -0.0089451647861137594 -0.0707700092985955598)
(0.0425921938146122739 -0.00925574614586594999 -0.0629936588456766339)
(0.0359274205471956654 -0.0100083415695003519 -0.0624909823473053169)
(0.0483286498947307908 -0.00987970847602696184 -0.0614811786336513511)
(0.0379798545422843359 -0.00892576466384518985 -0.0884784283381805925)
(0.0398456596074589914 -0.00685177806441012761 -0.0797677278569631498)
(0.0327863913998044515 -0.00875105209180360513 -0.0777659546589774264)
(0.047994425209152744 -0.00682109605541760065 -0.0776984051481843241)
(0.0367438330942922789 -0.0149584519900236319 -0.109100160140503999)
(0.0371173979957680547 -0.0103741346858708897 -0.0994967891629170292)
(0.0298128583466086179 -0.0131527384410671539 -0.0958409542166820116)
(0.0477980526287021951 -0.0085247987039078002 -0.0970937069995942564)
(0.0387053447490039865 -0.0269305866795845304 -0.132628845428404363)
(0.0362605670323759566 -0.0208426515234465572 -0.121867607971800712)
(0.0286784790567074094 -0.0234993923357239148 -0.116503657974231831)
(0.049542589508618777 -0.0162532432749898717 -0.11966787380297321)
(0.0451253476630666256 -0.0436165507395045379 -0.159382285111180355)
(0.0393107292605244449 -0.0370694194195732712 -0.147074148652517056)
(0.0310487962121613684 -0.0385926373062189867 -0.140050099700048503)
(0.0552253522276633449 -0.0294504276765452308 -0.145771517350347934)
(0.0561077365220232077 -0.0646384741216523284 -0.190550361661757595)
(0.0464208726042551825 -0.0574797195775003794 -0.175603609900887747)
(0.0369157383903384317 -0.0571229210633850057 -0.167060242787962082)
(0.0656853967740503725 -0.0471069598571664597 -0.175735565462469795)
(0.0714599962874823968 -0.0905767221401857919 -0.227541726018289314)
(0.0595127673472925361 -0.0827181183234081963 -0.209279457392899909)
(0.0481962436446383147 -0.0801128293218358045 -0.19899923547628523)
(0.0823714371145003732 -0.0700847660927775146 -0.211702922892007345)
(0.0922863245663269188 -0.124290760481663876 -0.276853928908328106)
(0.0733257381430138938 -0.113459684143324746 -0.249502799431287919)
(0.0597308140361492573 -0.108807471543089701 -0.236718737146244751)
(0.105900708839325522 -0.0985899247354068697 -0.253471806150391221)
(0.113591976544058976 -0.179760520246887823 -0.336864846038515353)
(0.0976128815156441926 -0.155920151087912517 -0.308234102193921)
(0.0852185738913380647 -0.147912206953738884 -0.287423965009977467)
(0.135647253717717658 -0.136948235581914601 -0.318697194264141836)
(0.128715269102971458 -0.148583518987473129 -0.480501601211266838)
(0.116287239649327676 -0.231429279355715362 -0.370592582756051725)
(0.100702368105206774 -0.214624963693234388 -0.335410774188739769)
(0.206238189420071105 -0.21359738516966692 -0.387082655966031475)
(0.0656525870747620144 -0.0976395840162751633 -0.587322858096733014)
(0.0828260159060270479 -0.0663273481143508703 -0.474158550065171491)
(0.200556695545194535 -0.11426533348120109 -0.647601836599746683)
(0.0278763843523004498 -0.0219832752729669512 -0.0180451413337392869)
(0.0197011560563368007 -0.021663588551396884 -0.0123207034879077026)
(0.0150213415455574886 -0.0141419735154697246 -0.0185943008471689125)
(0.0157792663181715795 -0.0100245640775523601 -0.0110572309301828643)
(0.0406777417033066732 -0.0287439721946150598 -0.0249880761623939365)
(0.0409109085151040455 -0.0327098226694711031 -0.0211344769157963755)
(0.034473738027951159 -0.0279408797305146644 -0.0250307444665960506)
(0.0381380323639948157 -0.0256002493526016478 -0.0186446508908672433)
(0.0450603557124935675 -0.0254523972942239315 -0.0329158535327132087)
(0.0466985217451274387 -0.0296786956092684531 -0.027998520949876541)
(0.0409672789412959745 -0.0271128495691110097 -0.0309641487030507846)
(0.0476455213969651653 -0.0265512968034013475 -0.0261137717176768286)
(0.0458774481848012936 -0.0185749668973399264 -0.0431688070560639972)
(0.0475853987534134992 -0.0226813785844473328 -0.0372588799377025215)
(0.0418885073404475367 -0.0208344557524428528 -0.0389039283624672064)
(0.051091861926203519 -0.0214052653529966212 -0.0356129537723555503)
(0.0441867541179432957 -0.0116709133250736934 -0.0561105231678491884)
(0.0468343303523080651 -0.0142358190906748325 -0.0489636926793011601)
(0.0405159241383433386 -0.0136795118464958145 -0.0492650669292822307)
(0.0519595788325080618 -0.0143275164357759902 -0.0474983510366085576)
(0.0404829816225320827 -0.00759607874607317289 -0.0719913774040442239)
(0.0437220499368045079 -0.00731936977516120264 -0.0638963100897890768)
(0.0369675645033378658 -0.00881056622045480256 -0.0626669892239734294)
(0.0506477555765705717 -0.00819566361257455418 -0.0620864534601226967)
(0.0360470876708003027 -0.00860300331575006641 -0.0907860886816995727)
(0.0391680139049425183 -0.00518066840990373794 -0.0816353516963846115)
(0.0319131789067780697 -0.00864447988647191502 -0.0789857583837451083)
(0.0479731764746534617 -0.00546222099068096722 -0.0795865278564783785)
(0.0327245254835794586 -0.016326604766878465 -0.112264236994213729)
(0.034255631077140053 -0.0099481369651972136 -0.102230037961502443)
(0.0268275487020077849 -0.0146421460831549673 -0.098070697873020557)
(0.0453774217290994 -0.00787006551787355901 -0.100172066166320031)
(0.0327954192462932212 -0.0309209104048486262 -0.136312911195913322)
(0.0312297487674552433 -0.0228693276308609521 -0.125137746001176053)
(0.0235646614181758141 -0.0272309380840860607 -0.119531190862420672)
(0.044878250563125964 -0.0173119792394033876 -0.12352151061885415)
(0.0377453984903506276 -0.05083141404265442 -0.163295473442224504)
(0.0326610871556925822 -0.0425213082262469941 -0.150605779342878637)
(0.024093219361906594 -0.0452178270000088076 -0.143573779883729435)
(0.0487957055737740092 -0.033343908924850521 -0.150077573449929641)
(0.0471163458165258994 -0.0754646583615508765 -0.194332705632030145)