/*--------------------------------*- C++ -*----------------------------------*\
| =========                 |                                                 |
| \\      /  F ield         | OpenFOAM: The Open Source CFD Toolbox           |
|  \\    /   O peration     | Version:  2206                                  |
|   \\  /    A nd           | Website:  www.openfoam.com                      |
|    \\/     M anipulation  |                                                 |
\*---------------------------------------------------------------------------*/
FoamFile
{
    version     2.0;
    format      ascii;
    arch        "LSB;label=32;scalar=64";
    class       volScalarField;
    location    "0.0299999999999999989";
    object      alpha.water;
}
// * * * * * * * * * * * * * * * * * * * * * * * * * * * * * * * * * * * * * //

dimensions      [0 0 0 0 0 0 0];

internalField   nonuniform List<scalar> 
7236
(
3.80783254444838723e-05
0.000104691564042069552
7.80894063122380635e-05
4.32837885777388601e-05
1.73865826334126928e-05
4.97311114059181265e-06
1.2021723014217573e-06
2.36794843337533084e-07
4.16164259854926851e-08
6.61606633213087544e-09
9.60786783127931038e-10
1.28591291990191772e-10
1.73547807593816197e-11
3.48015132589336498e-12
4.61383094939002931e-13
4.4066221459746975e-14
4.03809115579241305e-15
3.47090059186706815e-16
2.78609019908417486e-17
2.08442561390692535e-18
1.45069823359073728e-19
9.37092686762027064e-21
5.60308112593695613e-22
3.09102313434565077e-23
1.56718663133088893e-24
7.26862825249313511e-26
3.06648929380200068e-27
1.16865075743797514e-28
3.98908210290213948e-30
1.20658229418162005e-31
3.190010893481975e-33
7.2407020144230725e-35
1.37703687704017836e-36
2.11972558078674972e-38
2.50665957600521966e-40
2.08737323862373579e-42
1.01988161320055161e-44
5.3881348212085918e-46
2.62614797979833141e-05
6.17207732185669314e-05
6.71254311325749991e-05
5.93517535113401577e-05
2.80602608304886356e-05
4.52041292410027413e-06
9.19220968330273776e-07
1.84295954203278898e-07
3.27157467727054075e-08
5.25038396254840831e-09
7.69585369864977736e-10
1.06878393503576332e-10
1.59532799249522622e-11
3.06555480920026622e-12
3.89667189222351328e-13
3.75318686695721582e-14
3.46336407694176257e-15
2.99303833029434779e-16
2.41418351475079223e-17
1.81437690398218235e-18
1.268238508510425e-19
8.2270884453600721e-21
4.9398962116522819e-22
2.73671613289381457e-23
1.39350956987650258e-24
6.49149222201948217e-26
2.75101374577433385e-27
1.05333478918880795e-28
3.61306225153009671e-30
1.09849408078262047e-31
2.92030251753974695e-33
6.66848641443150177e-35
1.27677908216403693e-36
1.98087233010939733e-38
2.36534605172872849e-40
1.99605275157401966e-42
9.96023319518549183e-45
5.00603989070560308e-46
2.01321350938927033e-05
3.28466096717033778e-05
4.10444730592929595e-05
3.1299847854097429e-05
1.54520628213135203e-05
3.61090431365027852e-06
4.95653519039696121e-07
1.01068310878660458e-07
1.81309827163553805e-08
2.93945088528806144e-09
4.35021194617982207e-10
6.39493302613847411e-11
1.26016412608065358e-11
2.07537176461205068e-12
2.33926314863268021e-13
2.30894818045902439e-14
2.14745710302062662e-15
1.86684731761305466e-16
1.5138547267898732e-17
1.14345726266429747e-18
8.03124205087629398e-20
5.23446116277533889e-21
3.15783811725717452e-22
1.75790172517874989e-23
8.99613130504477613e-25
4.21326122946431927e-26
1.7960034152109829e-27
6.9216522672794087e-29
2.39188346546992926e-30
7.33537069839983411e-32
1.97043356933583084e-33
4.55764878607599391e-35
8.87143354931840998e-37
1.407257489366566e-38
1.73466103710313169e-40
1.53877917653670937e-42
8.39092955432947908e-45
3.09203427893419498e-46
2.23322521478889795e-05
2.45389319523134925e-05
2.07755913524618614e-05
1.08449166105565854e-05
4.97903427316020296e-06
1.4243149970365708e-06
2.51244575386349506e-07
5.04592265088997187e-08
9.11922276207208181e-09
1.49047955316086833e-09
2.25411783327903651e-10
3.37308688777263625e-11
7.78320271192805443e-12
1.17764936915626662e-12
1.23779806579874714e-13
1.23725917599040483e-14
1.15829188860993813e-15
1.01215472108785361e-16
8.24486562143094363e-18
6.25288000687330058e-19
4.40803291396453157e-20
2.88277455088390047e-21
1.744669496683085e-22
9.74174174169553008e-24
4.99998355162403113e-25
2.34846152439170475e-26
1.00399789143755498e-27
3.88085509393388572e-29
1.3452833719393595e-30
4.13961059789128076e-32
1.11616247149583356e-33
2.59285912063439298e-35
5.07304129971951437e-37
8.09920520801467941e-39
1.00687476943671251e-40
9.04084955143267841e-43
4.99631815057042373e-45
1.71048208278963244e-46
1.82451880947143296e-05
2.01656025697895711e-05
1.36446359666788164e-05
5.73394825643019701e-06
2.05391172163340319e-06
5.08215913735416747e-07
1.15847381018010671e-07
2.38991925680775381e-08
4.33701681969310222e-09
7.12964140226524779e-10
1.15530710162350904e-10
2.39459282874409141e-11
4.55271046714169186e-12
5.79541952720042169e-13
6.22355556977986587e-14
6.2758129555570115e-15
5.91013518905831357e-16
5.19026170365405141e-17
4.24672385557518806e-18
3.23370974570401579e-19
2.28809500582124733e-20
1.50154696101345425e-21
9.11738577811124762e-23
5.10719906103894741e-24
2.62954949846824281e-25
1.23903307304144976e-26
5.3146402963537994e-28
2.06156452795177794e-29
7.17378973340950479e-31
2.21698800275863954e-32
6.0074742776968263e-34
1.4038482794710377e-35
2.76687719965917459e-37
4.45911367458946872e-39
5.61424877548144559e-41
5.13405989340216704e-43
2.92076373768403643e-45
8.82528280019078831e-47
1.0901540137250803e-05
1.62255863468577059e-05
8.67951044412606376e-06
3.16071916180124449e-06
9.11190491460011712e-07
2.1703802289156339e-07
5.2643208835599065e-08
1.08581670817764607e-08
1.97443878656576886e-09
3.35278836812850411e-10
5.76466076688959725e-11
1.42019378902574901e-11
2.36100014056124824e-12
2.74703629075233629e-13
2.98664678442557925e-14
3.03282001024628814e-15
2.87170070929125627e-16
2.53391525108536576e-17
2.08211850207625041e-18
1.5915866619433921e-19
1.13016525886518524e-20
7.44105716992036879e-22
4.53237030186503011e-23
2.54658953674404001e-24
1.31507392268368069e-25
6.21538121681386115e-27
2.67440842989329181e-28
1.04088235663041732e-29
3.63529446417914173e-31
1.12808763555892296e-32
3.0714776227510657e-34
7.21866658737623046e-36
1.43280694245570888e-37
2.33002051343399551e-39
2.9691111333197818e-41
2.76168172912834044e-43
1.60923275416518695e-45
4.31120434113812443e-47
7.31407281929296219e-06
8.22115931117076825e-06
4.47850456813640791e-06
1.44214206474690629e-06
3.91481602810479872e-07
9.49525522815529901e-08
2.30168936753061518e-08
4.74589368499089875e-09
8.63988675925387448e-10
1.56367216448849159e-10
3.71796503341732767e-11
7.73549748411016505e-12
1.06398981060790824e-12
1.2525499168375458e-13
1.37351200701626424e-14
1.40342891679407146e-15
1.33583886835986769e-16
1.18417847070821077e-17
9.77086964412442478e-19
7.49702145673777451e-20
5.34180546749648852e-21
3.52816307095823885e-22
2.15542985682077025e-23
1.21456511387345523e-24
6.28967489377383534e-26
2.98116977510702332e-27
1.28654446949834388e-28
5.02278036695888352e-30
1.76016458757521854e-31
5.48298447419853313e-33
1.49951013883477066e-34
3.54291591175478842e-36
7.07817083728432093e-38
1.16060536396353313e-39
1.49514942641648756e-41
1.41179584227765439e-43
8.43714756714822873e-46
2.00835031808225648e-47
2.95640629686340286e-06
3.48001049038887057e-06
1.86879449001649208e-06
5.87864614430635659e-07
1.5804756392355302e-07
3.99673340213530757e-08
9.68745516872145769e-09
1.99886475357098723e-09
3.86478441103766361e-10
8.43316667737568554e-11
2.10361131389361034e-11
3.58157972141775341e-12
4.62868162559477109e-13
5.49804346943955001e-14
6.07261586045811087e-15
6.24155947191913242e-16
5.97158220091708186e-17
5.31785129913337212e-18
4.40577911933150541e-19
3.39289863217797727e-20
2.42558198076751476e-21
1.60691295709571589e-22
9.84482823519236378e-24
5.56248097791691989e-25
2.88820557629804407e-26
1.37268193403539713e-27
5.94004190542848362e-29
2.32565143204533197e-30
8.17538396755340424e-32
2.55565224677575453e-33
7.01794889870549794e-35
1.66624833082421126e-36
3.34884615432662116e-38
5.53262936277356662e-40
7.19774798770953763e-42
6.88763158298840251e-44
4.20630204529377451e-46
8.95896217666632522e-48
1.36389990564753779e-06
1.39434831529291243e-06
7.14114329709874027e-07
2.29821681052119644e-07
6.05395853315719884e-08
1.61176590749872143e-08
3.99512298678617423e-09
8.56258917084137309e-10
1.70135764449018378e-10
4.7458498178244855e-11
1.02899433895081659e-11
1.50228687579838587e-12
1.94433457329024834e-13
2.32782622794234343e-14
2.58827267883415002e-15
2.6756137104694479e-16
2.57291046080196711e-17
2.30157670043334475e-18
1.91443840733994353e-19
1.47956311235085914e-20
1.06114605558969108e-21
7.05036518175770155e-23
4.33187056319678061e-24
2.45349356481024314e-25
1.27722600544145633e-26
6.08545820983672471e-28
2.63970552698846123e-29
1.03615862204742215e-30
3.65276448062109038e-32
1.14553592051638347e-33
3.15745211185693634e-35
7.5300480615228338e-37
1.52164978158004297e-38
2.5311246351122871e-40
3.3220199411059956e-42
3.21648472427583657e-44
2.00121707412497626e-46
3.83792177003447541e-48
8.60250886862823099e-07
6.82526915458812274e-07
2.79881258952260697e-07
8.55542210373454517e-08
2.37968793448994505e-08
6.48458434598117494e-09
1.62023681712704217e-09
3.57357809545186279e-10
9.5118939870984264e-11
2.46608339463583409e-11
4.26412463470787452e-12
6.07170435493241231e-13
7.90836264090771316e-14
9.53629852739883079e-15
1.06698913142542193e-15
1.10911998097164534e-16
1.07179426582426139e-17
9.62923062171399666e-19
8.03991455752928906e-20
6.23440075480029736e-21
4.48484754637657513e-22
2.98808460141495007e-23
8.05264214631806255e-07
5.28375189716466937e-07
1.32715392757694371e-07
3.4480614111218449e-08
9.59662369393073497e-09
2.59324141031245704e-09
6.6193238245533165e-10
1.71788655284929071e-10
5.02086634411712261e-11
1.05792926456244983e-11
1.67869195463351814e-12
2.38750444835735513e-13
3.12963757988234541e-14
3.79756484607874603e-15
4.2729034521340667e-16
4.46407529236527847e-17
4.33320137919643349e-18
3.90837387601857214e-19
3.27435148367804031e-20
2.54646828035473149e-21
1.83664084660728544e-22
1.22662157722182218e-23
7.02036776465254667e-07
4.02683242043989661e-07
8.17046889735508002e-08
1.54488688919439336e-08
3.92920770499648855e-09
1.0803444550979079e-09
2.7167331806322376e-10
8.77533558116598854e-11
2.31382533145746867e-11
4.15401677749610743e-12
6.46474137198145453e-13
9.21515794958787636e-14
1.21354586919453054e-14
1.47945927822881707e-15
1.67192767864271443e-16
1.75378576601933905e-17
1.70851539357087406e-18
1.54590495554135285e-19
1.298589979161024e-20
1.01212946522786711e-21
7.31347895550037385e-23
4.89371127165314323e-24
2.44973333503437972e-07
1.90860778605255459e-07
3.95881221352475004e-08
7.22649375283106275e-09
1.74795231468221191e-09
4.66112365811501658e-10
1.43363050983251654e-10
4.43256174888064858e-11
9.42790197732007175e-12
1.60635697828746244e-12
2.478094080878385e-13
3.52893337838665327e-14
4.65347114534093627e-15
5.68501328938900066e-16
6.43914025987430665e-17
6.76985874807431523e-18
6.6089900104223884e-19
5.99134762294111098e-20
5.0406249668928809e-21
3.93577623317779883e-22
2.84582357379065071e-23
1.90645407494284133e-24
5.9729857596934135e-13
9.43792526990278675e-14
1.36074823241059378e-14
1.78408667735813793e-15
2.17375484174961262e-16
2.46051664963525114e-17
2.58640887555815189e-18
2.52481850768206449e-19
2.28891173902956809e-20
1.92608284662880803e-21
3.85760851746318529e-15
6.42341695275606101e-16
8.24623096216925489e-17
9.32627171992334731e-18
9.77577557824295437e-19
9.53591207335588569e-20
8.51189440913074884e-21
7.30450504786773848e-22
1.96613355058489683e-17
3.0924293206727556e-18
3.48152460387665675e-19
3.33575370217439121e-20
4.84360386841828408e-06
2.05479899154488186e-05
1.67575353368169247e-05
8.48127497574028644e-06
3.16577157117716894e-06
9.36237609576744396e-07
2.30551264347075869e-07
4.89706480204354863e-08
9.08516698264459957e-09
1.43796937215326656e-09
2.05126191786873703e-10
2.93897635939363338e-11
5.9348282909857091e-12
8.66146679652946783e-13
8.99165942605010225e-14
8.73737988817241361e-15
7.98171986594464741e-16
6.82148563990196745e-17
5.44487832611613761e-18
4.05257871051606463e-19
2.80723914166505938e-20
1.80565047102663699e-21
1.07547659880549506e-22
5.91229069720176402e-24
2.98808715712935108e-25
1.38187112521002772e-26
5.8144342444053132e-28
2.21053194862497289e-29
7.5285946131155229e-31
2.27247062463470675e-32
5.9964616785142127e-34
1.35861688994785698e-35
2.57940177663795069e-37
3.96412145075964097e-39
4.68046295792068334e-41
3.8921161365206587e-43
1.89901179597213389e-45
7.56662536731092566e-47
2.13954934218935089e-06
9.50787688846700576e-06
9.29121776719875866e-06
5.35933280151472875e-06
2.17675185894087162e-06
7.4636087078733576e-07
1.73587797514313943e-07
3.7502997902628422e-08
7.14972272354179063e-09
1.14555228302823074e-09
1.67074671450763014e-10
2.41196786984604344e-11
5.16780998000136901e-12
7.46540516599734167e-13
7.64297160793449265e-14
7.48797386878575075e-15
6.88246963385148425e-16
5.91372690335996707e-17
4.74345513659523146e-18
3.54664305912446201e-19
2.46746695461206444e-20
1.59382034624019758e-21
9.53280511474150825e-23
5.26251963413595536e-24
2.67098224966122609e-25
1.24057473183734828e-26
5.24316784620028256e-28
2.00254339034962623e-29
6.8530537843538322e-31
2.07905263843381669e-32
5.51579460260540062e-34
1.25707370561596493e-35
2.40231217309514577e-37
3.72015176300765224e-39
4.43379506948239512e-41
3.73422383441154988e-43
1.8588225593854417e-45
7.05689353333394042e-47
2.78960644111979027e-06
6.1683944149104312e-06
5.13932927140639376e-06
2.83336332919129192e-06
1.34981059785190549e-06
4.60427804406916615e-07
9.76329699537321307e-08
1.99475443982331171e-08
3.85921763273586289e-09
6.34346198402884031e-10
9.96036279427396736e-11
1.94424248638839958e-11
3.55130987051079637e-12
4.43335460152747949e-13
4.65085151741517208e-14
4.5997996930631165e-15
4.25696743988716054e-16
3.68001558258004985e-17
2.96833493236847138e-18
2.23109527406949468e-19
1.56002565093940194e-20
1.01261128746749411e-21
6.08612714160524269e-23
3.37654895065165145e-24
1.72265047370868655e-25
8.04531102826675379e-27
3.42075788914540723e-28
1.315264217462823e-29
4.53542546894707315e-31
1.38820127628234668e-32
3.72232905211309119e-34
8.59570476670682945e-36
1.67064890572984091e-37
2.64656195692355456e-39
3.25851627636598183e-41
2.88808995230394552e-43
1.57431435769239271e-45
4.34997334116454342e-47
3.39631071319045726e-06
4.54889382294630564e-06
3.03612524363792531e-06
1.48615226666229222e-06
6.37305214728724345e-07
2.00166061529187914e-07
4.67800339978479642e-08
9.76368409615085978e-09
1.90332556732585226e-09
3.30764594358523865e-10
5.23188658113039833e-11
1.21776861277946117e-11
2.02478317111208754e-12
2.31587064321905332e-13
2.46439938098336308e-14
2.45638218783896593e-15
2.28708305045719402e-16
1.98743377269941138e-17
1.61049830101011282e-18
1.21552973764927812e-19
8.53128194245381763e-21
5.55686260379152099e-22
3.35070000488700577e-23
1.864686637748252e-24
9.54155585575642703e-26
4.46921388748502626e-27
1.9058147094042335e-28
7.34968807842939646e-30
2.54232319248023695e-31
7.80771262457513286e-33
2.10136904058211011e-34
4.87326875602514657e-36
9.51977795660176651e-38
1.51762876608966553e-39
1.88414075076526084e-41
1.68981154809629709e-43
9.32801444867037604e-46
2.40178309818505787e-47
2.8621303546877991e-06
2.97806895289605577e-06
1.71808192300269937e-06
7.60297045088304482e-07
2.80142829419807168e-07
8.69575602131152056e-08
2.14451481249682155e-08
4.56882970692101164e-09
9.05736864431739545e-10
1.66879082759287486e-10
3.48215476839208762e-11
7.1402960281188533e-12
1.00362988557046104e-12
1.15294502749021578e-13
1.23912337968126123e-14
1.2435392506520332e-15
1.16442320088143079e-16
1.01694261767804998e-17
8.27782579284549837e-19
6.27325648707995667e-20
4.41943905557354827e-21
2.88865095764341919e-22
1.74759094982232748e-23
9.75679030351514462e-25
5.00838692258702852e-26
2.35344085776801519e-27
1.00692843994137872e-28
3.89689301839941169e-30
1.35315355023153635e-31
4.17357915498153867e-33
1.12887362014093184e-34
2.63351033752077082e-36
5.18218644442993426e-38
8.33915973337394313e-40
1.04847207127270956e-41
9.57567517379223791e-44
5.45144930516095407e-46
1.23763820755142566e-47
1.71781255999597228e-06
1.67444235320490385e-06
8.91655365042617033e-07
3.69205972508953466e-07
1.38778674369204758e-07
3.9471646641217749e-08
9.55719195879648509e-09
2.09791746607243171e-09
4.33717720946477949e-10
8.15510636209968672e-11
2.05168147456758766e-11
3.73829680397718021e-12
4.72206204597912406e-13
5.48693565505243098e-14
5.94376885177587988e-15
6.00214897525473157e-16
5.65064492388209792e-17
4.95870137108104413e-18
4.05379436093730492e-19
3.08416107427106741e-20
2.18054532078492062e-21
1.42998622897920664e-22
8.67845552467217917e-24
4.85997949882637361e-25
2.50223527570161852e-26
1.17937621610132275e-27
5.06194691958710342e-29
1.96557137426610599e-30
6.85018556431958728e-32
2.12153331936838633e-33
5.76578794157669998e-35
1.35277152899377388e-36
2.68074931528731094e-38
4.35280125231260976e-40
5.53875931224445645e-42
5.14486232415289378e-44
3.01392595992620919e-46
6.04099193334444524e-48
8.90704976328304517e-07
8.41845623455562842e-07
4.2603026987003416e-07
1.797022021804394e-07
6.52955095529727113e-08
1.71385380360508311e-08
4.13185749441324062e-09
9.44387533209952992e-10
1.95395567837504652e-10
5.03729005315568566e-11
1.12954468478685051e-11
1.68691202177390058e-12
2.1351244347897164e-13
2.50348107438316995e-14
2.73121235263293493e-15
2.77463905794501915e-16
2.62601879112102858e-17
2.31536829855142444e-18
1.90087303552414334e-19
1.4517383317446885e-20
1.02997500321984869e-21
6.77609312856380811e-23
4.12476431353814156e-24
2.31661756920589378e-25
1.19613388791533816e-26
5.65389986839871385e-28
2.43387025279053388e-29
9.48021098777350931e-31
3.31515466820721902e-32
1.03065160782803155e-33
2.81350430037789796e-35
6.63610038153986462e-37
1.32364192679214349e-38
2.16705075998495966e-40
2.78764687376560013e-42
2.62860947433988495e-44
1.57802059222953671e-46
2.8123884755179732e-48
4.25578698534761299e-07
3.9224613918898862e-07
1.90404468568536342e-07
8.51047234392384584e-08
2.78231407311156831e-08
7.07261475343655526e-09
1.75200295470470953e-09
4.08906176296330581e-10
1.07212160977613324e-10
2.83571669277987574e-11
5.19410663437195719e-12
7.28344515974507524e-13
9.28766780125098031e-14
1.09785925767584541e-14
1.20593810111585911e-15
1.23245313330655285e-16
1.17264062827700215e-17
1.03881058462847299e-18
8.56435332845378594e-20
6.56548945516612981e-21
4.67398139986441834e-22
3.08450460821448992e-23
1.88307746140892638e-24
1.06057998116596431e-25
5.49070632892579522e-27
2.60241203997193798e-28
1.12338722058055855e-29
4.38829169462785834e-31
1.53936586252928771e-32
4.80270410446283934e-34
1.31644408570704415e-35
3.12025064812636621e-37
6.26101523861641951e-39
1.03280256724300908e-40
1.34168460800336039e-42
1.28209869652718914e-44
7.86018997492711404e-47
1.25375048728662e-48
1.97324429896100502e-07
1.74917772441798355e-07
8.83571120392703112e-08
3.44385343127291751e-08
1.08011289389739694e-08
2.83984068599976941e-09
7.27697549510698601e-10
2.02048090580723996e-10
6.00103949509404704e-11
1.35876273627038112e-11
2.16712145634803422e-12
3.02804657234135351e-13
3.89383350457555032e-14
4.63854930746057602e-15
5.12979128573944552e-16
5.27409273618499705e-17
5.04489722733723357e-18
4.49022217440917746e-19
3.71732780966737132e-20
2.86029039326106329e-21
2.04304681373121358e-22
1.35233143932047617e-23
8.27926212552234762e-25
4.67608733379794839e-26
2.42691376908027894e-27
1.15328014856887711e-28
4.99073290211791829e-30
1.95456711423699527e-31
6.87609367419870262e-33
2.15224976882141906e-34
5.92161678283424733e-36
1.40983686520870849e-37
2.84442538161930654e-39
4.72429841992917693e-41
6.19156775098620571e-43
5.98663119756517056e-45
3.73721046546311462e-47
5.3666267666361343e-49
9.46652245216235217e-08
7.76733936145114113e-08
3.50255433560950618e-08
1.24709034960243817e-08
3.9338229021542956e-09
1.13406262399641415e-09
3.37897685394430702e-10
1.1038247637132071e-10
2.98954761895186725e-11
5.59873996382132774e-12
8.6614913577430132e-13
1.21740953487231714e-13
1.57839674131626574e-14
1.89434865199476413e-15
2.10888450007505957e-16
2.1810289294437784e-17
2.09717129895454965e-18
1.87518360525920502e-19
1.55864743745413283e-20
1.20354129603329343e-21
8.62398246258376269e-23
5.72479932557256759e-24
3.51115661542857022e-25
4.83818687357158512e-08
3.56548269211796453e-08
1.43578754202224073e-08
4.84417462172751805e-09
1.54050306114180785e-09
4.89479018468800206e-10
1.75616064945529465e-10
5.58512135607290147e-11
1.25661722565355642e-11
2.17890208781667278e-12
3.36263399297999942e-13
4.75965816468645514e-14
6.21678652268943866e-15
7.51231266020259003e-16
8.4145217321371293e-17
8.75036491632912855e-18
8.45496231247426639e-19
7.59225320532057674e-20
6.33381301701592707e-21
4.90629489262279833e-22
3.52564830030896068e-23
2.34658956162957447e-24
2.48420084567968259e-08
1.68007025685879888e-08
6.27015002735572551e-09
2.08121511848060089e-09
6.43794006767381664e-10
2.43990967354659579e-10
9.02380643924427202e-11
2.47785575819281377e-11
4.87670248314601795e-12
8.28656917055641748e-13
1.28168883654492047e-13
1.82373504465391997e-14
2.39563880569787904e-15
2.91082382787327699e-16
3.27689873267659829e-17
3.42340983409736236e-18
3.32137813960559287e-19
2.9931616672940012e-20
2.50458553916102561e-21
1.94495707476925907e-22
1.40065974560977711e-23
9.34278174277029995e-25
1.16374161167193275e-08
7.6707364702968922e-09
2.82064272986085277e-09
9.24386332853706048e-10
3.28146991654666125e-10
1.32987489005283606e-10
4.34327084935986514e-11
9.97366919879550931e-12
1.8632299887067393e-12
3.14278588138557879e-13
4.85475955932472207e-14
6.91669378967203827e-15
9.11109041245660381e-16
1.1106004933020122e-16
1.25422688146937981e-17
1.31427665911539885e-18
1.27858002137265513e-19
1.15502820478405469e-20
9.68425253355817372e-22
7.53677336905895004e-23
5.43309960941637979e-24
3.62932081183208758e-25
1.13946956351397802e-13
1.82169157040601221e-14
2.6375477369379615e-15
3.4585246059344156e-16
4.2091664287762787e-17
4.75532601090521475e-18
4.9863583885070642e-19
4.85422465284773634e-20
4.38805012441013387e-21
3.68195914278379211e-22
7.08311492242439176e-16
1.22727036303082564e-16
1.58535544432309022e-17
1.78675920788177166e-18
1.86934952032750623e-19
1.81971683330518672e-20
1.62382110881907549e-21
1.38763184654509655e-22
3.69271913700960504e-18
5.84218955215184764e-19
6.56539400558195288e-20
6.29334643041571246e-21
5.80250378838536644e-07
3.04124981988243403e-06
2.64253062310431414e-06
1.3166488129881343e-06
4.73634785002042388e-07
1.35077657477574738e-07
3.22153224481974298e-08
6.65518069448650743e-09
1.21997556363619398e-09
2.12638866140350765e-10
3.42365199725237908e-11
7.63411861355560948e-12
1.21053615527366718e-12
1.33191130788222569e-13
1.37559618780724413e-14
1.33565898288236826e-15
1.21437807187829308e-16
1.03266950018139164e-17
8.20385004299682307e-19
6.07943046305082743e-20
4.19437001764070158e-21
2.68796499553729671e-22
1.59562343585724364e-23
8.74480938164445042e-25
4.40723830594093645e-26
2.03292721455300786e-27
8.53363228152844963e-29
3.23724546576748963e-30
1.10030953020057764e-31
3.3149824041287664e-33
8.73193585253554916e-35
1.97508905280179899e-36
3.74382824424230301e-38
5.74480762136109061e-40
6.77273375930693756e-42
5.62385438760258439e-44
2.73966570480603115e-46
8.37729896740550501e-48
2.65339561297232187e-07
1.4187153993416081e-06
1.46566053598775804e-06
8.30061925271641512e-07
3.24561785925845134e-07
9.74439871125831738e-08
2.40194250642317604e-08
5.07927881849666332e-09
9.47891683731073384e-10
1.72709274718640866e-10
2.92785152363556772e-11
6.66810310888493679e-12
1.03341267680738344e-12
1.12808360656392043e-13
1.17565900075676393e-14
1.14941077645073723e-15
1.05131777150034464e-16
8.9881320808620058e-18
7.17545449024825743e-19
5.34161534233949183e-20
3.70134008768153383e-21
2.3820098826155973e-22
1.41989252076596577e-23
7.81414940436434636e-25
3.95478404153241872e-26
1.83205430484820078e-27
7.72434370209057282e-29
2.94360583881397292e-30
1.0052595228224723e-31
3.04376758540829121e-33
8.06029286944378625e-35
1.83372309881445245e-36
3.4982733686713075e-38
5.40806155115892361e-40
6.43421405843877552e-42
5.40900564330170886e-44
2.68633386458542037e-46
7.83338494646918284e-48
3.45340841109649925e-07
8.93965590387909691e-07
7.87115318441631259e-07
4.29838038550016523e-07
1.66815493605878131e-07
5.03434913981559405e-08
1.25432096256770006e-08
2.68606791632998434e-09
5.30757057033576746e-10
9.79525313744861335e-11
2.33092720071140582e-11
4.59825681158860167e-12
6.05585794425999666e-13
6.78697651513730835e-14
7.14858304940235043e-15
7.04387841665723768e-16
6.48699439338054461e-17
5.58071249930469533e-18
4.48103824106282387e-19
3.35394175330513128e-20
2.33606946958691085e-21
1.51095768855858463e-22
9.05183904144460798e-24
5.00697933426532091e-25
2.54750950111039842e-26
1.18680228269578201e-27
5.03461795424558116e-29
1.93173672781257955e-30
6.6483984250331198e-32
2.0313325817075449e-33
5.43790834778256453e-35
1.25383699154871285e-36
2.4335401887031626e-38
3.85018554793209527e-40
4.73507491240503044e-42
4.19295802730437257e-44
2.28442995011548489e-46
4.81923347988077561e-48
4.27048967486459241e-07
6.47537042457433635e-07
4.53555432474475186e-07
2.2164189392282162e-07
8.21188929709270016e-08
2.44124858354254389e-08
6.07786169852401662e-09
1.31261779782472601e-09
2.75524562616709655e-10
5.67058492237483928e-11
1.45673104390169974e-11
2.56799857059758963e-12
3.12928515980435038e-13
3.55665132319585444e-14
3.77922894078251124e-15
3.74983369357987787e-16
3.47405420713411495e-17
3.00444761715663261e-18
2.42372649343666612e-19
1.82173050201076183e-20
1.27370869594670125e-21
8.267208178213256e-23
4.96896980446311486e-24
2.75712390418237234e-25
1.40699938101594321e-26
6.57398611876893258e-28
2.79698599560446366e-29
1.07638877802904705e-30
3.7161314142436506e-32
1.13921323143919135e-33
3.06095866599108847e-35
7.08754072489833278e-37
1.38249157020130183e-38
2.20088890046699529e-40
2.72884137948615031e-42
2.44443042562335919e-44
1.3548768596518387e-46
2.65637978827691953e-48
3.61871272550916217e-07
4.19407733994825589e-07
2.50969630347931711e-07
1.11187220287540904e-07
3.91533808039244581e-08
1.13848843723996136e-08
2.81526013635940634e-09
6.43848545654107789e-10
1.33569605807941201e-10
3.81728651240065766e-11
8.57761607030444838e-12
1.25152439617061887e-12
1.54346537927439411e-13
1.7726605691715458e-14
1.89805139819063697e-15
1.89541747422189152e-16
1.76596252792217915e-17
1.53495412084453495e-18
1.24387997722020315e-19
9.38772147895128435e-21
6.58839195334213645e-22
4.29128274509741731e-23
2.58784910378706481e-24
1.44055754895038769e-25
7.37474484756477283e-27
3.45682088445861633e-28
1.47565619026084082e-29
5.69896038564545292e-31
1.97507379621883456e-32
6.08084397764190273e-34
1.64199311033106303e-35
3.82451508067729902e-37
7.5146347480271737e-39
1.2075457917607128e-40
1.51619225039117223e-42
1.38296890601444327e-44
7.90567019156162967e-47
1.36723686005130918e-48
2.16824067115888204e-07
2.32276320087996007e-07
1.27105042245636424e-07
5.27287769947395485e-08
1.7847793217748327e-08
5.08767632586180435e-09
1.27563854406136816e-09
3.01480116804117284e-10
8.39819582313726115e-11
2.29884468261482079e-11
4.28506113893658954e-12
5.84082295917546806e-13
7.28067788369681491e-14
8.43458100013509766e-15
9.09499748179145276e-16
9.13813441580648878e-17
8.56041823868729268e-18
7.47685175940121259e-19
6.08550743798801064e-20
4.61098443117623033e-21
3.24773138661385388e-22
2.12244896872089578e-23
1.28399636338458117e-24
7.16949469587714585e-26
3.68138135392033915e-27
1.73086810108697993e-28
7.41217300504407418e-30
2.87216503863306332e-31
9.99041072963160282e-33
3.08852084749486758e-34
8.37973405939848127e-36
1.96295706489100928e-37
3.88413851062000398e-39
6.29783765430946359e-41
8.00289642549462422e-43
7.42415289588084866e-45
4.36413114725589393e-47
6.66755545236709023e-49
1.10322632535935656e-07
1.1391514966331114e-07
5.89426752194211911e-08
2.34128755740344029e-08
7.70890249676567427e-09
2.18162518732683466e-09
5.71375249929712893e-10
1.62749210113757577e-10
5.16706343652398339e-11
1.20614579992690775e-11
1.91665262407271662e-12
2.614984076940257e-13
3.29122811411848105e-14
3.84363171418962783e-15
4.17328041032300893e-16
4.21870656576720914e-17
3.97349601538813645e-18
3.48736603975536221e-19
2.85071918940048299e-20
2.16842123348756754e-21
1.53273659614659854e-22
1.00492379708603464e-23
6.09799146574475974e-25
3.4150049962761791e-26
1.75856199728092559e-27
8.29219405686680632e-29
3.56160557390493461e-30
1.38441945774419785e-31
4.83194204521960127e-33
1.4995341824545734e-34
4.08666532499758533e-36
9.62397939295706575e-38
1.91676719189498173e-39
3.13369379336394905e-41
4.02569843687690842e-43
3.79114893358993266e-45
2.2825461406305181e-47
3.10127037446049031e-49
5.08489924441553363e-08
5.11207246242296883e-08
2.53672756902330963e-08
9.76136884001612007e-09
3.1521440508516456e-09
9.26278194064618429e-10
2.83793562887513652e-10
9.85206198458449751e-11
2.79602946297598792e-11
5.38948463545457826e-12
8.17637370052603915e-13
1.12473200316898039e-13
1.42864371364625513e-14
1.68174495362319838e-15
1.83878553868082352e-16
1.87036701755625037e-17
1.77139010718697656e-18
1.56229755837375027e-19
1.28265049111664389e-20
9.79461363954417187e-22
6.9476453390767448e-23
4.56969028339841287e-24
2.78122015129050817e-25
1.56196944228981242e-26
8.06547157091403821e-28
3.8137510481841729e-29
1.64267804158903114e-30
6.40379673405825311e-32
2.24217214451058682e-33
6.98320634607850324e-35
1.91100868350121711e-36
4.52254885957618913e-38
9.0616722705210835e-40
1.49273198044992165e-41
1.93661403644337359e-43
1.84827793826272713e-45
1.13594933185908315e-47
1.38100761864460542e-49
2.22931902092838327e-08
2.16183790506422376e-08
1.03002778500973174e-08
3.85681463709712548e-09
1.27031227479852282e-09
4.29061784623128764e-10
1.61015880976272192e-10