/*--------------------------------*- C++ -*----------------------------------*\
| =========                 |                                                 |
| \\      /  F ield         | OpenFOAM: The Open Source CFD Toolbox           |
|  \\    /   O peration     | Version:  2206                                  |
|   \\  /    A nd           | Website:  www.openfoam.com                      |
|    \\/     M anipulation  |                                                 |
\*---------------------------------------------------------------------------*/
FoamFile
{
    version     2.0;
    format      ascii;
    arch        "LSB;label=32;scalar=64";
    class       volVectorField;
    location    "0.0299999999999999989";
    object      faceForces;
}
// * * * * * * * * * * * * * * * * * * * * * * * * * * * * * * * * * * * * * //

dimensions      [1 1 -2 0 0 0 0];

internalField   uniform (0 0 0);

boundaryField
{
    inlet
    {
        type            calculated;
        value           nonuniform List<vector> 0();
    }
    outlet
    {
        type            calculated;
        value           uniform (0 0 0);
    }
    top
    {
        type            calculated;
        value           nonuniform List<vector> 0();
    }
    bottom
    {
        type            calculated;
        value           uniform (0 0 0);
    }
    left
    {
        type            calculated;
        value           uniform (0 0 0);
    }
    symmetry
    {
        type            symmetryPlane;
    }
    interface
    {
        type            calculated;
        value           nonuniform List<vector> 
104
(
(1.91601562499999884e-05 0 0)
(5.74804687500000025e-05 -5.10529118979974338e-19 0)
(9.58007812500000065e-05 1.70176372993324773e-18 0)
(0.000134121093750000017 -1.19123461095327339e-18 0)
(0.000172441406250000014 0 0)
(0.000210761718750000337 0 0)
(0.000249082031250000226 0 0)
(0.000287402343750000277 2.83400591316581856e-33 -1.27632279744993739e-18)
(0.000325722656249999407 -4.81781005238189042e-33 -1.44649917044325902e-18)
(0.000364042968750000054 0 0)
(0.000402363281250000756 0 0)
(0.000440683593750000808 0 0)
(0.000479003906249999287 4.72334318860969634e-33 -2.12720466241655711e-18)
(1.9160156250000002e-05 0 0)
(5.74804687500000025e-05 -5.10529118979974242e-19 0)
(9.58007812500000065e-05 1.70176372993324773e-18 0)
(0.000134121093750000017 -1.19123461095327339e-18 0)
(0.000172441406249999825 0 0)
(0.000210761718750000201 0 0)
(0.000249082031250000009 0 0)
(0.000287402343750000277 0 1.27632279744993719e-18)
(0.000325722656249999732 1.60593668412729692e-33 1.44649917044325902e-18)
(0.000364042968750000054 1.61667554343658489e-18 8.08337771718292446e-19)
(0.000402363281250000268 -1.78685191642990961e-18 8.93425958214955766e-19)
(0.000440683593750000266 0 0)
(0.000479003906249999287 0 2.12720466241655711e-18)
(1.91601562500000223e-05 0 0)
(5.74804687500000703e-05 -5.10529118979974916e-19 0)
(9.58007812500001285e-05 1.70176372993325004e-18 0)
(0.000134121093750000207 -1.19123461095327474e-18 0)
(0.000172441406250000014 0 0)
(0.000210761718750000337 0 0)
(0.000249082031250000226 0 0)
(0.000287402343750000548 2.55264559489987439e-18 0)
(0.000325722656249999732 -2.8929983408865242e-18 -8.0296834206364846e-34)
(0.000364042968750000434 1.61667554343658682e-18 -8.08337771718292446e-19)
(0.000402363281250000756 -1.78685191642991192e-18 -8.93425958214955959e-19)
(0.000440683593750000808 1.95702828942323683e-18 9.78514144711618413e-19)
(0.000479003906249999287 2.12720466241656173e-18 1.06360233120827856e-18)
(1.91601562500000121e-05 0 0)
(5.74804687500000025e-05 -5.10529118979974242e-19 0)
(9.58007812499999929e-05 1.70176372993324754e-18 0)
(0.000134121093750000017 -1.1912346109532732e-18 0)
(0.00017244140624999977 0 0)
(0.000210761718749999984 0 0)
(0.000249082031249999738 0 0)
(0.000287402343750000277 2.55264559489987169e-18 0)
(0.000325722656249999407 -2.89299834088652112e-18 8.0296834206364846e-34)
(0.000364042968749999783 0 0)
(0.000402363281249999943 0 0)
(0.000440683593749999995 1.95702828942323297e-18 -9.7851414471161822e-19)
(0.000479003906249998745 2.12720466241656058e-18 -1.06360233120827856e-18)
(1.9160156250000002e-05 0 0)
(5.74804687500000025e-05 -5.10529118979974242e-19 0)
(9.58007812499999523e-05 1.70176372993324754e-18 2.36167159430484808e-34)
(0.000134121093750000071 -1.1912346109532732e-18 -1.65317011601339357e-34)
(0.000172441406249999933 0 0)
(0.000210761718750000201 0 0)
(0.000249082031250000117 0 0)
(0.000287402343750000277 2.55264559489987208e-18 0)
(0.000325722656249999569 -2.89299834088652112e-18 0)
(0.000364042968750000054 0 0)
(0.00040236328125000054 0 0)
(0.000440683593750000157 0 0)
(0.000479003906249999829 4.25440932483311884e-18 2.36167159430484817e-33)
(1.91601562500000223e-05 0 0)
(5.748046875000005e-05 -5.10529118979974724e-19 0)
(9.58007812500000607e-05 1.70176372993324927e-18 -2.36167159430484851e-34)
(0.000134121093750000153 -1.19123461095327397e-18 1.65317011601339379e-34)
(0.00017244140624999996 0 0)
(0.000210761718750000255 0 0)
(0.00024908203125000028 0 0)
(0.000287402343750000548 2.552645594899874e-18 0)
(0.000325722656249999786 -2.89299834088652305e-18 0)
(0.000364042968750000163 0 0)
(0.000402363281250000702 0 0)
(0.000440683593750000211 0 0)
(0.000479003906250000263 4.2544093248331227e-18 -2.36167159430484851e-33)
(1.9160156250000002e-05 0 0)
(5.74804687500000025e-05 -5.10529118979974338e-19 0)
(9.580078125000002e-05 1.70176372993324831e-18 0)
(0.000134121093750000071 -1.19123461095327358e-18 0)
(0.000172441406249999906 0 0)
(0.000210761718750000228 0 0)
(0.000249082031250000009 0 0)
(0.000287402343750000331 2.55264559489987208e-18 0)
(0.000325722656249999624 -2.89299834088652074e-18 0)
(0.000364042968749999892 0 0)
(0.000402363281250000431 0 0)
(0.000440683593750000374 0 0)
(0.000479003906249999395 4.25440932483311961e-18 0)
(1.9160156250000002e-05 0 0)
(5.74804687500000025e-05 -5.10529118979974242e-19 0)
(9.580078125000002e-05 1.70176372993324792e-18 0)
(0.000134121093750000071 -1.19123461095327358e-18 0)
(0.000172441406249999906 0 0)
(0.000210761718750000228 0 0)
(0.000249082031250000009 0 0)
(0.000287402343750000331 2.55264559489987208e-18 0)
(0.000325722656249999569 -2.89299834088652074e-18 0)
(0.000364042968749999892 0 0)
(0.000402363281250000431 0 0)
(0.000440683593750000374 0 0)
(0.000479003906249999395 4.25440932483311961e-18 0)
)
;
    }
    procBoundary3to0
    {
        type            processor;
        value           uniform (0 0 0);
    }
    procBoundary3to1
    {
        type            processor;
        value           uniform (0 0 0);
    }
    procBoundary3to2
    {
        type            processor;
        value           uniform (0 0 0);
    }
}


// ************************************************************************* //
