/*--------------------------------*- C++ -*----------------------------------*\
| =========                 |                                                 |
| \\      /  F ield         | OpenFOAM: The Open Source CFD Toolbox           |
|  \\    /   O peration     | Version:  2206                                  |
|   \\  /    A nd           | Website:  www.openfoam.com                      |
|    \\/     M anipulation  |                                                 |
\*---------------------------------------------------------------------------*/
FoamFile
{
    version     2.0;
    format      ascii;
    arch        "LSB;label=32;scalar=64";
    class       volVectorField;
    location    "0.0299999999999999989";
    object      U;
}
// * * * * * * * * * * * * * * * * * * * * * * * * * * * * * * * * * * * * * //

dimensions      [0 1 -1 0 0 0 0];

internalField   nonuniform List<vector> 
7236
(
(0.222373367136070227 -0.00295708003968463487 0.362008663609511672)
(0.304117404131590219 0.00730386751124379851 0.372344709491543302)
(0.263456487097586955 0.0221724621917576623 0.345660634738336969)
(0.228457378917320209 0.022484087448775579 0.286791045892273)
(0.197931414058259425 0.0157345745780617073 0.217683082756938512)
(0.170093206009887865 0.0098669892058975521 0.157122205956496397)
(0.15277114461753033 0.00642645755904954798 0.114398249787086792)
(0.138531637481907194 0.00477202540442570305 0.0866135541101739903)
(0.12569262236903167 0.00392293420798842628 0.0674273976740542569)
(0.11417391793469614 0.00333391365671049369 0.0530512294372337614)
(0.103783637229058964 0.00286337719131966092 0.0419078617547702995)
(0.0944477819249490008 0.00248138613848004072 0.0332261268896864026)
(0.0860681765864084181 0.0021671426658564372 0.0264376713589897332)
(0.0785449458649941784 0.00190695633219960031 0.0211088344887989249)
(0.0717765652307719854 0.00169101483420339171 0.0169061601623891264)
(0.0656660556937088552 0.00150994349549060203 0.013576573801412575)
(0.0601286677265001485 0.0013587864043198125 0.0109284043036888684)
(0.0550896673952418342 0.00123232717152513922 0.00881428739676603894)
(0.0504833397766924416 0.00112344984527042342 0.00712048930210976844)
(0.0462574709704827933 0.00102885096128303125 0.00576010039279421446)
(0.0423679628734713182 0.000947905291309381103 0.00466551272369154692)
(0.0387715072430119614 0.00087784396515618794 0.00378258213945399224)
(0.035430230504630858 0.00081581359542133938 0.00306854007517148126)
(0.0323147611877435958 0.000761803229991497009 0.00249037788575269623)
(0.0293971289705010595 0.000715693727248196878 0.00202215322292318865)
(0.0266490145714230464 0.000675190352393096791 0.00164310521109895533)
(0.0240476106543020089 0.000639100755027889795 0.00133674316287234218)
(0.0215754489416940427 0.000608015957307317021 0.00108993765025309206)
(0.0192151192499097345 0.000581727709484910474 0.000891840271206965495)
(0.0169493390592569473 0.000558817027109106057 0.000733430050452446125)
(0.0147650810771850424 0.000538658565019786619 0.000607331781039047365)
(0.0126529606243064707 0.000521664307562444939 0.000507485646077595297)
(0.010603150927028817 0.000507805314145643697 0.000428893459459862153)
(0.00860467617867065847 0.000496429864976750653 0.000367550142633853367)
(0.00664728777127686354 0.000487242408847845317 0.000320434058974198872)
(0.00472180521579327987 0.000479240590707776339 0.000285632170319073805)
(0.00281980457581012178 0.000472153091566289982 0.000262497290900993551)
(0.000935731349318020883 0.000468908282061892428 0.000251008769560954776)
(0.127041138534947473 -0.00847488194411928457 0.344455852501518667)
(0.201343509098476009 0.0075684123930092129 0.327602349589091513)
(0.224341365043141505 0.0439333434167939116 0.318427003834756361)
(0.228856810013702283 0.0555860578961982349 0.277297093346748458)
(0.207470850760909431 0.045789404195324887 0.219194492880667835)
(0.178837169473224145 0.0319097578718581382 0.161396456734173743)
(0.157228380093497766 0.0212963768101133537 0.118195245906706881)
(0.140405138966257337 0.0154197574374974333 0.0889094157589227774)
(0.126516862078111442 0.0122730220595624086 0.0685853391243502336)
(0.114646906417877725 0.0102490504656840981 0.0536527562668956751)
(0.104169401082986737 0.00874360499381575222 0.0422796572155607481)
(0.0948061189714145824 0.00755688974183510095 0.03347928799900423)
(0.0864155894580719564 0.00659808255267234876 0.0266155333907769007)
(0.0788904658507746104 0.005813117392319175 0.0212327490515563204)
(0.0721260885028902066 0.00516181765538597723 0.0169906001281873026)
(0.0660230768944685964 0.00461401065008212527 0.0136330274205957169)
(0.060493545143107022 0.00415105359289298301 0.0109659151920558657)
(0.0554574414403507521 0.00375643928134769458 0.0088391535588351576)
(0.0508473646742052116 0.0034155881995313617 0.00713693786786748913)
(0.0466132318542257229 0.00312163053183592883 0.00577128080371653012)
(0.0427113678244920789 0.00286980892413250246 0.00467355656160572865)
(0.0390981355753674126 0.00265215525261750353 0.00378849061215180607)
(0.0357377768948587415 0.00246235279824569275 0.00307275863919535645)
(0.032602823867680937 0.00229824061843188557 0.00249340277482962844)
(0.0296646847813283113 0.00215679575434882384 0.0020244686445071991)
(0.0268949889200084079 0.00203254575652732491 0.00164492664991793404)
(0.0242726025336121483 0.00192352025529607504 0.00133810397404382432)
(0.0217806102796740605 0.00182981886962115675 0.00109100424581603118)
(0.0194006125356124028 0.00174956492968484289 0.000892859023855455884)
(0.0171151075531404753 0.00167989914885014044 0.000734478518000051162)
(0.0149119267054366438 0.00161986619289805557 0.00060831867953937838)
(0.0127818810257314085 0.00156957001347557629 0.000508338729124338052)
(0.0107144951129976695 0.00152805918649360269 0.000429599327539572848)
(0.00869857213519677382 0.00149384912415664807 0.000368065675199685273)
(0.00672422541654409556 0.00146629901882517765 0.000320719552297293257)
(0.00478211050189860602 0.00144525101158409159 0.000285780629083146596)
(0.00285970559832881199 0.00142989990182096479 0.000262718661555485958)
(0.000948968435993410766 0.00141684176977958844 0.000251493248140375366)
(0.132954415195259829 0.0025223845402778688 0.332258885236693169)
(0.163392239709195225 0.0146987816262193118 0.306122315179962801)
(0.163867736273214687 0.0541783231010882285 0.273210775482891188)
(0.177353402301395124 0.0739235590815549848 0.237268662981187789)
(0.173739919868917625 0.0656709096901512412 0.189656879003398116)
(0.162482470288221242 0.0492561068787164269 0.146059807529977492)
(0.149875247386404675 0.0348643331199451414 0.111512794220442607)
(0.136780579228200971 0.0258533989618031368 0.0859849990362503147)
(0.124415089279424004 0.0205741367332747602 0.0671133500551133744)
(0.113224977562453949 0.017125579370781973 0.0528051231731672122)
(0.103126095277707858 0.0145950208566569747 0.0417535282219051521)
(0.094007337270765462 0.0126158977271750346 0.0331365256217380638)
(0.0857899702542203185 0.0110242184337389533 0.0263827215519489254)
(0.078394572112142541 0.00972322732781264257 0.021067712857839517)
(0.0717309933533723521 0.0086419569480743301 0.0168689855798953778)
(0.065708989275472432 0.00773105146996921899 0.0135409462052246427)
(0.0602445422451267365 0.00695630285860362844 0.0108947345733594186)
(0.0552599234626793695 0.00629049923078385878 0.0087830637761531008)
(0.0506915315094177976 0.00571577539052029165 0.00709238448884143453)
(0.0464914980181344029 0.0052218437224990262 0.00573599576363152501)
(0.0426161532158132531 0.00479769189703425393 0.00464554151952414115)
(0.0390229887700971403 0.00443145836210516626 0.00376601869326276652)
(0.0356784254273400658 0.00411452166553136125 0.00305465730925734121)
(0.0325557723252643469 0.00384055130655064705 0.00247884728622968682)
(0.0296263137321079277 0.00360285336324726087 0.00201271035969746367)
(0.0268630681504723086 0.00339442156932869867 0.00163539930041794383)
(0.0242464125732094783 0.00321321466411260762 0.00133038449454576913)
(0.0217591001033577355 0.00305719367173399974 0.00108480873186888151)
(0.019382344995553611 0.00292239186271271278 0.000887942812618311688)
(0.0170993474165690995 0.00280588519399324957 0.000730590538974987941)
(0.0148984772342250719 0.00270674124486584107 0.000605211393413977099)
(0.0127702021882609863 0.00262373409729412628 0.000505800145681793169)
(0.0107037595061756086 0.00255462556789538917 0.000427468609660044204)
(0.00868823830188429104 0.00249760256016807623 0.000366238069385113173)
(0.00671403377003833811 0.00245169659857975624 0.000319171256993141703)
(0.0047716931133574142 0.00241604927800205711 0.00028457193061996169)
(0.00285174896271435645 0.00238970418285609559 0.000261904053964705078)
(0.000947410187188099206 0.00236949347276028087 0.000250960384797285448)
(0.135160982326851253 0.0205202768940415045 0.316127061732175363)
(0.138314424651867579 0.0276902832502642707 0.283708729747131128)
(0.130881055852407113 0.06400811972012245 0.253287705230112459)
(0.146362502126793942 0.0799077729783866375 0.209531233748584567)
(0.1523044412754056 0.0733934576187073306 0.169409534539523676)
(0.150422456374527225 0.0584352062599867925 0.134834176484090185)
(0.14328247121611043 0.0443978913284471532 0.106093079418252204)
(0.13298176448873153 0.0345654563734037606 0.0833016766749785365)
(0.121993497070670018 0.0281223313550077771 0.0656248939685186439)
(0.111515427646404486 0.0236155562942297718 0.0518961631953873542)
(0.101837268494169034 0.0202083032964397551 0.0411667057216006105)
(0.0929995611085555202 0.0175114202441054162 0.0327435301524356126)
(0.0849865361699128352 0.0153280252669596266 0.0261104989969963772)
(0.0777471874900629439 0.0135331861520429416 0.0208725495763383076)
(0.071206770724495938 0.0120363656156428807 0.0167248864971127342)
(0.0652842694434449811 0.0107736034151307784 0.0134321337564299297)
(0.0599001930551530185 0.00969799836583363703 0.0108108355896454449)
(0.054980512519184524 0.00877362401733956104 0.00871730299129418879)
(0.0504657144252805556 0.00797711795714160614 0.00704060477566590369)
(0.0463098356918362972 0.00729251019535149918 0.005695202776428019)
(0.0424697353398617167 0.00670362384606747706 0.00461315006495505598)
(0.0389043979290941144 0.00619532417868265493 0.00374006025481080301)
(0.0355820773092258846 0.00575522347916611679 0.00303381021086088177)
(0.032477147282102721 0.00537338987929189115 0.00246207944543200535)
(0.0295613221441104849 0.0050419759106031482 0.0019991135369278358)
(0.026809187986323986 0.00475193861382778009 0.00162441513590120797)
(0.0242023828429483376 0.00450009593306840028 0.00132149944704458978)
(0.0217232010948427007 0.00428252813369144406 0.00107761975534585372)
(0.0193529236503907388 0.00409415461937420039 0.000882144363704904047)
(0.0170756095222818587 0.00393174192391423059 0.000725937379466028761)
(0.014879894029422136 0.00379364278905195427 0.000601455942005586362)
(0.0127558541806906695 0.00367756306951940891 0.000502705102315493093)
(0.0106926594319914411 0.00358066455883262634 0.000424863275602787866)
(0.00867970741981037748 0.00350081015724316557 0.000364043373367917947)
(0.00670754047339684224 0.0034363911741278801 0.000317400013222017194)
(0.00476676111957822623 0.0033858920792023575 0.000283292822374945307)
(0.00284837728444235815 0.00334847744780828122 0.00026112420885334662)
(0.000946731908512522184 0.00332109359072789261 0.000250483754015866638)
(0.128977050579881791 0.0270133245151374275 0.305817752960013012)
(0.122765329926755346 0.0418189062633353842 0.273898633181469064)
(0.1177945380381544 0.0717317488273641751 0.236991405054265802)
(0.134558792435951924 0.082589674085410486 0.192898851928414217)
(0.142314605349156853 0.0768249774647924155 0.156533072067212481)
(0.142743489700949633 0.064302690135051549 0.12655376123038567)
(0.137667178377553628 0.051823949852725093 0.101246440622325476)
(0.129037716556858806 0.0421235725483706108 0.0804707863207963642)
(0.11918202444619555 0.0350560190731626087 0.063888933430713557)
(0.109420275291600366 0.0297529143762810741 0.0507802517485571453)
(0.100213841249766691 0.0255987394833758486 0.0404252202019826506)
(0.0917098418258852216 0.0222544255971461116 0.0322377298117703381)
(0.0839461342752365752 0.019520413412552548 0.0257564108597805562)
(0.0768994743329866476 0.0172579212117877356 0.0206181949427300358)
(0.070512048816808795 0.0153641317340334552 0.0165379758094661086)
(0.064713118272359399 0.0137634429844030355 0.0132919301329373803)
(0.0594288964803403874 0.0123975616397876912 0.0107035710684370011)
(0.0545907039071055894 0.011222834455848563 0.00863410705908903599)
(0.0501439585964217616 0.0102110683342907394 0.00697573590472666712)
(0.0460447259055673172 0.00934098586421018388 0.00564436455955383276)
(0.0422507365010233171 0.00859149788392861956 0.00457290980896789701)
(0.0387225526061713635 0.00794431977191265189 0.00370793207078500432)
(0.035430315910076747 0.0073831420478582795 0.00300806848833147771)
(0.0323502649654041421 0.00689512908481239219 0.00244141863759494981)
(0.0294545101560970135 0.00647233098876037315 0.00198244156382584424)
(0.0267190260425361863 0.00610227781351975734 0.0016111049027297149)
(0.0241269156924635922 0.00578093154063033347 0.0013107621775053722)
(0.0216600818217755134 0.00550288447949193963 0.00106887787284718188)
(0.0193001568076309471 0.00526203786872678735 0.000875052110439491072)
(0.0170320717008120466 0.00505452641464474925 0.000720233481899154615)
(0.014844613105195574 0.00487783131069285947 0.000596828271275738078)
(0.0127275735826134287 0.00472883582333480552 0.000498861712199604162)
(0.0106701975521443504 0.00460432893037070797 0.000421634725741710376)
(0.00866212568363997418 0.00450178725065575845 0.000361376326964246209)
(0.00669399921853075768 0.00441890574418165802 0.000315321297563106342)
(0.0047566883279892419 0.00435371297770660755 0.000281863943890022547)
(0.00284183674461051467 0.00430560950961373853 0.000260315123926438288)
(0.000944415413880351638 0.00427028913211557285 0.00025002558346166881)
(0.122680776867881786 0.0338119604522077316 0.307605405691326883)
(0.115079215113268768 0.0526107170135718602 0.274496181590257682)
(0.114749401657966862 0.0772183982756638188 0.226266775224623129)
(0.131189570302426922 0.0847932471089068579 0.181587119300333277)
(0.137273651468882818 0.0797629597688250813 0.147128183892997366)
(0.137156095182066506 0.069271567616034313 0.119685226402367464)
(0.132644065225115293 0.0582493578583504895 0.0966493164185079079)
(0.125008073773220207 0.0488752117079824244 0.0774869984154492181)
(0.116066518075079769 0.0414368958274870317 0.0619381938214866312)
(0.106989682780984516 0.0355239114017931734 0.04948012933809251)
(0.0982820024306077233 0.0307405161259385953 0.0395419283847119607)
(0.0901512849651319725 0.0268205951736445319 0.0316262665258759817)
(0.0826749835219685175 0.0235808481367302571 0.0253246613928053456)
(0.0758544408100094852 0.0208809969383955754 0.0203071810046408195)
(0.0696483834728430784 0.018612407285200902 0.0163096115888287409)
(0.0639960652695509002 0.0166897605602522627 0.0131210329023331174)
(0.0588305740437111979 0.0150451933459658672 0.0105734134865712003)
(0.0540904236275572894 0.0136296774085882619 0.0085337986660565749)
(0.0497263411225502133 0.012410928134876301 0.00689790970333826678)
(0.0456961469472855764 0.0113617892637088626 0.00558349210507836334)
(0.0419589799789797796 0.0104563762207923339 0.00452477580828556433)
(0.0384772012122574364 0.00967430600441845576 0.00366952639577766779)
(0.0352229003839234917 0.00899527288176308476 0.00297729434184943733)
(0.0321751201235671788 0.00840360714077205591 0.00241679576768549743)
(0.0293058374319453072 0.00789190902604094795 0.0019626977737492602)
(0.026592353845407167 0.00744313780711135502 0.00159551423911968838)
(0.0240198559879716313 0.00705362077746657205 0.00129815926064336118)
(0.0215696796557185988 0.0067165490644099865 0.00105855521021771875)
(0.019223945700106309 0.00642450581231205579 0.000866677914763380438)
(0.0169685101039767881 0.00617278743215484739 0.000713515559740114137)
(0.0147923269405865008 0.00595804907840128198 0.000591348301654678779)
(0.0126850486198047275 0.0057765100190923591 0.000494274709896206331)
(0.0106360703372100369 0.00562468215919231622 0.000417796376598010327)
(0.00863517923552690331 0.00549963069660341745 0.000358255625739218122)
(0.00667312898046581223 0.00539837909621852016 0.000312936062685281594)
(0.0047413089885385536 0.00531866273944214037 0.000280260716810827874)
(0.00283221093786529404 0.00526021881486085901 0.000259442333820819593)
(0.000941133548559813164 0.00521730696548457652 0.000249557996585662053)
(0.121972370479860703 0.0478303785622028188 0.315527715305315593)
(0.111136539304041757 0.0654210950354480736 0.272781213202015538)
(0.116105882527968635 0.0840176936444606004 0.217983072081472939)
(0.130089631027115155 0.0881720048618825913 0.172466883440414775)
(0.133697209701058362 0.0832121681015164927 0.139191957557271095)
(0.132448743291591287 0.0740856936675092642 0.113532029619323738)
(0.127953352655140157 0.0640901603540093984 0.0922218266525514502)
(0.120942848296716754 0.0549994207097041915 0.0744291532358950791)
(0.112736573090625236 0.0473147809061170085 0.0598471294596209513)
(0.104290899453825026 0.0409271404530855143 0.0480432674951189881)
(0.0960851434182752595 0.0356154235147032733 0.0385448220454555901)
(0.0883513672796085864 0.031188081112323289 0.0309256003744324895)
(0.0811912676215392481 0.0274892814839419672 0.0248250625795927785)
(0.0746249683367839339 0.0243859965105538076 0.0199452998111884251)
(0.0686248870787635051 0.0217673977592203957 0.0160431627573342818)
(0.0631394412519451914 0.0195402107565956253 0.0129215079001118553)
(0.0581101930012030976 0.0176304474036399969 0.0104217291953576721)
(0.0534840377544630041 0.0159859346684547259 0.00841725342231347887)
(0.0492164196019527905 0.014569905197010815 0.00680763932349517844)
(0.0452667355020265616 0.0133488108478106784 0.00551287670058246259)
(0.0415966563574659415 0.0122928961791251394 0.00446891108114850447)
(0.0381702991267342112 0.0113810495502201549 0.00362493669927221179)
(0.0349614244700044846 0.0105878651534120974 0.00294155468863974362)
(0.0319530516201177381 0.00989607336683028319 0.00238825377439974866)
(0.0291162105886386378 0.00929756575736137743 0.00193999799226441446)
(0.0264298681488045265 0.00877139875928588386 0.00157774190026691084)
(0.0238820188236366221 0.00831552188180819524 0.00128370099766840343)
(0.0214527703643704326 0.00792130682953346398 0.00104665524813865487)
(0.0191248854861565745 0.00757950136879024985 0.000857070832209735076)
(0.016885339002618481 0.00728460546708599183 0.000705849730016795207)
(0.0147233240113101415 0.00703259934341506597 0.00058505374653507994)
(0.0126284839933925325 0.00681907801406663253 0.000488966817785589864)
(0.0105904160831700213 0.00664034775629811572 0.000413386549972705089)
(0.00859895481978930308 0.0064931010799274538 0.000354722772550351893)
(0.00664501255085459073 0.00637371507874561708 0.000310254546675109194)
(0.00472074707789041457 0.00627971883912189534 0.000278451735652083176)
(0.00281959082436801772 0.00621123005202693992 0.000258453918341663253)
(0.000936922721300535223 0.0061608039721362676 0.000249032843282852561)
(0.118061561160224732 0.0626517914310369128 0.320139175391224218)
(0.109576197786077773 0.0800408508058714774 0.267804630704341573)
(0.118085466142606094 0.0917930504389363744 0.209586675510260473)
(0.129165107143259267 0.092487289839426029 0.164111463237033656)
(0.130513155171430584 0.087246102439358042 0.132003801177943941)
(0.128124039131779888 0.0788654274815689393 0.107809362636461847)
(0.123457529451725029 0.0695166887502067787 0.0879406367526799071)
(0.116858260436463024 0.0606152897282670952 0.0713525515006456779)
(0.109247635530003134 0.0527435220329831866 0.0576717382906158649)
(0.101374387770742813 0.0459745229469250838 0.0465095452705441559)
(0.093660429603016529 0.0402162587594273313 0.0374594100346925599)
(0.0863361808469832737 0.0353435328280820443 0.0301514899166070542)
(0.0795137865732093302 0.0312324316914920491 0.0242671798529248452)
(0.0732246904381991526 0.0277608354096575485 0.0195382531091700881)
(0.0674511310770174455 0.02481756649218771 0.0157420624106937093)
(0.0621503597403289809 0.0223043787274282458 0.0126955397580257104)
(0.0572738165605406399 0.0201449364727192895 0.0102499536675318172)
(0.0527766875235764418 0.0182845950800746039 0.00828537487712651018)
(0.0486181350763459849 0.0166814963931732341 0.00670546185612403995)
(0.044759525818389545 0.0152962551356295769 0.00543284313890411881)
(0.0411664808354613304 0.0140962842252046801 0.00440555294932861059)
(0.0378039800130690745 0.0130603909189117018 0.00357441750511363655)
(0.0346477043876232196 0.0121573828323101596 0.00290127031597558777)
(0.0316855191503867331 0.0113587642929334487 0.0023557088190015521)
(0.0288863908573199213 0.0106782687396301864 0.00191460000317914664)
(0.0262324815558300922 0.0100788505142000769 0.00155786597736930384)
(0.0237144801754606074 0.00956064618980355385 0.0012673814700693343)
(0.0213102681830161199 0.00911267474138864782 0.00103317934761576794)
(0.01900362938095667 0.00872336997261568582 0.000846290055470445921)
(0.0167830501384382165 0.00838698637336801785 0.000697311458943251504)
(0.0146379782561687315 0.00809902901525247527 0.000577980014698367814)
(0.0125581508070871494 0.00785444211020496982 0.000482960742074667283)
(0.0105334417558032439 0.00764956165984674585 0.000408458683976403942)
(0.00855361425111011812 0.00748079980762672743 0.000350838401839679171)
(0.00660977608115556441 0.00734377498038757751 0.000307292331873382425)
(0.00469511209199323376 0.00723581439649672534 0.000276391028574423227)
(0.00280404794484763421 0.00715757136010796834 0.000257272718716316021)
(0.000931789489962207016 0.00709982987046979021 0.000248380366656349952)
(0.11186603307883039 0.077102041096226398 0.31851064332467327)
(0.108566790606199282 0.0936067252959104368 0.259843104672801251)
(0.119288544112845701 0.0995501565794230381 0.200683577868302515)
(0.127897786704510102 0.097515131071762351 0.156079635952867446)
(0.127336939904188678 0.0917229791437029901 0.125268647740763239)
(0.123951848960794531 0.0836335321061146969 0.102400963520559662)
(0.119063293859914598 0.0746261987007907773 0.083800904626287448)
(0.112746988201439732 0.0658108275178089924 0.068293828640158441)
(0.105628979019316685 0.0577708381221852668 0.0554531541153833185)
(0.098275739608025367 0.0506824086061151424 0.0449112028772681998)
(0.0910384283954799034 0.044542438247549776 0.0363079348918102715)
(0.0841297234577849384 0.0392797463172779651 0.0293184136574702464)
(0.0776609027832924625 0.0348011961388612484 0.0236601247689885164)
(0.0716670921792978421 0.0309954688727972494 0.0190916800182255458)
(0.0661370049403280369 0.0277528592629087828 0.0154098643541594072)
(0.0610368194826113875 0.0249735993810097159 0.0124454528322217369)
(0.0563282749096452665 0.0225814643204668569 0.0100596121659989012)
(0.0519738452199354495 0.0205187852307523455 0.00813912533864841366)
(0.0479357801628395863 0.0187391515944172644 0.00659197624705588816)
(0.0441781160858740266 0.0171987850735203507 0.00534379951772978416)
(0.0406715310418612266 0.0158623742446440362 0.00433505812999303818)
(0.0373806965089686638 0.0147084941197342008 0.00351843408084574283)
(0.0342785684961484233 0.0136889141408443934 0.00285639677088207582)
(0.03137025994200901 0.0128050107307067958 0.00232424657992396939)
(0.028619989501538292 0.0120445382356322815 0.00188602386335013543)
(0.0260034050923445732 0.0113749504915544516 0.0015355486554589307)
(0.0235198970298173549 0.0107957399521358532 0.00124890712279044649)
(0.021144095655428928 0.0102939479282212823 0.00101792278630028648)
(0.0188615000871946922 0.00985837638412139297 0.000834273109995471458)
(0.0166626409982006257 0.00948211930272701599 0.00068790137046709015)
(0.0145370060458712789 0.00915926435994003987 0.000570089088845410598)
(0.0124745772803549256 0.00888417572945929095 0.000476231570946735448)
(0.0104656150280859842 0.00865282251777357847 0.000403076059191556158)
(0.00849953659098952666 0.00846167675246383734 0.000346702864470959228)
(0.00656764763802936569 0.00830711581856072474 0.000304085069369531928)
(0.00466454251302685953 0.008186898559414197 0.000274011552948248878)
(0.00278571140642632636 0.00810086429572555618 0.000255781479344056753)
(0.000925769209521183612 0.00803649065162582998 0.00024751216844731233)
(0.105209868989181762 0.0897165883793286101 0.311223298255923653)
(0.107234198821260354 0.105282164607034157 0.24960705153930296)
(0.119416758165400233 0.107040194952027351 0.191205127848921519)
(0.12605750584078626 0.102918495398347271 0.148172570176373863)
(0.123990544851238282 0.0964739729457677331 0.118828904478416431)
(0.119799961316862658 0.0883799386684690491 0.0972426347354568843)
(0.114695215213093338 0.0794798128607569071 0.0797980815622209572)
(0.108590328590313395 0.0706500533055589852 0.0652780849092297333)
(0.101894622406320315 0.06243709932147537 0.0532217098680772688)
(0.095019997143205373 0.0550684000062878695 0.0432739546395073393)
(0.0882442946614030305 0.0485975990879959491 0.0351093978892009148)
(0.0817536874532457242 0.0429937626836729633 0.0284394025397046689)
(0.075649884218512653 0.0381890255655320532 0.023012445385434413)
(0.0699653242105071904 0.0340815090251640543 0.0186110911370958344)
(0.0646928777537422589 0.0305650492401143108 0.0150501673531103636)
(0.0598075471705800804 0.0275407608371176643 0.0121736241227182757)
(0.0552807347771725327 0.0249334374605741371 0.00985225838789512143)
(0.0510811656201391046 0.02268165991071441 0.00797951027842956975)
(0.0471741966395422194 0.0207365783679740491 0.00646786342521813752)
(0.0435268367905546627 0.0190516354503445541 0.00524625535494276009)
(0.040115375496245019 0.0175882953961723314 0.00425787042018754749)
(0.0368972368428030287 0.0163199852583515402 0.0034573311690754777)
(0.0986610089898330989 0.100013476896616355 0.300310286122115244)
(0.105411840786133637 0.114871422660337563 0.237079591887253999)
(0.118590048746841925 0.113980061310075764 0.18113629407565407)
(0.123651067576417056 0.108424245185304288 0.140253377333565882)
(0.120401091818301512 0.101366802287026186 0.112588135846217047)
(0.115577063512483952 0.0930792941136512342 0.0922849861583445175)
(0.110290401259262691 0.0841093570934138973 0.0759256945061227984)
(0.104364961685087743 0.0751750540367484288 0.0623211017838130321)
(0.098048983399891515 0.0667733157120447979 0.0509993327062546603)
(0.0916244241886846056 0.0591499089617200935 0.0416180897432322089)
(0.0852986948519915827 0.0523873537422158975 0.0338797759185349018)
(0.0792273075786466413 0.0464854588025232635 0.0275259432859853506)
(0.0734966252624843636 0.0413913782824341797 0.0223320092722991866)
(0.068132276073401804 0.0370125297903325309 0.0181017557824414699)
(0.0631295409717076428 0.0332477671794997875 0.0146664886166411705)
(0.0584716379137320205 0.0299998728164653367 0.0118823796080423632)
(0.0541384257756306747 0.0271947516525080542 0.00962943843422613133)
(0.0501045026210475003 0.0247667984607908634 0.00780759852771895947)
(0.0463388542177785162 0.0226678388492264973 0.00633391436346855859)
(0.0428111099421470756 0.0208490098218097331 0.00514081617803558485)
(0.0395010789203544821 0.0192701370137382672 0.00417435165287812892)
(0.0363685898587349857 0.0178944167135093694 0.00339265591833378625)
(0.0906885622963544552 0.108613440625295848 0.285813706386537136)
(0.103590307230433665 0.122750091658048538 0.22372148914135645)
(0.117168180576235542 0.120459856199396725 0.170603032603224458)
(0.120774336670882831 0.113943497528408808 0.132298037580186212)
(0.116539677503857214 0.106266358335973421 0.106497590975827228)
(0.111215329892158543 0.0975886603117980117 0.087497141099199538)
(0.105795867786970907 0.0883904562019939694 0.07217738721947492)
(0.100047964166404435 0.0792980472877879566 0.0594321897226672002)
(0.0940931935616103887 0.0707305445541464572 0.0488010447446745738)
(0.0881017733372468914 0.0629045290510346494 0.0399585797722599584)
(0.0822186066005275995 0.0559181922276591054 0.0326323052692758381)
(0.0765677407210665767 0.0497588647058798267 0.0265880394366230441)
(0.0712156429910162786 0.04440615604137714 0.0216258903169059928)
(0.0661805435899010808 0.0397846990656817029 0.0175685647354347288)
(0.0614579158698245753 0.0357962196547695552 0.0142621754990214025)
(0.0570382770141566742 0.0323457844642158418 0.01157397134115562)
(0.0529085818037359629 0.0293599705492897309 0.00939271899453243339)
(0.0490498384180479072 0.0267686101927534781 0.00762455999198767206)
(0.0454350202478532236 0.0245273740407222565 0.00619103601433803382)
(0.0420363866758935514 0.0225841734643732542 0.00502813841908836788)
(0.0388354581107390878 0.0208685022474446764 0.00408541470417434719)
(0.0357985855091320568 0.0193986267113827222 0.00332115143793165713)
(0.0844888936442072663 0.11300178855635723 0.267699602977435169)
(0.101819318775022413 0.128910059599490423 0.209532551474330753)
(0.115534913630359171 0.126437272138007789 0.159610516729936647)
(0.117495337098566285 0.1193397216358206 0.124267426820616145)
(0.112331440484797832 0.111107596998311242 0.100484078503611476)
(0.106621048017422781 0.102012764937494727 0.082828973831154229)
(0.101172763184370407 0.0925324882885782685 0.0685367285572084095)
(0.095654956763045848 0.0832223920016378627 0.0566166196986010728)
(0.0900665719739074111 0.0744448577588962407 0.0466411988148177775)
(0.0844982795394070563 0.0664186522457148321 0.0383115488731183076)
(0.0790387323232936284 0.0591789007627787494 0.0313766241111826105)
(0.0737904567945962264 0.0527882639207186491 0.0256327924810885108)
(0.0688192707185753816 0.0472280983552967673 0.0208998163386919442)
(0.064122053365250814 0.042395456412140764 0.0170158034454811861)
(0.0596884773714554673 0.0382062340226418246 0.0138403373042687503)
(0.0555165971684776147 0.0345743238059333519 0.0112506011673986148)