/*--------------------------------*- C++ -*----------------------------------*\
| =========                 |                                                 |
| \\      /  F ield         | OpenFOAM: The Open Source CFD Toolbox           |
|  \\    /   O peration     | Version:  2206                                  |
|   \\  /    A nd           | Website:  www.openfoam.com                      |
|    \\/     M anipulation  |                                                 |
\*---------------------------------------------------------------------------*/
FoamFile
{
    version     2.0;
    format      ascii;
    arch        "LSB;label=32;scalar=64";
    class       surfaceVectorField;
    location    "0.0299999999999999989";
    object      Uf;
}
// * * * * * * * * * * * * * * * * * * * * * * * * * * * * * * * * * * * * * //

dimensions      [0 1 -1 0 0 0 0];

internalField   nonuniform List<vector> 
20390
(
(0.234768617573405197 0.00217339373577958139 0.367176686550527487)
(0.174707252835508864 -0.0143434245930684524 0.353232258055515169)
(0.106269911498302672 -0.00139255794046334088 0.169153797915316234)
(0.715731663749882618 0.00615701893246651481 0.37523557217353265)
(0.281226050300707076 0.0147381648515007412 0.35900267211494008)
(0.252730456615033128 0.0124994313281589983 0.349973529540317407)
(0.171346671582363053 0.00737884876507884872 0.297046569440186259)
(0.63288590941778422 0.011957116678289274 0.36850485653946724)
(0.257760995035938412 0.0223282748202666727 0.316225840315305096)
(0.24389892607036423 0.0403435253165520605 0.332043819286546693)
(0.170115971905872798 0.0181617091591640828 0.306095636687704564)
(0.483748645504076202 0.0226527701018281492 0.363315394039448292)
(0.217559892693875184 0.0191093310134186276 0.252237064324605575)
(0.228657094465511246 0.0424727412487532485 0.282044069619510729)
(0.168959409802087013 0.0176605509858448369 0.257200614237837966)
(0.355098012962295373 0.0261448353441681818 0.301943149930131882)
(0.185424882591431556 0.0128007818919796158 0.187402644356717329)
(0.202701132409584428 0.0311354372375014024 0.21843878781880316)
(0.160791716552102948 0.0124204807700380015 0.197407575527320578)
(0.260932431136089715 0.0202126598241932319 0.227542851910714022)
(0.162389852740384782 0.00814672338247354223 0.135760227871791511)
(0.174465187741556005 0.0204520273468087703 0.15925933134533507)
(0.148868201022115371 0.00815325611634699042 0.146377001075887331)
(0.202474227144142066 0.0126402315644661041 0.164243148004024064)
(0.14576364968563793 0.00559924148173762942 0.100505901948630461)
(0.154999762355514048 0.0134226998628592924 0.116296747846896836)
(0.138495593412103102 0.00565954583492011502 0.108841203930236816)
(0.170996335444473874 0.00769035603105823039 0.119055605396606173)
(0.131959277729756352 0.0043474798062070703 0.0770204758921142485)
(0.139468388224082251 0.00991123972218181139 0.0877614849345483838)
(0.128021417034227425 0.00440656779800364246 0.0833959669409801152)
(0.150752986866876909 0.00535187882406704726 0.0894181566491913382)
(0.119730256416335182 0.00362842393234946194 0.0602393135556439779)
(0.12610474222357157 0.00807052016117972004 0.0680063683992022522)
(0.117729582517960035 0.00370546592190388246 0.0653043894761485832)
(0.134567222794430036 0.00423227470542971058 0.0692209119854974853)
(0.108744271420809072 0.00309864542401507188 0.0474795455960020027)
(0.114410412176286932 0.00682037811602549931 0.0533519928520647183)
(0.108045845213375458 0.00319280691526268971 0.0515807891844432959)
(0.120835370000780026 0.00352645425055901716 0.0542404820959049641)
(0.0988887743065434005 0.00267238166489985017 0.0375669943222283892)
(0.103976519156022851 0.00584198614191705056 0.0420937594851655203)
(0.0990368969039105568 0.00277199274822750689 0.0408797101816695957)
(0.108886962886389646 0.00299559840031614301 0.0427117273212419823)
(0.0900685752036444048 0.00232426440216823831 0.0298318991243380523)
(0.0946269504481817986 0.00505615710314308211 0.0333527074443453198)
(0.0907396148217703147 0.00242103813545057256 0.0324961378301312775)
(0.0983977666721107536 0.0025760062135645012 0.0337837087041841094)
(0.0821581588005447366 0.00203704949902801854 0.0237732529238943308)
(0.0862418830222401872 0.00441797737353324168 0.0265266023748833152)
(0.0831488442826721075 0.0021262963535209527 0.0259106372068364336)
(0.0891472614619491788 0.00223717236813206341 0.0268324429353313174)
(0.0750397375285583451 0.00179898558320149352 0.0190074973255939805)
(0.0787177058578843875 0.00389532578145629403 0.0211707917701776209)
(0.0762346116391330736 0.00187975989012651909 0.0207224265244617366)
(0.0809620023025644647 0.0019614498357499472 0.0213915059171712711)
(0.068610891463428289 0.00160047916484699882 0.0152413669819008585)
(0.071951326866831089 0.00346184952965020642 0.0169483801452882145)
(0.0699398565929260918 0.00167322306449907464 0.0166195819400262283)
(0.0736874408550642346 0.00173496341906486306 0.0171108826747623163)
(0.0627885214348358894 0.00143436494990520857 0.0122524890525507277)
(0.0658445662940887189 0.00309427855448070419 0.0136048006110041451)
(0.0642003849852473968 0.00149906589401387351 0.0133610988452437882)
(0.0671865443461452244 0.00154633958773805016 0.0137283761114625289)
(0.0575033691650092896 0.00129555678792247467 0.00987134585022744933)
(0.0603111064348035852 0.00278209093861992059 0.0109471597478723679)
(0.0589555624404567852 0.00135273708837523716 0.0107652344720099089)
(0.061345217771435652 0.00138878257884965601 0.0110432667548357021)
(0.0526870820530062969 0.00117788850839778132 0.00796738834943790455)
(0.0552735544177962931 0.00251681244490774454 0.0088267204778005974)
(0.054147285225073942 0.00122836755449178664 0.00869082021330333868)
(0.0560665357834969486 0.0012557304473243523 0.00890208124106381046)
(0.0482792662866034575 0.00107615040327672723 0.00644029484745199145)
(0.0506653522254488231 0.00228665495746133759 0.00712871358498862878)
(0.049723703806223124 0.00112013131311885193 0.00702570989963171265)
(0.0512691526608876832 0.00114091461935317924 0.00718957116742608999)
(0.0442327646034354552 0.000988378126296206609 0.00521280655824288546)
(0.0464353514123542616 0.0020867410247293436 0.00576569059825537272)
(0.0456444629172118518 0.00102633775292569228 0.00568585347389079319)
(0.0468907131270975969 0.0010418921791459652 0.00581620661981052927)
(0.0405021849627336533 0.000912874628232784847 0.00422404743157277392)
(0.042539665348981695 0.00191642921074506841 0.00466953464264863779)
(0.0418728814476754807 0.000946041858900594748 0.00460759408632080165)
(0.0428792081942321185 0.000957405321722263345 0.00471083160587993342)
(0.0370432641641580823 0.000846828780288764907 0.00342556110731274)
(0.0389348214091896835 0.00177000478115147851 0.00378553637580289915)
(0.0383705525596949523 0.000876052533497717568 0.00373755728656822517)
(0.0391846030752830282 0.000884435606622887595 0.0038189770917994091)
(0.0338230123752774545 0.000788808412706418194 0.00277945898046208853)
(0.0355840036997447998 0.00164141445426408284 0.00307064935718341907)
(0.035104925264987992 0.000814193091108253051 0.00303257922753025645)
(0.0357642716793638987 0.000820677721774250844 0.00309863586057625194)
(0.0308150084091618412 0.000738748478619846889 0.00225626555433794222)
(0.032458792527712263 0.00153031935478805704 0.00249189033029116212)
(0.0320511400294855933 0.00076063440483009235 0.00246127263404525816)
(0.0325852478573543242 0.000765770260010596423 0.002515488323807213)
(0.0279896301118925904 0.000695442039820646672 0.00183262921701107351)
(0.0295309068759146837 0.00143611250326144643 0.00202331093371519366)
(0.0291836433137765139 0.00071465552513727017 0.00199905549176826892)
(0.0296160674665801663 0.000718675190227912306 0.00204250490193290998)
(0.0253199529044579666 0.000657145553710493727 0.00148992418698564734)
(0.0267720017457157254 0.00135379531291298988 0.00164401593050844457)
(0.0264760532542688762 0.000674010405994587077 0.00162455072319453659)
(0.0268257386526199529 0.000677183824633744574 0.00165973471044954897)
(0.0227873187543710456 0.000623558356167603083 0.00121334040656271495)
(0.0241601065939570786 0.00128072331838484182 0.00133742356845808325)
(0.0239079302647058657 0.000638026426044751758 0.00132110365640499472)
(0.0241900080097457275 0.000640649746736396647 0.00135099439135738454)
(0.0203755563522843332 0.00059487183339611391 0.000990888960730029701)
(0.0216780296106840534 0.00121793824282618321 0.00109047094803456173)
(0.0214633900360617948 0.000607244383230834059 0.00107686503272952524)
(0.0216901224709652243 0.000609384774274468249 0.00110198369746348926)
(0.0180661979750290566 0.000570272368297008265 0.000812635160829705918)
(0.0193078658927610704 0.00116492381820827978 0.000892349647531210689)
(0.0191255406745656567 0.000581083468215267264 0.00088151127461316627)
(0.0193071034507466578 0.000582668469613918443 0.00090140063306936094)
(0.0158433434066211458 0.000548737796064446338 0.000670380915745746745)
(0.0170322233061987113 0.00111876714388094178 0.000733954284226248643)
(0.0168777865769018168 0.000558216812954343868 0.0007252538710968003)
(0.0170225928221204408 0.00055929967652305955 0.000741028087778895718)
(0.0136969938972295209 0.00053016143629111567 0.000557408713558322252)
(0.0148385038913108423 0.00107817443324162844 0.000607825230289212818)
(0.014708208919996987 0.000538283638111732693 0.000600474671658415447)
(0.0148231502533910427 0.000539057383331066012 0.000613756090319577904)
(0.0116184685545506518 0.00051473481085404383 0.00046818955276872802)
(0.0127174208250189404 0.00104396108410007471 0.000507912187600966674)
(0.0126081400775211946 0.000521581228302229788 0.000501743846172746696)
(0.0126988809780834849 0.00052219788292123012 0.000512910080542697505)
(0.00959683415133384676 0.00050211758956119712 0.000398221801046857245)
(0.0106588230200132424 0.00101608637283143893 0.0004292463934997175)
(0.010568025205282652 0.000507847342654825593 0.000424250578184963054)
(0.0106391788597505702 0.000508376595044884297 0.000433308842896295166)
(0.00762107427808858887 0.000491836136912298066 0.000343992100804026526)
(0.00865162415693371614 0.000993266344955089911 0.00036780790891676932)
(0.00857736654531172926 0.000496466476575182624 0.000363616711128565413)
(0.00863253555040382342 0.000496987911686433003 0.000371320661053627435)
(0.00568171365528845687 0.000483241499777810855 0.000303033114646636664)
(0.00668575659391047999 0.000974923429557860788 0.000320576805635746091)
(0.00662667136797421511 0.000487266684698692634 0.00031689631292262379)
(0.00666838539705849175 0.000487851625369310781 0.000323853961992343509)
(0.00377017782752093328 0.000475696841137033079 0.000274064730610033488)
(0.00475195785884594338 0.000960759819727939439 0.0002857063997011102)
(0.00470733812773232053 0.000479216657952686882 0.000282670686995242651)
(0.00473692350862089072 0.000479809681759927795 0.000288510277448415114)
(0.00187829471249454142 0.000470530686814091205 0.000256753030230974109)
(0.00283975508706946688 0.000949980521845149892 0.000262607976228239727)
(0.00281121701360575581 0.000472011387557617879 0.000260271027234814192)
(0.00282891851741229414 0.000472445125217214846 0.000264668314227259468)
(0.000942349892655715824 0.000941655719675118337 0.000251251008850665071)
(0.000932882061086638898 0.000468714694845486662 0.000249105710222126072)
(0.000938740821080234593 0.000468838107566600551 0.000252880078694265003)
(0.142888530052592888 -0.00045323477555507443 0.336029101045305145)
(0.129997776865103637 -0.000850241866878839823 0.338357368869105946)
(0.0577219379820561249 -0.00211432969017251535 0.177687630759630399)
(0.567388624853335299 0.0123949736781880562 0.347559157333895252)
(0.211279425198529103 0.0257508779049014924 0.323014676711923965)
(0.182367874403835645 0.00925893078707000494 0.316862332384527157)
(0.108911450895277512 0.0115162911656423051 0.264693961938190503)
(0.495538248255667058 0.0223525056488953523 0.326601032430439808)
(0.235809735539886683 0.0497597006564960073 0.297862048590752493)
(0.19410455065817811 0.0494701500599057722 0.295818889658823803)
(0.147309974545353772 0.0374086493371574916 0.286514962654159322)
(0.411148579642247602 0.0487621803063116935 0.329292237336695326)
(0.221233260531945281 0.0506877310457616304 0.248245793113708396)
(0.203105106157548732 0.066325704730764351 0.257282878163968165)
(0.171861989392979031 0.0445053559780153318 0.252231943880040221)
(0.340365806386912439 0.0654204527827847437 0.285359742805850247)
(0.194853309282037201 0.0388495810335914848 0.190295474807420789)
(0.190605385314913528 0.0575033340788982314 0.204425685942032975)
(0.169575957601799776 0.0368934621960801956 0.199918585286061795)
(0.268810760885367428 0.0573362083475399409 0.226269699645881173)
(0.169314104875565252 0.0266030673409858656 0.139795851320440701)
(0.17065981988072268 0.0419813032521341722 0.153728132132075618)
(0.155537677447149969 0.0265821191096950356 0.149997415433530762)
(0.212097517909476674 0.038936845076891706 0.167512542126019404)
(0.14913668248365014 0.0183580671238053814 0.10355233083281476)
(0.153551813739951221 0.0288587454236634081 0.114854020063574744)
(0.14194035492944615 0.0187145599535781422 0.111921201265196391)
(0.176439644708293764 0.0247586560391174978 0.12262525420083667)
(0.133381754389529372 0.0138463897485299418 0.0787473774416366373)
(0.138592859097229154 0.0210110224407272124 0.087447207397586546)
(0.129614120932189436 0.0141725993189277567 0.0852816719159758818)
(0.1530434028290103 0.0170815165648927833 0.0917340252391033589)
(0.120399252244385233 0.0112610362626232394 0.0611190476956228884)
(0.125465975678767716 0.0166083063486494216 0.0678493445897318109)
(0.118511761406576877 0.0115718495202708632 0.0662973584900143909)
(0.135551350325693432 0.0131692868932635192 0.070400468419328649)
(0.109183791192823273 0.00949632772974992254 0.0479662067412281595)
(0.113935941990165837 0.0137899464588621765 0.0532289397200314471)
(0.108515689760866674 0.00980582199711256368 0.0521251972100172795)
(0.121388801326169693 0.0108001520272429721 0.0548566335746881809)
(0.0992705852986052739 0.00815024736782543786 0.0378794726072825272)
(0.103647748180347304 0.0117361154022709493 0.0420165927187329535)
(0.0994015498245482548 0.00844880124932727121 0.0412292575987635718)
(0.109313338967377202 0.00911006580654895488 0.0430967172354595959)
(0.0904300923658412498 0.00707748614725371705 0.0300474106948905202)
(0.0944067281210900222 0.0101348657520610175 0.0333079068103711434)
(0.0910709268656743065 0.00735628955557532556 0.0327399046223823126)
(0.0987819553056120125 0.00780984573457070737 0.0340473921032523191)
(0.0825117574537476972 0.00620559997249576362 0.0239241412211666227)
(0.0861027798561461305 0.00884936708726938304 0.0264991274713629113)
(0.0834731168673394919 0.00646043568973708564 0.0260837395290932639)
(0.0895161345665328734 0.00677770222255441417 0.027019856890612471)
(0.0753927220344969423 0.00548746752385257785 0.0191116745898718202)
(0.0786425189814585757 0.0078001333560863452 0.021150230954697917)
(0.0765614953773143814 0.00571858128471563771 0.0208437697800815426)
(0.0813263049923705766 0.00594500697923009379 0.0215261185103769875)
(0.0689670411045449627 0.00488791415273405038 0.015311813774391508)
(0.0719285409281312793 0.00692854924760834354 0.0169297928540413402)
(0.0702748719332535743 0.0050966331592601612 0.0167017059358766685)
(0.0740523678006302227 0.00526144201824272229 0.017208379306700522)
(0.0631516275260776416 0.00438253212148755587 0.0122994713063257974)
(0.0658660330849705211 0.00619489485104402545 0.013586986812910179)
(0.0645465690273710202 0.00456958405147505579 0.0134160442548409212)
(0.0675551579656187701 0.00469096851674510353 0.0137981578926678998)
(0.0578720872857904564 0.00395374643712033576 0.00990253437544548823)
(0.0603690436941168793 0.00557257865092529274 0.010930324882707643)
(0.0593118214586604992 0.00412076486446032002 0.0108025427109488831)
(0.0617175113896413913 0.0042106701285749993 0.0110922451250545732)
(0.0530544098551031101 0.00358601374043952814 0.00798804571335132337)
(0.0553586824515150608 0.00503869562200329017 0.0088111086674941292)
(0.0545078456140072054 0.00373430180141376888 0.0087151137300991114)
(0.0564383643766703871 0.00380150538769040338 0.00893709776285127322)
(0.0486399395833423329 0.00326860936568364787 0.0064541093357920222)
(0.0507694480918115046 0.00457758747210512337 0.00711466117835446183)
(0.0500824095309553158 0.00339851705996835254 0.00704083958455272232)
(0.0516355975782617424 0.00344906723914434766 0.00721476379235502872)
(0.0445835600675397598 0.00299571972798421326 0.00522241868266111985)
(0.0465523649361800629 0.00418148712804994067 0.00575363828367402713)
(0.0459966924551427625 0.00310882843382489409 0.00569625889606986246)
(0.0472480471131029936 0.00314659146158342536 0.00583353269971067026)
(0.0408382493421364789 0.00276098208837500213 0.00423102358687876302)
(0.042663760520152666 0.00384182416342523534 0.0046595490405649349)
(0.0422136558701759965 0.00286006459988000531 0.00461531062733230944)
(0.0432234219261258754 0.00288817537107187178 0.00472290220351763001)
(0.0373606030524807828 0.00255725402543159749 0.00343062462567357822)
(0.0390605621727322799 0.00354820065064883174 0.00377725465270728651)
(0.0386952120085412576 0.00264416028921556209 0.00374279402837831773)
(0.0395118225177792937 0.0026655208322691774 0.00382799695562997247)
(0.0341210775377340653 0.00238029670833878829 0.00278308070701249006)
(0.0357081011610994037 0.00329376549380328313 0.00306370797422634861)
(0.03541129616076856 0.00245592872767552315 0.00303635825507946652)
(0.0360725892202661685 0.00247264875279733579 0.00310483951545370562)
(0.0310935432068742204 0.00222751818639035405 0.00225893570966841182)
(0.032579298096472642 0.00307432800375973111 0.00248612503052965785)
(0.0323383992253713365 0.0022933103697538636 0.00246463568665858867)
(0.0328738712007557859 0.00230656373293977287 0.00251913803935504286)
(0.0282468117629767826 0.00209467075543807481 0.00183469764721256646)
(0.0296454992567181212 0.00288423349157553152 0.00201858950210233139)
(0.0294503754340109079 0.00215258795493002576 0.00200165284921668268)
(0.0298837433703687712 0.00216315491345888365 0.00204514294804847979)
(0.0255554113147659565 0.00197803300591170008 0.00149151531198088048)
(0.0268790285352403582 0.00271713660154108754 0.00164016297516793893)
(0.0267213979302693208 0.00202871334799747038 0.00162603024128003598)
(0.0270718230546311972 0.00203723794604463836 0.00166227727541654957)
(0.0230025741318542164 0.001876669562458616 0.00121455410992992677)
(0.0242595075534108133 0.00257151610550210774 0.00133424423429479673)
(0.0241326662118002584 0.00192036349138604147 0.00132210837978187718)
(0.0244153041377220513 0.00192738017768201409 0.00135295366414512675)
(0.0205713495079516383 0.00178969189965299982 0.000991931634835743585)
(0.021769855191515898 0.00244642682827516051 0.00108790648884245634)
(0.0216684127144877309 0.00182741609487058719 0.00107791007399810632)
(0.0218954466573389218 0.00183310125958784575 0.00110323531106802024)
(0.0182420734075554938 0.00171473203926749123 0.000813668770927752222)
(0.0193914787655830069 0.00233857838240892442 0.00089040091823688384)
(0.0193108436788669395 0.00174756258186547315 0.000882350482538836749)
(0.0194925175001487115 0.00175194142575414041 0.000902714258438421045)
(0.0159996156204496101 0.00164988267087409811 0.000671398598769714717)
(0.0171072274848547874 0.00224513138596532918 0.000732534528487519552)
(0.0170434753040157316 0.00167819390756521409 0.000725809601949686388)
(0.0171883779348400469 0.00168145594656764511 0.000742651662505521459)
(0.0138349364945381751 0.00159471810318681582 0.000558328704331857782)
(0.0149052019698308578 0.00216544360856672693 0.000606765036476677685)
(0.014855147190745625 0.00161866561472472797 0.000601186116263275022)
(0.0149702503888575721 0.00162115723955366491 0.000615076013774771787)
(0.0117388053125582099 0.00154881459998458906 0.000468969028331954745)
(0.0127760416069961982 0.00209889558470141482 0.000507069437403065556)
(0.0127371386083027938 0.00156885997651124462 0.000502811451068657721)
(0.0128280742277955637 0.00157086803405836529 0.000513585561111954965)
(0.00969956028425996049 0.00151095415532512527 0.000398832501369629088)
(0.0107091273095866382 0.00204362974776263386 0.000428533968599808526)
(0.0106793245660461462 0.00152757399930501889 0.000425391251399348557)
(0.010750690525286332 0.00152927551638867626 0.000433600252391282864)
(0.00770647775266500214 0.00148007407149091373 0.000344392613748490295)
(0.00869340521854053243 0.00199797070241908769 0.00036715187229239925)
(0.00867116933248848927 0.00149345077378889419 0.000364597933414522412)
(0.00872657793510012852 0.00149499767900634992 0.000371379879941455282)
(0.00575048064482227596 0.00145577501520463472 0.000303250090690219899)
(0.0067191295932912164 0.00196122634722665536 0.00031994540464521748)
(0.00670351159569885016 0.00146600616786543656 0.000317723248197093635)
(0.00674542883756864501 0.00146746690038928934 0.000323600117973180709)
(0.00382048141925627307 0.00143757545670252819 0.000274249645319316168)
(0.00477690180762801054 0.00193287457138136757 0.000285176279851554143)
(0.00476750946703590611 0.00144501117562262187 0.000283295773429772515)
(0.00479714505604807249 0.00144624043306952436 0.000288176742612176573)
(0.00190457133349126334 0.0014233708358002764 0.000257105954847930526)
(0.00285572728052158401 0.00191201533886970962 0.000262311357760095518)
(0.00285100400733312572 0.00142962395659178244 0.00026059040466967987)
(0.00286855340489462936 0.00143036507475781329 0.000264778817905521975)
(0.00094818931159075504 0.00189562150904086946 0.000251226816468830434)
(0.000946085454555363882 0.00141660349898134843 0.000249296087360485091)
(0.000951818918168930101 0.00141677931569732501 0.000253645499762779922)
(0.128627739342148023 0.00861058308324850682 0.319190600208328179)
(0.134057698761055555 0.0132101380122693936 0.324192973484434266)
(0.0624413730927659699 0.00838669460683857601 0.195140288732905093)
(0.456230415995555194 0.0226599673098882674 0.351887404408698257)
(0.16555789893448053 0.034438552363653771 0.289666545331426994)
(0.150853332180531402 0.0195443212167839761 0.294915522463546964)
(0.0925809335895194374 0.0194001517589346278 0.25580026683493029)
(0.367735540154088769 0.032045253930975931 0.313297325792915859)
(0.178328308582444833 0.0640509410913215893 0.255239719232039586)
(0.147374396062810914 0.058348700443566659 0.263249240356501824)
(0.114324955774551512 0.0478839470198587983 0.250167733479322585)
(0.28143291298174089 0.0628845979246710624 0.280695411691352148)
(0.177548778577763772 0.0697972343858530853 0.213462770992292938)
(0.161857952214094547 0.0770532452032664933 0.223399948364886192)
(0.140664319654703385 0.0607579501152845439 0.218998441178538228)
(0.243427639944777147 0.087081997431113875 0.239672554241790958)
(0.169583413496952495 0.0574635082844338618 0.167858343266687804)
(0.163022180572161612 0.0701171305381093762 0.179533206771460896)
(0.1475155616383719 0.0542470353036913974 0.176553242994078319)
(0.212939221361032077 0.0802787843656726924 0.193815196053063132)
(0.157520698813709586 0.0420602199993308223 0.128786300875210202)
(0.156452463331374247 0.0543974715132508613 0.140446992007033838)
(0.144024226220922841 0.0417923517164746419 0.137786566833229207)
(0.186698755304986419 0.0588029188261619262 0.150558808595936844)
(0.143799221423139417 0.0303588660408741148 0.0987488966283464054)
(0.146578859301257552 0.0400126165551256269 0.108802936819347412)
(0.136325725068547232 0.030875557059825906 0.106449801879551414)
(0.16604064093001511 0.0399733318992329945 0.115035696164438608)
(0.130624604063942884 0.0232137678475389381 0.0765491745456818029)
(0.134881171858466264 0.0304284980397604432 0.0846433378556144256)
(0.126630763875399843 0.0237889674339576765 0.0827747828948825065)
(0.14830112168448592 0.0284388069362558303 0.0884402893745449142)
(0.118688310594451785 0.0188498580520283579 0.0599592366141402655)
(0.123204293175047011 0.0244731928256163023 0.0663691220118160091)
(0.116692941255819221 0.0193991317241232371 0.0649815933495832693)
(0.132964234000701564 0.0219939627869968034 0.0687854961033151635)
(0.107979005298448005 0.0158603001137194756 0.0472793256975362064)
(0.112370202604429217 0.0204466960770900361 0.0523506431842772832)
(0.107253982527499098 0.0163839463029424176 0.051344922342549941)
(0.119730501605063863 0.0179938555752786021 0.0539522349783418537)
(0.0983675258943196573 0.0136054592919159986 0.0374450269218215906)
(0.102481681885938439 0.0174520669409775377 0.0414601169717528778)
(0.098456727691983062 0.0140976303665296971 0.0407336408689422808)
(0.108146113790291501 0.0151647229823888667 0.0425495475716036325)
(0.0897312662653071691 0.0118200580804569896 0.029759623586843479)
(0.093503449189660498 0.0150992367103047597 0.0329400278870868382)
(0.0903316183366523057 0.012273719452461123 0.03241161753232151)
(0.0979140334716857019 0.0130036858435702528 0.0336980020890177978)
(0.0819612283964811367 0.0103737228807757945 0.0237252172048942091)
(0.0853882532120665699 0.013201958166736508 0.0262466102744726495)
(0.0828839916024903256 0.0107865885512864676 0.0258583162446410497)
(0.0888498327633810703 0.0112947883026697435 0.0267865468790064003)
(0.0749539716171282178 0.00918259213794348633 0.0189683492188674474)
(0.0780708798011027494 0.0116470448718134396 0.0209701312170889123)
(0.0760887471607268606 0.00955658449135553083 0.0206822892740452305)
(0.0808053973609614284 0.00991597155580837934 0.0213644573276504275)
(0.0686169906361035059 0.00818650420902177628 0.015204965892560025)
(0.071468882038934145 0.010353057814103837 0.016796936038504056)
(0.0698952246785332909 0.00852393185656410285 0.0165813731483794996)
(0.0736410771098403166 0.00878161305038198566 0.0170925100589456556)
(0.0628741204957632277 0.00734367716428642719 0.0122178403892920489)
(0.0654966293594587134 0.00926301284062610968 0.0134865399808272862)
(0.064243187067528712 0.00764693736210413609 0.0133242145699870515)
(0.067229798669127247 0.00783347313325278953 0.0137123946703349344)
(0.0576519966241741608 0.00662340104469374014 0.00983889917475625451)
(0.060072367650139874 0.0083358836928139543 0.0108527850815024317)
(0.0590702291121775261 0.0068952106510210779 0.0107308771367389394)
(0.0614601520759104555 0.007031785386982836 0.0110271329026162979)
(0.052879825089596301 0.00600313731065207391 0.00793772413249725986)
(0.0551202179909319467 0.00753971069640933626 0.00875018338372364479)
(0.0543157543738346099 0.00624477768802477688 0.00865789602331925624)
(0.056234537630528901 0.0063462038722298655 0.00888648931005789171)
(0.0485030695593298283 0.00546880955650966109 0.00641419012623647977)
(0.0505786229673491766 0.00685354224924529 0.00706649463225366911)
(0.0499309929288801191 0.00568127163422663464 0.00699521718508203973)
(0.0514749361540001657 0.00575706163825004651 0.00717443812552482144)
(0.0444768187032047804 0.00500976780976663833 0.00519076864157782831)
(0.0464006668549853535 0.00626382811200829059 0.00571559927002977201)
(0.0458785181302526074 0.00519591093119567155 0.00566033676052566086)
(0.0471224857219454257 0.00525258467588491079 0.00580105943106367684)
(0.0407540405944825032 0.00461457512956971183 0.00420578010639345752)
(0.0425429442778374814 0.00575675482569556335 0.00462934579223959856)
(0.0421211623606174007 0.00477780779014389586 0.00458678245983507298)
(0.0431252143653933495 0.00482071190846549476 0.00469684307310166711)
(0.0372939333536714754 0.00427299001381826853 0.00341033800126006341)
(0.0389636933495956239 0.00531895665771813398 0.00375303947403678477)
(0.03862226379684916 0.00441588425570770774 0.00371991467261358197)
(0.0394344669114475507 0.0044490745599591883 0.00380686173981989668)
(0.0340686402107623354 0.00397753648604100632 0.002766752297743519)
(0.0356302513682829752 0.00494005872033571013 0.00304423376005911149)
(0.0353537617315422548 0.00410237741563205562 0.00301823711325010461)
(0.0360115319298212541 0.00412839906043992351 0.00308734920968777807)
(0.0310515338804737244 0.00372170233489895483 0.00224577882296357698)
(0.0325164598036835339 0.00461178322772384623 0.00247046336583084608)
(0.0322926861485641897 0.00383093919341974268 0.00245023321526086427)
(0.0328253306434181935 0.00385150744743688062 0.00250481650842672128)
(0.0282118202489784649 0.0034986374662879776 0.00182405483005769844)
(0.0295938179381092063 0.00432674523198617756 0.00200591194831264974)
(0.0294130128172149369 0.00359487251526946537 0.00198981456666694635)
(0.0298441324545146019 0.00361142383980566067 0.00203373613452210826)
(0.0255265360793811118 0.00330381811672065314 0.00148289189748185648)
(0.026836128068398149 0.00407709139839223297 0.00162990721815957601)
(0.026690405129944951 0.00338794775869520528 0.00161635717109617229)
(0.0270390124223535144 0.00340133594300659828 0.00165308418904444999)
(0.0229792420016238022 0.00313520416792330368 0.00120759661320732651)
(0.0242243977080789062 0.00386025299073240475 0.00132594197079517946)
(0.0241073020521569981 0.003208154798932951 0.00131448077818921319)
(0.0243884220219447272 0.00321903498556646 0.00134527611141977387)
(0.0205519185349823733 0.00298979276722335626 0.000986375772243596599)
(0.0217411505991002181 0.00367316614358646027 0.00108121424360736761)
(0.0216475175489184921 0.00305317424837385455 0.00107189233860881077)
(0.0218732564402282781 0.00306196356537694796 0.00109696200079646396)
(0.0182252266681963461 0.00286413852835298074 0.000809266675796649218)
(0.0193676343229721749 0.00351124981061189069 0.000885043588161607813)
(0.0192930417166555027 0.00291906166140159509 0.000877429311796424608)
(0.0194736379717605212 0.00292607548749593011 0.000897880501673517387)
(0.0159851609794176008 0.0027563132194295438 0.000667900966194480243)
(0.0170874784694254808 0.00337152588925532367 0.000728263959220508406)
(0.0170281431675310575 0.00280319513393383242 0.00072182398308816894)
(0.0171721953976859409 0.00280873842882959929 0.000738923308373812325)