/*--------------------------------*- C++ -*----------------------------------*\
| =========                 |                                                 |
| \\      /  F ield         | OpenFOAM: The Open Source CFD Toolbox           |
|  \\    /   O peration     | Version:  2206                                  |
|   \\  /    A nd           | Website:  www.openfoam.com                      |
|    \\/     M anipulation  |                                                 |
\*---------------------------------------------------------------------------*/
FoamFile
{
    version     2.0;
    format      ascii;
    arch        "LSB;label=32;scalar=64";
    class       volVectorField;
    location    "0.990000000000000657";
    object      faceForces;
}
// * * * * * * * * * * * * * * * * * * * * * * * * * * * * * * * * * * * * * //

dimensions      [1 1 -2 0 0 0 0];

internalField   uniform (0 0 0);

boundaryField
{
    inlet
    {
        type            calculated;
        value           uniform (0 0 0);
    }
    outlet
    {
        type            calculated;
        value           nonuniform List<vector> 0();
    }
    top
    {
        type            calculated;
        value           uniform (0 0 0);
    }
    bottom
    {
        type            calculated;
        value           uniform (0 0 0);
    }
    left
    {
        type            calculated;
        value           uniform (0 0 0);
    }
    symmetry
    {
        type            symmetryPlane;
    }
    interface
    {
        type            calculated;
        value           nonuniform List<vector> 
181
(
(0.313471043001699423 -3.67782451196867222e-06 -9.31036360857360305e-06)
(0.275103429482383088 4.59241883282257665e-07 -9.55549347347111525e-06)
(0.236097776617006094 7.44256168686199646e-07 -9.39575477203849823e-06)
(0.196840251354167467 8.77033491810077929e-07 -9.32269604714046207e-06)
(0.157691960496099681 8.66464753483690357e-07 -9.39735799881641134e-06)
(0.119379682497626913 6.95826530751725823e-07 -9.69042008049831414e-06)
(0.081530030985096924 -3.27348904701453048e-07 -9.4509218511934803e-06)
(0.0433217026721976067 -3.18966642212307017e-06 -8.59005426696216256e-06)
(0.0151402140970400504 -2.46445270188404672e-06 -3.22411796075932873e-06)
(0.00638243538450733623 -1.82892226597811072e-07 -1.37999101205582347e-07)
(0.00489969261588884576 -7.75944121924489682e-08 -5.35201675005652068e-08)
(0.00387706250763272028 2.85143658432006595e-08 -5.45811461810885811e-08)
(0.00269695316590105264 -2.01746488866479562e-07 -1.62392765608919954e-07)
(0.000667295850600170526 -6.23363517743716041e-07 -2.75025250116961561e-07)
(-0.00186697821768555192 -7.31831690724080714e-07 -2.96996096916508865e-07)
(-0.0029667662517982368 -7.35092533129728367e-07 -3.40351098034842766e-07)
(0.325355485441923553 1.39221261468476658e-07 -6.28062181208513484e-06)
(0.286467250740307489 5.12746929491149791e-07 -6.80521511216246881e-06)
(0.246714238373343331 7.99070416834432427e-07 -6.58365720693707779e-06)
(0.206376424304570955 9.66491096698543915e-07 -6.44908825730727717e-06)
(0.16603546600079816 1.09451594521428874e-06 -6.44926929692150475e-06)
(0.12682151944857481 1.44529201756772458e-06 -6.64940310222714782e-06)
(0.0884767532524633332 7.96249040452008873e-07 -6.60811629234057131e-06)
(0.0492209302060373569 -1.69285670640017648e-06 -6.3251404932003911e-06)
(0.0181434612788482982 -2.37756588383021333e-06 -3.27373370731505356e-06)
(0.00687782134338758844 -2.98456263224628357e-07 -3.05254197633751575e-07)
(0.00505960703973210978 -1.12525119893524539e-07 -1.24100178743981533e-07)
(0.00400233793352660489 -6.98005040203284515e-08 -8.44326587976708872e-08)
(0.00264219308409098345 -2.88868655485408705e-07 -1.7704923376937568e-07)
(0.000362279103465683794 -5.2903983182073088e-07 -2.217002992604291e-07)
(-0.00248486409452199682 -6.91047635272534579e-07 -2.42417226448498194e-07)
(-0.00359291539451157826 -7.23490060620565965e-07 -2.33535878381304602e-07)
(0.329573245386269031 -1.93897958569147529e-06 -5.13730315365895503e-06)
(0.290522316023196336 7.51689963747878583e-07 -5.596374801832906e-06)
(0.250467378988554756 1.21989913030550867e-06 -5.52547274161799691e-06)
(0.209615790103816924 1.48487954549667257e-06 -5.46826590317682098e-06)
(0.16899142997993849 1.6781208191263662e-06 -5.45488713971174241e-06)
(0.129967838159545851 1.82944276136892288e-06 -5.63737395851839707e-06)
(0.0918448638672133416 1.03942465080518868e-06 -5.58339887705148588e-06)
(0.0527740908143741819 -1.3318946060549388e-06 -5.24938884698937394e-06)
(0.020824407743693707 -2.39024483297677891e-06 -2.85321442802338815e-06)
(0.00762552577808783393 -4.66403302445198513e-07 -3.84967062006744151e-07)
(0.00532707070302891952 -1.54062374173168978e-07 -1.07862623266540529e-07)
(0.00409602341782305986 -1.8192559036854547e-07 -9.75079878353932003e-08)
(0.00246173411556329085 -4.24897552323096178e-07 -1.48863629019003349e-07)
(-4.68612147112985631e-05 -5.92987338078612807e-07 -1.70463092611825714e-07)
(-0.00288650566903166225 -7.08337759504042651e-07 -1.87118815450281484e-07)
(-0.00383113808283867905 -7.49148325551190511e-07 -1.90733783867345723e-07)
(0.3298999251462153 1.67467571503256744e-07 -3.22022664905224383e-06)
(0.290847847894248279 7.50581548542927518e-07 -3.76449222987399802e-06)
(0.250780204116508199 1.12247196807556022e-06 -3.70830719552235683e-06)
(0.209916863610304733 1.35423299155831311e-06 -3.67275939234876061e-06)
(0.169484477319469973 1.70751388416482152e-06 -3.68880125819440577e-06)
(0.130781166682730932 1.92636441835641726e-06 -3.69181565984098271e-06)
(0.0932587990208315482 1.10916560023826491e-06 -3.49599778048867497e-06)
(0.0547617217655794047 -1.20865257772107469e-06 -3.35438055234386678e-06)
(0.0225533645185750191 -2.37837317190850821e-06 -2.12817204188403889e-06)
(0.00830632305056003446 -5.39987471725721409e-07 -3.61903545173448816e-07)
(0.00554798416532504331 -1.90196664791376865e-07 -1.11120919863038432e-07)
(0.00415677832725558014 -2.19447235902466038e-07 -9.71182969871974297e-08)
(0.00238119980658640365 -4.73723170665241566e-07 -1.50682100233350686e-07)
(-0.000189362893915505414 -6.14632320177476316e-07 -1.57418869765156959e-07)
(-0.00295786832039765567 -7.47749763107416215e-07 -1.65049147333699682e-07)
(-0.00387097957412909288 -7.78783782347961344e-07 -1.56850279185299242e-07)
(0.329367219918852427 -9.85175515030192854e-08 -2.70610074512422529e-06)
(0.290339447092235914 7.93532390659771618e-07 -2.98546260784207869e-06)
(0.250330681299042457 1.22291860010773719e-06 -3.01996313792702282e-06)
(0.209683967633307267 1.47193247262179746e-06 -3.08085460865363129e-06)
(0.169583267615199956 1.92119283938491579e-06 -3.18240268967269083e-06)
(0.13113866843043076 1.96924976077764889e-06 -3.23685292732789101e-06)
(0.0936875463539949688 1.1075569077662142e-06 -3.22080190450286722e-06)
(0.0554568326846135162 -1.19784059416575108e-06 -2.98197333899277772e-06)
(0.0231502477543908541 -2.44750883981927383e-06 -1.70706724572096566e-06)
(0.00844062664871946498 -5.93855927702911609e-07 -2.7490821182335794e-07)
(0.00549299419561379704 -1.93461353903436207e-07 -6.78104683449458695e-08)
(0.00408229458505344079 -2.16493233416914226e-07 -5.95616777035014348e-08)
(0.00230099064600395231 -4.7556657037686636e-07 -1.04130316844677575e-07)
(-0.000253011546693499207 -6.24723710539699387e-07 -1.17455171886866975e-07)
(-0.00293622438302208527 -7.61025488986557085e-07 -1.28206295369268872e-07)
(-0.00377793826851501643 -7.92241782745667943e-07 -1.28242527794523466e-07)
(0.328503850123887386 2.28774617604744727e-07 -1.44521023064471637e-06)
(0.289440034047537376 8.78197310781797539e-07 -1.86315803024183936e-06)
(0.249425785802863398 1.32847839588454713e-06 -1.81554031960541559e-06)
(0.209039136815181381 1.61290170702899711e-06 -1.80705617452296945e-06)
(0.169468045850594301 2.03032363003872319e-06 -1.87540982410728321e-06)
(0.131305844957418288 1.96862360821756525e-06 -1.87739056417336635e-06)
(0.0938924321217749769 9.58073668186463894e-07 -1.61440842762055489e-06)
(0.0556655543571580869 -1.38441910623495878e-06 -1.33012035924932228e-06)
(0.0232691106458368935 -2.55051975636622323e-06 -8.26218563376513581e-07)
(0.00832098043889569101 -6.24229004525923457e-07 -1.6775139897526134e-07)
(0.00531185089233504604 -1.91053543267159771e-07 -5.62667579565657378e-08)
(0.00395199423245086879 -1.87776493401145184e-07 -5.15387376705671932e-08)
(0.00223223516450896282 -4.57020514073444914e-07 -9.46816495154579273e-08)
(-0.000293569333805807357 -6.13632078821223261e-07 -1.01045576770980454e-07)
(-0.00289437772506772467 -7.49287805561773625e-07 -1.04071395886160413e-07)
(-0.00363750334537257195 -7.73459868348164201e-07 -9.71772594635212148e-08)
(0.328104426371482905 9.95410336050466242e-08 -9.1406378265447057e-07)
(0.288933699575557812 9.07235112890579195e-07 -1.18132118623576506e-06)
(0.248854228562730567 1.38207374089846426e-06 -1.14609890939111247e-06)
(0.208687466204932226 1.72271738779280622e-06 -1.14355565297878215e-06)
(0.169515138162575435 2.13042279265649845e-06 -1.19781943557852295e-06)
(0.131579755800389081 2.01882752262027264e-06 -1.2094661458858956e-06)
(0.094323503515989976 9.48299734569413004e-07 -1.13993728173106091e-06)
(0.0563097854445303928 -1.33744003172504045e-06 -1.08842159500111439e-06)
(0.0237344883091957226 -2.57748923311307816e-06 -6.63658834359516524e-07)
(0.00831105425804570287 -6.58809985134280934e-07 -1.08049858785404689e-07)
(0.0051897085737705349 -1.98415906793610551e-07 -2.7321983759650384e-08)
(0.00387230530351100792 -1.67667550003798571e-07 -2.08996798799564086e-08)
(0.00215287795964921088 -4.55711516778155235e-07 -4.28039540764252707e-08)
(-0.000375342515298329044 -6.11057421479134227e-07 -4.75308685274264934e-08)
(-0.0028808820205548087 -7.49671488702670488e-07 -5.16837777669970157e-08)
(-0.00351550417730148255 -7.66699955119501048e-07 -5.23661496784404343e-08)
(0.32784410931940533 3.09360141557836411e-07 -2.92441194647273124e-07)
(0.288644539783610321 9.25386370966387266e-07 -3.78166947159408259e-07)
(0.248566407842809534 1.38000260870607042e-06 -3.69337932767102167e-07)
(0.208445152709227005 1.71820188722352382e-06 -3.6384732185459064e-07)
(0.169333568109557048 2.12409952990239418e-06 -3.72430815346036569e-07)
(0.131411498423743917 2.02210322960895046e-06 -3.70179357720525659e-07)
(0.0941320291034745127 9.99131223587783866e-07 -3.23752965915571868e-07)
(0.0561727659660450004 -1.21135016684378502e-06 -2.68374391867444066e-07)
(0.0237709906512019974 -2.44666896370750076e-06 -1.73445786768012338e-07)
(0.00842849500025150307 -6.42128706162909858e-07 -3.67751286170713747e-08)
(0.00527721303948662686 -2.13320164298379737e-07 -1.15018697860005844e-08)
(0.00392724318909505512 -1.83369160110368132e-07 -7.88994306174962321e-09)
(0.00215122454640347344 -4.80429552869709009e-07 -1.41105132871194795e-08)
(-0.000403759761071910471 -6.20583748120601139e-07 -1.40296253484137317e-08)
(-0.00291622383242211942 -7.53370063870646842e-07 -1.36235235754289511e-08)
(-0.0035977697211039229 -7.74235668611822312e-07 -1.3185159316757334e-08)
(1.53061512118667674e-05 7.04609145590910288e-06 0.186581552476641044)
(1.51400949645247514e-05 -7.39055692934417569e-07 0.149880231571908801)
(1.45049085041513717e-05 -2.09892757239054529e-06 0.1162835399525977)
(1.32080661296711661e-05 -3.74270097737814412e-06 0.0848320656706576248)
(1.06645683547074425e-05 -6.54495863616000484e-06 0.0544196308927143574)
(5.3149417678812583e-06 -6.51397790527130764e-06 0.0297602635671694454)
(1.11263699515244454e-06 -2.75747786403656686e-06 0.0180481042161835976)
(4.2521025934349565e-07 -1.88629225845482252e-06 0.0123977142743207074)
(2.33618784266418814e-07 -6.99661330222639182e-07 0.00871239695476774996)
(2.19284327165132264e-07 -1.88948959828752352e-07 0.00676493885005145616)
(2.37944865394245282e-07 -7.79667055029650551e-08 0.00518905416071905982)
(2.85232915156658909e-07 -4.0932437353491242e-07 0.00321044516569132365)
(1.67649100620625262e-07 -7.64061302761545974e-07 0.000922090206025807718)
(-3.90330498712408321e-10 -9.61494349111478392e-07 -0.00110112845993515836)
(-1.55984974244203531e-07 -1.09425960846146743e-06 -0.00266691118840776563)
(1.38194164573850867e-05 3.83894257509500805e-06 0.192096488087893341)
(1.37845031802287413e-05 -1.55663516425973686e-06 0.155782452145246553)
(1.31975762452376035e-05 -3.71761377836060945e-06 0.119318862550842605)
(1.14308739957278468e-05 -7.08006406161477752e-06 0.0798718709674524213)
(4.28593438594717979e-06 -6.27226313330084583e-06 0.0457033732888879746)
(8.74565031654196821e-08 -2.74212627187721154e-06 0.0276342890591789805)
(-3.14120788993043173e-07 -7.47069954415049715e-07 0.0202875807450437519)
(-3.5554010493290475e-07 -6.35893689583433329e-07 0.0159358956363692857)
(2.15527272700696388e-07 -1.10589872738906744e-06 0.0115336986090011986)
(5.6382837828578482e-07 -1.53388868628569985e-06 0.00729474688648833365)
(3.447718497953071e-07 -1.9367963066249737e-06 0.00420528619512017254)
(1.09966842438384367e-07 -1.91004224632687305e-06 0.00213414355569903997)
(-3.47793779461646221e-08 -1.11732173749805818e-06 0.000387734811027876352)
(-2.0833419599482678e-08 -1.71649742466850357e-07 -0.00139404883424589432)
(1.40624805152466706e-05 1.11783404050110759e-06 0.195358059519352562)
(1.4013927285785083e-05 -2.13001537604887615e-06 0.156425605060300316)
(1.33241545918951118e-05 -5.45485757449916129e-06 0.114519548221056963)
(1.10874373277598202e-05 -8.13109531724186413e-06 0.0701296293242246738)
(4.73780909958824136e-06 -3.72931618526099306e-06 0.0372768759085594231)
(5.04376807315099464e-07 -2.76174877756026589e-07 0.0255642276698598084)
(8.44798105023877067e-07 -5.8089094564282353e-08 0.0207860787105417881)
(8.77260156160637938e-07 -9.49987787395066931e-07 0.0154703064265395412)
(5.57047450298294395e-07 -2.05205030539477437e-06 0.00973158113076244904)
(4.43603883712826326e-07 -2.52716188487177683e-06 0.00505277744382071244)
(3.11968153939845766e-07 -2.43919869943970785e-06 0.00254091854070757732)
(4.66547290111528625e-08 -7.1387615028175391e-07 0.00108144479293390667)
(1.78254871076314179e-05 -5.63923700142469047e-07 0.168436808699934965)
(1.76547250976398771e-05 -3.65931884111131527e-06 0.129128591439279711)
(1.68524882338153022e-05 -7.10461251138331532e-06 0.0886703180658769824)
(1.27826027064018668e-05 -5.9278843449239719e-06 0.0513972165727933292)
(1.80674120390123296e-06 -4.35332701289222707e-07 0.0302365362992351762)
(5.00608086658504827e-07 -2.01824675037637255e-07 0.0220664221330633299)
(6.02526789705782297e-07 -1.46328908694073495e-06 0.0162079800389064617)
(4.96289676037851833e-07 -2.63725822136684499e-06 0.00961511187731198431)
(2.59106513993968122e-07 -2.93590735960360779e-06 0.0043909842165462086)
(3.04646402432046456e-08 -1.88951248663930071e-06 0.00195043745311362145)
(-3.52349632494952435e-09 -3.49462012369597533e-07 0.000724369077993104586)
(-3.46467269575603752e-08 -1.89083228439306524e-07 0.000828196778819622736)
)
;
    }
    procBoundary0to1
    {
        type            processor;
        value           uniform (0 0 0);
    }
    procBoundary0to3
    {
        type            processor;
        value           uniform (0 0 0);
    }
}


// ************************************************************************* //
