/*--------------------------------*- C++ -*----------------------------------*\
| =========                 |                                                 |
| \\      /  F ield         | OpenFOAM: The Open Source CFD Toolbox           |
|  \\    /   O peration     | Version:  2206                                  |
|   \\  /    A nd           | Website:  www.openfoam.com                      |
|    \\/     M anipulation  |                                                 |
\*---------------------------------------------------------------------------*/
FoamFile
{
    version     2.0;
    format      ascii;
    arch        "LSB;label=32;scalar=64";
    class       surfaceScalarField;
    location    "0.540000000000000258";
    object      alphaPhi0.water;
}
// * * * * * * * * * * * * * * * * * * * * * * * * * * * * * * * * * * * * * //

dimensions      [0 3 -1 0 0 0 0];

oriented        oriented;

internalField   nonuniform List<scalar> 
20856
(
3.77522073956394606e-10
-1.39385273809588266e-10
6.14590022696211678e-10
6.95784267100058935e-11
-5.11431795177766549e-11
-6.22136627506958455e-10
4.28901587474891891e-10
-2.92243558399084895e-11
1.1028031217350521e-11
-4.09602989016340746e-10
2.64345411199700881e-10
-7.40806469579068818e-11
6.65744118568820344e-11
-3.17279381446961913e-10
1.60393223638547458e-10
-1.32669868073890151e-10
1.72974844458683569e-10
-3.75740624497723297e-10
2.23754835418703739e-10
-4.37676970652269269e-10
4.81284754087302253e-10
-8.30623640581308262e-10
4.67021353179145354e-10
-1.35604499102669999e-09
7.12797207728587825e-10
-2.69262882146276485e-09
1.38727360343580988e-09
-5.29450429408361506e-09
-1.84582412233266369e-09
-1.65893687819209939e-08
5.56336905250908044e-09
-3.7385349904624101e-09
-6.6514569773059719e-09
-3.53242185780186739e-08
1.07361199552121001e-08
6.29283673130421119e-10
-2.52957287312223887e-10
-3.1138360856223658e-08
1.39306269536987846e-08
-5.07138283929961103e-10
1.75624070067839194e-08
-1.90268006384486336e-08
5.59656591135937292e-09
-8.90981351931871402e-10
7.72768168213111956e-09
-3.01262767338522376e-09
1.33476608444861171e-09
-4.21476395624965191e-10
2.16268793123626496e-08
7.28887941026096537e-10
-4.52629127247351184e-10
4.77541197553231749e-08
3.74996862626206808e-07
1.00433180798545791e-07
-9.40179728466140162e-08
-1.46145559896980442e-06
3.63356130185292256e-05
1.07984469656365984e-05
-1.06581459185192384e-05
0.000501116777425876406
9.5595256352704508e-05
-9.24956782407399528e-05
7.21696572900522998e-13
-1.43186375653711797e-12
-3.635058814309729e-10
2.35437129812158141e-10
-3.36288408829579315e-11
1.5363332682034762e-11
-2.18583698829141042e-10
1.26445725608273307e-10
-4.63473053126853047e-11
3.87980210625559079e-11
-1.61393716126330691e-10
8.35910691085996983e-11
-6.34859567893781713e-11
8.30194851549959218e-11
-2.02894273170571507e-10
1.11969433899601249e-10
-2.30837777541881396e-10
2.83549904398713323e-10
-4.19103613716014483e-10
2.41193927412574756e-10
-4.06606407533209417e-10
1.07726285224487485e-09
-1.71554532707171158e-09
7.65885712478927168e-10
-4.20505292658501968e-09
1.69964683737126427e-09
-7.03403308381591778e-09
3.77906107408509472e-09
-1.51896108505672026e-08
-7.37326733319311694e-09
-4.0977986170226147e-08
8.89817423527717255e-09
-1.77353496835498628e-08
-1.57722447063763953e-08
-7.10372602892340306e-08
2.04268144059439762e-08
-8.87475312432491427e-09
6.06896939605845605e-09
-6.2992090392141521e-08
2.3486467982814214e-08
-3.44424338063694587e-09
3.85587996580723509e-08
-3.97979711409709894e-08
8.57252612705581015e-09
-2.69583633732856717e-09
1.31930452059423255e-08
-5.16813308291069895e-09
1.34013995446728306e-09
-4.29960251343581145e-09
3.05720683280060105e-08
2.45163679932599611e-09
-3.60229422520807571e-09
5.30559764133609268e-08
4.78670013559603995e-07
1.37422312778015556e-07
-3.09264600412567211e-07
-2.243817304280022e-06
3.33588449685588684e-05
1.08631490709800922e-05
-1.05865929843646735e-05
0.000472591184912398885
9.47382456296510047e-05
-9.05979171799348924e-05
-1.76137990059177924e-11
1.73556671889422674e-11
-1.27095641936355752e-10
7.07644214166482469e-11
-2.1740056428306968e-11
1.77117598237230237e-11
-8.8086580745527113e-11
4.42965045503206988e-11
-2.20875862502156024e-11
3.31115048047855294e-11
-9.01741555845547724e-11
4.79377066166794756e-11
-7.68345057443758434e-11
1.06870043647297452e-10
-1.6398236366649208e-10
9.65015279379757548e-11
-1.59873205432358021e-10
4.47306700319640799e-10
-6.12396250474602237e-10
3.04489968746299236e-10
5.25380784846604713e-11
1.85349599489966041e-09
-2.97663561385871014e-09
1.11387138930173548e-09
-6.42458835751880369e-09
3.76268616835658244e-09
-1.22083598783407784e-08
5.73751208450623775e-09
-2.29742881698302849e-08
-1.05619785892798041e-08
-6.55110818987222721e-08
1.07514288512749732e-08
-3.69670119232333378e-08
-2.42167076921896735e-08
-9.15670975573002552e-08
2.96124284789624578e-08
-2.46524016919139144e-08
1.88948901957253915e-08
-1.0048777347700265e-07
3.48493804595927569e-08
-6.51138284075404972e-09
6.90983542699696908e-08
-7.04895579397707984e-08
1.35268563589678214e-08
-2.05225814537699047e-09
1.98298847035663735e-08
-8.63861027189419974e-09
1.16585497908374849e-09
-6.55912128605564979e-09
4.09656854500048812e-08
5.59414081796482572e-09
-1.18783520357149575e-08
2.22975390449171571e-09
6.58431860204551122e-07
1.48383006089744366e-07
-4.89940737374280386e-07
-2.44386679086549999e-06
2.75485730755004565e-05
9.72400454308607851e-06
-9.47042597739796032e-06
0.00044361536734432007
9.0082178183733172e-05
-8.69072524002869094e-05
-8.26285968406499439e-12
1.29732434080640009e-11
-5.00477367136030109e-11
2.58971431381071746e-11
-9.79472936755614497e-12
1.45871431621652146e-11
-4.03044682056409259e-11
2.02204810229720549e-11
-1.69891321303715105e-11
3.21108831118751361e-11
-5.68431545506687896e-11
3.21349491645429067e-11
-4.54689310407336005e-11
1.27503916840965485e-10
-1.67565738566790726e-10
8.59331925292303644e-11
3.77002954274276602e-11
6.03034273891017102e-10
-8.23560766767157324e-10
3.2608288544322416e-10
5.75384172584277771e-10
2.34417091668905217e-09
-3.62739577195305044e-09
1.26027395045024459e-09
-4.38626589910134015e-09
5.11315117469612096e-09
-1.45922156634353977e-08
5.5855246589458816e-09
-2.3616615515040126e-08
-6.26470440641850077e-09
-6.94282509911490238e-08
1.18208987415723336e-08
-4.98892526609390727e-08
-2.05027568720342463e-08
-7.03305405010679732e-08
3.29791902665298503e-08
-4.03820212802426313e-08
3.30803783441365862e-08
-1.17536712315897103e-07
3.85796074736800635e-08
-8.69884087144071212e-09
9.00151700491809137e-08
-8.3436994035943644e-08
1.46999464850928972e-08
-1.91384035296465604e-09
2.38413588129943491e-08
-8.13648808557581236e-09
9.69753742554268384e-10
-9.82573319837796409e-09
6.05521559642168899e-08
1.03429462094236747e-08
-2.80090774848295864e-08
5.63602271499003034e-09
9.31603591879724297e-07
1.97112020412087661e-07
-5.74746620129520128e-07
-2.45819753916292816e-06
2.41356915987950228e-05
7.24439539350381028e-06
-6.90109873766371115e-06
0.000404538941789460622
8.69912857129375155e-05
-8.20714568391289252e-05
5.11395867022706184e-12
1.30587216657833299e-11
-2.98648892482866351e-11
3.18066284179924417e-11
8.2563941118357797e-13
1.03648093228358776e-11
-3.09153628430714044e-11
2.37748304349883851e-11
-2.24363077565453639e-12
9.76482022797897962e-12
-2.74293540612087977e-11
1.5334657533580955e-11
-3.76358285576253236e-12
8.9409754587883234e-12
-2.18482318014195012e-11
1.08869103245997479e-11
-4.43939565124393642e-12
1.19597168973590333e-11
-2.14145442574707445e-11
1.17331449438314612e-11
-1.55500657616145187e-11
3.2953030454282724e-11
-4.2892815063191322e-11
2.31511821922965796e-11
-5.65538313455332161e-12
1.48144457570879371e-10
-1.79203356944771637e-10
7.78820650851178963e-11
2.0108076618738542e-10
6.66644329121270154e-10
-8.7410678588145208e-10
3.09019335571637813e-10
3.03201383486911726e-10
2.52230970503152673e-09
-3.67732889491434038e-09
1.31586796785476745e-09
-3.45724397621341561e-09
5.67707530593739589e-09
-1.55928379913265157e-08
4.13234001494104021e-09
-2.09996036894214424e-08
5.36336256280112349e-10
-6.19421020616101185e-08
1.26682358989452757e-08
-4.90696404404114918e-08
-8.9876525836768538e-09
-6.90062360400857136e-08
3.35752649778279494e-08
-3.76288433056769707e-08
4.25189915499581495e-08
-1.14393528900882213e-07
3.51224462234246913e-08
-5.47275058690819128e-09
8.33803464092003138e-08
-5.40727528288727503e-08
9.29161270362580266e-09
-8.93009049566192477e-10
2.25455555020419924e-08
-3.6311300549017665e-09
6.30872587545495463e-11
-2.66072812928014276e-08
9.9586261958076369e-08
2.57246370921844556e-08
-3.4910794504451009e-08
-1.88991720663854442e-07
1.5469937269219874e-06
3.62170942586478197e-07
-7.89470659977933097e-07
-2.41214468353391551e-06
2.94884302322202142e-05
7.8107173773894457e-06
-7.82734047385486056e-06
0.000381394914753548368
8.69152188287603461e-05
-6.45839570810522975e-05
1.83525572906371333e-12
5.20830343503934114e-12
-1.12610643343072744e-11
9.7797356581598734e-12
2.69470945555663183e-13
5.10595537740725183e-12
-1.21056424869308104e-11
7.80934709549116407e-12
-1.00171183694441032e-12
5.51388955212828098e-12
-1.14343707611600582e-11
5.92469360991069319e-12
-1.93770575076050432e-12
6.52891959330247588e-12
-1.0124384693038473e-11
5.19026400756570976e-12
-3.4486375366673344e-12
1.10821482562264241e-11
-1.33238906313809601e-11
6.92598000648256189e-12
-1.354452248776825e-11
3.68163122123797199e-11
-3.6853124484707587e-11
1.70252963206814739e-11
-5.74200142562730864e-13
1.73873161213046052e-10
-1.73864107379787551e-10
6.8791553751769077e-11
9.91742744783191444e-11
7.91184749158401853e-10
-8.24984095577435059e-10
2.91905375455412664e-10
1.43844390671495094e-10
2.86254086624184206e-09
-3.21075155681877361e-09
1.1036766405189793e-09
-2.3568542158682783e-09
6.57984132149778874e-09
-1.24439240729552664e-08
3.69614294991510121e-09
-1.48200836923619481e-08
5.27718883720605836e-09
-4.25876830855910171e-08
1.23574186549425296e-08
-3.06740432187537208e-08
3.49057941597221447e-09
-7.36409612082489478e-08
3.16771465109062921e-08
-1.79081721722119551e-08
5.07391839015092334e-08
-9.83434910274851374e-08
2.75241711996152457e-08
4.91282573881663369e-10
6.59551812065733683e-08
-2.38327990894498369e-08
6.22600932955605527e-09
1.46833052045007856e-10
1.7470122178946893e-08
-4.22821492785527625e-12
1.28593605662206263e-09
-2.51741682074159074e-08
1.16521896004569434e-07
3.63885243160849122e-08
-3.01707640361921464e-08
-2.97830832871537519e-07
1.96559945212058318e-06
6.20541897555581373e-07
-7.57793987844864829e-07
-2.84015525745389631e-06
2.7875035407974692e-05
9.35229612050359044e-06
-8.34627187295090255e-06
0.000327223262312933765
7.8081312910973513e-05
-5.11758099808144729e-05
1.44959767908786729e-12
-3.43015135427195393e-12
3.96103110388911321e-12
3.03886359590247187e-12
1.07796755160662921e-12
-3.27178805399336488e-12
3.35546030461221863e-12
2.59438483624340608e-12
6.75172732441201072e-13
-3.86393624361890505e-12
3.00068321759644063e-12
2.9248196052086273e-12
4.08077532642291613e-14
-4.33651174339196172e-12
2.44458564359308236e-12
3.31427668758625619e-12
-5.85044776944854322e-13
-4.50293923037804739e-12
2.01311343721160039e-12
3.78808830568070052e-12
-1.07868034355294522e-12
-5.48446625935859444e-12
2.40355726929987614e-12
5.1657153542322624e-12
-3.28291943683768641e-12
-1.04545201505305494e-11
4.83518788396207997e-12
1.20611203958250793e-11
-1.07124091985050091e-11
-3.59451162093769914e-11
1.47781299003282058e-11
4.49878319301502584e-11
-1.5140871035670714e-11
-1.9127236313088293e-10
7.00402609810124181e-11
2.3209447024619832e-10
-4.17880173804788522e-11
-9.45953400632148251e-10
3.21627183328630315e-10
1.09185558135414734e-09
-4.4120257486917723e-10
-3.81148251718968924e-09
1.29599526759018578e-09
4.02288004295813336e-09
-3.72019739572171231e-09
-1.32455063866450017e-08
4.82425245895450653e-09
1.00349988943773836e-08
-1.54241960053308408e-08
-4.50331029448806479e-08
1.57374580335061164e-08
1.26860961903408526e-08
-2.55669596925294096e-08
-8.78424161887327846e-08
3.74261058984672933e-08
1.79169774313766517e-08
-7.62367396886003604e-09
-1.14966962254608185e-07
3.09634358053168927e-08
6.97086961163228375e-08
4.13158004751681572e-09
-2.65404283336064166e-08
5.77042078794373655e-09
6.29345294482790446e-08
3.29825202608401056e-10
-1.68502363790456469e-11
2.7496363031751337e-10
1.68317523914715911e-08
1.14828573784499732e-08
2.95374090719325456e-08
-1.62399894155516623e-08
8.0706079062472945e-08
2.08588996589016257e-07
6.71104890368656344e-07
-4.80809746130119409e-07
1.49241529647985274e-06
-2.38260031367339504e-06
9.72748414481741698e-06
-7.27414734972599117e-06
2.40459200024586564e-05
6.88991330107273429e-05
-6.04817856276392232e-05
0.000274530099194287701
4.87626939962774021e-11
1.13016902652084594e-10
-7.97092606713618695e-10
-1.0792833832676928e-10
1.30691596739177779e-10
-6.13762391040541052e-10
-1.89394016249746968e-10
1.97772353718861325e-10
-5.14891112607935087e-10
-2.84602476525005524e-10
4.0537508249254903e-10
-5.71934346389710298e-10
-1.11972011934204612e-09
8.72322909812467484e-10
-1.14545792910790429e-09
-1.57436924372299884e-09
3.53662013710783055e-10
-3.52493801538737817e-09
-1.88495712784085452e-08
-4.64161786056846077e-09
-1.72699907708212094e-08
-3.63645535890011432e-08
-8.96330937631758244e-09
-1.04859360033403229e-07
-2.91532692141154628e-08
-3.0951463600664399e-09
-1.38298415389047615e-07
-1.8077891770318202e-08
1.08813144059000996e-07
-1.04308219251830952e-07
-6.74416295934165807e-09
6.43170016132827802e-08
-4.03317632682685104e-08
5.04148586109512829e-10
3.69972347655156136e-08
-4.54944967044944154e-12
2.06878573003859647e-08
2.76670107815390516e-07
6.89054070346697613e-08
-3.40665655421504608e-06
3.57394760039670212e-05
1.19203179866544446e-05
0.000467517657577490482
0.000103919053612670204
-3.70604055297931044e-11
1.17216845152146036e-10
-4.41078331184956903e-10
-8.41091769686862935e-11
8.68300656925504192e-11
-3.39754774589410976e-10
-1.10302184334020097e-10
1.02139280434977972e-10
-2.83693077120510409e-10
-1.31920237952241399e-10
2.02210782607819362e-10
-3.26402874810040988e-10
-5.88119970301542388e-10
5.23886291107155973e-10
-6.03257509025946972e-10
-1.98540955818043403e-09
1.6677235443988536e-09
-2.01751122191819922e-09
-2.61579041144156993e-09
1.66765064833774848e-10
-9.40503451050948512e-09
-6.78816343009480213e-08
-2.02255621182027443e-08
-4.42343673596238441e-08
-1.17414906170565145e-07
-5.53817809632816963e-08
-2.28017738199242901e-07
-9.65655519619044636e-08
1.63810148992281836e-08
-2.98447685352549773e-07
-4.37678180738409377e-08
1.92111261378879809e-07
-1.9476762208510449e-07
-1.18183961356357143e-08
9.47414699748521596e-08
-7.13935610387008622e-08
-2.36787002042419147e-08
4.60131847166865896e-08
3.38168274187824557e-09
-2.21384263134957356e-07
4.37796562094677411e-07
1.70196998817858318e-07
-3.62784741569946622e-06
3.4652113341796309e-05
1.24617922608570891e-05
0.00044391943676222196
9.54847532713325533e-05
-4.02007589599659312e-11
6.53351692586672232e-11
-1.8617704047637928e-10
-5.00771757091112438e-11
5.22352873289461085e-11
-1.54598133765207352e-10
-5.26501323138517751e-11
8.45287950987902583e-11
-1.53809839865184212e-10
-1.78363109272400111e-10
2.20387180824645538e-10
-2.61408874486985875e-10
-6.99981777925854814e-10
7.82810277315327331e-10
-7.79929069747406346e-10
-2.30962803001028488e-09
2.95131855542618245e-09
-4.03917124136698541e-09
-2.99374274260012588e-09
2.42263514623867319e-09
-2.08255495277864701e-08
-1.15094381876503173e-07
-3.51778708441187277e-08
-8.59384400970840507e-08
-2.50750277531608615e-07
-1.41550790061777846e-07
-3.6106967936464995e-07
-2.02719525885283449e-07
6.81267193205491881e-08
-3.99151218593569821e-07
-7.46777200975324744e-08
2.66917407363339628e-07
-3.14008831442634787e-07
-1.38231746551471307e-08
1.27056679391083342e-07
-1.10106995269877802e-07
-1.62515248629362582e-08
3.83158815403768272e-08
3.77491522750390938e-09
6.42514994473339227e-08
3.20578844687007107e-07
1.33788748937175193e-07
-3.78784685164244674e-06
3.04122800812646379e-05
1.17579853139441244e-05
0.000414296221679494509
8.96163915569554422e-05
-1.91845456574383027e-11
3.83699902294771303e-11
-8.39570803668911345e-11
-2.37014587360588304e-11
3.9890527269330322e-11
-7.21004878178748227e-11
-3.83596159654555306e-11
7.59146130690507045e-11
-1.00640497188335749e-10
-1.72801387171974798e-10
2.50304186307466786e-10
-2.54164279937122816e-10
-4.93514569378766963e-10
1.11984213507566845e-09
-1.28844233757991399e-09
-8.0579556132902501e-10
4.07772071435876074e-09
-6.71419834570252388e-09
1.91749110619034353e-09
5.82090348561288184e-09
-3.24028793779231917e-08
-7.95939053471831522e-08
-3.30910999318267456e-08
-1.15791352030544684e-07
-3.44916678634507101e-07
-1.70951833684274942e-07
-4.17041257220289964e-07
-3.23598696007921817e-07
8.80435764597041973e-08
-5.54697437394375553e-07
-9.54279767227453461e-08
3.15255731570984014e-07
-5.44467580781282717e-07
-1.18725418735742275e-08
1.50513189079762806e-07
-1.13214850136315259e-07
-1.26879035205985607e-08
2.8676850385492236e-08
4.03717494570637547e-09
1.60964933315778787e-07
2.70876648949785844e-07
7.01558502515487426e-08
-3.69463011315396182e-06
2.57764701664609791e-05
1.04632696824305004e-05
0.000385241318475766951
8.51426132247323515e-05
5.54018376561550154e-12
3.07788083950899783e-11
-3.50122387995528091e-11
1.08334003901302081e-13
3.38886857916049273e-11
-4.2582608925065001e-11
-5.71700256719444247e-12
2.87472890650617616e-11
-4.37485083609239063e-11
-9.75005032328880507e-12
2.60345426307697469e-11
-3.79807864401907827e-11
-1.18111393100167672e-11
3.27963507613813276e-11
-3.96567361528810829e-11
-4.54646157908991644e-11
7.75813235809155281e-11
-7.68250070158286191e-11
-1.40311501344253195e-10
3.04933499671612274e-10
-2.87428574296834668e-10
-6.70879772105823347e-11
1.29214311115123135e-09
-1.64615699520230685e-09
1.20522523174873864e-09
4.32583472305171669e-09
-8.14142025404232812e-09
1.50039340328089183e-09
7.36040191692351824e-09
-3.43752056358196546e-08
-7.26533982006513154e-08
-1.81048560077345848e-08
-1.15306581403775593e-07
-3.02157898035224129e-07
-9.69897379830569583e-08
-4.54359156851007076e-07
-3.04358157152010219e-07
8.68370053729543542e-08
-4.52928549356213192e-07
-1.02720533917423751e-07
3.26469062462081113e-07
-4.74090563915283536e-07
-1.58926931953355255e-08
1.45110656640400641e-07
-7.98130450625046316e-08
-1.58876674282097602e-08
3.60593337217162449e-08
1.00427594536371888e-08
1.68744928534038653e-07
3.83641429193587589e-07
6.80048163747473738e-08
-3.79380163563163173e-06
2.71866431271857502e-05
7.99450746192655847e-06
0.000365212122271693597
8.14165327372549664e-05
2.61095421417182926e-12
1.58811434555797019e-11
-1.93756058940166683e-11
-2.24530470697613687e-13
1.7727726047725409e-11
-2.2667847231210383e-11
-3.27479986365801253e-12
1.83648257096104547e-11
-2.09233106658864209e-11
-5.74729609445898539e-12
2.10475000413203039e-11
-1.97251311961767388e-11
-9.91314004846201874e-12
3.26918294474173225e-11
-2.87261008136780859e-11
-4.92855018318314866e-11
8.66425567331971523e-11
-7.23896749516224143e-11
-1.25957436512155019e-10
3.65507175108578045e-10
-3.03002900037755038e-10
-4.61712813769140648e-11
1.52833499963491988e-09
-1.72738803234486149e-09
8.38098583663817142e-10
5.0129515123552554e-09
-7.84161471408036064e-09
-1.95991272870725781e-09
8.44934184639313423e-09
-2.77801098489391515e-08
-5.61442139774309048e-08
-8.27106802631335669e-09
-8.97277532721284705e-08
-1.66425819581113984e-07
-4.59056558275067137e-08
-3.05326784174408242e-07
-1.92932641667693433e-07
1.17754634981727737e-07
-3.49156460962804995e-07
-7.57312332051099048e-08
2.88585220670987145e-07
-1.73090683006392703e-07
-1.38512929053990775e-08
9.90893768213381586e-08
-1.72127723090259552e-08
-4.60631879497990776e-08
7.76451518232119025e-08
3.17020176381337878e-08
-3.66846096655268717e-07
1.16167662288198315e-06
2.0967384415232108e-07
-3.86190179534243602e-06
3.33642111010992894e-05
8.43468495011314893e-06
0.000339432514510851538
7.81013289042554917e-05
2.95610901567800716e-12
-6.52015481002557542e-12
9.62318871717788244e-12
2.12551052212293153e-12
-7.04189344139051675e-12
9.55536531638471806e-12
1.18993647636716644e-12
-8.51296590367141801e-12
1.05420843298531401e-11
-3.84457648812547613e-13
-1.02481836244059172e-11
1.19836848583999283e-11
-2.28531538898359686e-12
-1.06489873138638333e-11
1.41356075566121393e-11
-4.0414244444619423e-12
-1.32867009011914733e-11
1.93348632110779215e-11
-1.01805038033807799e-11
-2.61173318085459038e-11
3.69104121596990405e-11
-5.12747222909419554e-11
-7.79481528012817095e-11
1.12441257214970383e-10
-1.69269363044290224e-10
-3.68128441029823659e-10
5.04035373975016642e-10
-4.37901201616516241e-10
-2.06138445066410479e-09
2.20438402807329013e-09
-8.91087321491618532e-10
-9.28250389035446045e-09
7.39295272908411808e-09
-5.58730543976601849e-09
-3.04387941190224618e-08
1.30974059450958919e-08
-5.6020001707865975e-08
-9.43732971146016117e-08
-5.14558271152138884e-09
-1.48593881788540484e-07
-3.16553529906313768e-07
-3.63032115972605818e-08
-1.67143016578099465e-07
-2.51035726995507987e-07
1.7305082987088396e-07
-3.51369689324029052e-08
-1.96522641633328825e-07
2.8405769941355466e-07
-3.92073167600952439e-09
-8.94833290527038494e-09
7.66524018018972507e-08
-8.44937921897724001e-08
5.85005308395228401e-08
1.14935003496936629e-07
-7.28972521532553101e-07
5.24238284062401721e-07
1.96309138133628507e-06
-3.51918200438800764e-06
1.00477273056581707e-05
3.18370368771572594e-05
7.179982631982922e-05
0.000301433791690274141
-1.45249112865791795e-10
5.14692847550116005e-10
-9.76733484401232194e-10
-3.19175565323509118e-10
4.11831565097360353e-10
-8.66461043260170262e-10
-4.36140803165001113e-10
5.0983378110012475e-10
-7.7335744376334575e-10
-5.30385421139888316e-10
8.22229125398124917e-10
-9.58253574651123318e-10
-1.75255256429477751e-09
1.23687391049346156e-09
-1.54669885105857311e-09
-3.96800707657337996e-09
8.4137314843144246e-10
-3.17986877615940791e-09
-2.10955374785299206e-08
-3.1722372637075513e-09
-1.38167157879230466e-08
-1.0493166310475648e-07
-1.03475569809284234e-08
-9.58566678928355978e-08
-2.0373143232820583e-07
2.29083928664018316e-07
-2.87934206567118279e-07
-1.72324299835893221e-07
5.90821162415928354e-07
-3.80124578500491521e-07
-1.02751196328740039e-07
6.37578378875153132e-07
-3.29350718085542101e-07
-1.59325439624818027e-10
3.83897480983226853e-07
-8.66578296147361029e-08
1.74667030671878757e-08
3.06776119834767912e-07
5.04054365138141831e-08
-6.51862956685358352e-06
4.51672990266582149e-05
1.79950006275015836e-05
0.000447410727328574999
0.000100595965586310949
-1.30592620926367037e-10
3.3526401248268755e-10
-5.32618886272625089e-10
-1.97763361053776788e-10
2.6503532242014951e-10
-4.86568406679584686e-10
-2.5649788236509286e-10
2.78318233759147368e-10
-4.13791064092002925e-10
-2.94333549817471069e-10
4.59529094248101059e-10
-5.32049348402693183e-10
-8.50192232278136207e-10
8.3056923876374578e-10
-9.61955783243001787e-10
-3.00053336551183928e-09
1.76117172475594632e-09
-1.70717106068092534e-09
-8.93480717876399895e-09
-4.40689295923419993e-11
-5.97398577140376887e-09
-3.81662206604689674e-08
-7.68114210744771757e-09
-3.19402737992175051e-08
-3.09492063942353237e-07
-1.73107160509225859e-08
-2.19228235511672686e-07
-4.84492524136276447e-07
4.86000755794609519e-07
-5.73965108008735861e-07
-3.2729532096100789e-07
1.25028495541437495e-06
-9.06285980723382628e-07
-1.10872288857883996e-07
8.39918974649369766e-07
-4.95056788769053489e-07
-2.61824998593890563e-08
3.68553469334897384e-07
-7.83432593313845299e-08
-7.27178907923091036e-07
9.2319012898376152e-07
2.27132646380966845e-07
-6.12230969208630485e-06
4.39146927827996806e-05
1.68714852679471042e-05
0.000426482886893150717
9.32916151181836686e-05
-8.67128132425541376e-11
1.79757174101765179e-10
-2.63498921148912168e-10
-1.1558110566705892e-10
1.55713803978061719e-10
-2.3257148163876306e-10
-1.34539111604395172e-10
2.11124366374742432e-10
-2.44798877223299799e-10
-2.66848489578294182e-10
3.80476417376843073e-10
-4.32490087176318901e-10
-1.14863088528385003e-09
9.67621887477407212e-10
-7.83667068290784727e-10
-5.34809815666030361e-09
2.77697306228063141e-09
-2.54902039852375152e-09
-2.07703768648712799e-08
7.83146289627965537e-10
-1.38487773806693671e-08
-6.64626576029324291e-08
-9.41674664167705958e-09
-7.3541109007887301e-08
-6.59945077204517017e-07
6.67186076586788798e-09
-3.9456034291293267e-07
-1.06743728128280013e-06
5.65358828506638634e-07
-1.13249166278768219e-06
-6.42923901959376838e-07
2.38648974215449944e-06
-1.75344786845862325e-06
-1.15112559294890095e-07
1.03275728180142067e-06
-7.23479195194324772e-07
-4.82263013024269972e-08
3.46671145070575147e-07
-5.97657223007352012e-08
-7.0719391436920147e-07
1.27754313706864285e-06
4.10359668681156622e-07
-6.23572057884222367e-06
3.92088094915708557e-05
1.55760346712120595e-05
0.000396561057178038969
8.48898234030378575e-05
-4.58994382164145041e-11
1.12274861817719203e-10
-1.2858965346795173e-10
-6.03907994989203456e-11
1.13781440139438286e-10
-1.19900606703988599e-10
-8.00957274350581719e-11
1.6815252518976331e-10
-1.75222857225133002e-10
-4.09008149403447317e-10
3.80436866243243853e-10
-3.20289564062899454e-10
-1.7486208843927504e-09
1.35729253854883499e-09
-1.0012897863692959e-09
-7.64390094869442727e-09
4.02521264699385403e-09
-4.7736420120012412e-09
-3.42149630164069393e-08
5.1814250108739807e-09
-2.48397963838527072e-08
-1.06428185834441023e-07
4.82783063080470899e-09
-1.18525397747447411e-07
-6.74463141789149341e-07
8.02887090383330468e-08
-5.26275582419973639e-07
-1.50892038896505314e-06
5.46548811489157618e-07
-1.40307119601520686e-06
-9.99731363277104592e-07
2.08794854817389277e-06
-2.13639709794644153e-06
-1.05282686025099905e-07
1.0945743614936503e-06
-1.34659179760860646e-06
-8.49478908709569449e-09
2.48744266699203152e-07
-3.42454729700672008e-09
-1.77987226484708321e-07
1.07764284913478599e-06
4.24828489765550334e-07
-5.6417029393796193e-06
3.17434813352645174e-05
1.36797989201969718e-05
0.000363823091257687648
8.00086738153104704e-05
8.09588126880458802e-12
8.07205132731339646e-11
-6.24307902502772866e-11
-2.89512469769171875e-12
8.77502187278930805e-11
-7.49472885264160312e-11
-1.59399750733022874e-11
8.5472172503136876e-11
-7.46049967616748435e-11
-2.76585710201452313e-11
8.53319747854051416e-11
-6.76486635627756942e-11
-3.57036804659304907e-11
9.80580851042994827e-11
-7.78248819843351603e-11
-9.84893995023290882e-11
1.70380075958595735e-10
-1.45299737405535508e-10
-4.30233699708699262e-10
4.54663454489436462e-10
-3.20198217746835101e-10
-1.79394827557060249e-09
1.65176128301138701e-09
-1.31755448374917376e-09
-7.81633120389297336e-09
4.55368164427947866e-09
-6.46818463386489806e-09
-3.38308018192417828e-08
7.9729575290993795e-09
-3.02224778534062687e-08
-9.6654725800363466e-08
1.7163319825759601e-08
-1.37079922793957508e-07
-6.14971232445041886e-07
8.5419333044026664e-08
-5.50847909345820389e-07
-1.53957506877839938e-06
4.57141401432529674e-07
-1.5229867116825159e-06
-9.20866192537688803e-07
1.31860790295877908e-06
-1.91256597239895626e-06
-7.85091281954748419e-08
9.54718212643514582e-07
-1.08338481944000457e-06
-1.66123824222680855e-08
1.61378591781093077e-07
4.01765106843439766e-08
2.86191249222968481e-07
6.14698079262161923e-07
2.02312703920641091e-07
-5.11938792936128094e-06
2.86094552012196304e-05
1.10827820547809334e-05
0.000332505249499162245
7.69692472972864232e-05
4.59665216145504939e-12
6.14283080840338928e-11
-3.5756034896149109e-11
-2.97099326080211921e-12
6.70447424557043517e-11
-4.38477829441972219e-11
-1.17316359854327698e-11
7.14022894736098499e-11
-4.38381159311470872e-11
-2.05296344095043001e-11
8.0363045653082178e-11
-4.70193178143620946e-11
-3.15675579474915955e-11
1.05285737431686582e-10
-7.11917310100764939e-11
-1.12666392208208658e-10
1.93563930927076122e-10
-1.53197328231180419e-10
-4.63623641625037238e-10
5.71273470075222443e-10
-3.72967662604312629e-10
-1.82141192073126353e-09
1.96710741859397528e-09
-1.58381130653349407e-09
-7.43962278258317501e-09
5.12645814521634785e-09
-7.066446279748397e-09
-2.590925290256785e-08
9.36315691432960006e-09
-2.97188183247826616e-08
-5.60948401178993057e-08
1.70545172254816705e-08
-1.26663034931500388e-07
-5.71897482790316313e-07
1.01049562537682533e-07
-4.69252117771390417e-07
-1.07558303509771277e-06
4.13948552116001969e-07
-1.09959597728499646e-06
-5.53930852320852485e-07
6.97488623451830153e-07
-1.39022324199580726e-06
-6.22512805329182591e-08
7.09370155295720257e-07
-2.88915344888595339e-07
-1.85062248862763864e-08
1.02418985003995108e-07
3.93372390412868047e-08
2.05135738350213469e-07
4.66175449936885744e-07
9.96350805069104184e-08
-4.9387705579415007e-06
3.1756124073365689e-05
1.05874442253653027e-05
0.000317667436481403422
7.35428290928513478e-05
9.30684878815415787e-12
-1.21789150429461874e-11
4.16999305260508489e-11
6.46363786805466533e-12
-1.21549943849885902e-11
4.39509528652165753e-11
2.47319850908849506e-12
-1.56499373751025437e-11
4.81041615798494463e-11
-3.10417926834749342e-12
-2.09169733722135054e-11
5.37974669193124111e-11
-1.0001854934663421e-11
-2.39708628182465505e-11
6.1690183069150365e-11
-1.80528186809856965e-11
-3.33100538388370842e-11
7.79974738803745401e-11
-3.29152910991817118e-11
-6.77048299128984946e-11
1.16058447113152388e-10
-1.45171908792753631e-10
-1.77817843902464454e-10
2.49831736728935775e-10
-6.28107004934310291e-10
-4.9234690779456438e-10
8.12849053970804686e-10
-2.67311295785188933e-09
-2.12739906430674508e-09
2.90351191571480067e-09
-1.09607027317876403e-08
-9.20908113594140391e-09
7.96420366462632069e-09
-3.14388815454042364e-08
-3.77346877268418734e-08
1.45671720710638632e-08
-1.2693246315371099e-07
-1.32721790032891369e-07
1.59937182538898842e-08
-4.96825075468516433e-07
-4.83129107456965278e-07
8.43609493321022266e-08
-8.36261331783186313e-07
-1.00875350915336167e-06
6.2627108352429208e-07
-4.0061397388358194e-07
-1.04873313011027386e-06
9.47012217276317556e-07