/*--------------------------------*- C++ -*----------------------------------*\
| =========                 |                                                 |
| \\      /  F ield         | OpenFOAM: The Open Source CFD Toolbox           |
|  \\    /   O peration     | Version:  2206                                  |
|   \\  /    A nd           | Website:  www.openfoam.com                      |
|    \\/     M anipulation  |                                                 |
\*---------------------------------------------------------------------------*/
FoamFile
{
    version     2.0;
    format      ascii;
    arch        "LSB;label=32;scalar=64";
    class       surfaceScalarField;
    location    "0.540000000000000258";
    object      phi;
}
// * * * * * * * * * * * * * * * * * * * * * * * * * * * * * * * * * * * * * //

dimensions      [0 3 -1 0 0 0 0];

oriented        oriented;

internalField   nonuniform List<scalar> 
20856
(
4.54221452351314027e-05
6.91463354600820404e-05
6.0064392412207742e-05
1.51107794208557486e-05
6.51519251477205983e-05
-8.34816216553905041e-05
8.17834266915553113e-05
-9.17553237406046416e-06
6.35681500624714672e-05
-9.55522669134620045e-05
9.33631971237415314e-05
-2.75980650705160284e-05
6.20427796864987137e-05
-0.000101755608891997482
9.91807384119683529e-05
-4.23864081736353098e-05
5.93084098918992262e-05
-0.000106789157944129913
0.000105492928260644822
-5.37006498074957324e-05
4.96467553821897334e-05
-0.000112440203000288618
0.000114123039105849396
-5.74386758284945955e-05
1.69705853592877427e-05
-0.000122092403838060915
0.00012789412210660058
-4.33815225462851899e-05
-4.68405189752681611e-05
-0.000145164277516034412
0.000148556030468248603
-1.6582200939277856e-05
-6.88482046375295801e-05
-0.000174333476939908912
0.000160961397483991569
4.23869762828024005e-06
-1.7357063026741666e-06
-0.000167570430046957622
0.000143528350360291992
-3.84906991151973257e-06
5.87407595722492381e-05
-0.000122172385955971971
0.000109688102131462098
-3.82018468010583738e-05
0.000103988404898866938
-5.91787080577261949e-05
7.19645237373957823e-05
-5.23140191589456575e-06
0.000314273813581928232
7.55722775827471686e-06
-1.01809192033797915e-05
-2.42402686110795851e-06
0.000452309926623416854
0.000127759022849311928
-0.000149839853614589413
-7.17450297316909167e-06
0.000786381103946040961
0.000244677124208014373
-0.000225387765000617556
0.00141890551464325426
0.000261621740101947089
-0.000248091546529501431
-1.22223283176061876e-07
8.78103466400268645e-05
-9.12101274355732591e-05
9.24764466177938684e-05
-1.71540690064477546e-05
8.17760885345903012e-05
-9.62204282357810884e-05
9.662852304299311e-05
-3.06994359344133898e-05
7.72191805096947775e-05
-0.000100269193041246953
0.000100164048103245954
-4.2143850553042263e-05
7.30817879518273213e-05
-0.000103543328550610215
0.000103948968520702021
-5.2840610041810628e-05
6.79890382726065762e-05
-0.000106785895914084851
0.000108802096777044135
-6.39836743536590144e-05
5.57443837767310503e-05
-0.000112218850176801059
0.000117264517776102857
-7.3515377755150948e-05
1.96734546593592738e-05
-0.000127880074241132179
0.000134709300393258527
-6.83370022556506831e-05
-4.94420610518600518e-05
-0.000165454071733470772
0.000162877778518807708
-4.5034489930702869e-05
-6.7187146937443162e-05
-0.000201408691212049247
0.000176445860027229536
-2.00676203340240805e-05
6.44664057073541076e-06
-0.000186800004008267473
0.00015365145406777227
-2.25608695813417218e-05
8.33681817024581253e-05
-0.000134620667776840777
0.000112486491907178842
-5.22567224369873849e-05
0.000123426124878598043
-5.73529574608992431e-05
6.76106427494324385e-05
-5.35403799872128571e-06
0.000278136435588833945
1.95422852913283288e-05
-3.03078237686159357e-05
7.51202519964130205e-07
0.000468256357200199876
0.000139138481921568483
-0.000161191302519036686
-9.52510633532382099e-06
0.000773679052756741457
0.000241241906016079004
-0.000218263295709679705
0.00139537700895173817
0.000257792015052177401
-0.000243788611278895412
-1.46213226276180496e-05
9.75703551317585164e-05
-9.25602420037752361e-05
9.52717795848540856e-05
-2.54924729984886423e-05
9.06555311630201892e-05
-9.51073314918664096e-05
9.70999382547340246e-05
-3.50093013012377062e-05
8.50989277674253213e-05
-9.7311592822861334e-05
9.89493415266236092e-05
-4.42079228507362643e-05
8.02246508123509742e-05
-0.000100090946284891563
0.000102146561214261892
-5.43972152503486675e-05
7.48111915376691337e-05
-0.00010391913547947984
0.000107285787931651403
-6.79529722452937974e-05
6.39239990486842118e-05
-0.000112064359325077088
0.000117440620559951638
-8.31261986860449555e-05
3.14296261233437105e-05
-0.000135652885159691415
0.000139070801074741841
-8.55997351437893676e-05
-3.56709716233880516e-05
-0.000181992450972153462
0.00017069583595953348
-6.63248675647788846e-05
-5.49769397268917985e-05
-0.000215219555312569583
0.00018373512552150175
-3.82587913164179758e-05
1.80361315239490819e-05
-0.000200804523646258418
0.000161149336020758417
-2.83922277462973512e-05
0.000106946137040696976
-0.000150865795110387849
0.00011742167569153766
-4.99484322579827884e-05
0.000141210901538789597
-5.7957317863032283e-05
6.17289272689929832e-05
-1.16132476520608039e-05
0.000253016323408379996
3.54559969774496307e-05
-4.86712463222434407e-05
1.93051432195831714e-06
0.000489591182258682588
0.000140611928116126202
-0.000175491297979377098
-9.81032527050818958e-06
0.000763015282181814724
0.000234566409472064237
-0.000212161645520814201
0.00137182739895673803
0.000253613617584436363
-0.000239874347222415995
-1.67906940062263819e-05
0.000103537179263539758
-8.80691440909358247e-05
9.17515387740274228e-05
-2.5820091946912964e-05
9.68614793971602135e-05
-9.02344774694721397e-05
9.30591614977781273e-05
-3.45155376893721091e-05
9.14436660005478003e-05
-9.28214668074050928e-05
9.51726941310033028e-05
-4.35170090457064551e-05
8.67617038386310052e-05
-9.64661563507993264e-05
9.89300255650164291e-05
-5.40790837662658575e-05
8.20680698991647179e-05
-0.000101876183981325114
0.000105180811092798102
-6.79038438419674696e-05
7.36311061569969573e-05
-0.000112960551732390816
0.000117078665848645947
-8.20789929967110309e-05
4.57368347864538948e-05
-0.000140070053692804223
0.000139939198360070804
-8.64366658123587078e-05
-1.53689215228765269e-05
-0.00018612879894666385
0.00017018532740498577
-7.32021082544823993e-05
-3.47410991900987936e-05
-0.000217039510707127826
0.000183569168490585054
-4.70614314183821948e-05
3.41430579589465901e-05
-0.000206548381685250112
0.000164300706044664502
-2.70230503187310632e-05
0.000126925098707774981
-0.000160676292428703653
0.00012065974474372494
-3.71395242436352221e-05
0.000152888508937965966
-5.7012638995034439e-05
5.54523441529467586e-05
-2.03320544937802915e-05
0.000251816174092225908
5.42082214541971772e-05
-6.98151344642815145e-05
-6.4366780530306783e-07
0.000512741846278868749
0.000140058892059617831
-0.00018289749469548814
-1.02939964304971186e-05
0.000751481002939025132
0.000228282253874945623
-0.000207097582581483841
0.00134726430494253664
0.000249058937049270019
-0.000234789909567611501
1.13943002814196887e-05
0.000133385481638141666
-7.49826171045167464e-05
8.17374858023550157e-05
1.88158874760226992e-06
0.000124458202772195336
-7.8004226150597727e-05
8.38574249749382631e-05
-7.40157106455401086e-06
0.000116168136629939137
-8.07404116517268419e-05
8.53969425974620048e-05
-1.63741237146242513e-05
0.000108953727678828583
-8.31579342966317497e-05
8.67148791094614119e-05
-2.51560312310430688e-05
0.000102935346766516614
-8.58403746955484106e-05
8.85495849982574184e-05
-3.39392002532380249e-05
9.80407925748623112e-05
-8.93305981396672722e-05
9.15167640330757074e-05
-4.31452838293699405e-05
9.38887481054724468e-05
-9.41407517038352624e-05
9.62191318301302217e-05
-5.36180642640067821e-05
9.00517288242196263e-05
-0.000101185006308758801
0.000103674062848370331
-6.5570527996349615e-05
8.31256921982224207e-05
-0.00011432414508625998
0.000116783028293520003
-7.59294639576834268e-05
5.88267533076794686e-05
-0.000142539769919371217
0.00013980989055277298
-7.80357310740386489e-05
5.54289006405609081e-06
-0.000187843200211335612
0.000169037977041960549
-6.49475501443228247e-05
-1.34456933269132332e-05
-0.000216223382902115213
0.000181839382215992138
-4.05099343320214684e-05
5.12730461377267993e-05
-0.000201079348230352652
0.000159511635721271616
-1.62846821664214734e-05
0.000139130751931555545
-0.000153370589891035274
0.000116940779030964468
-1.81746610825953658e-05
0.000152540592374922064
-4.80662755510171405e-05
5.03047187921654417e-05
-3.64343038518679055e-05
0.000273611414773487359
7.50621382361918286e-05
-7.85983518141075997e-05
-3.64899867792683325e-05
0.000546809155193435674
0.000151544590111457405
-0.000185555989714174908
-1.26114421968987183e-05
0.000706987390659752444
0.000222295338207452805
-0.000201680207273574342
0.00131895612801885445
0.000244977978538025575
-0.000229281325746676746
1.05445153783399e-05
0.000137046432621329726
-7.15700059306827781e-05
7.70404409484973143e-05
1.43067794812309143e-06
0.000128816673996634838
-7.40959439596430782e-05
7.88511917172867073e-05
-7.56476970107414172e-06
0.000121344261087325366
-7.66805665409059763e-05
8.05001337301334717e-05
-1.64272642924804048e-05
0.000114903138701644673
-7.94072480091153677e-05
8.232132134786512e-05
-2.52360466165566235e-05
0.000109598246440996275
-8.27186281475010039e-05
8.48651972874878683e-05
-3.41231493318760529e-05
0.000105320371466137026
-8.70541964989939666e-05
8.86615007128430381e-05
-4.33921534916173999e-05
0.000101819900266548926
-9.29449271296232737e-05
9.42824303493556957e-05
-5.33335524676315377e-05
9.86281203551287545e-05
-0.000101425638450562409
0.000102791180807497106
-6.29736955087707831e-05
9.20085487815174117e-05
-0.000116021432007235871
0.000116779811547139089
-6.81424141566056566e-05
6.89974396505212064e-05
-0.000144911611670383569
0.000139910231603986024
-6.44890951994099993e-05
2.33589490699101404e-05
-0.000190580065766908475
0.000169110488859122574
-4.69572125685802352e-05
7.3914660304106061e-06
-0.000219910483016358979
0.000181540955283053941
-2.32336844973775675e-05
6.72563137352988837e-05
-0.000190909506310668749
0.000151202180767077434
6.40156580899536143e-07
0.000141601560401652453
-0.000132393719284991965
0.00010604930930788276
-9.67958222203811704e-06
0.000152563031212477138
-3.65304361718321837e-05
4.68281152652839979e-05
-4.18703316804402921e-05
0.000287332162780165492
8.41493171733250086e-05
-6.56798650981540885e-05
-5.21039767843313288e-05
0.000566107864055830838
0.000171785767782154107
-0.000180850547488448869
-1.31675885078500008e-05
0.000650896273674119157
0.000218489707390804558
-0.00020133487611145306
0.00129022921887303986
0.000241714383237502358
-0.000226155210354168999
2.68019313798197038e-05
-6.59661680688840849e-05
7.06633886421506856e-05
0.000158835760082361573
1.80737356451964599e-05
-6.69839141812247717e-05
7.15451288341005401e-05
0.000149838314794554638
9.2675450184935638e-06
-6.87816415262874599e-05
7.30587669199746334e-05
0.000141575524214819948
4.1847930019509305e-07
-7.10427866601344823e-05
7.47302830206389998e-05
0.000133978512803238685
-8.40109147665589056e-06
-7.36411812209306044e-05
7.65634509670160685e-05
0.000127241999610308126
-1.71615529887602556e-05
-7.66979698697240706e-05
7.88372018721237715e-05
0.000121524921615555218
-2.58943655646177613e-05
-8.05659424597489132e-05
8.19819723044350716e-05
0.000116915091430908988
-3.47394528363096427e-05
-8.56607908146873924e-05
8.64740801730950635e-05
0.000113351932397643096
-4.40206228943076756e-05
-9.2579609292594035e-05
9.29196457894094927e-05
0.000110761210142500222
-5.40237607377411127e-05
-0.000102520372087016527
0.000102459525007987025
0.000108692778662299077
-6.35668942824672731e-05
-0.000119276768649266863
0.000117741003220606354
0.00010308786280012274
-6.78010770136504043e-05
-0.000151185070993968974
0.000142652925117350241
8.17635938364770449e-05
-6.01367777231915537e-05
-0.000200167749491987688
0.000174039118480163741
4.18230508616877821e-05
-3.79508969280032037e-05
-0.000229965028817740672
0.000188231826786712519
2.6938183255871163e-05
-1.12788991254590527e-05
-0.000199348676586050955
0.000153744602424278143
8.61872868208503074e-05
1.38523345315327061e-05
-0.000122601104164735445
9.76620813530648023e-05
0.000141409249323832712
-7.94521536021175611e-06
-3.00186904157061425e-05
4.25198073401105537e-05
0.00016185965693878577
-2.95042364267354695e-05
7.21248593094032183e-05
-3.29226477703728715e-05
0.000269690307207815015
-3.55838276838824248e-05
0.000173903372823192178
-0.000169090381185106099
0.000567375684791077096
-1.57475536711966556e-05
0.000214186932969080056
-0.000210734655852793534
0.000627607804028427574
0.000238083211317693017
-0.000227108491964588596
0.00126350689701284027
5.48016714293759272e-06
9.92578432187203813e-05
-8.1053292862342231e-05
-1.73568298498475147e-05
9.14451694202395997e-05
-9.03222478572888315e-05
-3.62048296330094279e-05
8.47261923307327625e-05
-9.57803572255016151e-05
-5.16655854530189101e-05
7.51002486805535353e-05
-9.86675424684787427e-05
-6.39192804837351782e-05
5.44207837405285958e-05
-9.93643181248509447e-05
-7.30705798458049466e-05
6.76292169346314988e-06
-0.00010015841025020986
-7.42351145118729351e-05
-7.58453748310270869e-05
-0.000118458979928953787
-6.11767515408616054e-05
-0.000118493581055080629
-0.000166949741271945278
-4.52773873714053319e-05
-1.68370307139935923e-05
-0.000195740368893755515
-4.25694086556247732e-05
0.000117189910780892212
-0.000163121322722505497
-6.11643905721500876e-05
0.000189124739020746387
-8.35726937291109595e-05
-1.17300295072490454e-05
0.000311771312275814982
6.36056847499783734e-07
-1.99611071291256464e-06
0.000415762747829008755
0.000110051867630884856
-1.41841176031285549e-05
0.000807493208307644194
0.000266758852219934619
0.00135730621641514705
0.000268538423614432292
-7.55591540736944912e-06
0.00011655993208718919
-8.38200153848248233e-05
-2.24352501137273886e-05
0.000106955981839942406
-8.90385110122091073e-05
-3.59447638734185527e-05
9.78494534976206726e-05
-9.31635422129713827e-05
-4.80476456900049925e-05
8.85717956492869233e-05
-9.52862080324942077e-05
-5.96849541629715678e-05
7.60266429559571725e-05
-9.60753459613625894e-05
-7.40193765676966592e-05
5.23984330435092974e-05
-9.58622532983416229e-05
-9.67313403103758869e-05
3.7517055457309887e-06
-0.000102157169332949617
-0.000118826277310497133
-8.08858888267030161e-05
-0.00013831891512919642
-0.000115254786607644084
-0.000122255132938897454
-0.000201218439007330621
-9.53004009818242002e-05
4.13485612791927447e-06
-0.000227726087996299139
-7.64499884574450038e-05
0.000151468932208115477
-0.000187750127802096552
-7.34684214532864497e-05
0.000218014733812275799
-8.92249782855126822e-05
-3.07187300552410391e-05
0.000277278932392820664
1.12832454220397212e-05
-1.33703907458360399e-05
0.000403840223101087717
0.000133711251610949992
-1.6527483484888477e-05
0.000786156897183163794
0.00026573521066289963
0.00133471408495148408
0.000263856672039032201
-1.79972702165895392e-05
0.000118232108912502053
-8.34232576537011401e-05
-2.85498118380826575e-05
0.000108957901936350849
-8.65554936141496638e-05
-3.88220158865187396e-05
9.98807520500483338e-05
-8.90702628618560062e-05
-4.94220468854409664e-05
9.01458884217533991e-05
-9.10656117874519394e-05
-6.2133505686892286e-05
7.72427003299906446e-05
-9.24244728394306496e-05
-8.28921953077326791e-05
5.55973292575517481e-05
-9.45043836505478422e-05
-0.000118240435657350249
1.35305611400401152e-05
-0.00011008268159840854
-0.000154323140203454254
-6.57932419254068977e-05
-0.000161002115862996756
-0.000156083011197223978
-0.000112187045983693797
-0.000223527895203775505
-0.000131098401932625756
1.87966028967076699e-05
-0.000240451207281673819
-9.78917073784493156e-05
0.000175026224184646054
-0.000207629880448887192
-7.83315181304843782e-05
0.00023565502281744656
-9.51577975122112017e-05
-2.12875757673048471e-05
0.00023762859440254404
1.8062222805880534e-05
3.94676521211015374e-06
0.0003932894037785076
0.000125929554117590862
-1.73264922279115505e-05
0.000778743093389500595
0.000263253417133071433
0.00131127480923651338
0.000259726399853878632
-1.91015007967973984e-05
0.000119019850128881618
-7.92368946321054559e-05
-2.87288796041816196e-05
0.000110415614421463502
-8.20635748474878924e-05
-3.87509774667521448e-05
0.000101889492287513705
-8.48081136121154618e-05
-4.99870339338604833e-05
9.25596773653506377e-05
-8.76448001260392122e-05
-6.49068210869238805e-05
8.06422836704111945e-05
-9.03565239805726627e-05
-8.93968655968058575e-05
6.25708651933931176e-05
-9.54434028704931922e-05
-0.000126844001248128805
2.77399443976122025e-05
-0.000116831217639734908
-0.000164607294766504572
-4.20265881772342468e-05
-0.000172131967782899727
-0.000173879194337373932
-8.94080264005934035e-05
-0.000230546892897788732
-0.000151105945793001491
3.1104781164287138e-05
-0.000241630101269127038
-0.000109007506466050178
0.000186231336745604437
-0.000213979782053328745
-7.48612802825778819e-05
0.000240838089632694577
-9.63415319532792415e-05
-1.00881897376817927e-05
0.00019584736725028194
3.12174596098278536e-05
2.19882863399635878e-05
0.000401883417930612929
9.9389323816527188e-05
-1.71002725870759943e-05
0.000788833631784306905
0.000257279953843660538
0.00128728441077191938
0.000255949061441422369
9.4714965327390104e-06
0.00014379786666080522
-6.66122927515216923e-05
-1.30658850294845278e-07
0.000136698940125636531
-6.95139309454088114e-05
-9.61588433653609695e-06
0.000129016968080759788
-7.26249019605066504e-05
-1.91420290996239326e-05
0.0001210448540686377
-7.56556628433282055e-05
-2.89507600967281755e-05
0.000113175203589835325
-7.87904238228798908e-05
-3.94547288061983869e-05
0.000105282302072688057
-8.22198835906595899e-05
-5.15334799255548595e-05
9.65570970046994296e-05
-8.60601392820152555e-05
-6.7424201918249858e-05
8.56031702428830234e-05
-9.02550554582889442e-05
-9.14722133640793149e-05
6.96748103295146001e-05
-9.73792106456072571e-05
-0.000123674188398555812
3.78467100178466915e-05
-0.000120444054980914462
-0.000154924804818815158
-2.30514465177852979e-05
-0.000175567931216018773
-0.000165768177391881352
-6.07218747695646363e-05
-0.000234066306983936892
-0.000145932121256450367
4.87561737890109925e-05
-0.000238566699652976945
-0.00010307385256556431
0.000191054191036248714
-0.000201051527038508101
-6.54663982160492465e-05
0.000236906481150526971
-8.17410688536538056e-05
-1.12064154879291375e-05
0.000168008983361092921
4.86416034270099087e-05
2.57990565651292775e-05
0.000440747727837597009
7.56749861768715498e-05
-1.75708627987293357e-05
0.000807191391094415605
0.000247307153735543659
0.00126208477923811947
0.000252606657456942566
8.52830458597557544e-06
0.000146613894594111599
-6.48308447100303314e-05
-9.00175544489529656e-07
0.000139371890533476311
-6.73401997146620332e-05
-1.0349169195705964e-05
0.000132013679339373978
-7.02276524162494736e-05
-1.99964812749902988e-05
0.000124636518922173505
-7.33506798864513854e-05
-3.00673239188944827e-05
0.000117416500334663391
-7.68888898298870335e-05
-4.09772716623007523e-05
0.000110109692031399889
-8.09720887207870206e-05
-5.3565391010599739e-05
0.000101940396186946656
-8.57401196276962063e-05
-6.94840279349266709e-05
9.13983889952959438e-05
-9.13015703388728894e-05
-9.08358921382707496e-05
7.49586864220080294e-05
-9.99528733708808731e-05
-0.000116811520730130636
4.24291889579791158e-05
-0.000123518749414858246
-0.000139113621399280591
-1.24410665382662281e-05
-0.000178888812458956298
-0.000142394594208289946
-3.71543916444507132e-05
-0.0002401969924997329
-0.00011992204555431204
7.14653488406377397e-05
-0.000236090997885963203
-7.54742130686724089e-05
0.000188291469897106702
-0.00017407893244123239
-3.69478776439038784e-05
0.000214120450602285915
-5.22704441859662332e-05
-3.82761298417165182e-05
0.00018635127425270005
6.71368009123586801e-05
-2.9355355714265341e-05
0.000503348799392025156
0.000100265708898552615
-1.61676351007707846e-05
0.000776662174633409091
0.000235831029659190643
0.00123841226676068812
0.000249219189696600401
2.59015492034454758e-05
-6.06227984833661814e-05
0.00016694114327777979
1.64189371397101844e-05
-6.16213812035320229e-05
0.000158198769036576166
7.0694059612911654e-06
-6.33490057362096905e-05
0.00015053129358982457
-2.26323681932501547e-06
-6.57049487165636896e-05
0.000143367304094442076
-1.17039458738137367e-05
-6.85791742456202063e-05
0.000136392987124437981
-2.141233938309134e-05
-7.19176073871153037e-05
0.000129564780192842739
-3.16089353933521368e-05
-7.58929378767819989e-05
0.000122939972589004853
-4.2772171116064843e-05
-8.06698452527394199e-05
0.000116282254749658105
-5.59335070039514306e-05
-8.64534151555244402e-05
0.000108976365592685623
-7.31202934184858834e-05
-9.34833825647414816e-05
9.95488360642954892e-05
-9.65841369398874578e-05
-0.00010452998981655263
8.36757289819682832e-05
-0.000123238433755792529
-0.000131765975635354945
4.9664081066267642e-05
-0.000138904551768867572
-0.000189558169878834975
-7.38464279548248681e-06
-0.000129269942635130188
-0.000250139331463309299
-2.66145389481797854e-05
-9.96516230072706083e-05
-0.000253138090352671825
9.56367698497390556e-05
-4.86828149297995172e-05
-0.000167276967888495482
0.000181998300406512736
-2.3927376041588679e-05
-3.49933599383284052e-05
0.000194339138102881694
-5.37009406720591174e-05
8.48016622311139842e-05
0.000203449445079912755
-6.22185177521635772e-05
0.000131574369657600128
0.000554194943603838553
-1.44944951619926671e-05
0.00022602426876634657
0.000717100483986104478
0.000245137396447382444
0.00121686357354859739
-1.06948855408237153e-05
0.000124860272407293222
-7.47784082969969418e-05
-2.71218900560793761e-05
0.000113910261384589265
-8.04198362427931552e-05
-4.21180408816980773e-05
0.000102076718876961109
-8.43747824434969048e-05
-5.43374677399363401e-05
8.620604915164244e-05
-8.50132527432883418e-05
-6.29187740823515453e-05
5.86319991309839698e-05
-8.12002439490947252e-05
-7.10390329744577001e-05
1.24221155823030371e-05
-7.52988860932288034e-05
-9.12449773275555911e-05
-4.14369587105062337e-05
-8.72882061268775246e-05
-0.000117105786826053921
-5.87755432595812605e-05
-0.000148722936890787339
-0.000133617719811994262
5.57047386868340932e-05
-0.000213357365287151205
-0.000131550843926920235
0.000248098669090351628
-0.000217778551709335431
-0.000103428129158365507
0.000415892719874925141
-0.000157032729718467601
-6.72917447715654137e-06
0.00042861732509742235
-4.76814736961249003e-05
8.24740147608096774e-07
0.000452267233762264928
7.28633469359720267e-05
-2.43980290333448125e-05
0.000895944315048366707
0.000290685014882805816
0.00130107425005985557
0.000266727751376495984
-1.65647947452073876e-05
0.000133503177762671403
-7.22464199073044968e-05
-2.7621694840156409e-05
0.00012375522847156515
-7.68761563497692458e-05
-3.89806301746468904e-05
0.000112358757369212305
-8.02530688376493857e-05
-4.95403649969305171e-05
9.91494844952946414e-05
-8.17997300028269259e-05
-5.94260257532022609e-05
8.06223123578566904e-05
-8.06067180211263954e-05
-7.07248967258996669e-05
4.95016881572938163e-05
-7.54343039089646678e-05
-9.33084648110566367e-05
4.27166488127791669e-06
-7.14252161252060849e-05
-0.000139195220190402883
-3.41021321284618444e-05
-9.97686525391598163e-05
-0.000184219804264594653
-3.62422065943810031e-05
-0.000178727627776331351
-0.000195637662258419786
7.68513082197624974e-05
-0.000237454928620449532
-0.000177587672400539835
0.000282587745677710656
-0.00024028944277652015
-0.000120816323787838653
0.000435378942167447892
-0.000165483074649402316
-5.38537120095031017e-05
0.000403927255024415482
-3.09911691440944981e-05
-2.534838693942984e-05
0.00046687924890315125
9.05934979530937349e-05
-2.6349802034528148e-05
0.000874016094850354162
0.000288664959032995921
0.00127695593727507957
0.000261625200981029213
-2.08955855710223614e-05
0.00012954755839583471
-6.99782894690556859e-05
-3.05790556308126123e-05
0.000120017172170321931
-7.31331735554537196e-05
-4.06823153995914007e-05
0.000108948981490790254
-7.55572094190314005e-05
-5.12801004183266796e-05
9.5565079503754868e-05
-7.68841390351092629e-05
-6.33401149523174945e-05
7.61279089811405993e-05
-7.58708151551966696e-05
-8.26658563058495606e-05
4.55747464577454224e-05
-7.12519388897172603e-05
-0.000121869304811369052
6.91982512963112446e-06
-7.35275276556333955e-05
-0.000186648132226992924
-1.32886580632264817e-05
-0.000117037383540417319
-0.000237948759499212632
-4.74717422933817839e-06
-0.000203722755972933408
-0.000240824711118863824
8.72574309594935501e-05
-0.000247981451869627094
-0.000201917993171034046
0.000282433671757637483
-0.000246382367325092395
-0.000118780467508301465
0.00043243664462421866
-0.000175352635152349455
-6.32809893172090235e-05
0.00038464785703379653
-1.81578355463172299e-05
-3.22065501828013457e-05
0.000457933994972147852
0.000103800656448651855
-2.64927727930583086e-05
0.000842384946694195642
0.000289170978806347278
0.00125212241156426774
0.000258067186557181603
-2.15081304827131164e-05
0.000126885182912608077
-6.69736509597896094e-05
-3.13414358694198385e-05
0.000117538131998423597
-6.97504946472288993e-05
-4.18694991241376184e-05
0.000106819637323419498
-7.21509793526614189e-05
-5.37203662569240886e-05
9.35490123927396343e-05
-7.37786042894425249e-05
-6.90552095146186622e-05
7.4251139696241775e-05
-7.31453191142640037e-05
-9.61479595632125654e-05
4.68823748488148462e-05
-6.9658006813535958e-05
-0.000146891117468391446
1.74167912422001412e-05
-7.65847256196134377e-05
-0.000214551335709891146
8.71180440332634332e-06
-0.00012647249419476888
-0.000257577063662766726
1.88268143689628346e-05
-0.000211095497460187014
-0.000256966848155714301
9.55280231926485912e-05
-0.000250510785923084437
-0.000212610989672138849
0.000266619937226514391
-0.000242521553409019746
-0.000116061376274679884
0.000408969038523070713
-0.000169423013181323905
-4.48246810774731766e-05
0.000344945355601733645
-3.16445144969972492e-07
-1.71545372339770505e-05
0.000428074679921641959
0.000101578411193522356
-2.58401728421943973e-05
0.000819993456500495155
0.000288357333294351147
0.00122711852588368916
0.000255112851691471844
7.15352020121597149e-06
0.000147987288545605518
-5.81246253627307576e-05
-2.76337738909798447e-06
0.000141833239399902065
-6.01373707377137189e-05
-1.25560138327348196e-05
0.000134819113579660703
-6.27078876183612523e-05
-2.25098793895325516e-05
0.000126680521772662647
-6.54961810144834565e-05
-3.29036716077402939e-05
0.000117517061288345635
-6.83751444412068743e-05
-4.42326066695049148e-05
0.000107013717946197
-7.10854207456445842e-05
-5.73059328369312295e-05
9.37097902042843378e-05
-7.31478939659204646e-05
-7.46744655949735018e-05
7.45327374587030964e-05
-7.31678899596401071e-05
-0.000103212394158851107
4.86760925354133523e-05
-7.06346305811516141e-05
-0.000153096862105620588
2.5133620770996569e-05
-7.82766089732969e-05
-0.000216648254429515925
2.31602198464728256e-05
-0.000126465430389295278
-0.000252905328561415696
3.25427744067813642e-05
-0.000211525343375967991
-0.000251966953096075376
0.000106727148892195377
-0.000250704006824485073
-0.000209895945522748241
0.000255423821717100841
-0.000231926097622317404
-0.000116319065684404973
0.000374244853785752794
-0.000140593223923475953
-1.17042044020331497e-05
0.000261968292934960532
2.70039395594660891e-05
2.07342589822186001e-05
0.000393596486157721899
7.77144441724676949e-05
-2.58250656667501858e-05
0.000828043760897435757
0.000285816431263203469
0.00120220314391002148
0.000251697005077850628
5.98665203140520103e-06
0.000151222614475123192
-5.78647550559730812e-05
-3.95703098018147058e-06
0.000144271429321491404
-5.98338814601815665e-05
-1.3914453225253132e-05
0.000136890785882178587
-6.2340758009714922e-05
-2.41843765083342731e-05
0.000128722782707930484
-6.51222185138842645e-05
-3.50607985786236724e-05
0.000119648525737929459
-6.81436192265259322e-05
-4.70773637713177865e-05
0.000109110212758600509
-7.10518718468715473e-05
-6.1113067650698136e-05
9.5409062323679943e-05
-7.34031345413784604e-05
-7.93382230417192814e-05
7.53375714322230465e-05
-7.3880588643536669e-05
-0.000107575973943797436
4.85190613536905344e-05
-7.15579729910869445e-05
-0.000153323721323726737
2.58993935012389622e-05
-7.85375240922142989e-05
-0.000206876714360744701
2.22905550662795115e-05
-0.000124467196581589832
-0.000238516914022580772
3.58943687231338049e-05
-0.000211908906114533955
-0.000235935439835784219
0.000123928051468560733
-0.000255873514528623695
-0.000193126066674979672
0.000257369374536131081
-0.000218833647343675338
-0.000105793262799639548
0.000330064039797236175
-9.54218230001232853e-05
-4.12928323637361879e-06
0.000178943676101491942
4.84991617960698799e-05
2.24703400539009654e-05
0.000403787814032490464
6.34754441794427771e-05
-2.46192857221030166e-05
0.000830510201933450337
0.000280454356499763163
0.00117856228590719654
0.000248240761932341813
2.47072586856249999e-05
-5.52451296467283543e-05
0.000172381266359215786
1.4476807928949845e-05
-5.61366615980998649e-05
0.00016330860907414808
4.42927059968983026e-06
-5.75832754033265011e-05
0.000155505116598094199
-5.54984839016806847e-06
-5.96453170927109573e-05
0.000148191968870363378
-1.56538202342056167e-05
-6.22820990166579347e-05
0.000140698447383050311
-2.61711143535888953e-05
-6.52410482490692442e-05
0.000132563864488383315
-3.74359583303507341e-05
-6.85425562303349531e-05
0.000123563446995759941
-5.00757553597218783e-05
-7.19315009860413206e-05
0.000113012563972825371
-6.52878237586395889e-05
-7.4977698729166361e-05
9.91463706004655878e-05
-8.64077968201882153e-05
-7.61124025670624412e-05
7.90869440007240882e-05
-0.000120114288223064768
-7.47900199715627816e-05
5.24855245655714915e-05
-0.000169568401824311495
-8.47688612242021816e-05
2.83563057536513716e-05
-0.000218792747353438726
-0.00013445172134483749
1.64081887933253295e-05
-0.000234480546539171902
-0.000217737307602046556
1.91796851173878713e-05
-0.000215188048091065039
-0.000270816756576063087
0.000122313862704875073
-0.00017001617410020278
-0.000228918063316102489
0.00027383834759921752
-9.08540871619471015e-05