/*--------------------------------*- C++ -*----------------------------------*\
| =========                 |                                                 |
| \\      /  F ield         | OpenFOAM: The Open Source CFD Toolbox           |
|  \\    /   O peration     | Version:  2206                                  |
|   \\  /    A nd           | Website:  www.openfoam.com                      |
|    \\/     M anipulation  |                                                 |
\*---------------------------------------------------------------------------*/
FoamFile
{
    version     2.0;
    format      ascii;
    arch        "LSB;label=32;scalar=64";
    class       volScalarField;
    location    "0.149999999999999994";
    object      alpha.water;
}
// * * * * * * * * * * * * * * * * * * * * * * * * * * * * * * * * * * * * * //

dimensions      [0 0 0 0 0 0 0];

internalField   nonuniform List<scalar> 
7236
(
2.03173149271158461e-06
0.000957883269727405969
0.000870304803234453256
0.000938688920585907549
0.00107861097087422891
0.00552826444572791526
0.0140946091681295183
0.0188064578586057338
0.0199424767061562938
0.0189969415391208485
0.0185663835540204082
0.0170864244969253613
0.0146440456730115957
0.0121535924021100965
0.0103757164315986875
0.00843134458618436007
0.00638297531076669616
0.00452397650857348961
0.00338180233814593285
0.00239856233427604643
0.001198557661851826
0.000503118312748206012
0.000294600125490104695
0.00014938611390820456
6.4381902561813474e-05
2.20040245142336552e-05
5.78629840910174097e-06
1.27048772206651081e-06
2.33777344960903683e-07
3.59772811656677914e-08
4.60591930842708027e-09
4.8539822758549099e-10
4.39696271199034832e-11
4.88539154401392426e-12
4.96705826718797933e-13
2.13214195916593367e-14
5.21368167837558674e-16
1.17543595833216907e-17
1.14282401613212377e-06
3.56627563174346016e-06
2.14237709306149984e-05
7.31588820504447076e-05
8.7348964671842832e-05
0.000157423109922674763
0.000148565006388470019
0.000193773284265869663
0.000233637359801559043
0.000255123665624631805
0.000281794403307593247
0.000323366624061051378
0.000360074040180309216
0.000383081795812449102
0.000548728204530016792
0.00081212362276076428
0.00113029255807248425
0.00125610458031867535
0.00124823211966043298
0.00120956196330115374
0.000961482005125262676
0.000773542556897739405
0.000540124103476254591
0.000258938824480958068
8.00090439283422319e-05
2.0961745535079589e-05
5.78451596088470191e-06
1.30839302813773577e-06
2.4538394955705934e-07
3.8333638778913004e-08
4.97733450937267475e-09
5.32310231029807588e-10
4.86863290502820824e-11
5.18778690967885396e-12
5.54349986581478886e-13
2.47561053932936512e-14
6.14008966699829571e-16
1.45704890356221347e-17
4.4308857537264939e-07
1.33724344023358195e-06
7.12954656175125714e-06
3.98260553005738409e-05
1.06665727561744951e-05
1.46927427299051541e-05
2.11035144774818749e-05
3.02533396636293862e-05
3.78936799084356619e-05
4.70613369442553293e-05
5.97673690551197084e-05
7.68713243701755794e-05
9.35658824719571788e-05
0.000110046770779715508
0.000122967519523736074
0.000140841610635881109
0.000222920660185520929
0.000237001776002937665
0.000199653045162285093
0.000184554801473237409
0.000192994733717305922
0.000249730068207262737
0.000203504199835171057
0.000143255805737689957
7.78412991261448359e-05
2.36064686646714133e-05
5.49254230890652609e-06
9.44844505117011162e-07
1.53955988842598004e-07
2.42377488831909515e-08
3.16782202059530434e-09
3.40671141070329562e-10
3.30141442109819008e-11
5.27707386599244425e-12
4.68579912691459352e-13
1.95266955758702611e-14
5.1937495605280074e-16
9.44569849280008394e-18
3.07217282333446704e-07
2.29218837133293404e-06
6.55609575855863418e-06
1.30006574466341794e-05
1.25897748862834866e-05
8.8017064069222754e-06
5.44010287991252191e-06
6.31790872891024151e-06
7.72337000856319398e-06
1.049315950349948e-05
1.4306736983805329e-05
1.93256947786491997e-05
3.13743851514143912e-05
4.23956878315105695e-05
5.50068406240209216e-05
6.847541048766633e-05
7.21716761445205513e-05
6.55523612158759479e-05
7.38798313743539107e-05
7.97184827809162082e-05
8.11091564422710152e-05
7.21074623731854131e-05
5.46360654000850973e-05
3.36008136543930987e-05
2.30877720350085454e-05
1.16152022950799317e-05
3.44083761297587916e-06
5.57219290651901677e-07
8.24649340685867225e-08
1.30819195094412642e-08
1.72196884998666796e-09
1.90790244238256974e-10
2.02164032886570052e-11
3.74710256189668718e-12
2.81494282916481655e-13
1.13611817837280527e-14
3.09055476470255105e-16
5.30110213463007745e-18
2.50859993352975185e-07
1.41462164527843311e-06
6.50763384480901018e-06
7.30384030549380861e-06
3.50700426964290624e-06
4.01796296369524032e-06
3.46702404088899324e-06
2.82662809317559874e-06
3.36491671438765694e-06
5.12266425825422067e-06
8.13287266618300511e-06
1.13128686224112146e-05
1.41907352966574319e-05
2.00407396715118906e-05
2.34754325016592743e-05
2.74900873068949182e-05
2.91611678695892493e-05
2.95582657528963098e-05
3.18633277924497825e-05
3.49561926643559407e-05
3.57613663484810434e-05
3.29522281751078286e-05
2.53877839248639363e-05
1.57228405486297188e-05
7.8681810393718041e-06
3.24581280682145084e-06
1.10845379466506121e-06
2.49367728416678144e-07
4.03056761931806268e-08
6.42863336018758599e-09
8.50830926018172204e-10
1.01739518121522146e-10
1.76772600575960486e-11
2.33367670686533243e-12
1.45693335845364848e-13
6.13527156393459731e-15
1.70886520726328333e-16
2.72806613157347385e-18
1.88506917757093611e-07
1.08708892121591196e-06
3.24154260413253035e-06
4.17066581700946446e-06
1.95733818555895853e-06
1.93086911996776851e-06
1.85170306843221794e-06
1.99090042130755005e-06
2.47550169621564322e-06
3.21876097284764438e-06
4.13316403345131774e-06
5.33672517835000475e-06
6.37136656618897871e-06
7.46965464771285207e-06
9.62819697576319461e-06
1.09701166935758652e-05
1.14534895363470792e-05
1.25435141532944094e-05
1.3324230266709029e-05
1.4883497179437766e-05
1.5574908293025699e-05
1.46910962403212158e-05
1.1295802441372289e-05
7.07409432705650983e-06
3.64565854723323239e-06
1.41655343039266411e-06
4.30365320533174549e-07
1.01010961932647869e-07
1.8443572384973565e-08
2.94955968417092891e-09
4.10680739644110464e-10
5.99013317945168469e-11
1.22650024758605972e-11
1.22660206520536389e-12
7.18619059164545374e-14
3.09697480210539741e-15
8.82819826664383134e-17
1.30151446374241014e-18
1.3083966009358148e-07
5.49434148007946204e-07
1.85878873087384375e-06
3.05405576491872429e-06
1.36136936494182106e-06
9.84718421247860351e-07
1.02389566287771289e-06
1.15063345016537561e-06
1.42307358402017196e-06
1.75008244577449277e-06
2.15043747803904058e-06
2.41891210460713681e-06
2.57706002791913389e-06
2.98172940931513017e-06
3.84459170802939246e-06
4.43223002175767103e-06
4.71545011724652152e-06
5.02101513559554318e-06
5.26054608306459754e-06
6.02699261441861782e-06
6.49577861877528912e-06
6.23156964751709528e-06
4.85628568045159321e-06
3.0556472445096651e-06
1.52757766604116546e-06
6.21397231974080167e-07
1.83908386907936236e-07
4.21723714769869748e-08
8.00571145130573324e-09
1.30487859508616078e-09
1.89470787419880512e-10
4.22335021961104269e-11
6.82061089234227296e-12
5.61363118862729234e-13
3.33116566698745005e-14
1.46069160974690954e-15
4.24554505719455265e-17
6.15672716452384938e-19
1.23252970725991141e-07
9.84034656124511891e-07
2.00813756587411141e-06
1.92546003433025148e-06
7.22247508855958357e-07
6.10857765241332972e-07
6.43007673136423988e-07
6.61899934593834831e-07
7.2303873243955642e-07
8.23837989321330321e-07
9.36271184471951418e-07
1.01503329456464009e-06
1.07429863117991005e-06
1.23405098547638567e-06
1.56866910706058718e-06
1.817093700248375e-06
1.97948422745012169e-06
2.04475847726327429e-06
2.11451403320197693e-06
2.43775461542103169e-06
2.65680599672009983e-06
2.58247698334220077e-06
2.02589917641718059e-06
1.27412728718124112e-06
6.34285116128500525e-07
2.51423360963588833e-07
7.75773687672018442e-08
1.77663858116436083e-08
3.37057956055774293e-09
5.75248299694950296e-10
1.19749043724321993e-10
2.63040432762825768e-11
3.1046810598359928e-12
2.43060697190550597e-13
1.46034798320563478e-14
6.49655758236258146e-16
1.92012908630104052e-17
2.83357381719871157e-19
1.22905072006251365e-07
1.16296944827448129e-06
1.31170490288518106e-06
1.09241013197093769e-06
4.77389562838091258e-07
4.32367668337812209e-07
3.97810985922759188e-07
3.93681732358027908e-07
4.07869808031010409e-07
4.34542963336112653e-07
4.60680457784301088e-07
4.78429771239529105e-07
4.97682830693515309e-07
5.4648214738225423e-07
6.54112628717859023e-07
7.59283817837709162e-07
8.36013464809359938e-07
8.47190769104196793e-07
8.59934266949390435e-07
9.86618403192287021e-07
1.07597438896456788e-06
1.04908355297910941e-06
8.22306356646681517e-07
5.14779970453634005e-07
2.54663415951907146e-07
1.00306744188368068e-07
3.06106137502153751e-08
7.10623691054955662e-09
1.4023023008914508e-09
2.87488719145150602e-10
7.33291048391891232e-11
1.2486775613417196e-11
1.28643272262195102e-12
1.00231566866956773e-13
6.08865090978467083e-15
2.7426249545890207e-16
8.22668421703762262e-18
1.2358143447299662e-19
1.15488421407934376e-07
1.09856048447474563e-06
9.45756041406240818e-07
7.65697821760035852e-07
3.45510978980724421e-07
2.98227593783868425e-07
2.63374346189285815e-07
2.43549902244786694e-07
2.34473845745190238e-07
2.34241831168582092e-07
2.35189580392449094e-07
2.36146842046230833e-07
2.36771133653327261e-07
2.56248507504577122e-07
2.9059349451370185e-07
3.29678094544022414e-07
3.52201137921278653e-07
3.50660958129576108e-07
3.51367636565319374e-07
3.97977642409387954e-07
4.30739100665141749e-07
4.17907131464733027e-07
9.5984528045620325e-08
1.19806940922933386e-06
8.4882843350050059e-07
4.43371865323668304e-07
2.67323099361197513e-07
2.10131742709906025e-07
1.82700306987532671e-07
1.66860738004704398e-07
1.48423019069613556e-07
1.32989617926498894e-07
1.22057059715990539e-07
1.16404081164680613e-07
1.14812168322013256e-07
1.19999820240294695e-07
1.31192977884382757e-07
1.42717508618081275e-07
1.47545813641598499e-07
1.44304745943280344e-07
1.43326362192182656e-07
1.59419025403436305e-07
1.70215491452018603e-07
1.63310381789185471e-07
1.0499796611519985e-07
8.08111673679137605e-07
7.18915087355806566e-07
2.93385561519416961e-07
1.93081731684042697e-07
1.60232554992735319e-07
1.42882471280289962e-07
1.22824597752681534e-07
1.00421122283221231e-07
8.23292907172008773e-08
6.93444627888386046e-08
6.10041125890825669e-08
5.69418248843654924e-08
5.65465500530553832e-08
5.8612331974296278e-08
6.11639202797172307e-08
6.12803806805678705e-08
5.88103739546387407e-08
5.80219395120121123e-08
6.31310154083470262e-08
6.61994290660362673e-08
6.24869790434620932e-08
1.08710713833656528e-07
4.93467862572653364e-07
5.75422094469683501e-07
2.18618303115945463e-07
1.43683728003346439e-07
1.299262918916441e-07
1.1338367299166502e-07
8.97958924591659968e-08
6.80779834313704415e-08
5.17258775121395787e-08
4.02720376298764968e-08
3.28795227893868896e-08
2.85948297612093397e-08
2.66289719754446645e-08
2.61814856493116614e-08
2.60192557294909675e-08
2.52079243623903497e-08
2.36921651589149359e-08
2.31777818450570581e-08
2.46218726565427045e-08
2.52585942215795418e-08
2.33645904286711119e-08
3.2142806367697687e-08
2.30802210094976612e-08
1.74630743650654524e-08
1.43784964204629768e-08
1.26046658691843992e-08
1.16372770366501752e-08
1.10281177824942897e-08
1.03128371496812125e-08
9.497152559388014e-09
9.14253447043043886e-09
1.01143562944947853e-08
7.12412590544087832e-09
5.92325190940806647e-09
5.21536937911161348e-09
4.7222273673038414e-09
4.27614958466814969e-09
3.89398615814651693e-09
3.60613180037617278e-09
2.64107558810041875e-09
2.22597194965667426e-09
1.78635265573970262e-09
1.4275263976011353e-09
8.5902002814501455e-07
-1.32659644240145201e-05
-7.94174622623447648e-05
-1.61672169855469987e-05
0.000148648235777149707
0.00031471314506327058
0.000455019939900920957
0.000519242529275424866
0.000578154503900344297
0.000764578549297270779
0.000990286476121160454
0.00111363696748215612
0.00125191582851570714
0.00145961997681329941
0.001559993394145095
0.00152303887750310598
0.00145533230358313817
0.00119593615838764771
0.00084877131612286509
0.000594462172819783252
0.000363841813032000395
0.000180026256089868862
9.91794661190698761e-05
4.64255823191555387e-05
1.82707439982357064e-05
5.99457733878720438e-06
1.63328052515858878e-06
3.38576083044352005e-07
5.76035312214901857e-08
8.21392696195175301e-09
9.76635378154196865e-10
9.81410535365127221e-11
9.08990514233488038e-12
1.38643953833566228e-12
8.94634212764293196e-14
3.18013335130562086e-15
7.55877766077431131e-17
1.28107957640162419e-18
3.646588253684856e-07
2.5933964164141531e-06
7.14580136351879436e-06
8.02817838588199608e-05
0.000142477064871581073
0.000196912547965377244
0.000250949992242512098
0.000313669892760460808
0.000356823342484795442
0.000364705438075455467
0.000370278390494938937
0.000378231078899361414
0.000387486301536451769
0.000391324533525571347
0.000407715981676967968
0.000473224527423753009
0.000527449866362335101
0.000556027834927346289
0.000544068978445649571
0.000466148065513884841
0.000371764256561341738
0.000269785506251415388
0.000159508534176417771
5.81406729957246351e-05
1.62146919177319493e-05
5.72942487700988072e-06
1.64268297443666775e-06
3.54344028079014551e-07
6.12814551467362298e-08
8.86036965763314739e-09
1.06766651483491127e-09
1.07867318009563837e-10
9.61878818248510305e-12
1.53117282779799239e-12
1.02888625615579017e-13
3.71232829418300874e-15
8.97545160204548669e-17
1.60951194790367291e-18
1.86044062278603941e-07
7.20033265697159104e-07
3.85840622758379799e-06
3.8963279339199903e-06
3.18221557250261236e-06
4.86559700789079776e-06
8.1512509510430613e-06
1.28649560616761612e-05
1.48424713333518861e-05
2.10963055689611518e-05
3.43643662964137516e-05
4.82269073708850005e-05
5.28945057828070198e-05
6.19177446302034823e-05
6.44113519928308283e-05
7.35464975424886985e-05
8.43038554829244452e-05
9.12559360695851458e-05
0.0001085873536005059
0.000134801471492382259
0.000143499091928000452
0.000121719964536024203
8.89325329140019981e-05
5.39337373054082556e-05
1.94609057998592995e-05
5.57473831438361448e-06
1.28787691870510189e-06
2.19661886077726055e-07
3.83474592052984095e-08
5.59126646847433118e-09
6.78794370237081459e-10
7.41653285819220959e-11
1.13016751412683768e-11
1.37669915376157869e-12
7.77689617660623932e-14
2.98901544667436736e-15
7.62200303461119861e-17
1.06232685038922523e-18
1.20778940601210083e-07
8.13341594676884689e-07
2.63191530946186092e-06
3.47048033798141874e-06
3.73328096564824595e-06
3.7073663209651001e-06
3.63308095154911582e-06
4.28479749360674002e-06
5.95186077099839384e-06
8.23681739631680436e-06
1.05785415855091998e-05
1.18288957575520369e-05
1.26672241725408505e-05
1.49147209193166259e-05
1.80966792527040788e-05
2.15424967337428275e-05
2.36216978213824819e-05
2.89392794291887129e-05
3.30735308101141859e-05
3.50881026916892587e-05
3.29390786598093155e-05
2.69735926647536595e-05
1.84917949631325363e-05
1.46621958490549839e-05
9.32811396353398274e-06
3.36193025874553576e-06
7.13746922874797417e-07
1.17963757958208869e-07
2.04789432609076637e-08
3.01110793596098241e-09
3.68375545960384795e-10
4.17390646223644296e-11
8.24180065625661265e-12
8.38413173107017337e-13
4.45620720127529597e-14
1.75081811082698938e-15
4.54601017435986965e-17
6.00342573674349747e-19
7.91814844469206109e-08
8.40665641368619037e-07
1.71068506949391585e-06
1.79285014097881115e-06
1.76425773505910415e-06
1.58476191362868296e-06
1.53832770816503451e-06
1.55842104624065867e-06
2.01609965750843701e-06
2.82918537860001406e-06
3.61691344997815706e-06
4.18538483180815701e-06
4.70045977199559152e-06
5.70976940932347875e-06
7.177228806879156e-06
8.59891524751621819e-06
1.00738760556417497e-05
1.10342051403831077e-05
1.27029174865823556e-05
1.37892656040988864e-05
1.36381288106724392e-05
1.18394821530772492e-05
8.36801903386745076e-06
4.82321142696509874e-06
2.22388774679929948e-06
1.01058845206861448e-06
3.01147655727670636e-07
5.84007466989341595e-08
9.95812025276194285e-09
1.47382122786353422e-09
1.96286387806589441e-10
3.28167924040706456e-11
5.38900047595914988e-12
4.38010493557052247e-13
2.36636494837790567e-14
9.48948385929873995e-16
2.51527920693354702e-17
3.31475992797829546e-19
2.39608825603966744e-08
7.46017152387705507e-07
1.16993670024046265e-06
8.97542858892345206e-07
8.83988825130310132e-07
6.95961851166556943e-07
5.46768089249309929e-07
5.24111066552317682e-07
7.34247696082741468e-07
1.0143288381911463e-06
1.28865808723377362e-06
1.48260090267362253e-06
1.65797719022099778e-06
2.02432440614618778e-06
2.56600469506633905e-06
3.1639203505329504e-06
3.90582983137893655e-06
4.32409655366533963e-06
4.74117975285263507e-06
5.28703976951270661e-06
5.48386334012019876e-06
4.98472317230520343e-06
3.6170015327759672e-06
2.11362949932683988e-06
9.80112559931098715e-07
3.7377385568734786e-07
1.16484435391831978e-07
2.65110290884080689e-08
4.52163337353767544e-09
6.96688250227249738e-10
1.02493338407540231e-10
2.27035879053498647e-11
2.94379718156208845e-12
2.12945650394536202e-13
1.17456687375909932e-14
4.79820117647753306e-16
1.2988728210846696e-17
1.74760482737368464e-19
3.66944303873616753e-08
4.59251808717025387e-07
7.36456764580612001e-07
5.23891885419283185e-07
4.65520223293138956e-07
2.80354584958266159e-07
2.30843302942537747e-07
2.77429223343454341e-07
3.56820145866357089e-07
4.46420651235017684e-07
5.34622333062442155e-07
6.02923920885037973e-07
6.64814391088111307e-07
7.88341816806267158e-07
1.0072769336646038e-06
1.20547813624145567e-06
1.45001187104585821e-06
1.60683836170476883e-06
1.75476899596631741e-06
2.02112245516501752e-06
2.16685735396859631e-06
2.03467587309597203e-06
1.50740889195970603e-06
8.88299309347625354e-07
4.13101382397366975e-07
1.54423012352825721e-07
4.69645921408842303e-08
1.11900405750218365e-08
2.01379660829368626e-09
3.19089848613133822e-10
6.98133319813205687e-11
1.33923334014305908e-11
1.35159504582537817e-12
9.73240264352726751e-14
5.45410251274434726e-15
2.264385642207134e-16
6.24566750166144997e-18
8.61270307113788335e-20
2.77555130562567395e-08
4.54949740302697802e-07
4.56678461469452618e-07
3.10205244981603271e-07
2.29954278280673921e-07
1.41280789170688371e-07
1.28780675192933015e-07
1.39293333185924412e-07
1.55225245059688139e-07
1.84337792017577263e-07
2.14501821509693086e-07
2.37941448720407011e-07
2.59796935501691245e-07
3.15455446346016921e-07
4.10119235930611171e-07
4.81969261379756515e-07
5.60796039495400478e-07
6.06849022226996582e-07
6.59480903231555905e-07
7.73006663006297984e-07
8.4582044196055013e-07
8.10881204804184349e-07
6.09006628167010461e-07
3.60216760672441489e-07
1.67552819689488839e-07
6.33518312388567063e-08
1.91293282514042632e-08
4.60785739198089988e-09
8.68930028262946094e-10
1.8022990924292206e-10
4.31878257049822156e-11
6.23079728297417187e-12
5.79852605867236195e-13
4.20912149698492591e-14
2.39051643240788894e-15
1.00690245890779474e-16
2.82437473708406415e-18
3.98212336688499926e-20
4.41218154698742959e-08
3.95372398820498677e-07
3.16583192745032583e-07
1.93290409654713065e-07
1.21126495415457661e-07
7.79505088111451106e-08
6.77309959519370724e-08
6.4174411305588495e-08
6.8656618935436553e-08
7.82651493729836436e-08
8.81444412910002039e-08
9.65175291144111786e-08
1.05572264251865504e-07
1.2374095572589709e-07
1.592008804401691e-07
1.94311540814550635e-07
2.2223776837714228e-07
2.35198914976796456e-07
2.51216974375907799e-07
2.95853229350515527e-07
3.26755937892167496e-07
3.16628976774389537e-07
2.39392223169487685e-07
1.41522194389728413e-07
6.56682003016781166e-08
2.42243432802094302e-08
7.40529936491613218e-09
1.85867088677356671e-09
3.94907768308501185e-10
1.04996955181436218e-10
2.12034936540282281e-11
2.58255521686462528e-12
2.36304577854029717e-13
1.73246646369449359e-14
9.95448573013557417e-16
4.24757695120490079e-17
1.20954713269837928e-18
1.73841384398818878e-20
5.9743037518130778e-08
3.33101349734348033e-07
2.00838285169577548e-07
1.25350815978061148e-07
7.00354767174011301e-08
4.47849512543134314e-08
3.68332724524824564e-08
3.68511724027002341e-08
3.80857093884107871e-08
4.01987089594294691e-08
4.25287313787466598e-08
4.4644355780307758e-08
4.7289551289456762e-08
5.41551218833382482e-08
6.5656539484832142e-08
7.9288552479510201e-08
8.85924612693688467e-08
9.18121127848554328e-08
9.65673555562023165e-08
1.13097366156414362e-07
1.2491722267961685e-07
1.21317870200602872e-07
9.17591438232184147e-08
6.50018035723644373e-08
2.49714864938658717e-07
1.34623516938052136e-07
9.1184024802612434e-08
4.17243258400859119e-08
2.96572261459278864e-08
2.46429204720370077e-08
2.26405931193842084e-08
2.1456499324630933e-08
2.11230179907341204e-08
2.11989213412535881e-08
2.13527546622984996e-08
2.17304544952985876e-08
2.42989526519538175e-08
2.82787919406167017e-08
3.25601797086448194e-08
3.53243023891680596e-08
3.58740341042027129e-08
3.72341806459548022e-08
4.30696794013485773e-08
4.72053261990022477e-08
4.56262057509035389e-08
7.92756533424344167e-08
2.44697939854210389e-07
1.02951631914459277e-07
6.09509242451246942e-08
2.66504382669690597e-08
1.96551980895789155e-08
1.70755345679017269e-08
1.55712499789151608e-08
1.36787548349430315e-08
1.20801143473890463e-08
1.0942497474932147e-08
1.03723443409258005e-08
1.0327151136824753e-08
1.09254813018736681e-08
1.21133681408622298e-08
1.33809249038277419e-08
1.40655025689154181e-08
1.40069245010495036e-08
1.43417024078146413e-08
1.6272104306686207e-08
1.75948536001747959e-08
1.68146518326150435e-08
8.26658030920473688e-08
1.85501334488730263e-07
7.03480737704297649e-08
3.34012443853660708e-08
2.01092264880647096e-08
1.49480465338184315e-08
1.3317760714176718e-08
1.12732991808073936e-08
9.04660927897035344e-09
7.32639040772022895e-09
6.12743952373908386e-09
5.37244197607799823e-09
5.03133142490441336e-09
5.02002496809272811e-09
5.25502196674388934e-09
5.54594059910303322e-09
5.64096995564916485e-09
5.50981209035710713e-09
5.49542392357447296e-09
6.10370866139075203e-09
6.47011066524093669e-09
6.08071272034437421e-09
4.49568107755102238e-09
3.50580823598219055e-09
2.86971479706019378e-09
2.50749172308677314e-09
2.36099258044125045e-09
2.33244078486752159e-09
2.34173993030103679e-09
2.31280757741680756e-09
2.2442564523357901e-09
2.19966763307448072e-09
1.56163722340731041e-09
1.32055017152009398e-09
1.17534104427698273e-09
1.09252623195201297e-09
1.0417168225257351e-09
9.94435019736127601e-10
9.44252221559108778e-10
9.28780613779961041e-10
5.60613737993024712e-10
4.69036996284327271e-10
4.27985182218470301e-10
3.75476263012226195e-10
5.88356802093257588e-08
1.12512890153085561e-06
2.55607113137674997e-05
3.15358778364370406e-05
8.39322098558153106e-05
0.000147600562501651171
0.000221463847729574855
0.000288147902912232548
0.000334007794536223587
0.000352358882264647668
0.000352162454986295758
0.000338986006461466395
0.00031940553602345927
0.000297335040959474011
0.000281849314711110014
0.000256526335844563724
0.000220919199357527696
0.000184864191550472421
0.000147710915974526757
0.000112145895180978055
7.90225116533776963e-05
4.87435771157717813e-05
2.52853804215484625e-05
1.10104132441957475e-05
3.99309779901472831e-06
1.20304397866675091e-06
3.01484102641170193e-07
6.31451280310905711e-08
1.0983933613361329e-08
1.46529487488669085e-09
1.61963723413981549e-10
1.65272776540351652e-11
2.70279875068553506e-12
2.27218636175860429e-13
1.05681085580770434e-14
3.68221330417241601e-16
8.32714830242893385e-18
1.10049028475500661e-19
2.15710689118133986e-08
9.48317660701664087e-07
1.50150008897852558e-05
4.79072237377474526e-05
9.45135601483628281e-05
0.000150568123585591643
0.000216702993339420064
0.00026418839551490777
0.00029206032545513362
0.000297338360967840597
0.000292878792480473981
0.000281105839679730613
0.000272554019303712322
0.000256293797096743476
0.000241174438929085005
0.000229124318960357106
0.000214740862595067634
0.000190841728550561728
0.000151354811406283717
0.000110860269038949545
7.41669369456156508e-05
4.22850341384858674e-05
1.88411278506911526e-05
9.15940079559760583e-06
3.6386033795443172e-06
1.17203575968812785e-06
3.07509069727807385e-07
6.63615304965259339e-08
1.18361565508977544e-08
1.60235144395563038e-09
1.794757278166762e-10
1.84977739968043995e-11
2.98559965029537085e-12
2.58334335486966719e-13
1.22622496973964798e-14
4.34470359374487262e-16
9.99503105427945723e-18
1.39858964340837735e-19
3.01724947934206114e-08
3.2319216231687421e-07
9.58028037943131306e-07
3.06420235004217682e-06
3.73762146302967839e-06
5.3404464804617259e-06
8.34344438782148791e-06
1.25299489964832793e-05
1.61875075439214545e-05
1.88589245879632538e-05
2.17127215872064822e-05
2.49590261973901394e-05
2.67727207937797691e-05
2.7555230506537685e-05
2.86384612336027628e-05
3.45473675415335101e-05
4.30862718884083198e-05
5.15923705234504394e-05
5.44633577832833436e-05
5.12692527439955321e-05
4.06740125826114094e-05
2.67034493112127051e-05
1.7057084023744264e-05
7.23374279114865745e-06
2.60049383492075425e-06
7.84107626454972699e-07
1.8537966950061058e-07
4.05457545092923029e-08
7.36121836032980237e-09
1.01033767313680414e-09
1.22560079832698852e-10
1.8248119751214967e-11
2.66142288606176216e-12
1.96393723611371293e-13
9.65004171608635436e-15
3.54290254716768848e-16
8.57645752388498153e-18
1.03748697008425978e-19
3.2325775834942636e-08
1.12016662096712933e-07
2.28641985595849683e-07
4.192237141238901e-07
5.19882075819607586e-07
6.47371169090032679e-07
7.41075642031966742e-07
9.96295077034042178e-07
1.32775576567472926e-06
1.75936476705286103e-06
2.32031439942640938e-06
2.90330633805328147e-06
3.44448361391110799e-06
4.25033190087050495e-06
5.31243041600825895e-06
6.62687667222841356e-06
8.41314639872938762e-06
9.82869549918652883e-06
1.04056615787110879e-05
1.01822735024116111e-05
9.25864600038745888e-06
7.36050381498294928e-06
5.74400476701744423e-06
3.32757441888526618e-06
1.52485932831616591e-06
4.27041154715638439e-07
9.58791036609680363e-08
2.11409699944395141e-08
3.88223136202497247e-09
5.49009680298558921e-10
6.9103403122727087e-11
1.35708717753159714e-11
1.69614762815710772e-12
1.11206366537474296e-13
5.59461890784420129e-15
2.08653134262294975e-16
5.13792080016502439e-18
6.21584843199736694e-20
2.8685776290547393e-08
6.89307768912885312e-08
1.80482420848289973e-07
2.69980162972062202e-07
2.91491567416938513e-07
2.94660744312164588e-07
2.90793280817540119e-07
2.82356914978313072e-07
4.08604151388683424e-07
5.8738137338610066e-07
8.05717297418594822e-07
1.02356926734985916e-06
1.23838860403306862e-06
1.49228434648203444e-06
1.95100463373347019e-06
2.49613290784098572e-06
3.01712729150524021e-06
3.40359695096874741e-06
3.70984371842564043e-06
3.87944394460315419e-06
3.75422826449325145e-06
3.15862809619417466e-06
2.1093778010489364e-06
1.13462502259367654e-06
4.98498571307772784e-07
1.789161523998989e-07
4.62921715915130445e-08
1.00461394157228928e-08
1.87606433819809512e-09
2.88547075763076286e-10
4.76413603947172497e-11
8.8364487731657929e-12
8.91087579236981369e-13
5.83134440051845371e-14
2.99257914411181555e-15
1.13617068503636023e-16
2.85446503362946534e-18
3.57084220693700667e-20
2.09902537034144042e-08
5.70321605468988881e-08
1.28045821451867533e-07
1.46060397060435361e-07
1.39689984683650056e-07
1.3362566694468739e-07
1.07692309808805085e-07
9.83594737812559778e-08
1.38411616633871646e-07
1.96026354380029589e-07
2.67172857902475665e-07
3.30964248514144021e-07
3.93570839721559544e-07
4.82534423200805648e-07
6.36083107455642908e-07
8.35716040355482208e-07
1.04375917610909827e-06
1.1880126866137306e-06
1.31543750506993414e-06
1.4505455721859977e-06
1.47532403953605977e-06
1.29936102155287424e-06
8.92995575838565269e-07
4.87601396152600272e-07
2.10104968777951644e-07
7.29970137434562721e-08
2.03986287700195041e-08
4.57766786667760694e-09
8.86525174233205176e-10
1.39241680249021291e-10
3.21659134814227903e-11
4.99075556141470177e-12
4.29169376872391293e-13
2.8589973233630459e-14
1.49245467381819739e-15
5.76814876778008032e-17
1.47999738158660891e-18
1.90433536882700709e-20
1.43589541848364476e-08
5.52977901184040184e-08
9.52664029271795786e-08
8.11520987240483517e-08
7.10485946296942186e-08
5.95403427445071254e-08
4.57550154478767341e-08
4.47276066757253267e-08
6.20405974210615472e-08
8.22420359662186595e-08
1.02343907125868765e-07
1.16049400440390248e-07
1.29460892622692779e-07
1.62617672680399155e-07
2.20292796258303757e-07
2.90543808359379883e-07
3.68390086959417569e-07
4.21234376922645791e-07
4.68430455788710046e-07
5.37150936436766315e-07
5.67220642242924357e-07
5.17286908761090181e-07
3.64000987180296056e-07
2.0072416380574475e-07
8.70063243823549232e-08
2.98388781451331539e-08
8.41324786900226209e-09
1.9799194877425074e-09
3.94407293056461222e-10
8.96158412853508865e-11
1.91582558516929265e-11
2.29576101313564436e-12
1.94030095813166754e-13
1.31209667174545964e-14
6.95248991275266121e-16
2.7310902315820199e-17
7.14192027656771425e-19
9.40671982550819681e-21
1.63808525386321542e-08
4.67860469707680373e-08
6.71034876391031092e-08
4.98390230004778502e-08
3.96407344279238825e-08
2.65696119886711472e-08
2.03302344859436746e-08
2.31113472640449908e-08
2.82137242056479282e-08
3.51161475913541583e-08
4.200399803673023e-08
4.67235501254231174e-08
5.12928910508238328e-08
6.34366108230323768e-08
8.3798889983507732e-08
1.08231783802480212e-07
1.33871868155198399e-07
1.50945432243857938e-07
1.68267209208705131e-07
1.97936526379909506e-07
2.14569669250363337e-07
2.00596690826695838e-07
1.43662996846066475e-07
7.96446388964536734e-08
3.46124132187483912e-08
1.18906421044408139e-08
3.39719475159347266e-09
8.30738862260387301e-10
2.0577088612859749e-10
5.39917411743607188e-11
9.05291045218115764e-12
9.7732307008833206e-13
8.30066232374106683e-14
5.68647620510198389e-15
3.05382355274647263e-16
1.2175692002059386e-17
3.23922947263585282e-19
4.35245510502793834e-21
1.93575522166735159e-08
4.44794857429086394e-08
4.88766762744239817e-08
2.99516336929127163e-08
2.16749685468025197e-08
1.24008041034403683e-08
1.05032373477253495e-08
1.11677393500773446e-08
1.23823767908570492e-08