/*--------------------------------*- C++ -*----------------------------------*\
| =========                 |                                                 |
| \\      /  F ield         | OpenFOAM: The Open Source CFD Toolbox           |
|  \\    /   O peration     | Version:  2206                                  |
|   \\  /    A nd           | Website:  www.openfoam.com                      |
|    \\/     M anipulation  |                                                 |
\*---------------------------------------------------------------------------*/
FoamFile
{
    version     2.0;
    format      ascii;
    arch        "LSB;label=32;scalar=64";
    class       volScalarField;
    location    "0.149999999999999994";
    object      p;
}
// * * * * * * * * * * * * * * * * * * * * * * * * * * * * * * * * * * * * * //

dimensions      [1 -1 -2 0 0 0 0];

internalField   nonuniform List<scalar> 
7236
(
-1.23915981154873101
-1.05982060576448167
-1.01938361394984933
-0.98456042104441488
-0.921803511872867354
-0.654093261214994004
-0.178869184671045289
0.11718542506239582
0.212794024961721728
0.178795375023389269
0.162099406145635117
0.100017264878578871
-0.0105522888433039475
-0.116138754546775691
-0.149868620937857133
-0.140894729596016233
-0.038691694108405339
0.161965454035484124
0.417444026321677986
0.674250144401839502
0.871443321553070471
1.01240565675849492
1.08273424983482913
1.0734195575063934
1.01463922448896215
0.938857494248715674
0.864037575825904236
0.797892611999189594
0.742016200941362225
0.695342945849181437
0.656726726427705021
0.625071337988393316
0.599427804195733827
0.579049910173565885
0.563368604269847695
0.551958006792195865
0.544509743687850656
0.540829610185160847
-1.19146839343687727
-1.21642761498123941
-1.22181828120757952
-1.22434667378449324
-1.1936060069057548
-1.17324915802421259
-1.169743028102882
-1.14862958166022699
-1.11480989012682974
-1.07911586604980481
-1.04805660474015183
-1.01761251889159188
-0.982156935842259382
-0.941312355103259502
-0.879446540438056257
-0.780155109413506076
-0.61793608178248749
-0.388222235742495536
-0.110652471301474764
0.19084052194163259
0.483791259694563269
0.721414195960119575
0.859248395235937101
0.895440956357385631
0.863464567121794646
0.801030888449303702
0.732408601272364845
0.668975169367629463
0.614588287476700357
0.56903667222632337
0.531246275405467205
0.500174617696707235
0.47494390101504802
0.454856998334128793
0.43937750454930341
0.428104021571353688
0.420744559929503215
0.41710735144884814
-1.32258049998879246
-1.33935482865574684
-1.34965872472085691
-1.34951894346990531
-1.32912058786077569
-1.31043989856100018
-1.29463403527530985
-1.26961477997481542
-1.23610825819526227
-1.20052423434860023
-1.1663318788194883
-1.1288221709270605
-1.08748108091569096
-1.03863971266733524
-0.974899457249922774
-0.884316721241108161
-0.74750037170204342
-0.553953228768976347
-0.316212895628062873
-0.0568708291550259482
0.205572151859529928
0.43755585272247377
0.599089221718331788
0.67482853644498686
0.679246847139877596
0.640796068740739799
0.586135782933003169
0.530840086161640357
0.481227331239540868
0.438620069491521325
0.402728115109644624
0.372920541579192355
0.348552966232376027
0.329063406330038277
0.313995321768184843
0.302995533844935716
0.295804398701785043
0.292248100027240998
-1.47199238692435674
-1.47246876972889718
-1.479926501602014
-1.47544019036586493
-1.46139981806867292
-1.43903359515797646
-1.41451454419091949
-1.38449829046972561
-1.35039492313689302
-1.31361418598343227
-1.27523765230025088
-1.23250972564784811
-1.18500403958465639
-1.12882016887128711
-1.05710814013646237
-0.961140803868631655
-0.828856256551487647
-0.651746153819219853
-0.438336465121892505
-0.206775240340034749
0.0237426741178706213
0.228220437939880116
0.379520162048546827
0.464198363416662929
0.488020450548127871
0.470099707454383675
0.431107797222197053
0.386249484502383056
0.34317616168396603
0.304694956395365146
0.271493225259895166
0.243493708146510057
0.22036904791703632
0.20174375229053304
0.187273652719998018
0.176674608349973061
0.169731229516104698
0.166299077520730809
-1.6371361038713077
-1.62353353900090402
-1.62107882067361531
-1.60744125676820637
-1.59134924053824811
-1.56676981611671362
-1.53836096904090036
-1.50420099923108985
-1.46568917593892145
-1.42441917092496606
-1.38032668059117536
-1.3313600961676193
-1.27694469820758094
-1.21355821068952929
-1.1348050253370765
-1.03418820054724914
-0.903381521049142489
-0.738462170254180039
-0.545906723787150439
-0.339045960579167471
-0.134826945425401468
0.0461039357167939423
0.184237317004846024
0.268894667114738528
0.302318656644292694
0.298173885121543636
0.272406871820504826
0.237690030986135614
0.201628010291894477
0.167872947234927516
0.137882244215103977
0.112097835629460185
0.0905219919761626191
0.0729859206565720564
0.0592755642332587485
0.0491892516779564026
0.0425642842637760088
0.039290340466634599
-1.82597424604424008
-1.78208212000000055
-1.76638743057260106
-1.74592634488573761
-1.7247831943725449
-1.69661634703565767
-1.66295781578149104
-1.62411973427515521
-1.58129186494261376
-1.53518119443563572
-1.4851903208493924
-1.4300664207279421
-1.36878360286575473
-1.29856451457015187
-1.21403049352796022
-1.11018835145507588
-0.9817179537302827
-0.827091283768046859
-0.651839562950950691
-0.466634234889541588
-0.28541153646157541
-0.124754101907656012
0.000672117195690047353
0.0824240163976215356
0.121515222826428348
0.127492374852304469
0.112438174335365182
0.0867903758548355109
0.0575759540243074852
0.0287466631804905726
0.00225547965399097716
-0.0210397190796857148
-0.0408383025979724978
-0.0571064106434546748
-0.0699234034047222508
-0.079402482867917068
-0.0856492058798451472
-0.0887390904723969198
-2.01471190660027366
-1.93886648291922148
-1.91590494379854492
-1.88798642859445209
-1.86026989508973295
-1.8267982585821394
-1.78800997622726721
-1.74433076587698799
-1.69653677714153961
-1.64495275146234787
-1.58914838018841986
-1.52823350262911362
-1.46096453128126647
-1.38497549538815923
-1.29622848738617513
-1.19085086946802909
-1.06563258210892031
-0.920549695824981806
-0.760387811990266616
-0.593808341422788377
-0.432228371206343664
-0.288747793487840743
-0.174774275058313
-0.0968266358217647616
-0.0545136468076291569
-0.0411256189354655133
-0.0475534755986053437
-0.0653160236747046818
-0.0881529584195647198
-0.112128298757067979
-0.1350207854784502
-0.155674956558045863
-0.173544965060982825
-0.188414868168343186
-0.200235411291010634
-0.209031808474032466
-0.214851553181592436
-0.21773489693964343
-2.18791995955202667
-2.09315458541514854
-2.06666432990767523
-2.03147488212394789
-1.99673532819702526
-1.95710205144354221
-1.91266168073546794
-1.86356924643437738
-1.81038200833692242
-1.75324173347301948
-1.69185622537228131
-1.62558003928496975
-1.55327205708317306
-1.47291819871998531
-1.38147441363846379
-1.27608966563453596
-1.15497350373686314
-1.01886853708593916
-0.871943837023895996
-0.72137123021883609
-0.576484445264663359
-0.447654387212348237
-0.343746664327184592
-0.269833663391021661
-0.225895219219816923
-0.207175245517475237
-0.206765788520306026
-0.217820957884171662
-0.23489731296879357
-0.254262902493962217
-0.273599549128310415
-0.291563747291677666
-0.307424178521440217
-0.320812419169537288
-0.331564046749993846
-0.33962182782172845
-0.34497729756871387
-0.347636180746711099
-2.3516228089937754
-2.24824465345560309
-2.21667763215881353
-2.17501201142343392
-2.13307232750242548
-2.0869019510688589
-2.03635534847969879
-1.98152125024855508
-1.92272724854130317
-1.86010145845222752
-1.79353387948316145
-1.72254589960657833
-1.64614097397365811
-1.56263070933295012
-1.4697566902774597
-1.36553468239099751
-1.24904586820449426
-1.12139647508601437
-0.986225533111377284
-0.849517499873259418
-0.718885383518574561
-0.602554124895799958
-0.507431263856550241
-0.437525615864867379
-0.393025657645076021
-0.370518909781444306
-0.364737028150597165
-0.37016685934629856
-0.382145424636221143
-0.39724405335164481
-0.413167031007499519
-0.428473288982561651
-0.44230322183576376
-0.4541687543667281
-0.463807945149397383
-0.471090140432829374
-0.475955387433269261
-0.478376949594419454
-2.51353212115320535
-2.40324203196481445
-2.36602045716466947
-2.31779014415918905
-2.26872671075310972
-2.21561361276265423
-2.15859287284854728
-2.09773984920695522
-2.03332099125315402
-1.96551070696794294
-1.89430456153380433
-1.81935822792035617
-1.73980263496091592
-1.65426480114643559
-1.56107065682058499
-1.45888005242705043
-1.3473040010715629
-1.22760301610259992
-1.10294031513045176
-0.97830154031813954
-0.8598884640300688
-0.754240493466958428
-2.67206694363110975
-2.55786086687931213
-2.51454999376557709
-2.45963348073788568
-2.40305705104506551
-2.34264865573286363
-2.27891268299700966
-2.21198339746849104
-2.14211800415151377
-2.06953156634261326
-1.99431892980335546
-1.91619378587998757
-1.83441845247991164
-1.74786737993329777
-1.65528388224929879
-1.55576839481563645
-1.44923454720144207
-1.33698543940072745
-1.22173742080899772
-1.10763967995643009
-0.999744680502286709
-0.903275244197248695
-2.82676016909678918
-2.71221320776312513
-2.66311846967260735
-2.60038996882734708
-2.53562818519976485
-2.46756537917070329
-2.39698382127721787
-2.32406055184382954
-2.24906778816653885
-2.17226575161363122
-2.09374247873605235
-2.01324651503972829
-1.93012712910660911
-1.84343870532212128
-1.752205508066772
-1.65580552046641483
-1.55435619229560396
-1.44905298552600059
-1.34225100160745381
-1.23739281873688545
-1.13859955115887201
-1.05006278101227157
-2.97952059758208421
-2.86601578040891436
-2.81171480273438856
-2.73974151498331597
-2.6660534008580492
-2.58999682781413432
-2.51253984583351819
-2.43387104153966094
-2.3542238477360562
-2.27383660403821164
-2.19274452093690631
-2.11067446252691315
-2.02701370854986074
-1.94092930610019843
-1.85162348274871147
-1.7586452328109532
-1.66219944292248401
-1.56336366022298323
-1.4641530744396507
-1.36742607699658314
-1.27655365053172054
-1.19491386677359523
-2.37439193883919009
-2.29148466714864529
-2.20860269781321472
-2.12511860060001512
-2.04025289980309488
-1.95331146460024563
-1.86394012199251446
-1.77236344186636385
-1.67953265637626825
-1.58715978606342678
-2.3071387697297947
-2.2244575919320666
-2.14130563123773454
-2.05704629281838436
-1.97137441337551667
-1.88449434267100369
-1.79723011408576228
-1.71103041305658032
-2.24392661608647126
-2.16257644032376328
-2.08063181344902937
-1.9982576977115889
-1.10211413028118566
-1.1048274962470328
-1.10145716769576296
-1.04668344593400975
-0.988357612106785632
-0.944324509379670163
-0.903531721979977331
-0.864011356826850374
-0.825434563421732603
-0.785381841870698483
-0.736006991687313983
-0.685288924135038613
-0.628776860075175636
-0.557163779558652705
-0.463761962672954664
-0.340021367452063239
-0.171578620698790124
0.0293958815843416987
0.240151131724753636
0.450124901316758308
0.633550980908296868
0.760721486166328176
0.824777435934194614
0.839191053272711152
0.822602847043179097
0.789364629261648187
0.749871803449929319
0.710640203728544195
0.674572693622692121
0.642716043365927692
0.615237364848503332
0.591954588061008868
0.572604447099771985
0.556918346394066122
0.544657750492888559
0.535631886398039492
0.529692306499907506
0.526742250441758375
-1.20878421320792584
-1.2176079791390324
-1.21871644420098812
-1.19901152386113474
-1.16672474225199752
-1.13969732364671428
-1.11752887447788107
-1.08353752426487726
-1.04134520752804383
-1.00035132573532382
-0.95833065423242525
-0.912090170238085585
-0.862051497560373137
-0.805491165337963388
-0.731970540398962033
-0.626490795361345443
-0.475979832697032479
-0.278150103345652822
-0.0505623483403662421
0.182442152871511831
0.397256423630171662
0.562392179202289899
0.657984046401280942
0.692555003629130361
0.68612765168004719
0.657807201170479083
0.620882278823352118
0.583101103954646094
0.548113811852071087
0.517083816493284609
0.490209611910284115
0.467365217750259632
0.448332085774619804
0.432874622248634267
0.420776596316487561
0.411863064637375875
0.405996949091436354
0.403081303134530278
-1.32956629274878724
-1.33703769443468445
-1.33616730880316248
-1.32321736381916288
-1.30026643923423069
-1.27793466459274963
-1.2530731181588628
-1.22003449351322302
-1.17970199148592814
-1.13715970137296085
-1.09259212878171175
-1.04337051868797648
-0.988554420939474654
-0.925627259309968142
-0.849873762781558684
-0.751269467003838898
-0.616518799017923946
-0.44198944097906212
-0.238626501809747399
-0.0259669609299273962
0.177707257729063151
0.348322221937054921
0.463039541679198585
0.519355287255537812
0.529626015799986583
0.512193835396678843
0.482329988823501754
0.449169740001123197
0.417192750777955645
0.388157622880518083
0.36263969208816188
0.340739391765037092
0.32237141550506454
0.307384468031279667
0.295617192393656081
0.286927222850607289
0.281199917816896183
0.278351174005394775
-1.46617669547813834
-1.4650688932254452
-1.46138172258158905
-1.44871111941471153
-1.42793625144476755
-1.40279248130510914
-1.37300254527774168
-1.33697662918977622
-1.29533967358304736
-1.25017734010337911
-1.20234320973424458
-1.15003978274645857
-1.09160536141600573
-1.02457025736781615
-0.94470332145100111
-0.845440897972794314
-0.717308281898713429
-0.557677915330424323
-0.37480467914868959
-0.183870249336775149
0.000558630284314021175
0.159644881213043488
0.274728959363178538
0.340421283582876433
0.363795926986500984
0.358252198491331109
0.337338208393068384
0.310399185700696412
0.282588560491720542
0.256358657218327901
0.232768488045458133
0.21221947087886861
0.194810713559822268
0.180507045742566596
0.169221847773679657
0.160859826564720032
0.155337411338891562
0.152592503303535465
-1.60972199569149499
-1.60087828544965793
-1.59299152959884815
-1.57803459569288851
-1.55625377566466128
-1.52833826561975727
-1.49487227901737185
-1.45546525097308899
-1.41102856599625071
-1.36278377261563577
-1.31107197525045249
-1.25480553511972692
-1.19252794709082277
-1.12174180206901752
-1.03855627024417885
-0.937983510706682511
-0.814232480763567912
-0.665878522892625724
-0.49911351710072277
-0.325547569023278138
-0.158385169655179625
-0.0129890448026607208
0.0969593817517288015
0.165679661052176352
0.197045904532425098
0.201074777579540065
0.188633860082421334
0.168182557916341624
0.145033796891078537
0.122096641142098061
0.100840117371658877
0.0819601563074984218
0.0657532178181603477
0.0523145733004017899
0.0416439399686602263
0.0337025713737271193
0.0284440949671964649
0.0258317422123597318
-1.7593881143877752
-1.74177772165649891
-1.72947046832614637
-1.71099206044598295
-1.68623392823733642
-1.65488403762224512
-1.61758318290534975
-1.57464038033570941
-1.52692668418010724
-1.47527679874901629
-1.41977124580415826
-1.3595998478756437
-1.29351384613563791
-1.21930088912156753
-1.13358269264885347
-1.03252912843472622
-0.912610744245786032
-0.773567371784063096
-0.620503633038219093
-0.462554099762254201
-0.310837336219164928
-0.177817041616674887
-0.0741682561650456318
-0.00503869859170047452
0.0315774324433375497
0.0430023800563846814
0.0379024115354152924
0.0236080091365098443
0.00520303802141142135
-0.0142102725120003548
-0.032879563303515269
-0.0498631678198463435
-0.0646808512627575771
-0.0771071627668599158
-0.087052311977195207
-0.0944940365082058698
-0.0994382790880685707
-0.101896532362748093
-1.91189762941515351
-1.8857839397304339
-1.86930061495558819
-1.84645463711332258
-1.81765788390988714
-1.78220673264183693
-1.74077373881930164
-1.693961217125314
-1.6425846598402507
-1.58726269539793297
-1.52800439021650081
-1.46415077349011336
-1.39457184915685439
-1.31737653867609938
-1.22985133761733167
-1.12915034278503534
-1.01314638516330024
-0.882361862615569592
-0.74114356628798217
-0.596900469099394981
-0.458797266412937554
-0.336915238450057497
-0.239791763717261408
-0.171779886872197696
-0.131886511874334422
-0.11480756472734277
-0.113734492968499579
-0.122452247659713298
-0.136290687531080534
-0.152147017440451782
-0.168110304167203073
-0.183058195518767564
-0.196355977029643913
-0.207659358055838683
-0.21679175977882581
-0.223669892915883017
-0.228258510314501617
-0.230543628149474156
-2.06352159529348445
-2.03162273314638409
-2.01127761645907821
-1.98365480792402082
-1.95008797872003159
-1.90990506736617682
-1.86393246925465617
-1.81291393356744557
-1.75759861967228614
-1.69846740712738953
-1.63552462689581968
-1.56824532973558339
-1.49563323690753092
-1.41609618832072637
-1.32751198948797899
-1.22784159724430086
-1.11591165814009852
-0.992659270117720594
-0.861827194942651365
-0.729540966572838068
-0.603387758036387778
-0.491520211788880834
-0.400739197211342102
-0.33467169204100522
-0.292919533302066659
-0.271639459710029896
-0.265504207588006413
-0.269323702561982015
-0.278924054584813397
-0.29133042845608137
-0.304577588210661832
-0.317428063221456003
-0.329128765911023802
-0.339234781984021461
-0.34749124406921128
-0.353757407935197721
-0.357958234148047505
-0.360054797307128083
-2.21424304999331101
-2.17887117748023318
-2.15459563065919335
-2.12187000611944043
-2.08295280056335486
-2.03751957680016726
-1.98663949315376831
-1.93113531284149409
-1.87170103410570676
-1.80875245521384231
-1.74230807812058952
-1.67194631542265704
-1.59681440741840319
-1.51559629100571547
-1.42666420422201234
-1.32859834686456435
-1.22084979817992423
-1.10456005391028889
-0.982979056762456116
-0.861217604932594916
-0.745551938687043503
-0.64258475070643839
-0.557751153939398447
-0.49405600041084774
-0.451441847468977087
-0.427110241600938911
-0.416895895943179773
-0.416502504703108012
-0.422268126723344017
-0.431422755433473415
-0.442025190101093091
-0.452780630146516816
-0.462854309666011932
-0.471722077832976039
-0.479062543924482553
-0.484683678607030988
-0.488473791988533579
-0.490370499791888959
-2.36594314197943101
-2.32748627327295843
-2.29891429142183501
-2.26063771368841637
-2.2157996636584496
-2.16464336327852536
-2.10851741200755782
-2.04831430674631543
-1.98469473129897001
-1.91803193460868737
-1.84836311591554203
-1.77534336839987139
-1.69824508978094735
-1.61599065242175954
-1.52734389035029317
-1.43134556792623013
-1.32784025217638169
-1.21804202408464657
-1.10478262699243701
-0.992341040230355298
-0.88589886565695708
-0.790812947466978611
-0.711460003501011795
-2.51903311916358597
-2.47762488392713287
-2.44416413707591307
-2.399625551374446
-2.34822806019069841
-2.29089324624969404
-2.2292429942541121
-2.16422147427177958
-2.09645658623708186
-2.02628669977899234
-1.95374978392565124
-1.87854509817191229
-1.80004259387579624
-1.71735541377010392
-1.62954178400714111
-1.53596874580390219
-1.4367220030204193
-1.33300089721716764
-1.22726633001603203
-1.12310701396389412
-1.02480106758207912
-0.936704801121064801
-2.67440751491917394
-2.62975946913931047
-2.59047160631218132
-2.53859978000680275
-2.47988967710438768
-2.41592484968210686
-2.34853806857655822
-2.27867972228932203
-2.2069206739834053
-2.13354426746901016
-2.05855546068322592
-1.98166518901383681
-1.90230742350543824
-1.81973493093253458
-1.73321637795812666
-1.64233733360113043
-1.54731998666939585
-1.44929384942305761
-1.35038863409791809
-1.25361601617880836
-1.16251174639242039
-1.08062885719262147
-2.83518597479854417
-2.78489397060200794
-2.73808631888729748
-2.67736133757865513
-2.61046677684219741
-2.53943074708360372
-2.46617381142775827
-2.39156594865444916
-2.31606279393312597
-2.23985416320994624
-2.16287270350099536
-2.08480522237595167
-2.00511397700451699
-1.92314262764983779
-1.83830031313977793
-1.75030956962231454
-1.65945391648988205
-1.56676537120355075
-1.47407717138755334
-1.38391721437644666
-1.29921269552123486
-1.22286877517015879
-2.3452749940355786
-2.26678835315500704
-2.18804741061186503
-2.10850764259157941
-2.02756100581583887
-1.94470199647557918
-1.85973069549011982
-1.77294196283795968
-1.68525575198726929
-1.59824303390461098
-2.29146326443796911
-2.21251820659836884
-2.13295747839352767
-2.05232221486847033
-1.97044892369570435
-1.88761157979009386
-1.8046137678713503
-1.72279598451201932
-2.23925241620805515
-2.16102908230736102
-2.08229366803164728
-2.0032824770181521
-1.06644321209254311
-1.06308702025683455
-1.048846947551203
-1.02925794654342084
-1.0018628741143063
-0.964511310230764529
-0.91947823787697458
-0.866914039768798883
-0.805389001524056347
-0.740999521115967896
-0.678094940714619399
-0.615723603806164976
-0.549676510550348718
-0.477754743633119705
-0.395009185950952246
-0.293761751209613786
-0.167569250834636335
-0.0175959371741930062
0.144002773852044408
0.303814412443613735
0.447746257326693931
0.558960215366600344
0.630183354926113104
0.666963893558540577
0.678078702031923775
0.671982117941938073
0.656410419249415011
0.636818450991055274
0.616239063261229125
0.59642357415226499
0.578240051302274294
0.562106183615879385
0.548219080546794801
0.536656443176105946
0.527433494156667959
0.520540716754868793
0.515957408527955796
0.51366549078779955
-1.18793701135306073
-1.18650253797914185
-1.1795922817924458
-1.16359191722508415
-1.14102458821043284
-1.11349471729411875
-1.07931920148938687
-1.03589995725562911
-0.983723925026698254
-0.927209862924383121
-0.868461461083968267
-0.806176593739096559
-0.738708347101132312
-0.665367383002483326
-0.581618819113606467
-0.478872435592608059
-0.350036258720783255
-0.196765464536341445
-0.0297121669575093617
0.136705624136159221
0.288299151838451839
0.409166381932562828
0.489491345231892527
0.532514721014091696
0.547212381575318263
0.543268354884570925
0.529073555524737005
0.510404675010024178
0.490573004759944142
0.471335639464498635
0.453586690801519477
0.437776766518305382
0.424129706376340287
0.412744462331093076
0.403650446049532208
0.39684834077304737
0.392324768257941714
0.390060516733288121
-1.3119162404639908
-1.31169565664136956
-1.30632205159192782
-1.29242115613145025
-1.27112066322472606
-1.24486400076958104
-1.21275985651671903
-1.17204291532507066
-1.12313314084132321
-1.06905813791557991
-1.01156523341412163
-0.949531390056320146
-0.882092369857639946
-0.807992515444795001
-0.723791571799870859
-0.622757376938816387
-0.498503263214663539
-0.351972335142900605
-0.191234560719792779
-0.0292042604789166105
0.121146285010822918
0.245618818706087261
0.333406799389602049
0.384182329201594508
0.405221037714451948
0.406136099668044093
0.395557359351323023
0.379489098728543917
0.361513428976495244
0.343598433143285253
0.326800208598603537
0.31168181011702667
0.298539596486150693
0.287520865935789627
0.278689576490091351
0.272068123676952378
0.267657949768018655
0.265448203190643606
-1.44073403791734433
-1.44048477854868517
-1.43430096968191245
-1.41950388183184439
-1.39680152642964539
-1.36793614832117028
-1.33282764944287502
-1.2905114504237416
-1.24148152310449733
-1.18760341280755766
-1.13005258922777796
-1.06809666947164716
-1.00058277401658891
-0.925804056025023359
-0.840868068905423649
-0.741328134680849127
-0.622578805906576549
-0.484678268884033758
-0.334309415270097054
-0.18193991022758238
-0.0389070069453504863
0.0824083854457495213
0.172281138085460583
0.228646375381367284
0.256240604626379098
0.263160556815208668
0.257398967311120608
0.2449219631138978
0.229542353118986409
0.213497323061014987
0.198055908204486875
0.183930625348510512
0.171517941365931847
0.161032677508858246
0.152585439763149755
0.146229439213648171
0.141987009145928156
0.139863261072239342
-1.57449581499232316
-1.57293455626532186
-1.56503759315743296
-1.54852193010820383
-1.52396593552711379
-1.4925763406100474
-1.45470019351304303
-1.41025215950045624
-1.35998613595619644
-1.30514133040341296
-1.24634407190691832
-1.18317277003633237
-1.1145516874912742
-1.03876657518643278
-0.9531589317344491
-0.854347989757920034
-0.739512449317523357
-0.609126527174236876
-0.468550167984091492
-0.326285753345092799
-0.192143281379859643
-0.0765180152652270018
0.0122539618077670553
0.0715388403542676077
0.104263030998572259
0.116785996150060911
0.11599347530515236
0.107481914823234659
0.0951110371073423666
0.0813068340447378191
0.0675288689730179081
0.054640250793503542
0.0431464447416455288
0.0333392275541762872
0.0253832039224958228
0.01936851683306684
0.0153426349758561953
0.0133289506746433473
-1.71244357045282647
-1.7087290698623967
-1.69855352722364472
-1.67959153024396501
-1.65251750454243984
-1.61825643089049631
-1.57747897843220231
-1.53060020795628149
-1.47844608648908604
-1.42192284949760772
-1.36139070760608138
-1.29648710806599077
-1.226297007960234
-1.14927066644822884
-1.06315058860992728
-0.965385901936591351
-0.854254017297781387
-0.730663023314806814
-0.599037679875036089
-0.46641139250398822
-0.341088186259126069
-0.231781375096101028
-0.145523941509719701
-0.0850590266585630195
-0.0486525811810541997
-0.0314141077120861922
-0.027584437291970576
-0.0321317124437657808
-0.0413306660273815574
-0.0526801223217369108
-0.0645854208690657128
-0.0760546451778320032
-0.086478896584020859
-0.0954886171513102955
-0.102862562021354687
-0.108470673777293358
-0.112238191179180213
-0.114124088263604095
-1.85362616395708502
-1.84736920678114291
-1.83452508184743057
-1.81248810296962692
-1.7822273938777129
-1.74464648391940735
-1.70063955589155924
-1.65093763776144664
-1.59638235074916679
-1.53769048782920792
-1.47510606887659534
-1.40829811688176587
-1.33645793107169819
-1.25824271400219856
-1.17183385215503755
-1.07539647762552937
-0.967949085458209235
-0.850613890882124024
-0.727168925679916311
-0.603495258751989727
-0.486588757711649722
-0.38372753011096522
-0.300767622541216306
-0.240325129300810181
-0.201437836365546685
-0.180400725094297942
-0.172488722793978755
-0.173294558168452628
-0.179343553835396019
-0.188159097276747178
-0.198074754797856301
-0.208003481294568915
-0.217248477700295428
-0.225368546620359544
-0.232087608032870096
-0.237235605560293106
-0.240709996503329915
-0.242452176921298612
-1.99724613437513465
-1.98840481732581953
-1.97258466954650635
-1.9469084319126666
-1.91283814088043025
-1.8714388131195081
-1.82382700275819487
-1.77093844439837311
-1.7136136096571124
-1.65245617988636773
-1.5876525177286589
-1.51891306998889553
-1.44552643820500615
-1.36636007123320069
-1.27998906282730296
-1.18513236294348179
-1.08133625761315355
-0.969826233446119068
-0.853870190731237044
-0.738418281034409429
-0.629365637238648801
-0.532768707973258038
-0.453477557816061805
-0.393860924792432177
-0.353452522764111876
-0.32946827291461489
-0.318075751849062671
-0.315483365543921535
-0.318529447410360156
-0.324836676803107016
-0.332724874653824276
-0.341048780861613832
-0.349044559292992385
-0.356210258564640281
-0.362220266282604619
-0.366866865700914979
-0.370020715068868467
-0.371606062763216616
-2.14306369033886357
-2.13163801585676627
-2.11245913542718089
-2.08255206904457335
-2.04405922740727242
-1.99833214823487237
-1.94673430497901689
-1.89034409795238334
-1.82999541047468783
-1.76622120133857141
-1.69917110472725041
-1.62859208714051684
-1.55386847824247587
-1.47406368853067304
-1.38808295313884922
-1.29505928450441665
-1.19489625843851943
-1.08885259006175206
-0.979773312812613817
-0.871844700917978832
-0.77002443344753746
-0.679343952183269373
-0.603823025792612045
-0.545544342267594962
-0.504350603030640277
-0.47815646474443585
-0.46387303130674673
-0.458277239803631442
-0.458543656837498981
-0.462443474752242012
-0.468329668951594447
-0.475033395172647421
-0.481746208315679936
-0.487918849241046559
-0.493183833628008328
-0.497299955067320942
-0.500113283307104584
-0.501531990731179822
-2.29146725931584783
-2.27714995610599313
-2.25403880471282836
-2.21918977890727209
-2.17562149664734727
-2.12504644987056945
-2.06909980121537718
-2.00895725827951033
-1.94543284108043601
-1.87900082767872334
-1.80978188834329878
-1.73754639118007459
-1.66176102020408978
-1.58165657973191887
-1.4964021433423198
-1.40543582189084626
-1.30889082734863593
-1.20800372063317307
-1.10525790204882335
-1.00420320907417771
-0.909001481965001856
-0.823830337357012943
-0.752027689043742287
-2.44338797150978015
-2.42536066110710102
-2.39737922182710417
-2.35667747170153952
-2.30726890969875953
-2.25131567696469581
-2.19069373825038216
-2.12661932359145478
-2.05986020492651889
-1.99082512399655309
-1.91959539994665285
-1.84594913396280469
-1.76941367936102911
-1.68935204905654301
-1.60513314090026271
-1.51641134512059139
-1.42345788326734768
-1.32744823206421336
-1.23054771212643632
-1.13577026390844615
-1.04660737845433682
-0.966528838766598897
-2.60015613660754852
-2.5769976186801351
-2.54267823760237155
-2.49485621970374893
-2.438744019716093
-2.37688156805886264
-2.31130592989309225
-2.24319568218412346
-2.1732298476887455
-2.10172726026109258
-2.02870917260256167
-1.95393972105102298
-1.8769820996248372
-1.79729423486572593
-1.71438778507567968
-1.62806168764247294
-1.53865861997485842
-1.44726777148380359
-1.35577168090470246
-1.26672999357714344
-1.18307147343774899
-1.10768088348411542
-2.76578942582134335
-2.73323854354058238
-2.69033360877376548
-2.63361450016066279
-2.56979016578733255
-2.50149314496731945
-2.43074448617192695
-2.35857348722358529
-2.28550792465532471
-2.21174178021502277
-2.13720684853206322
-2.0616277686449469
-1.98457745635074811
-1.9055736653758284
-1.82422155329320645
-1.7404083782005586
-1.65450069069522865
-1.56748622024533457
-1.48099590063010966
-1.39720302314045286
-1.31856538493786046
-1.24748287414119474
-2.32089912937809695
-2.24515615790033785
-2.16909518536359602
-2.0922740419835022
-2.01423851815563504
-1.93464745615652545
-1.85343385848496855
-1.77095466145031688
-1.68808901125050248
-1.60624435246347019
-2.27640958666285842
-2.20012629458063458
-2.12331440197805055
-2.04565657957980518
-1.96710168748974068
-1.88797460064556466
-1.80904417528751349
-1.73151953776920831
-2.23278010775885116
-2.15720112123352337
-2.08134291903930135
-2.00548781072905813
-1.04600553124976514
-1.04307545616233388
-1.03120602347249823
-1.01056418797079917
-0.982246754781456843
-0.945437558901032649
-0.8993462082706285
-0.843841214806857143
-0.780313375793842079
-0.714337328150878248
-0.648759206548640721