/*--------------------------------*- C++ -*----------------------------------*\
| =========                 |                                                 |
| \\      /  F ield         | OpenFOAM: The Open Source CFD Toolbox           |
|  \\    /   O peration     | Version:  2206                                  |
|   \\  /    A nd           | Website:  www.openfoam.com                      |
|    \\/     M anipulation  |                                                 |
\*---------------------------------------------------------------------------*/
FoamFile
{
    version     2.0;
    format      ascii;
    arch        "LSB;label=32;scalar=64";
    class       surfaceScalarField;
    location    "0.149999999999999994";
    object      phi;
}
// * * * * * * * * * * * * * * * * * * * * * * * * * * * * * * * * * * * * * //

dimensions      [0 3 -1 0 0 0 0];

oriented        oriented;

internalField   nonuniform List<scalar> 
20390
(
0.000263736282037256705
-0.000113608845163028064
-9.81952072082560915e-05
-5.19322476827021511e-05
0.000339844217550188321
-3.14635128229092735e-05
1.48262347202079459e-05
-5.94718230895116551e-05
0.000363515603461515586
-9.00459960072667843e-06
6.66839340847610624e-05
-8.13519038306451071e-05
0.000374936844862858523
-6.60712522628249528e-06
9.30949498579438728e-05
-9.79115642988816887e-05
0.000391164553526112638
-1.37872070904598203e-05
0.000116453089234638211
-0.000118895151825715295
0.00042171861042580237
-3.90418889186369081e-05
0.00013508519693748101
-0.000126596640703603431
0.000459558130884880889
-5.97070332901134936e-05
0.000152812367209565842
-0.00013094374279575097
0.00049259851013620543
-6.51012975174269535e-05
0.000165912070655802355
-0.000133849961470739978
0.000518427578730112351
-6.42434291735343452e-05
0.00017476796314871683
-0.000136352856162522156
0.000540026796673731741
-6.1237640880595402e-05
0.000179183002428999
-0.000139544064292741532
0.000560554569958191537
-5.86506007243333305e-05
0.000181487918797818324
-0.000143364543211066669
0.00057939765323067262
-5.3235199915787105e-05
0.000181768488653490676
-0.000147376162740578724
0.000594387543081080255
-4.33448759017158601e-05
0.000180177762078172953
-0.000151822539461876507
0.000604304158032696473
-3.16170337315415729e-05
0.000177913344004130387
-0.000156212732338788869
0.000608232189785773685
-1.98854255916422267e-05
0.000176431292819576046
-0.000160473705195228418
0.000606174337078514962
-8.27969531011810925e-06
0.000175153499285354267
-0.000164815736751837259
0.000595095962837152151
5.47152094057728534e-06
0.000174248045822269728
-0.000168640935969095263
0.000568311947648661312
2.37894188476194757e-05
0.000174136817574584613
-0.000171141912694272054
0.000521985901250130607
4.36438755997059968e-05
0.000174541116548552718
-0.00017185861661188939
0.000454419191466478428
6.36898355148106236e-05
0.00017416407080257418
-0.000170287009451293241
0.000367349992718094573
8.38509990759034741e-05
0.000169974282767344949
-0.000166756137713708222
0.000276273963324733299
8.97049125494502915e-05
0.000162187385111547711
-0.000160816622120967928
0.000197861898426037743
7.92245156586809018e-05
0.00015090140961258224
-0.000151714489075838887
0.000138962529954674344
6.37480390285784921e-05
0.000133415365153437444
-0.000138264679936200526
0.00010007215224368676
4.78924462399246521e-05
0.000110558905848905252
-0.000119561413080766847
7.68138880660473335e-05
3.34197698348238516e-05
8.68330191653452686e-05
-9.69946603364900644e-05
6.29822660184345222e-05
2.2257693608831761e-05
6.60610512909384865e-05
-7.4487003639650559e-05
5.31302962382564743e-05
1.56083185383531384e-05
4.99087365118129199e-05
-5.56648364787370938e-05
4.47950640718441172e-05
1.19278618969124658e-05
3.81714165348136914e-05
-4.1763788619866885e-05
3.75571559412154118e-05
9.5251901859667231e-06
2.96636354687259974e-05
-3.19507222419472287e-05
3.12707399869086058e-05
7.81598832619856613e-06
2.33640440445347179e-05
-2.48935051412778502e-05
2.57202048787525447e-05
6.60036714052826921e-06
1.86395549283208571e-05
-1.96893465055457875e-05
2.07198854021799138e-05
5.73574222699503635e-06
1.5091703684930343e-05
-1.58271283754813906e-05
1.61294267167199636e-05
5.12094508845951499e-06
1.24495439619628068e-05
-1.29800482932211383e-05
1.18373908922872635e-05
4.68907751584278295e-06
1.05241524388003754e-05
-1.09212118316222007e-05
7.76135759496802487e-06
4.38833583636723702e-06
9.18290510673091012e-06
-9.49521878812373301e-06
3.83767185100320197e-06
4.18601784885992963e-06
8.33578107252892447e-06
-8.59811737151669551e-06
4.07651359085570087e-06
7.91070353121284214e-06
-8.14954450667765764e-06
-3.51225075903888019e-05
1.53820760184139379e-05
-9.7839873941387516e-05
3.95968184534172408e-06
-4.02012112555996939e-05
-7.11172626880803219e-06
-6.18473390177037407e-05
4.2552306930613807e-05
-2.4418714890016707e-05
-2.27327972752052012e-05
-3.16852874917770402e-05
2.96245911668841622e-05
-7.13299829760677481e-06
-5.65766318831550005e-05
-3.16832506901903029e-06
3.58336919570408067e-05
2.85271305011103316e-05
-6.0501606613331109e-05
2.77531800434624014e-05
-1.67188379713667395e-05
4.93180631074525432e-05
-6.11012763523084517e-05
4.35903031975688052e-05
-4.23256086046066581e-05
5.70658799157138763e-05
-6.68980436799536789e-05
5.20411806965144854e-05
-5.25981175541667862e-05
6.94943503675675824e-05
-7.13853720533912236e-05
5.7971381831957753e-05
-6.41122503632021604e-05
9.01309753966290998e-05
-7.16558117206675198e-05
6.17767513148346592e-05
-7.4999398274936893e-05
0.000116241715997336616
-6.78716088775570579e-05
6.48905382215241629e-05
-8.43689970438829914e-05
0.000143147401346009883
-6.11935242396619976e-05
6.96707958677767402e-05
-9.40360621150344216e-05
0.000170954113789569852
-5.41379606252976106e-05
7.6789994187293647e-05
-0.000103697346905700719
0.000202938853669769206
-4.64636093114923596e-05
8.55304155524602293e-05
-0.000114399941077735596
0.000237964097107897855
-3.63474748749494314e-05
9.50827074739441831e-05
-0.000125380956082612435
0.00027327076033619997
-2.48847549238088608e-05
0.000106227886412587236
-0.00013653832492292907
0.000303762879798197738
-1.04977746749931715e-05
0.000118161548147583634
-0.000146438272546650812
0.000327085794232457162
7.26459296824277551e-06
0.000129650277084407943
-0.00015476852786141653
0.000342068494046971253
3.05489055153475932e-05
0.000138935561354769577
-0.000160679584405555548
0.000347386110990482468
5.80485948207701033e-05
0.000145281010723069765
-0.000165004743610213533
0.000340799599620652746
8.74842399018178711e-05
0.000149577418407603074
-0.000166786677265076498
0.000318765716714126295
0.000119259768928008794
0.000152505312864933523
-0.000165881559272514686
0.000278238505873852073
0.000138882675718459949
0.000152464665439633242
-0.000161116496040613174
0.000222313393565797056
0.000139669266136603106
0.000147465594814684132
-0.000151986254435630826
0.000164634877370333323
0.000125430132106599501
0.000134276121955240137
-0.000138280278745913623
0.000118614459080705782
0.000100701325612873453
0.000113956463470431485
-0.000120744987906691139
8.76424361858229331e-05
7.35525207196384727e-05
9.07449166107331535e-05
-9.99052560644165779e-05
6.80957405810463893e-05
5.0552175374049416e-05
6.91311107033012345e-05
-7.78782596452561981e-05
5.52649006248167877e-05
3.48474288751691975e-05
5.18247857066390976e-05
-5.82323974363502088e-05
4.58585843227846436e-05
2.53720029808006991e-05
3.92285212791991793e-05
-4.32658273429040792e-05
3.82691024449498103e-05
1.96068474450577398e-05
3.02504059352868529e-05
-3.27422657099604624e-05
3.18312883446593073e-05
1.58630003191424214e-05
2.37246606455245585e-05
-2.53337259049138894e-05
2.61951429898606296e-05
1.33205086835762366e-05
1.88857672206483976e-05
-1.99697497836818355e-05
2.11320827250670922e-05
1.15516081427732239e-05
1.52708385038288175e-05
-1.60236828095109034e-05
1.64864329870195679e-05
1.03063989819020576e-05
1.25841414799209761e-05
-1.31239910754017282e-05
1.21429838720240434e-05
9.43480942024481342e-06
1.06268808916408737e-05
-1.10291951434977209e-05
8.00049131340406524e-06
8.84613055654936459e-06
9.26202297294701112e-06
-9.57733880046924684e-06
3.971244474039733e-06
8.4793157148404298e-06
8.39740387269103565e-06
-8.66145490334350361e-06
8.28697912194011805e-06
7.95570465127807155e-06
-8.19491990635424791e-06
-4.9049378730210351e-05
6.18566492890138561e-05
-0.000100434311219213738
0.000102988666082432602
-6.26487178570323629e-05
4.62450989620564419e-06
-6.53815954967201752e-05
6.7220813647287468e-05
-5.8460548113057023e-05
-2.10627689173877581e-05
-3.67099938205616973e-05
3.08502418250808927e-05
-5.76029718777521332e-05
-4.26197131766620942e-05
-1.4143312228268659e-05
-6.83924011516489659e-07
-5.33800271183812919e-05
-4.0196985793182984e-05
4.23811201051436359e-06
-2.87818813042070221e-05
-5.12423993557676138e-05
-4.08265846004088448e-05
1.05180796726667827e-05
-3.29300880041363792e-05
-4.82385222873324976e-05
-4.66547673568351286e-05
1.55024133955103877e-05
-3.87457304644513596e-05
-3.89644013137236143e-05
-5.11977621768713848e-05
2.13351516657630291e-05
-5.07910555669983246e-05
-2.46217871316077033e-05
-5.0453889533484374e-05
2.78092756196560495e-05
-6.33510272311985892e-05
-6.8692080658810491e-06
-4.7477206606108076e-05
3.31745327115170064e-05
-7.13231046212916051e-05
1.25556083110501925e-05
-4.19377596069290287e-05
4.00100964634147484e-05
-7.86941634955603679e-05
3.07926917826387476e-05
-3.41551915684874398e-05
4.84857243212169855e-05
-8.67099231025048213e-05
4.75195140738010757e-05
-2.61738597337449415e-05
5.64947038108250818e-05
-9.35152536540133226e-05
6.46937072272663456e-05
-1.74395980362993354e-05
6.38879927642604814e-05
-9.9972994809446853e-05
8.30440240168176685e-05
-7.50111287446208439e-06
7.15897665813543385e-05
-0.000107325749193492475
0.000101379216629081175
6.33717831494333718e-06
8.058975014433609e-05
-0.00011576121224257965
0.000116462714602887197
2.54609531607051932e-05
9.16877086964949399e-05
-0.000124968660249960919
0.000126641247919651316
5.14464636355950938e-05
0.000101839833993556058
-0.000132917085579419854
0.000134438722993188771
7.89985390572838956e-05
0.000109668461646270169
-0.000138417085712348893
0.000142873989792115632
0.000104923060205208736
0.000115388333629150769
-0.000141263926017162181
0.000151941816231438234
0.0001323633920689917
0.000121061477493069022
-0.000143234506000845205
0.000152573266197286657
0.000154576738342659898
0.000125257692909651677
-0.000141584630112574929
0.000139267168247059073
0.000163201180392130458
0.000123856329514038574
-0.000134083229876577338
0.000116944942922091451
0.000154464146495432339
0.000115346505669467985
-0.000122058919055505286
9.41162890998215474e-05
0.00012998197284329804
0.000100446830338281768
-0.000106898961129516773
7.58247637280039726e-05
9.92963058409545917e-05
8.20510330193779128e-05
-8.95030332386857703e-05
6.23784452342372329e-05
7.11255109081024669e-05
6.39882045436468021e-05
-7.11147359644962248e-05
5.22021127696082327e-05
5.04459464519023604e-05
4.89480528138884279e-05
-5.43697156647247415e-05
4.40030088624051593e-05
3.71417960741436126e-05
3.7596430120403904e-05
-4.11667005362097079e-05
3.70637141043379594e-05
2.88243805309806075e-05
2.92705175451771137e-05
-3.15484993574424575e-05
3.10089996464148654e-05
2.34184743933930191e-05
2.31031256834697272e-05
-2.46037776390714037e-05
2.5609466193437151e-05
1.97451440322203087e-05
1.84749841022818014e-05
-1.95000753265772779e-05
2.07022258533026731e-05
1.7178989268539337e-05
1.49909681132474378e-05
-1.5711140438363188e-05
1.61645051346570199e-05
1.536511204342954e-05
1.23885085979059786e-05
-1.29095374135718429e-05
1.18998065132970979e-05
1.40905680142576272e-05
1.04861104976450009e-05
-1.08771949909139533e-05
7.82948422497102217e-06
1.32247642557582957e-05
9.15718818656226078e-06
-9.46550918777690521e-06
3.88531270948143842e-06
1.26829476780749773e-05
8.31606072255729211e-06
-8.57551933619602475e-06
1.24082320918933103e-05
7.8872793185812878e-06
-8.12321295417627918e-06
-6.17133831061029498e-05
8.54158269367596903e-05
-0.000115936431830494387
0.000154081539125305519
-8.35903520971419334e-05
2.62423670205295793e-05
-6.33323277589700257e-05
6.35831055431610478e-05
-8.53352320500045053e-05
-4.99437036669954192e-06
-3.62575792297265424e-05
2.19302968645814995e-05
-8.37594289110110598e-05
-2.34817778927810678e-05
-1.88747286794894007e-05
-1.83235165208912055e-06
-8.15347427833922029e-05
-2.63223926834619493e-05
-5.50432172226042345e-06
-1.05941585946957263e-05
-7.93737816313767295e-05
-2.65918449966711078e-05
4.51088513409836165e-06
-2.09019390284551068e-05
-7.72378887418392971e-05
-2.89912315560528803e-05
1.06673800874266437e-05
-3.04571426570957785e-05
-7.3987870584995175e-05
-3.17900904725908573e-05
1.41512264911387328e-05
-3.67995811006781063e-05
-6.86147919325889817e-05
-3.28453997982239607e-05
1.78990907025778465e-05
-4.08734622703693697e-05
-6.05991644951464202e-05
-3.05840677850555403e-05
2.3277545583700482e-05
-4.81840173505587998e-05
-5.12132155426498286e-05
-2.50547731670848269e-05
2.92128297798562196e-05
-5.54837141817953242e-05
-4.06843549264316207e-05
-1.73269735205893985e-05
3.56351083299262742e-05
-6.2995981201554945e-05
-2.97655450964448295e-05
-9.03944515891759749e-06
4.15138409501347581e-05
-6.95714413603282239e-05
-1.87540794442944931e-05
6.81618471906632036e-07
4.84373638894053336e-05
-7.75737656487854451e-05
-8.11582315089853063e-06
1.11567640032750321e-05
5.4804960317856227e-05
-8.41039921637670962e-05
2.19079582234856988e-06
2.47281617569736784e-05
6.16380958033417494e-05
-9.03379409393298557e-05
1.10779161475911558e-05
4.39572882461233128e-05
6.94369301263174962e-05
-9.68224919726315674e-05
1.92681357522015933e-05
6.91448143650537182e-05
7.80166914499088649e-05
-0.000103907557022803309
2.75275326646463617e-05
9.44196639182037171e-05
8.5574187595267192e-05
-0.000109257262681123287
3.73299742526348531e-05
0.000117221654224660484
9.17145490895402305e-05
-0.000113818026985199448
5.02553867608827661e-05
0.00013931261359773455
9.74011245424809269e-05
-0.000117277863386775128
6.28597031471087779e-05
0.000157899497431943537
0.00010159434087382193
-0.000117523043240066739
7.02264881801758915e-05
0.000166969427173526417
0.000101590028185184162
-0.000112726139477174389
7.12313067846015164e-05
0.000160985467117228406
9.61794065383609741e-05
-0.00010370609768266358
6.76211918695287644e-05
0.000139660444733468207
8.56821281726610941e-05
-9.17505656049879154e-05
6.18733031570954374e-05
0.000110944908963407581
7.21108529120605574e-05
-7.80112954925361835e-05
5.52290227479902007e-05
8.32399696566383563e-05
5.80518483166448122e-05
-6.35215624978235379e-05
4.83616655981679172e-05
6.16395528796100518e-05
4.56683281278882406e-05
-4.99940910850231056e-05
4.17462384036664877e-05
4.67909568211951824e-05
3.57841833798167247e-05
-3.88175342891925034e-05
3.56293473179732984e-05
3.69850897047144334e-05
2.82060453989712719e-05
-3.02496351174710675e-05
3.00490930833340736e-05
3.03901870229701921e-05
2.24339021898602948e-05
-2.38252696945636207e-05
2.49459716893419267e-05
2.5816457317967903e-05
1.80327344798508636e-05
-1.90009220085766387e-05
2.02359858643647013e-05
2.25775788542675085e-05
1.46876637665005669e-05
-1.53762984348067299e-05
1.58373567764200607e-05
2.02664414530919352e-05
1.21732708180953325e-05
-1.26760037590516843e-05
1.16765769175796536e-05
1.86312908668968981e-05
1.03271873179822292e-05
-1.07071502674349657e-05
7.6889490050927611e-06
1.75135083898269167e-05
9.03370832321588522e-06
-9.33483001631552783e-06
3.81529291899188454e-06
1.68109551337793493e-05
8.21358244695663951e-06
-8.46792856126737231e-06
1.64553436209842439e-05
7.79545260096040339e-06
-8.02726202659451325e-06
-7.34085451864078181e-05
0.000103049779625849036
-0.00012694823921909903
0.000182703248635136421
-9.6707936349305025e-05
3.70136872348613506e-05
-6.41616461790655348e-05
7.66800544133806525e-05
-9.96567745823707875e-05
6.61705791222552288e-06
-3.68472925627406231e-05
2.81750725834331811e-05
-9.67286342629503066e-05
-8.73948414852734537e-06
-1.80878070807823037e-05
4.12083361981536628e-07
-9.38566821693959536e-05
-1.37428734806707617e-05
-4.9233606166943269e-06
-1.05274164877247209e-05
-8.96603163611899359e-05
-1.60882262036941349e-05
5.13324510393484407e-06
-1.98272577020330173e-05
-8.58807155207454886e-05
-1.98693749012644473e-05
1.08148031217687501e-05
-2.37087234049075275e-05
-8.20306104701357044e-05
-2.20100644460275832e-05
1.49040139027228518e-05
-2.85294468652664198e-05
-7.81051439871225842e-05
-2.16097033712208075e-05
1.90937351106684279e-05
-3.42528542468094422e-05
-7.40972366204868546e-05
-1.84903502576166022e-05
2.3757829390993052e-05
-3.9861333214252533e-05
-6.91088158926193922e-05
-1.2702717757614111e-05
2.87084428228465171e-05
-4.60549070790125997e-05
-6.30773727579649361e-05
-4.9110583557066204e-06
3.32961615862459242e-05
-5.17519473577316498e-05
-5.69847899881629276e-05
3.74565345012304075e-06
3.74564689497328617e-05
-5.63430183731804989e-05
-5.0604834288815765e-05
1.35320472884405637e-05
4.21540146540300611e-05
-6.13924508599305099e-05
-4.43100327847025254e-05
2.48296303515677458e-05
4.74342773779242387e-05
-6.74086353229511108e-05
-3.84254803410990822e-05
3.91433216738350308e-05
5.31190849154976249e-05
-7.34242460052872745e-05
-3.3050641443915267e-05
5.81842825572472571e-05
5.92266649247705359e-05
-7.88330026592187609e-05
-2.60330886791218727e-05
8.09860785853134955e-05
6.55337473790208107e-05
-8.43964471506129332e-05
-1.74181260183613598e-05
0.000103431151235905289
7.14834443422953189e-05
-8.91133270799609605e-05
-6.94241537953025343e-06
0.000123344516001441232
7.69690838706422033e-05
-9.35705186093114741e-05
6.27372315599280308e-06
0.000141430136098471935
8.18954420030556038e-05
-9.72313075050326725e-05
2.10524358515657841e-05
0.000156007063938347183
8.52597444161245458e-05
-9.8147526217160294e-05
3.46534087350618031e-05
0.000162925210954317724
8.54585644469555323e-05
-9.50162113238005399e-05
4.48094375092203577e-05
0.000157485560444827713
8.1627985636304544e-05
-8.82844778678921045e-05
5.01953274957713698e-05
0.000139485219229470335
7.38572878865329934e-05
-7.90679132619217281e-05
5.11653703672634445e-05
0.000114677118612312138
6.35468129564083456e-05
-6.82487369004628516e-05
4.87872705148940128e-05
8.98663830957274735e-05
5.25202383795621617e-05
-5.67680818374551163e-05
4.44101092131046142e-05
6.94791839496344994e-05
4.23431666238626746e-05
-4.58051752095410753e-05
3.9223751097478159e-05
5.45411706101068511e-05
3.38001728869396091e-05
-3.63636832010144563e-05
3.39519952354796342e-05
4.40705356874620502e-05
2.69765666766878407e-05
-2.87900626613220307e-05
2.88970865716196931e-05
3.67201364885015388e-05
2.16361588647323577e-05
-2.29111315445102272e-05
2.41374876760887372e-05
3.1480977022040376e-05
1.7495362860908734e-05
-1.84002895300855755e-05
1.96633212633214109e-05
2.77042082129779982e-05
1.43140680664961977e-05
-1.49665630363801858e-05
1.5434683148753673e-05
2.49763240808268441e-05
1.19051414482727067e-05
-1.23864149275977022e-05
1.14028373108728958e-05
2.30297829985407396e-05
1.01273181690618958e-05
-1.04939791586218821e-05
7.51792018910892157e-06
2.16907878746088843e-05
8.87715493744248219e-06
-9.16951753208219831e-06
3.72987836588898632e-06
2.08470206474109106e-05
8.08264663300969555e-06
-8.33066036855231455e-06
2.04117741666404396e-05
7.67648266759651789e-06
-7.90302200700843928e-06
-8.57560043426590146e-05
0.000101074493777408435
-0.000138884884788882765
0.000226590249586872285
-0.000106079708715139633
4.05198020092279192e-05
-6.51949364151271476e-05
8.20067788735889298e-05
-0.000107346441051296693
1.7638862537333037e-05
-3.71516299398086671e-05
2.73910217042247e-05
-0.00010352420483761133
2.58738388549760632e-06
-1.69079181853622681e-05
1.7450760714956436e-06
-9.96575764683477867e-05
-5.04063055698987823e-06
-2.76588630979989075e-06
-9.80927469190569679e-06
-9.49169704951280786e-05
-9.1695181462797661e-06
7.05483273307249399e-06
-1.87103169138875568e-05
-9.02252516584815405e-05
-1.22843621584065282e-05
1.32319788874457323e-05
-2.55011081675066207e-05
-8.57703034777007335e-05
-1.38296770753410814e-05
1.76064495396235237e-05
-3.02364407263653181e-05
-8.14417558213936668e-05
-1.30103416256372223e-05
2.16834620010402846e-05
-3.46101658098498546e-05
-7.72566947284961873e-05
-9.37699369831782029e-06
2.59422702556188516e-05
-3.92438012134618857e-05
-7.29040811475891148e-05
-2.98600303008599339e-06
3.02697531588492733e-05
-4.43460716697450207e-05
-6.82195176729824077e-05
5.25134693765408935e-06
3.40911943772540549e-05
-4.89474598650513435e-05
-6.36839150089527821e-05
1.40407321617686597e-05
3.73126422873297582e-05
-5.2152746788533964e-05
-5.9645395428504125e-05
2.3753548060507609e-05
4.07622362460707141e-05
-5.50305434625795041e-05
-5.54883098190652542e-05
3.53490117067371183e-05
4.51085864127914767e-05
-5.97919057538853164e-05
-5.12002522657107191e-05
4.97889070304011368e-05
4.98453095293043496e-05
-6.4784598221488156e-05
-4.61039381272936375e-05
6.77492574302639459e-05
5.46857519525547568e-05
-6.93516246943692253e-05
-3.93503912285713705e-05
8.79678866562917292e-05
5.94492691315981443e-05
-7.31884086804586334e-05
-3.08888095440130762e-05
0.000107655394624387392
6.39851199731600599e-05
-7.66739838077169626e-05
-2.06201243868942604e-05
0.000125123864529319405
6.82896204264039604e-05
-8.0339977393777137e-05
-8.29476794007371975e-06
0.000140342030706881461
7.20031874591289979e-05
-8.32420868055622096e-05
5.68954342437330636e-06
0.000151733232305911872
7.42304764115788465e-05
-8.39419641866671678e-05
1.98412801399647927e-05
0.00015624619761865898
7.40253603109308685e-05
-8.14985748431102443e-05
3.18980702055547268e-05
0.000150851296377749243
7.07905182763786465e-05
-7.6213123107479882e-05
3.9973043529344068e-05
0.00013569162886444973
6.46261833445607394e-05
-6.89073550716377646e-05
4.35604607702446076e-05
0.000114879166367186055
5.64655268163017596e-05
-6.02545866678122943e-05
4.33346026982204686e-05
9.34843683746830809e-05
4.75748865307297833e-05
-5.09665388610344201e-05
4.0589131303461702e-05
7.50477157795855881e-05
3.9096913205160979e-05
-4.19195523626666089e-05
3.6567477984628085e-05
6.07353368820373965e-05
3.17098794608257901e-05
-3.38821031475521775e-05
3.20934101615627263e-05
5.01408707744282486e-05
2.56127016707789424e-05
-2.7208824313114174e-05
2.75799578457863376e-05
4.23882847523117989e-05
2.07236923873017537e-05
-2.18783520996573217e-05
2.31939923793079267e-05
3.67031785176096683e-05
1.68689424842006332e-05
-1.77051985296272884e-05
1.8985647713510941e-05
3.25246173110500174e-05
1.38728036105146519e-05
-1.44849019790999462e-05
1.49534550849646945e-05
2.94652697098006832e-05
1.15853019837138514e-05
-1.20420796287014302e-05
1.10732736522225393e-05
2.72611823958665907e-05
9.88710581360600758e-06
-1.02383320555111317e-05
7.31124341712604849e-06
2.57348915535707647e-05
8.6879726964989792e-06
-8.97003992741467703e-06
3.62873577884075353e-06
2.47700383741679807e-05
7.92382599601935821e-06
-8.16432031579772887e-06
2.42607684414306638e-05
7.5319130017405557e-06
-7.75215413150466459e-06
-9.69017425437271616e-05
7.99050876315767199e-05
-0.000148432446616197195
0.000266473189754965465
-0.000113669472378783088
3.99944493235241446e-05
-6.64611932405166189e-05
8.37495857999766562e-05
-0.000114045125067811857
2.34051077065505981e-05
-3.69556189450392111e-05
3.15630275681784826e-05
-0.000109387853590700077
9.29694203137456854e-06
-1.48701725398535407e-05
3.49417211025058388e-06
-0.000103777762174508869
1.02198231776891516e-06
-3.61588460844321723e-07
-1.13163529353848713e-05
-9.77515300485559159e-05
-3.80140974510619318e-06
9.41892626224295395e-06
-2.0811269352678868e-05
-9.22672361492846729e-05
-7.08765867391510754e-06
1.58012148316440988e-05
-2.64759934446099753e-05
-8.74261672201210368e-05
-8.51574541091149197e-06
2.04621546771613464e-05
-3.06121297811176807e-05
-8.28444256241250371e-05
-7.21526121377966671e-06
2.45083945380463303e-05
-3.48840433263734813e-05
-7.82669019950155701e-05
-2.89360195241133191e-06
2.84320779962628516e-05
-3.94958534984471296e-05
-7.36149022824080396e-05
3.95700955043705343e-06
3.22048122085747277e-05
-4.3806114033443028e-05
-6.89337177453059236e-05
1.23715707152547697e-05
3.55119530692545314e-05
-4.73212437432047272e-05
-6.45132032300881373e-05
2.14610012004213982e-05
3.83709365629822787e-05
-5.02193925604982832e-05
-6.05447067160820937e-05
3.14333600335857849e-05
4.12719024656570531e-05
-5.29267357400561877e-05
-5.65693226527884117e-05
4.3385779779863773e-05
4.47838629542620119e-05
-5.68012539763995431e-05
-5.23321938237973302e-05
5.77248712130648775e-05
4.8604678066693679e-05
-6.07820030736295417e-05
-4.72903045599641652e-05
7.44348298259651578e-05
5.2427845603122149e-05
-6.41586999801764063e-05
-4.08157362039944697e-05
9.22664914450195675e-05
5.60560443838659944e-05
-6.68319442007615197e-05
-3.26816032212416961e-05
0.000109400124042252248
5.94316085387135682e-05
-6.93125460492113573e-05
-2.28893704807072397e-05
0.000124629480557454143
6.25387325535122521e-05
-7.18379871073714516e-05
-1.14628304848539818e-05
0.000137470143412012297
6.50011222542467074e-05
-7.35565923031847009e-05
1.25981999668733113e-06
0.000146390448718806726
6.61619579801682749e-05
-7.35421711253029825e-05
1.418079167842655e-05
0.000149142623012930121
6.54117494988437674e-05
-7.12291334544737278e-05
2.55108870763153827e-05
0.00014391336015450869
6.23858654416637067e-05
-6.67777491808720986e-05
3.36248911013522687e-05
0.000131120708035963957
5.72029061632118823e-05
-6.07455795983269495e-05
3.7881175455266593e-05
0.000113741417262952754
5.05002806370876526e-05
-5.3618337678133584e-05
3.86697026392880463e-05
9.54721946370679883e-05
4.31534907264538147e-05
-4.59293865168389887e-05
3.6993301022333853e-05
7.90642274287728093e-05
3.59998354983120133e-05
-3.83395934703332811e-05
3.38981630985272711e-05
6.56794493231161819e-05
2.95976303759662612e-05
-3.14463974607823686e-05
3.01401834389892245e-05
5.52975503064181062e-05
2.41748349808573807e-05
-2.55734567268394138e-05
2.61526392688063879e-05
4.74130817560845292e-05
1.97335706510100193e-05
-2.07708277236947128e-05
2.21496653773327814e-05
4.14721939604674504e-05
1.61754881734956123e-05
-1.69415668944530916e-05
1.82243853272137879e-05
3.70193541312887456e-05
1.33771323812841447e-05
-1.39466251296667831e-05
1.44072304345335096e-05
3.37127279255108349e-05
1.12219965930899601e-05
-1.16523192471967474e-05
1.06965005047433469e-05
3.13061515112575075e-05
9.6118725519997965e-06
-9.94611235271270058e-06
7.07415343794809111e-06
2.96278147970141468e-05
8.46977238880759424e-06
-8.74033474861204678e-06
3.51352502279591561e-06
2.85626792662007503e-05
7.73977848693127047e-06
-7.97176837209748216e-06
2.79873883649057269e-05
7.36404412358106566e-06
-7.57711636787124245e-06
-0.000104744402195952323
6.23107827901547904e-05
-0.000152238540736734321
0.000274551054268045401
-0.000119298146914804766
3.88098802817952928e-05
-6.64303074448060495e-05
8.21627094330508153e-05
-0.000118901405584160961
2.47839935772182551e-05
-3.59375595286730941e-05
3.41563926146577543e-05
-0.000112625858131744008
1.26935810592039028e-05
-1.27882697347301743e-05
3.1075123674599126e-06
-0.000105523336879635257
4.46028451402584365e-06
1.90797679764903793e-06
-1.2452959103711902e-05
-9.87207386412837474e-05
-7.25789672674088848e-07
1.18827801738044517e-05
-2.17597661089490995e-05
-9.26304208280252583e-05
-3.84184297150070608e-06
1.85720725715252368e-05
-2.79034931469841897e-05
-8.72130337806473264e-05
-4.4895232483849515e-06
2.34448235635627793e-05
-3.28845041520337854e-05
-8.21669218603113391e-05
-2.40573595367897989e-06
2.74414673586942428e-05
-3.72965407373567501e-05
-7.72159630546292064e-05
2.38100559254680435e-06
3.10749989033018382e-05
-4.13033654217915817e-05
-7.22692983120535486e-05
9.5140433258749895e-06
3.43886651941895495e-05
-4.48975397104744734e-05
-6.74560434273662623e-05
1.81123332853470088e-05
3.72709570653587208e-05
-4.78310177636154178e-05
-6.29758258610230951e-05
2.75448772697999751e-05
3.98067635803853409e-05
-5.0376480909941298e-05
-5.88690235121874312e-05
3.7839517556883677e-05
4.22751351257313348e-05
-5.27926653566540148e-05
-5.47287970288366018e-05
4.98319533539973267e-05
4.50428416747548286e-05
-5.56326854670493245e-05
-5.018076611253597e-05
6.36942068479154274e-05
4.79777412506690181e-05
-5.84976920751550231e-05
-4.48224325832610266e-05
7.90715748044216055e-05
5.08622438723870963e-05
-6.08592871613011953e-05
-3.83020371172887079e-05
9.49202028760811614e-05
5.3540257379670608e-05
-6.27157619851624658e-05
-3.04769298458589991e-05
0.000109934165706215454
5.594454663833056e-05
-6.43045744661660833e-05
-2.13281965549687662e-05
0.000123165173891592969
5.80040101395084301e-05
-6.56888098264233803e-05
-1.09009954470106426e-05
0.000133942658440686481
5.9405395543286348e-05
-6.6305062313008089e-05
4.42543105430586212e-07
0.000140922218526909869
5.96961234889945892e-05
-6.55710938083119615e-05
1.17835809242315559e-05
0.00014249568475825037
5.84814996875258517e-05
-6.31750841646216873e-05
2.17574183646303759e-05
0.00013759895911146815
5.5555903453530872e-05
-5.92146980046669977e-05
2.91261226326281584e-05
0.000126754013543575847
5.10388326060275683e-05
-5.40402519224890927e-05
3.33365910530367484e-05
0.000112157969123301754
4.53775498296733369e-05
-4.80040525673802005e-05
3.46083021315328368e-05
9.65205616277626654e-05
3.91889457864287664e-05
-4.15086239218543767e-05
3.36581570912686519e-05
8.1980920354124588e-05
3.30891918452560927e-05
-3.50554932579437968e-05
3.12961195209746941e-05
6.96234715375889442e-05
2.75239705981928352e-05
-2.91058551598820687e-05
2.81614516776703194e-05
5.96562463749716388e-05
2.27122442880229314e-05
-2.3936274945908037e-05
2.46644837024553711e-05
5.18373306742194774e-05
1.86989766429817881e-05
-1.96263080951697359e-05
2.1037737119489374e-05
4.57963740483884339e-05
1.54361070638033856e-05
-1.61335961217415246e-05
1.74014875417073214e-05
4.11820439986368327e-05
1.28404028752084737e-05
-1.33668804474708069e-05
1.38103782053601571e-05
3.77067452733595405e-05
1.08238078056355626e-05
-1.12267285051825881e-05
1.02817476716792281e-05
3.51510644145807278e-05