/*--------------------------------*- C++ -*----------------------------------*\
| =========                 |                                                 |
| \\      /  F ield         | OpenFOAM: The Open Source CFD Toolbox           |
|  \\    /   O peration     | Version:  2206                                  |
|   \\  /    A nd           | Website:  www.openfoam.com                      |
|    \\/     M anipulation  |                                                 |
\*---------------------------------------------------------------------------*/
FoamFile
{
    version     2.0;
    format      ascii;
    arch        "LSB;label=32;scalar=64";
    class       volVectorField;
    location    "0.149999999999999994";
    object      U;
}
// * * * * * * * * * * * * * * * * * * * * * * * * * * * * * * * * * * * * * //

dimensions      [0 1 -1 0 0 0 0];

internalField   nonuniform List<vector> 
7236
(
(0.675675210901749423 -0.0332062944949881519 0.175947124879930389)
(1.02718583658992357 -0.0424556552714546176 0.27662675354284072)
(1.14344943493107731 -0.0380970970826683061 0.347517689525283779)
(1.18220959119388658 -0.0319010139112122296 0.404759262740437498)
(1.21375067471285902 -0.027459479117865452 0.479209820290613098)
(1.29153805649822284 -0.0259588273526475295 0.492158106807736195)
(1.41240888681176813 -0.0296059379314402779 0.493243805098697752)
(1.52905142051123222 -0.0338962462770925274 0.492156934548007852)
(1.62159976638386838 -0.0372009123512669765 0.491437591343252156)
(1.6951030058745955 -0.0394747259366038314 0.493336599360221728)
(1.76177419791078993 -0.0409409218428188892 0.497807313802282547)
(1.82625974645242195 -0.0412663833628538618 0.503987854729418427)
(1.88139387485593179 -0.0404922344044330237 0.513043001768978546)
(1.92189550317641022 -0.0373820792375642447 0.523363220437125909)
(1.94636961077833415 -0.0313170218807919537 0.533887895289583136)
(1.94664995022763865 -0.0253151670556965476 0.544749748887336405)
(1.93326981510241858 -0.0183452343206738089 0.554085263999898103)
(1.8766506217349701 -0.00476105090549810376 0.560415233093776943)
(1.76137494787540927 0.0172506878820938639 0.563358142053483446)
(1.58153520046682594 0.0414252091151796481 0.561406573532689523)
(1.32698315537153744 0.067326473307979029 0.550601784160006047)
(1.02709325033634236 0.0781657526237265754 0.52790571145081655)
(0.745021081583002509 0.0684371944036048091 0.493350174350214554)
(0.51839692031300677 0.0515831244368926342 0.442778183180933871)
(0.364609861955770553 0.0368186344706576824 0.374670441861495118)
(0.270967030584738977 0.0250905558986261185 0.297991434987614878)
(0.217956193766547651 0.0165927106878157801 0.226500319154226304)
(0.184427368859266333 0.0118253622883682449 0.169393886886709366)
(0.156019691986043429 0.00926472395002107124 0.128094189339741205)
(0.131191441195146669 0.00751620040693009531 0.0987748848432877524)
(0.109726130917618986 0.00620604970096990533 0.0773710680509635818)
(0.0909200340254898431 0.00525308365939741381 0.0614386270331798851)
(0.0741172055539230795 0.00457029661260615911 0.0495489141636719643)
(0.058829632608426094 0.00408366592246366469 0.0407433263551769537)
(0.0446565586443177995 0.00374131268124722931 0.0343525647603813364)
(0.0312874917879508024 0.00349378916517309413 0.0299137728978716572)
(0.0184903769362332049 0.00331647371789719429 0.0271152001328370806)
(0.00609876811009217763 0.00323894119028850323 0.0257116084710564789)
(-0.0904005369735292053 -0.159520967673289077 -0.0387176414181258366)
(-0.137067012730255844 -0.0330341298992311294 -0.211005029118723431)
(-0.110525408551425605 -0.0109263355048584559 -0.207020594871543062)
(-0.0653252966059724438 -0.0399220743514827892 -0.143307340702387515)
(0.0439796044710365208 -0.0630935082379688039 0.0767661321482875358)
(0.139701665469629532 -0.108078712600839164 0.162928708317257337)
(0.170085429866078858 -0.142507306894253644 0.189749118453070714)
(0.195797472064381556 -0.147999898216585934 0.210748145748471699)
(0.249923742649375225 -0.143194869176702322 0.230460682089634661)
(0.327203025823618099 -0.132488947359578974 0.250709555306424359)
(0.41624388276576102 -0.121387242830874945 0.275495099918549591)
(0.499807275575767929 -0.105238067550253889 0.303487497819243834)
(0.594779973334198964 -0.0835843902051691123 0.335907957057908713)
(0.702792637287424027 -0.0578366460651251885 0.371036377084506541)
(0.819133039098596916 -0.0337250370005460279 0.408490798396419608)
(0.92879233463204558 -0.00863816954512708693 0.444030248128934379)
(1.01753908956918071 0.0178702963169711515 0.474943428906332121)
(1.07840234026391868 0.0528602390309821091 0.496864843523960542)
(1.11166005259695777 0.0890698638951201438 0.510911709796823654)
(1.11280765618654121 0.126469965347794228 0.518165034333173735)
(1.07168576395799575 0.16587058539824745 0.519970198983144893)
(0.973685735408614916 0.186382569222753758 0.509907106453570624)
(0.809675223765319974 0.180164020166647648 0.488128078905067819)
(0.611011449764508718 0.155379571977213554 0.445229684416381444)
(0.436830955361207418 0.121399199057180093 0.383630499352164978)
(0.316654444313496652 0.0868585679446262637 0.310426933405572536)
(0.240794969875703924 0.0585611171942354569 0.237577004384124962)
(0.193520075993819235 0.0402539129199063622 0.176785522496091752)
(0.160167231529740717 0.0297293109575928333 0.132236840088807817)
(0.133759774532979658 0.0232645277290976643 0.100984235268861827)
(0.111649663199263782 0.0189253540706482322 0.0786626984365030313)
(0.092522101473144186 0.0159216653000136925 0.0622976665649686706)
(0.0755107388501358723 0.0138154404668812316 0.0501649004978790072)
(0.0600435399033053332 0.01232797157261371 0.0412009559225414435)
(0.0457046091032970656 0.0112854501097044528 0.0346994098580204746)
(0.0321785792835394199 0.0105759324525336179 0.030179833247100947)
(0.0191247777274369778 0.0101247702486160426 0.0273220912740821803)
(0.00631801393633637035 0.00986742970966206223 0.0258618988102103722)
(-0.0944935847639533644 0.0665949597206833832 -0.45277910461301174)
(-0.207679576710039698 -0.00624956626904586872 -0.275408014600457052)
(-0.200072892047809731 -0.0403854437706212543 -0.162476198127452398)
(-0.180904257133849333 -0.0874835918877844843 -0.0349098708293773541)
(-0.174264702678193273 -0.0892782808794034821 0.0541956953888087373)
(-0.166184592403197606 -0.0818385356212493614 0.0550835657012720067)
(-0.165727939775336314 -0.0891678389214175665 0.0709275789301433979)
(-0.143802039776394608 -0.101560751760399623 0.109074003455708363)
(-0.103478850543093789 -0.10491529739578119 0.14704617107027787)
(-0.0548390230139614299 -0.0992291477318024417 0.17191449953919874)
(0.00912618949992206191 -0.0905009769984073398 0.196224317767076023)
(0.0719843079282628945 -0.081824842214781035 0.223415413615378672)
(0.126239376631360506 -0.0690588052420627041 0.247334598043368686)
(0.178257020042697417 -0.0537178753983581225 0.268953028270947414)
(0.234385352968139782 -0.0364072479367772428 0.292736486695985343)
(0.294471922817203247 -0.0139215786317176127 0.319632390419226586)
(0.356015925896482233 0.0202859730319587261 0.351981004741722281)
(0.394512464236953631 0.0619207398259147349 0.380522673562344871)
(0.420148356433126535 0.10903774111060012 0.401427671849772183)
(0.442329454313799331 0.157159801872580634 0.414354156068751478)
(0.476555410814124725 0.207871125048450733 0.426290415634070829)
(0.501626548681441742 0.243874629103055018 0.431176295328766113)
(0.477852247137066033 0.249702856583205846 0.417330193091595969)
(0.41185444575715846 0.230695572197763765 0.38549770770428532)
(0.331754767115471083 0.18986991257277297 0.337455932029126215)
(0.264609875775645709 0.141541475300909214 0.278569412480501377)
(0.216187688260343819 0.0989853580845126979 0.218145903989785922)
(0.180827688002734632 0.0689426598757747894 0.166017066882966691)
(0.152704673230779131 0.0502700599224339545 0.126318731108007898)
(0.129016148876110182 0.0388255546227252585 0.0975281955710729231)
(0.108482467475942368 0.0314459383443206342 0.0765088920046803345)
(0.0903030637211740539 0.0264522435103794543 0.0608944707257464274)
(0.0739029735635607365 0.0229754630353891723 0.0492215972459381368)
(0.0588499686438301861 0.0205244665321567057 0.0405487927354872199)
(0.0448057930272025146 0.0188061427375512923 0.0342346057266036674)
(0.0314983783912889809 0.0176426156197948963 0.0298366467805742663)
(0.0186980353193578266 0.0169161012997545331 0.027057968016415794)
(0.00619228128703325394 0.0165434917227254216 0.0256413784347347372)
(-0.0845139081443390949 0.121471898726202898 -0.656510253416946021)
(-0.279712522189494439 0.0246539840403622347 -0.261497334535499892)
(-0.274305517343664484 -0.0205884292466332122 -0.119059122086148217)
(-0.272246579072241368 -0.0475182904411301094 -0.044070244586044631)
(-0.26128725244428419 -0.0440203242731310521 0.000887100774074760928)
(-0.256790290204291394 -0.0493775111077029427 0.0288262418286321931)
(-0.251975430593512906 -0.0578215284074047667 0.05154253615281848)
(-0.243056312203735886 -0.062902859052962834 0.0694793058427126409)
(-0.230455950442974844 -0.0623743542278703753 0.085024024999160272)
(-0.208951218133114569 -0.0578324235191780556 0.106266954800512375)
(-0.180361729070106364 -0.0485535111015151094 0.128225315984080435)
(-0.14719180381951813 -0.0364342835954874419 0.150452965714239384)
(-0.113356970328512399 -0.0237395508493722478 0.170513056792688189)
(-0.0770010048704553723 -0.0087551727450756317 0.195217307154613329)
(-0.044364844352450597 0.00812717656955462553 0.216995646401873937)
(-0.00961136266961480634 0.0306797437060659789 0.238897643612978106)
(0.0245231241464910904 0.05948443918124241 0.262012862823624071)
(0.0518777590461179938 0.100439258159233144 0.28675332893173866)
(0.0769795810861050311 0.143614470339179873 0.308281520651116858)
(0.102879326954493283 0.182929677838448351 0.326053212161687866)
(0.140358890324620622 0.22271674178373832 0.341533446760004133)
(0.185919503895337901 0.253920964973904872 0.350144048962547028)
(0.218603581221210569 0.269160155875217799 0.343868926393124108)
(0.22956568453563686 0.257633509363906776 0.322309232739464102)
(0.222055431805686099 0.219980646884423064 0.287166861004009899)
(0.20559739268853916 0.171061971417432096 0.242899623738620341)
(0.186019575012472238 0.125151463695352072 0.196065239987565421)
(0.164892308154054812 0.0904827084991793873 0.153777778124364384)
(0.143561709229312412 0.0674865938187420022 0.119730243898980848)
(0.123333093845999386 0.0527773469287382141 0.0937794631403333356)
(0.104741863844781069 0.0430959561601954311 0.0742036954551116013)
(0.0877459688393129739 0.0364662456215873731 0.0593941328246515438)
(0.0721146512416711849 0.0318078020977935125 0.0482053453677222382)
(0.0575900515728774709 0.0285007628278278573 0.0398349799574696933)
(0.043930146375872281 0.0261694109587563908 0.0337120781949010392)
(0.0309171994243125359 0.0245806528097311378 0.0294335565424324354)
(0.0183601173577896751 0.0235840358169909677 0.0267253107709286668)
(0.00608662720161409418 0.0230908299087959068 0.0253444462249812763)
(-0.0985293496531829405 0.15009341788420183 -0.707687567179012156)
(-0.326094622457817118 0.0502178467655290325 -0.26726685990146809)
(-0.319015399291361967 0.000500099750529576365 -0.11499249702047773)
(-0.31599125954694901 -0.0270737303298226664 -0.041063671219670056)
(-0.304897352465978932 -0.0329652590064538897 -0.000957495525068251946)
(-0.29330667791458126 -0.0338142878252398749 0.0303055884164273107)
(-0.280934136261339507 -0.0382611363914969332 0.0484513340188708619)
(-0.268689489434429885 -0.0426728409353566984 0.0631586536986965541)
(-0.256193161345496134 -0.0434014095615587459 0.078223992875680326)
(-0.244086514860769793 -0.0390959646946962627 0.0947449603334588608)
(-0.230725122138447869 -0.0299756058230395521 0.112945707037232113)
(-0.211162957884412694 -0.0172475234477458793 0.128830391733823491)
(-0.192714845243587896 -0.00314437739434562935 0.142036560849881199)
(-0.172553286935131361 0.0127377581692090375 0.15759708617410767)
(-0.151584357342885057 0.0302534378719484659 0.176352577459624738)
(-0.132439317702507858 0.0528195804026308502 0.196072842481995024)
(-0.114369713406603568 0.0840945580471749721 0.215188350423527575)
(-0.0938652174069511402 0.123746175134305442 0.233953933271104142)
(-0.0688901076910659466 0.162220046692837711 0.251331182576773282)
(-0.0390059833258479816 0.19575877578875775 0.268299034700996031)
(-0.0012413480489157358 0.226998179283347701 0.28330470680142783)
(0.0450020266421963105 0.253075357486440777 0.291617500593082113)
(0.0912389361453772724 0.266095671967185643 0.288474923204892042)
(0.129434553557814636 0.256855034036321705 0.27301115352219818)
(0.153699838001228939 0.225097302516223563 0.246613522333516411)
(0.163209788132289424 0.181874591048910655 0.212688487633427292)
(0.160476326303797157 0.139408588646437015 0.176076178158384833)
(0.149240758798426382 0.10543038451598416 0.141724130142074217)
(0.133645854193541913 0.0813403467620409104 0.112663457612864018)
(0.11681235958311792 0.0649754934505052534 0.0894965174843766198)
(0.100307131277962813 0.0537486430982456742 0.0714718703655128074)
(0.0846540676016555443 0.0458643294702488907 0.0575774227797515789)
(0.0699276178535693516 0.0402348087616579211 0.0469556345167250755)
(0.0560414411460354103 0.0361946884097019278 0.0389460452047343392)
(0.0428543957542983356 0.0333244556583668361 0.0330544556252469826)
(0.0302094768782653726 0.0313561374195652082 0.0289216942778182315)
(0.0179520661103364336 0.0301171335812040544 0.0262992699398579624)
(0.00595116979525803225 0.0294831120541037203 0.0249584645835685542)
(-0.1154763185522934 0.165514051206126944 -0.735238935562312235)
(-0.368079029096920807 0.0625490056683902507 -0.270445949241171824)
(-0.344388988986935318 0.0196700548566971882 -0.11848450126872126)
(-0.340216729310180099 -0.00416899766657719689 -0.0424509277547273634)
(-0.325602212887041886 -0.014199942522039169 0.0046884225259748516)
(-0.311124445235472724 -0.0198085177988454528 0.0360407010633509092)
(-0.295959337018825874 -0.0253869173681121503 0.0556123431096648482)
(-0.281435579946212544 -0.0280849596037160108 0.0693998882895624086)
(-0.267582923120939731 -0.0269780027998637456 0.0827497485217727202)
(-0.254046818039996181 -0.021618280925620955 0.0973895623896880724)
(-0.240497029050145306 -0.0121507632800197975 0.112786488898309056)
(-0.225719451666802851 0.000608613865327414794 0.125798759770967467)
(-0.210931402212179375 0.0146607825928464844 0.13569694293146084)
(-0.197243543086430245 0.030480654190326216 0.146287329602862448)
(-0.184517406662671524 0.0487842741237220906 0.161409493556830153)
(-0.170459722150832771 0.0717628801220769608 0.177984097473738972)
(-0.155938179325063514 0.101632648344067461 0.193733559172511893)
(-0.136512803671634958 0.136338656579156392 0.20791976118745828)
(-0.112391259885911199 0.17008997520383129 0.221079712571546572)
(-0.0823245352350376325 0.199913352917385545 0.234374067661504037)
(-0.0461893218015490686 0.226302580574996137 0.245848018106883393)
(-0.00397178400107184304 0.246945275701629358 0.251651295346042803)
(0.0416714198828419258 0.255793735169744463 0.248620109739970091)
(0.0843055417199941454 0.24697063418591636 0.236029909278978711)
(0.116894809331667598 0.220479813015502235 0.215031267279163801)
(0.135366383934365314 0.184047068298051564 0.188094875350276303)
(0.140181371102667263 0.147074588232697978 0.158654737804969609)
(0.134797962682278227 0.115936801068552336 0.130258999695493788)
(0.123530546034105015 0.0924322831048459137 0.105350378141585557)
(0.10973883807599924 0.0754927509827984511 0.084790300828796572)
(0.0953113429023481895 0.0633533317829772097 0.0683623878105534544)
(0.0810839461701072378 0.0545811198923212282 0.0554651867684562913)
(0.0673595712484955228 0.048198591067152137 0.0454812925972367388)
(0.0542016632962446718 0.0435585232326496374 0.0378858541900490842)
(0.0415654651688735222 0.0402320728460934668 0.0322636363659039374)
(0.0293565045490934567 0.0379362341823765298 0.0283024312580959225)
(0.0174623929475932888 0.0364869714353247623 0.0257816629138304249)
(0.00579026360591562532 0.0357297354381784504 0.0244885329074680524)
(-0.131478809424650511 0.147086401041442244 -0.770299757605964475)
(-0.403799617417344714 0.0657908804912929468 -0.271323590972414652)
(-0.365204833567549292 0.0336120342695413812 -0.12218986399726027)
(-0.361821438590582023 0.0100144903510100067 -0.0384217530037500726)
(-0.341655083584586405 -0.00286412183731876713 0.0120006049642123191)
(-0.322129199391411714 -0.00973930086886799426 0.0430880317920352418)
(-0.303306199869155024 -0.014662308425151746 0.0625616106593703258)
(-0.287162444649341042 -0.0171688587937227355 0.076818424691739523)
(-0.272480898100927127 -0.0155891257982052542 0.0899668676222123709)
(-0.257880551971990335 -0.00914560982355519872 0.103448870681325772)
(-0.2430272809621421 0.0015516335742502621 0.1165176764865343)
(-0.227910051931412228 0.0148772485151549491 0.127550828319600157)
(-0.213260370231888624 0.0290204260399127278 0.136711385308982747)
(-0.200002830864653369 0.0445886476083763583 0.145914166303270171)
(-0.187446538247119376 0.063444978144987646 0.157985117732913904)
(-0.17417128363929707 0.086572960299237639 0.171105812736057766)
(-0.159460109704290531 0.114338784686686928 0.183367386433029772)
(-0.141110660645618113 0.144631787273889395 0.194006717185163435)
(-0.117787205172433684 0.174019876386238753 0.203718461621992447)
(-0.088886632021968906 0.200190817531854387 0.213053820064420724)
(-0.0548475292538771128 0.222614423943617967 0.220324545127821236)
(-0.016178396857443586 0.238708287226256033 0.222924221934234001)
(0.0252317440653985134 0.244271625127677194 0.218803655422065785)
(0.0646572412507275124 0.235646403696861628 0.207476291359286941)
(0.096269223958275571 0.213354435922050445 0.189843172278841038)
(0.11603159583085397 0.182953026412772168 0.167667175253219586)
(0.123652563916935229 0.15133798001670512 0.143363699146714291)
(0.121677653463530266 0.123491373593444836 0.11951614743390214)
(0.113629756042867819 0.101297718501110467 0.0980587707824007171)
(0.102448478012149569 0.0844627411507355708 0.0798700353897314058)
(0.0899748941999223006 0.0719088855446265163 0.0650053855979325079)
(0.077173976373981476 0.0625787681725924333 0.0531341537892331128)
(0.0644973156032816464 0.0556556184597065823 0.0438280712224524971)
(0.0521256046437353765 0.0505519354536737159 0.0366825413450313706)
(0.0400982751576306196 0.0468567588341122637 0.0313575945812490445)
(0.0283801604795986158 0.0442889087741156762 0.0275878454377707638)
(0.0169020839293717376 0.0426622414381610249 0.0251813098283177189)
(0.00560718334919588571 0.0417929928345511445 0.0239422529888861611)
(-0.145725256607874859 0.113502708921515844 -0.77709825366937324)
(-0.428386681178197726 0.0640284316446060459 -0.26972348109102795)
(-0.381124715074104725 0.0392979505761204967 -0.122871718437259081)
(-0.374942353082502899 0.0181323931233142305 -0.0325930453571390347)
(-0.34892356354715276 0.0050045447584325109 0.0181904821190147156)
(-0.326431727069407818 -0.0030734744850802586 0.0498116705896372997)
(-0.305470939518785345 -0.00844711406398349941 0.0706781778600133193)
(-0.287313772859735694 -0.0102151420490957032 0.0861420214554116659)
(-0.270927760673501439 -0.00743266726116360507 0.0993259210858964681)
(-0.255028864218899365 -8.64100981784465816e-05 0.111676225091573336)
(-0.239095709797829986 0.0111566937396403651 0.122957614566461759)
(-0.223333592439155681 0.0247830931396116269 0.132514986140322893)
(-0.208414171148652683 0.0395997899654775276 0.140812307517658553)
(-0.194857721844691356 0.0557725326224506393 0.148882884697136897)
(-0.181800647050254116 0.0749686441136364901 0.158186080728143053)
(-0.16790703811674168 0.0975633187186889655 0.167917823333228244)
(-0.152085907375323071 0.123183285150699873 0.176851091146393524)
(-0.133107225357302017 0.150019258345825912 0.18453966732871202)
(-0.110122860484944948 0.175669004649225469 0.191240797680113928)
(-0.0828543833744510849 0.198411041214256456 0.197027536261068115)
(-0.0514440477623143225 0.217261289279147507 0.200650738631511449)
(-0.0165136452823383614 0.229852676850546639 0.20043560761663376)
(0.0200590896509201741 0.233165196051422885 0.195128976511961899)
(0.0546233519739549728 0.224981544059993377 0.184459583372486913)
(0.0827580822148286793 0.20612747593058886 0.169094356663984507)
(0.101284124556404037 0.180685620420515725 0.150308511405876366)
(0.10973368306667157 0.153681741310735032 0.129827160258567498)
(0.109826095886369463 0.128974735467758533 0.10954719456292486)
(0.104186903735481604 0.108372557295602426 0.0909737880269047283)
(0.0951905702119759112 0.0920604899132054788 0.0749017672206711282)
(0.0844855521514957242 0.0794650282613538761 0.0615150651665011192)
(0.0730535067506591501 0.0698549674827041167 0.0506569700181337818)
(0.0614272769436885191 0.0625846784871341433 0.0420416465379744239)
(0.0498702854417466743 0.0571484304694953316 0.0353652419032618598)
(0.0384899723653589626 0.0531717630194572938 0.0303554790296328078)
(0.027303690306068551 0.0503883499514779787 0.0267911524570275256)
(0.0162830711314222581 0.0486177821031232166 0.0245081189436211211)
(0.00540510494390533842 0.0476499692917333045 0.0233280631216306357)
(-0.155350438733933838 0.0907534004508080971 -0.760206745265608275)
(-0.442708803319399213 0.0605940570982575893 -0.26463732045531918)
(-0.392779979685026315 0.0400676851635366205 -0.116623374845422595)
(-0.384059622476323304 0.0216306288518283915 -0.0249205950556198493)
(-0.35519412915116727 0.00879374866940094493 0.0260175407874129808)
(-0.330412612851210152 0.000488392956380557033 0.0582138353406838061)
(-0.307491022107031831 -0.00403274398164306554 0.0796673045126849722)
(-0.286962939040076748 -0.00436344904259735634 0.0955242730544912655)
(-0.268396995267967342 -0.000444927495157728531 0.108504917410695248)
(-0.250908402436368638 0.00763629282992270633 0.119906829397073561)
(-0.233773008680603411 0.0192346779515845667 0.129820493524825914)
(-0.216884138969384965 0.0331460979874477688 0.138081173703665683)
(-0.200911580282939817 0.0484894558737552425 0.145140074170350269)
(-0.186265037898063479 0.0652119560769227891 0.151728096884716945)
(-0.172244183897641234 0.084304872814937426 0.158484287963080839)
(-0.157634404401737011 0.105924443386662404 0.165191633294562462)
(-0.141153564026777978 0.129445692806835017 0.17121430563291834)
(-0.121974789326804139 0.153389893973709501 0.176242060764333186)
(-0.0996484780728381508 0.175917874225450382 0.180272020866828087)
(-0.0740668609977080811 0.195636579947635558 0.183120781189214987)
(-0.0453253576431620966 0.21141062736104177 0.183916977843419871)
(-0.0140685460523554823 0.221278609424621686 0.181593424810982673)
(0.0179676103293690964 0.22307843111677142 0.175401798517177715)
(0.0479133070835360969 0.215525595998541347 0.165219274753364259)
(0.0724615105912728708 0.199500254604983746 0.151536879627491877)
(0.0892322437939567503 0.178036792377755382 0.135302402293432794)
(0.0977560965808585564 0.154850598637440329 0.117774918163231129)
(0.0991539991631311957 0.132959100696307342 0.100355489189838193)
(0.0953239260835861552 0.114015846217135092 0.0842034840825465619)
(0.0881284247936035964 0.0984724697949181937 0.0700001286562454833)
(0.0789858010998870652 0.0861018261735803925 0.0579802724364356439)
(0.0688306545367477068 0.0764341818393019928 0.0480954437197179882)
(0.0582266052241109736 0.0689840057850206606 0.0401635077661279122)
(0.0474889273165889428 0.0633348625845445296 0.0339617285119428042)
(0.0367761735469964643 0.0591594842347465399 0.0292762305310558107)
(0.0261496358459502101 0.0562154315633851404 0.025925821945492495)
(0.0156174893049220651 0.0543341546199241701 0.0237724306107204783)
(0.00518766284568771257 0.0532826326296665098 0.0226548952438264083)
(-0.162261003853192698 0.0838963198255347486 -0.742006116539459804)
(-0.453093710469869737 0.0585946969581460156 -0.252926160990788573)
(-0.402918965131543683 0.0390814228700179442 -0.105854274987456184)
(-0.392370681026372181 0.0226029586737955951 -0.0149473302604817282)
(-0.361999777167727743 0.0105085055333440942 0.0349801617490998057)
(-0.335128394695548226 0.00269715998750207769 0.0670607384328113926)
(-0.309262064661872615 -0.000827082793890617993 0.0887277578731760497)
(-0.286081135183877122 6.61102507691808949e-05 0.104505769965667267)
(-0.265212031931622794 0.00519960804733164694 0.116983835289297899)
(-0.245954799616143499 0.0141785480218453962 0.127424264202668669)
(-0.227451612649815088 0.0262951578834775407 0.13604445707733609)
(-0.20956036418634566 0.0405890836251426024 0.142904509655806478)
(-0.192701330419486727 0.0563348300226076543 0.148464305353980197)
(-0.177034835340861313 0.07340211852376409 0.153312732899427706)
(-0.162045885782256205 0.0921939914755647016 0.157791091499227126)
(-0.146719798339096041 0.112674872782349 0.161913331612445976)
(-0.129956458506183925 0.134209245418595247 0.165395136046214863)
(-0.111026767235501297 0.155627233768399237 0.168044264423468565)
(-0.0896167755848755743 0.175474931463283662 0.169756831341374037)
(-0.065712325737580915 0.192546032044752985 0.170266880257774839)
(-0.0394759164027475851 0.205722020968876096 0.168963695982197903)
(-0.0115725242207421614 0.213448923794757356 0.165167389457690134)
(-0.169588329028541679 0.0846024349419459976 -0.715837419425744415)
(-0.463134021989433542 0.0580320616199357583 -0.233988968967680344)
(-0.412809174966862147 0.0380350002005578613 -0.0907403579750822864)
(-0.400613616223780278 0.022202730690042357 -0.00335198400262450014)
(-0.368320532999800165 0.0102927039922788739 0.0451525726278823591)
(-0.33792678852328617 0.00325388164290849567 0.076430217919698118)
(-0.309350719083496428 0.00107394365192200504 0.0976888432923128658)
(-0.283802851414999058 0.00345279154507355766 0.1129514661266071)
(-0.260851575368660493 0.00990614244058588 0.124679671300893913)
(-0.239822221464916274 0.0198989490601762138 0.134013231350153139)
(-0.220059976728085527 0.0327175540928886233 0.141206334310317233)
(-0.201404262649540755 0.0474449208841374245 0.146509990008156704)
(-0.183951145777216551 0.0635054194874499628 0.150412033329433842)
(-0.167653173396487581 0.0806777425911203439 0.153427214502355441)
(-0.152031642973636555 0.0990060256679751172 0.155837309466434731)
(-0.136286304046298073 0.11830619680713296 0.157753595970043958)
(-0.119516673876029655 0.138020078086259018 0.159066143101272622)
(-0.101087264804960247 0.157186636987823702 0.159670252849682337)
(-0.080741123821287869 0.174666612675289962 0.159449772800465878)
(-0.0584893411485765194 0.189410958150899533 0.158147657123624552)
(-0.0345571726999358841 0.200408510459631956 0.155327591205721205)
(-0.00960809846031623199 0.206455876863897853 0.150550237273305548)
(-0.179428511243303695 0.0924122942166105965 -0.678651642553738332)
(-0.473822393421333143 0.0584422536130490278 -0.208157638017036434)
(-0.42289056448980733 0.0371767159358779159 -0.0710644675967078004)
(-0.408327219830991073 0.0198651535020087852 0.0103591034922153047)
(-0.372506649826880087 0.00803780095111529536 0.0567502975322386194)
(-0.339310276125513233 0.00230374339864996289 0.0865304495869672341)
(-0.308211806572527336 0.00190731214087662415 0.106709878087666493)
(-0.280504042583524849 0.00601905935317950669 0.120997931220284946)
(-0.255737301950055784 0.0139297701820694751 0.131622004469106268)
(-0.233234681380658948 0.0251393834942477828 0.139542627272804254)
(-0.212424065074004298 0.038718662041865505 0.14513635471973757)
(-0.193091210025892079 0.0538806964397080188 0.148767938618021678)
(-0.175173081019829008 0.0701305213731091281 0.150946452327114067)
(-0.1584683869820247 0.0871863415969802436 0.152154831666932638)
(-0.142498953837231573 0.104904489688534622 0.152691544685227332)
(-0.126594748486546393 0.12302258112307092 0.152719599732304284)
(-0.110025040185842235 0.141062994010729803 0.152219078281161935)
(-0.092243789824341435 0.158214378186991689 0.151130635674217556)
(-0.0730154623211251991 0.1735926684601104 0.149358000903415278)
(-0.0523627828697331779 0.18630748783871931 0.146687200113231886)
(-0.0305368941275360808 0.195483219042971418 0.14280171106646497)
(-0.00816697481322180979 0.200212473928598783 0.13740858249971194)
(-0.192876694740316712 0.108258552426333088 -0.6274490091173478)
(-0.485261340366839877 0.0597947573337050536 -0.175286092604635513)
(-0.433456342633120051 0.0350603678627805296 -0.0467172883621191359)
(-0.415537699434591457 0.0155094365598294152 0.0271515215448725755)
(-0.376011954151017014 0.00421383082702500925 0.0700492124549685069)
(-0.339704916656475064 0.000281986205285595076 0.097284414548246656)
(-0.306183415110340085 0.00190460791360932795 0.115766693536751453)
(-0.276485315376614416 0.00795152524351390791 0.128603599027074161)
(-0.250101990693314402 0.017558812418189948 0.1377221399805858)
(-0.226329934682719752 0.0299626507531010472 0.143939815599103571)
(-0.20463681921618232 0.0442828853069794567 0.147779977524313766)
(-0.184772141300885984 0.0598481111244029279 0.149703695713139684)
(-0.166518078576446571 0.0761815559453583313 0.150189630182281791)
(-0.149585106639579246 0.0929607774154054822 0.149704055424361493)
(-0.133499242783840122 0.10996941409690203 0.148573748857008081)
(-0.117656779829382871 0.126927827645306551 0.146992573370960944)
(-0.101444422978434465 0.14340857978761129 0.144990670211619432)
(-0.0843957422789431699 0.158767193014453079 0.142538252890241995)
(-0.066292030642945976 0.172294221858686786 0.139559530623919376)
(-0.0471635392718428303 0.18324859675326341 0.135883961610200998)
(-0.0272555945238205227 0.190916446399103573 0.13127602737828864)
(-0.00713758663739632454 0.19460748170500311 0.125533486434251662)
(-0.219015183407207242 0.0344061985430084913 0.147207331023212706)
(-0.196657920099682387 0.0494318200174910516 0.149261697198010274)
(-0.176410809107252792 0.0653512374660865786 0.149475222554995568)
(-0.157983377855717089 0.0816425183107254426 0.148331907015969211)