/*--------------------------------*- C++ -*----------------------------------*\
| =========                 |                                                 |
| \\      /  F ield         | OpenFOAM: The Open Source CFD Toolbox           |
|  \\    /   O peration     | Version:  2206                                  |
|   \\  /    A nd           | Website:  www.openfoam.com                      |
|    \\/     M anipulation  |                                                 |
\*---------------------------------------------------------------------------*/
FoamFile
{
    version     2.0;
    format      ascii;
    arch        "LSB;label=32;scalar=64";
    class       surfaceScalarField;
    location    "0.0299999999999999989";
    object      alphaPhi0.water;
}
// * * * * * * * * * * * * * * * * * * * * * * * * * * * * * * * * * * * * * //

dimensions      [0 3 -1 0 0 0 0];

oriented        oriented;

internalField   nonuniform List<scalar> 
20390
(
1.83149701799263118e-07
-4.54363801209940568e-08
4.39580595136475815e-09
-1.83590127039115507e-07
1.27112870488483702e-07
-1.65615062510158393e-08
4.43566936906477385e-08
-1.06144591350823577e-07
3.24796463861483016e-08
8.57370243512609796e-09
1.9563527292393557e-08
-5.89456677598480382e-08
9.41117054267120257e-09
9.21463268380576287e-09
6.76696196620584274e-09
-3.33518171304923583e-08
2.17922570952372703e-09
4.04984377065461852e-09
2.30491164450590997e-09
-1.31169046035067531e-08
5.04416644714775972e-10
1.03005196100170561e-09
7.02958377876694205e-10
-3.91024289509765664e-09
1.12118032270403337e-10
2.07490046668518414e-10
1.9010302255342826e-10
-9.24633039610306671e-10
2.25729731473302955e-11
3.61647209990350348e-11
4.06145003895276052e-11
-1.78578204694105078e-10
4.02991192861300823e-12
5.98828049410333344e-12
7.15295138174866381e-12
-2.98492323361451934e-11
6.48381584305831581e-13
9.03266465558609594e-13
1.07638554702829112e-12
-4.41093479916759378e-12
9.72993234165215507e-14
1.22256500351923674e-13
1.39023645529654582e-13
-5.76240584204880806e-13
1.47337604094217087e-14
1.43338334921807932e-14
1.51790529257610747e-14
-6.4382444280617982e-14
2.599811087885266e-15
1.58181638573936875e-15
1.566067076540837e-15
-6.38255447810442594e-15
4.00846323959055256e-16
1.8002952758650947e-16
1.72019432340242686e-16
-6.17583607406425823e-16
4.23228463582955419e-17
1.9154449641908139e-17
1.57861524027072478e-17
-6.13141145308708814e-17
3.70743328592192797e-18
1.80431341532348098e-18
1.28301710722370085e-18
-5.12685641013422263e-18
3.05795872585182401e-19
1.57302051420949595e-19
9.69678160853528683e-20
-3.9407140074095244e-19
2.34143390070878681e-20
1.27859707669780628e-20
6.81363788136658036e-21
-2.80867383270528253e-20
1.66095626181885002e-21
9.69484307161092502e-22
4.45125757788071923e-22
-1.85850775246232966e-21
1.09036811318829535e-22
6.85364252468712112e-23
2.70245834067972528e-23
-1.14153660125832884e-22
6.61420981281491171e-24
4.51326354018406293e-24
1.52341909912429757e-24
-6.50311933984944658e-24
3.69970141893409975e-25
2.76458711674271965e-25
7.962762387525589e-26
-3.43134832324433781e-25
1.90305113158666723e-26
1.57185195679131173e-26
3.85196518671114203e-27
-1.6738971095203342e-26
8.97082440999218994e-28
8.27296099578902939e-28
1.72046947032101031e-28
-7.53259062294019369e-28
3.85882790704831962e-29
4.01801617829233987e-29
7.07427284698703242e-30
-3.11829585252748479e-29
1.50669909243698247e-30
1.79385111475530771e-30
2.66829621113308301e-31
-1.18346309908443105e-30
5.30519991603418031e-32
7.32825887401033856e-32
9.19203323364151071e-33
-4.10007234925894434e-32
1.67080121095115681e-33
2.72405007749406023e-33
2.87691149199346592e-34
-1.2898891018325005e-33
4.65803206135682503e-35
9.14883191264435474e-35
8.12821668524541947e-36
-3.66163966985396954e-35
1.13442171235374748e-36
2.75160871198652236e-36
2.05690962766975966e-37
-9.30658703610778121e-37
2.37189041217987135e-38
7.32776803919869581e-38
4.61724661292957146e-39
-2.09761522182634395e-38
4.15880855982145485e-40
1.70287497977435845e-39
9.08169324041823387e-41
-4.14165559606896576e-40
5.91607876716668543e-42
3.3866871863775736e-41
1.5399652880409422e-42
-7.04843859367851529e-42
6.49858468102900734e-44
5.61066924952794112e-43
2.20059193545858629e-44
-1.01068850012140674e-43
5.08500447695886217e-46
7.4412269321897457e-45
2.56076556269895757e-46
-1.17999875823809035e-45
2.54039856528255554e-48
7.41024287309674708e-47
2.29198187220301242e-48
-1.05953128763206807e-47
1.18796800761382972e-49
5.11814534615413757e-49
1.45212398514338938e-50
-6.8330623033578055e-50
2.18133280936980885e-51
6.85505820818744335e-53
-3.25338990468834187e-52
1.52203525222611007e-07
-8.89712255171818852e-08
1.88965984195353216e-09
-1.72136027712864483e-07
1.15826573971367294e-07
-1.55707549729538134e-08
3.21628649904123363e-08
-1.1667347124567819e-07
3.76039852240836206e-08
1.01497317521596209e-08
2.11037183619621271e-08
-7.31620842722337197e-08
9.37470081746250749e-09
1.14755692089833085e-08
9.74437874418430841e-09
-4.03590094206305435e-08
1.03145709739258338e-09
5.40010583224709953e-09
3.20947573651101588e-09
-1.41748082780626652e-08
2.39565068809334348e-10
1.32017768641219791e-09
6.79967989436890098e-10
-3.89867228739757131e-09
7.32738028203478876e-11
2.78961186995506476e-10
1.66079900138671017e-10
-9.09943181363817719e-10
1.63253161717582064e-11
5.26159199240161181e-11
3.65467542361394817e-11
-1.69354699577455762e-10
3.09331882970750316e-12
8.50682141868928675e-12
6.51685832515667035e-12
-2.75595701581042297e-11
5.23272582304692062e-13
1.28030922108863728e-12
9.86227188831470911e-13
-4.01929251250145824e-12
8.2514391477004807e-14
1.77860220868380404e-13
1.274106339104802e-13
-5.21413399746343773e-13
1.31650380617531292e-14
2.14382388797356429e-14
1.4128373928239633e-14
-5.77997501924242134e-14
2.47275082477551548e-15
2.57995678395189969e-15
1.47905380110761154e-15
-5.82558735800391581e-15
3.73781970085528025e-16
3.04084931870673445e-16
1.63937739294832178e-16
-5.70313663003719956e-16
3.89090275463872549e-17
3.23414940641408503e-17
1.48757718809238935e-17
-5.66408927495572877e-17
3.43975193975215537e-18
3.07228220757303792e-18
1.21625864648034137e-18
-4.76249763780092496e-18
2.85704506611101748e-19
2.70770247177794229e-19
9.2474613810667549e-20
-3.68015100523730852e-19
2.20308914550848258e-20
2.2270681230595918e-20
6.5397601010621797e-21
-2.63821294676926691e-20
1.57418931932539689e-21
1.709888674032086e-21
4.30125626312661146e-22
-1.75668596623406641e-21
1.04108967954879587e-22
1.22468356953427283e-22
2.62964349263587218e-23
-1.08614291926287808e-22
6.36289884548772199e-24
8.17434821080085243e-24
1.49298614845615139e-24
-6.22985169357908912e-24
3.58623737337446837e-25
5.07667002551411945e-25
7.86071502872721943e-26
-3.31020160835895067e-25
1.85887475054754107e-26
2.92721089316998006e-26
3.83086391906764545e-27
-1.62645711843626263e-26
8.83068130833068479e-28
1.5628739902445107e-27
1.72393043416803011e-28
-7.37365863352683763e-28
3.82836215179255845e-29
7.70279153523750985e-29
7.14243209704143735e-30
-3.07582848248334662e-29
1.50664198479119695e-30
3.49092168798574546e-30
2.7147965523286379e-31
-1.17640311877983849e-30
5.34737394185687057e-32
1.44811220330218461e-31
9.42522383845385725e-33
-4.10748049535022582e-32
1.69771522917152304e-33
5.46493794493236827e-33
2.97316148572994529e-34
-1.30238723653080812e-33
4.77217009948505727e-35
1.85146168729897092e-34
8.46775479999256633e-36
-3.72655080882081993e-35
1.17197345739955734e-36
5.61350019024370158e-36
2.16034494770184549e-37
-9.5482251030063018e-37
2.47144718643925516e-38
1.50722674305775451e-37
4.88972726479389013e-39
-2.16984352030569634e-38
4.37170845471268475e-40
3.53205174606307614e-39
9.6989361988323261e-41
-4.32032692446492344e-40
6.27624655705917823e-42
7.08515426778216561e-41
1.65880336530248743e-42
-7.41569929177369621e-42
6.96172684317374146e-44
1.18424037779146972e-42
2.39134206455801258e-44
-1.07282444305079467e-43
5.50634678023764305e-46
1.5852848781759346e-44
2.80843343650578964e-46
-1.26420244679916879e-45
2.77428634502382995e-48
1.59550366424352096e-46
2.53867380738382825e-48
-1.14650327678961671e-47
1.34018022410574792e-49
1.09946453804352065e-48
1.62112664469947607e-50
-7.44768634484309025e-50
4.81894485760269695e-51
7.75097419067690027e-53
-3.58471499972534049e-52
7.81779672527091693e-08
-6.37524759663544024e-08
5.65969444486765625e-09
-1.49690123187992274e-07
5.90839119662195981e-08
3.80128353288718225e-09
1.94797198412983649e-08
-1.13970856571443779e-07
1.9057373452498321e-08
5.40091094220728986e-09
1.46796581388860898e-08
-6.37951728124834379e-08
5.88076550904045416e-09
2.80632804199768597e-09
6.54555294875217335e-09
-2.77018371248480439e-08
1.17038854934165076e-09
1.28757127717520183e-09
1.90277348908895948e-09
-9.40873473046888838e-09
7.30928981143483191e-11
5.53394827935127129e-10
4.48475708051153278e-10
-2.34431768745547898e-09
3.15098187111088337e-12
1.02696794864023666e-10
9.11388448163187873e-11
-4.46492751744448353e-10
4.01543967994968997e-12
2.09942849664500828e-11
1.78367387638244623e-11
-8.7641248510795871e-11
1.10129630079324949e-12
4.14139689098129656e-12
3.23148234824999725e-12
-1.46049088105667153e-11
2.17583430865972696e-13
7.13666478046480763e-13
5.10832282910246768e-13
-2.16061889771794875e-12
4.03807953899931063e-14
1.07039267984215029e-13
6.73046391238883763e-14
-2.85507692719946116e-13
7.33364712975019466e-15
1.43591585682066161e-14
8.00657368917841594e-15
-3.17606379809291871e-14
1.74282960965781939e-15
1.82566791675295614e-15
9.11010078811078908e-16
-3.39066416162901335e-15
2.4694102629790973e-16
2.30214000454052774e-16
1.02639589110980854e-16
-3.59488922300585919e-16
2.38882360110369251e-17
2.39274400501698403e-17
9.07726104406543814e-18
-3.49759365023226041e-17
2.14169118932164421e-18
2.27712144759861119e-18
7.4759648114898032e-19
-2.94609009541878771e-18
1.79033901531413552e-19
2.0161710484486531e-19
5.72176183374158616e-20
-2.28900903053205394e-19
1.38794097791492986e-20
1.66495015484904032e-20
4.07119129530203081e-21
-1.65008944121617857e-20
9.9664216199510472e-22
1.28233312534528877e-21
2.69292721812058232e-22
-1.10451982652911859e-21
6.62191582706068234e-23
9.20605374042341123e-23
1.65515784296024872e-23
-6.86275321994169687e-23
4.06488409121739397e-24
6.1544779344707185e-24
9.44437325310498064e-25
-3.95438978685139563e-24
2.30051905840555456e-25
3.82560276472852554e-25
4.99606817049937261e-26
-2.1102586559330142e-25
1.19712586970400004e-26
2.20636528404661195e-26
2.44568590021552653e-27
-1.04119117149255019e-26
5.70833506083985729e-28
1.1776104762627359e-27
1.1052680648531799e-28
-4.73941074020368344e-28
2.48360702029313065e-29
5.79919908419637739e-29
4.5978697271798576e-30
-1.98471397262142019e-29
9.80769766643765672e-31
2.62468562777504898e-30
1.75441861109253083e-31
-7.61940244101811451e-31
3.49237405990117111e-32
1.0867789839444518e-31
6.11379331262778733e-33
-2.66992654304801871e-32
1.11218832028286698e-33
4.09370521148364954e-33
1.93549982502962591e-34
-8.49492642110739836e-34
3.13501310111979434e-35
1.39280118655534191e-34
5.53034459461294572e-36
-2.43865362769768802e-35
7.71987083130145411e-37
4.24305501156800493e-36
1.41528139825912243e-37
-6.26805856453945522e-37
1.63210429940083941e-38
1.14449325306359046e-37
3.21279360213612747e-39
-1.42874485890591143e-38
2.8938286869926154e-40
2.69382403876652866e-39
6.39070094116876423e-41
-2.85303005101906606e-40
4.16336125050091136e-42
5.4263553866243305e-41
1.09594864263854802e-42
-4.91064975731941649e-42
4.62630945190068799e-44
9.10557103089402626e-43
1.5840196530994948e-44
-7.12120458971460312e-44
3.66361452983459623e-46
1.22332316973499944e-44
1.8646093440085037e-46
-8.40940760350408862e-46
1.81927201228153654e-48
1.23506195108926678e-46
1.68868171876239886e-48
-7.63947901835678914e-48
8.64721351317250767e-50
8.45760377467323177e-49
1.06734101921380754e-50
-4.89423972316103882e-50
3.89939987405414652e-51
5.09177450054093429e-53
-2.36252523774764371e-52
3.58713007244322673e-08
-2.0901064094836499e-08
4.78813996959224467e-09
-1.08940796762885661e-07
2.49134431806107757e-08
5.36182444147468842e-09
1.47948374105400683e-08
-7.69780627990408043e-08
6.05565885128565477e-09
2.97072675061460878e-09
7.72656686049932613e-09
-3.44042850492898694e-08
2.11025229017611905e-09
1.00795062908826843e-09
2.90904403803652874e-09
-1.19986716038418867e-08
5.75667997557821746e-10
3.0176605177746257e-10
8.67473123992066534e-10
-3.50172924369707629e-09
8.48812984602344861e-11
1.01546437232164439e-10
2.09583606231229334e-10
-8.78081393690140208e-10
1.29829871228963357e-11
3.63254078840170296e-11
3.9992403916128171e-11
-1.8387499748600528e-10
2.93222114439629569e-12
1.00702846416080023e-11
8.3700396941636232e-12
-3.79840110313529656e-11
6.00895642018678266e-13
2.14785150147317882e-12
1.53519119861895849e-12
-6.70210670763213512e-12
1.15619043440334426e-13
3.92089181372265645e-13
2.42991045161863671e-13
-1.03045761450309446e-12
2.30127393447834603e-14
6.15190534913121764e-14
3.22013466415161922e-14
-1.3616176242613834e-13
5.05677014088327839e-15
9.02305562504024486e-15
3.94338104562720319e-15
-1.57675451135843383e-14
1.04385784017762738e-15
1.24561168337800439e-15
4.96861137438223557e-16
-1.74430202417595984e-15
1.32292645649734579e-16
1.50868849137197766e-16
5.29310642618926093e-17
-1.98040815967019457e-16
1.27015971068220743e-17
1.56773729174214476e-17
4.74382376696195285e-18
-1.84626213346355999e-17
1.15185974681407085e-18
1.50303863006969688e-18
3.94183722336057765e-19
-1.56343601873601431e-18
9.69939530231191577e-20
1.34131541981801615e-19
3.04092596933362973e-20
-1.22371888284923348e-19
7.56660681165189589e-21
1.11572389421193811e-20
2.17927784554003712e-21
-8.88351297870950247e-21
5.46453405040996126e-22
8.65041523839138618e-22
1.45098447609457196e-22
-5.98467026377890297e-22
3.65000469422195826e-23
6.24815395247958367e-23
8.97224721778009335e-24
-3.74042083709272487e-23
2.25159403996802488e-24
4.20042304145246718e-24
5.14828103927499903e-25
-2.16700302553550722e-24
1.28013488398639417e-25
2.62439768008721445e-25
2.73759767093027601e-26
-1.16229375364980112e-25
6.69010824153792682e-27
1.52074848389526882e-26
1.34662119468204937e-27
-5.76212801465554261e-27
3.20303187001338955e-28
8.15236436229403561e-28
6.11356706677520059e-29
-2.63472380186708479e-28
1.39893696977762443e-29
4.03136840032591487e-29
2.5541929069227402e-30
-1.10804410666347612e-29
5.54447956807578419e-31
1.83166566243473598e-30
9.7868335335414373e-32
-4.27106913615467352e-31
1.98115828708765746e-32
7.61199864880856116e-32
3.42410657494312211e-33
-1.50240378783701999e-32
6.33043957810731677e-34
2.87726018146291595e-33
1.08812537099522264e-34
-4.79786041828209922e-34
1.79032952060251795e-35
9.82337836592934e-35
3.12079232550680665e-36
-1.3822429501863245e-35
4.42261482995972578e-37
3.00266595330635788e-36
8.01545977975148188e-38
-3.56499954890553862e-37
9.37880054103789112e-39
8.12547697310486504e-38
1.82595222657827984e-39
-8.15309826156670384e-39
1.66787958122921831e-40
1.91854488038273271e-39
3.64442405319108847e-41
-1.63330067102819555e-40
2.40655148843319756e-42
3.8765446215949567e-41
6.2704592564730272e-43
-2.81998770199887018e-42
2.68173235553297175e-44
6.52453434128937104e-43
9.09153899130480093e-45
-4.10221133605974068e-44
2.12958039664465318e-46
8.79150772277565232e-45
1.0734744795184306e-46
-4.85901823087745412e-46
1.0508578826291911e-48
8.90121461361877814e-47
9.75077680848861458e-49
-4.42718584193160406e-48
4.99233235500990122e-50
6.08236526950871354e-49
6.13126958663536153e-51
-2.81883678976201084e-50
2.8684952013076201e-51
2.94861261159185175e-53
-1.37393254152361733e-52
1.52400137020793523e-08
9.02149678356197997e-10
2.71475453115814227e-09
-6.30012807137525837e-08
1.00074941734651397e-08
3.88595866057233941e-09
7.12437364679848988e-09
-4.11526356919548506e-08
2.28944818336586321e-09
2.24056444592293609e-09
3.286695975590864e-09
-1.71232430215887971e-08
7.27851157021100229e-10
8.19726737841505771e-10
1.10113426729554012e-09
-5.4280706160986586e-09
1.93537611949650423e-10
2.2517524107982787e-10
3.18806432837199027e-10
-1.50664669125971822e-09
4.053864376676963e-11
7.01216092222718873e-11
7.72030222267704553e-11
-3.72422154682702075e-10
7.73901813346395437e-12
2.10919018797208572e-11
1.74713683395615772e-11
-8.23392322475710403e-11
1.51595393641620424e-12
5.24896859861111569e-12
3.6745548807913939e-12
-1.66532651901391894e-11
2.89396165180654637e-13
1.12399463072105535e-12
6.82479376496659704e-13
-2.96297712811284253e-12
5.77350665785635445e-14
2.08648124689090028e-13
1.06959906624121868e-13
-4.57893527725078871e-13
1.2311849228408369e-14
3.47800674783340883e-14
1.49886728139101233e-14
-5.99437921972631577e-14
3.43161670735367196e-15
5.32297007411431961e-15
1.99186759628521633e-15
-7.34475294205182677e-15
5.77783208360987648e-16
7.73799817938126745e-16
2.59206278577395267e-16
-8.60999080466165279e-16
6.3821028897600455e-17
8.88641610141365241e-17
2.53633395238390003e-17
-9.66744917811314129e-17
6.26850584545279516e-18
9.24915448138312909e-18
2.29380140071091052e-18
-8.98983951642134123e-18
5.734373024363606e-19
8.92252266648391589e-19
1.92138881156039936e-19
-7.65931806251248435e-19
4.86014902403095045e-20
8.01284268308953799e-20
1.49307718958953706e-20
-6.03712529868977348e-20
3.81331722497039854e-21
6.70431439531983692e-21
1.07712987824104371e-21
-4.41147115352898226e-21
2.76852730513667934e-22
5.22620044963290313e-22
7.215444818020216e-23
-2.9898848649409314e-22
1.85828682297010063e-23
3.79383491163360932e-23
4.48687894429588617e-24
-1.87904647711813496e-23
1.15155017768898587e-24
2.56230441282899871e-24
2.58800651603269608e-25
-1.09420728467653662e-24
6.57489156492518149e-26
1.60779163884288543e-25
1.38283227146461618e-26
-5.89701371796457232e-26
3.44977195962258513e-27
9.35355110357878101e-27
6.83294452826058255e-28
-2.9366490716475428e-27
1.65785573475250817e-28
5.03269098489854768e-28
3.11540450669408363e-29
-1.34848681473977853e-28
7.26645718583849477e-30
2.49748081932288424e-29
1.30682212983887085e-30
-5.6938623654230338e-30
2.88965334498878413e-31
1.13847178537192905e-30
5.02689408347235924e-32
-2.20315701764018655e-31
1.035853804123353e-32
4.7460266811726911e-32
1.76527117637534512e-33
-7.77811616720741768e-33
3.32008868680230554e-34
1.79930877074329953e-33
5.62959557304948071e-35
-2.49257595346459529e-34
9.41747837145783447e-36
6.16047690728886323e-35
1.62008151726879973e-36
-7.20509005673417e-36
2.33304582220477056e-37
1.88816406636942751e-36
4.17468131252940571e-38
-1.86431252241872808e-37
4.96132347340118542e-39
5.12298761802940353e-38
9.54031218211111399e-40
-4.27703247615943224e-39
8.84689332865001981e-41
1.2127125750371619e-39
1.91003668311028716e-41
-8.5942148587893389e-41
1.2798893290146207e-42
2.45650495102631386e-41
3.29622906361868558e-43
-1.48823436343264435e-42
1.42996206860346517e-44
4.14467029864077561e-43
4.79322410042812364e-45
-2.17117405657758404e-44
1.13846645359827136e-46
5.59832071252837572e-45
5.67574718492413905e-47
-2.57898294599507347e-46
5.60674066411410037e-49
5.68185244526317739e-47
5.16990438582026545e-49
-2.35625514121257375e-48
2.62504878169465492e-50
3.86833933507256904e-49
3.2519414748943938e-51
-1.49749277955315719e-50
1.84728172466873871e-51
1.56144547410925046e-53
-7.31499279057054601e-53
8.04291347505642836e-09
3.77716468934068682e-09
1.22570865580046206e-09
-3.34592028614195506e-08
4.32837225694997265e-09
3.21754946494149177e-09
2.42570567519491576e-09
-2.2316396236684901e-08
1.06503849282436309e-09
1.68388379076744712e-09
1.38346336599395935e-09
-8.52025762002108178e-09
2.65248158593367748e-10
6.1479764793932948e-10
4.50150973945021438e-10
-2.6053161604657636e-09
7.42732484884077394e-11
1.59084514127253843e-10
1.25517873047238815e-10
-6.84045458652403431e-10
1.78691766408619646e-11
4.5579358025764198e-11
3.22865889606710979e-11
-1.71779265342226419e-10
3.65564898762699999e-12
1.18822783940636111e-11
7.66035785688857824e-12
-3.70035599596916001e-11
7.01106174345647974e-13
2.78506826444483347e-12
1.60182461220976762e-12
-7.33839042335104578e-12
1.36608784422292921e-13
5.86917243885585839e-13
2.94169401664298302e-13
-1.29347368224381635e-12
3.02972271759933108e-14
1.0942603032335434e-13
4.64648572113151064e-14
-1.96652331306288124e-13
7.97679055915054343e-15
1.91975952319879944e-14
6.7394807685301615e-15
-2.64244502657221726e-14
1.92929555214132588e-15
3.13508533481749573e-15
9.75433577267705808e-16
-3.34806725642021399e-15
2.79230751431791286e-16
4.26482893444892318e-16
1.17260374214685259e-16
-4.31943744751055604e-16
2.96787368784792974e-17
4.85160901775538101e-17
1.15850757436547102e-17
-4.4729505330994799e-17
2.94825925313605432e-18
5.06542977895450834e-18
1.0553349165731024e-18
-4.16343976742332196e-18
2.71450877415518154e-19
4.91113786184942891e-19
8.89991220080072963e-20
-3.56734569446327918e-19
2.31288023945656636e-20
4.4321283395179098e-20
6.95892971953573669e-21
-2.82844698827273786e-20
1.82343383958780513e-21
3.72534024453431882e-21
5.0489337038463193e-22
-2.07825839537791671e-21
1.3297296819364513e-22
2.91640990344557656e-22
3.39999625637641849e-23
-1.41573503182562483e-22
8.96224268025107418e-24
2.1255037632618933e-23
2.12459829967302128e-24
-8.93942560981095069e-24
5.57510602220275679e-25
1.44079949150423914e-24
1.23100275606138708e-25
-5.22846602625224589e-25
3.1945809508139313e-26
9.07151568919899879e-26
6.60512595745127922e-27
-2.82936803124772982e-26
1.68179185088147431e-27
5.29402502944100459e-27
3.27657269356036452e-28
-1.41444913646944761e-27
8.10779458882895002e-29
2.8567226056397076e-28
1.49948216442774766e-29
-6.51876267507540484e-29
3.56429605948167964e-30
1.42162863965219319e-29
6.31171576180879937e-31
-2.76197685865382338e-30
1.42142788460427486e-31
6.49701898212340409e-31
2.43625776559802922e-32
-1.07224192589776047e-31
5.10918615999846355e-33
2.71507066517393767e-32
8.5827622621212356e-34
-3.79737164920226883e-33
1.64183035856047042e-34
1.03174214464672013e-33
2.74551750909919413e-35
-1.22057243407846758e-34
4.66868571792470238e-36
3.54038298018204174e-35
7.9243828955092896e-37
-3.53843084100207958e-36
1.15938338958996835e-37
1.08744501668801668e-36
2.04780967011486116e-38
-9.18130254378665404e-38
2.47123370585717774e-39
2.95658848542115233e-38
4.69273957133411892e-40
-2.11205685627611386e-39
4.41665857875055821e-41
7.01293593061601629e-40
9.420391145652076e-42
-4.25511619394479054e-41
6.40385637783854987e-43
1.42335473735991913e-41
1.62996249005347248e-43
-7.38731768753573919e-43
7.17040831327961638e-45
2.40614774804267753e-43
2.37624292758887827e-45
-1.08041786174467787e-44
5.72106774486421898e-47
3.25622576616463702e-45
2.82071691284004234e-47
-1.28647060152264966e-46
2.80647341793199834e-49
3.31102814845896349e-47
2.57551021811352195e-49
-1.17814655795964363e-48
1.29538333233490394e-50
2.24959478618697222e-49
1.61982499464666162e-51
-7.45934528889506923e-51
1.08250542328233648e-51
7.75881234915338859e-54
-3.65447439556293321e-53
4.51921221305851218e-09
2.86697485866146152e-09
6.65027221654370067e-10
-1.92082053496830318e-08
2.25939732390999541e-09
2.26141053761086404e-09
9.99685529479716247e-10
-1.21185478435312506e-08
5.42607731274675058e-10
1.07470203814040328e-09
5.49442182138271509e-10
-4.54461274006162856e-09
1.07143239975563263e-10
3.82516665293008694e-10
2.01121599135968613e-10
-1.29883187256851286e-09
2.68471740647454784e-11
9.94813398908511399e-11
5.3005091747002716e-11
-3.23226966890296352e-10
7.19964948309931839e-12
2.54630625293007622e-11
1.39114908368308854e-11
-7.90003066515971237e-11
1.55128670232213979e-12
6.35157080580810181e-12
3.31366746458602804e-12
-1.67000123902270018e-11
3.06918457100248558e-13
1.44306730680898274e-12
6.894568752555993e-13
-3.2294822392628614e-12
6.51413421627575031e-14
3.02337347346301689e-13
1.24450786625554391e-13
-5.57166335881618147e-13
1.58344573530194576e-14
5.90131707746624593e-14
2.05009845089637133e-14
-8.27075512047449613e-14
5.25956332622311938e-15
1.06525660199548355e-14
3.21259688761211759e-15
-1.15879355528594823e-14
1.01413704373938419e-15
1.7529106967047223e-15
4.73599910213843685e-16
-1.55614499546226279e-15
1.24250863348652558e-16
2.21474864382273484e-16
5.15562705777533574e-17
-1.94951187526493475e-16
1.34020485727215049e-17
2.51014986459679531e-17
5.11881611127638645e-18
-1.99729923760629643e-17
1.34024655367804533e-18
2.62853237568895878e-18
4.6895168011628789e-19
-1.86355083108655679e-18
1.23971041488955683e-19
2.55801634171641909e-19
3.97613797077073673e-20
-1.60394721347704451e-19
1.06055539975534598e-20
2.31686169193888523e-20
3.12455159934242196e-21
-1.27757797418538764e-20
8.39246231531321071e-22
1.95400562308366893e-21
2.27749608987195725e-22
-9.42796019925682455e-22
6.14147795804666506e-23
1.53459545722496645e-22
1.54031897215232221e-23
-6.44838772826750274e-23
4.15272475345962769e-24
1.12176337836252278e-23
9.66401661030786897e-25
-4.08712136437544116e-24
2.59109485542233427e-25
7.62489375670995925e-25
5.62034105228850827e-26
-2.39893930889084218e-25
1.48892203687185207e-26
4.81306159673037092e-26
3.02609317941434492e-27
-1.30250047103027133e-26
7.85925428303369909e-28
2.81542523798240934e-27
1.50594129907126177e-28
-6.53187019305881935e-28
3.79830126602418138e-29
1.52257163088949429e-28
6.91240760180025539e-30
-3.01932114104590866e-29
1.67367608146978796e-30
7.59263296211777496e-30
2.91815590358400121e-31
-1.28283970386709032e-30
6.68935108451770157e-32
3.47628751711550051e-31
1.1296853401042019e-32
-4.99357598636765067e-32
2.40953241763211394e-33
1.45532795483498082e-32
3.99024039886624862e-34
-1.77300204190307824e-33
7.75873773820963853e-35
5.5398458723511261e-34
1.27965910550535181e-35
-5.71290467793330189e-35
2.21056173628829997e-36
1.90409381061480694e-35
3.70251588130196922e-37
-1.66007578686576872e-36
5.49983510568394585e-38
5.85768558256523732e-37
9.59060483632543565e-39
-4.31729607866726753e-38
1.17442664508662456e-39
1.59501745097526833e-38
2.20278658222211475e-40
-9.95349412865116419e-40
2.10268928523536662e-41
3.78887837961492774e-40
4.43175247814329244e-42
-2.0096256547331486e-41
3.05405069607636841e-43
7.70095806607109509e-42
7.684568172030325e-44
-3.49620246963830805e-43
3.42547130118710927e-45
1.3036565558865902e-43
1.1226420249831761e-45
-5.12367836230967292e-45
2.73770423674859605e-47
1.7666781403624442e-45
1.33533816156628299e-47
-6.11287773178625718e-47
1.33994968734569706e-49
1.79889118346017396e-47
1.22165472184880031e-49
-5.60885601810760987e-49
6.07784142836942635e-51
1.22392226498998824e-49
7.69794328795703561e-52
-3.54376642841897532e-51
5.89792469804281449e-52
3.66518421389146226e-54
-1.73559075440997657e-53
2.71124469920550759e-09
2.0775808227791148e-09
3.78260642486988514e-10
-1.24243014424858122e-08
1.09595788048085175e-09
1.26191411425601873e-09
5.67045634524701002e-10
-6.05620739186938835e-09
2.65323205860891508e-10
5.62369420655482313e-10
2.81907380614091208e-10
-2.25659093982692239e-09
4.78996303609745272e-11
1.91437336509815426e-10
9.5690052628409847e-11
-6.41292609574706339e-10
9.50387093776918116e-12
5.16816660072453153e-11
2.37554735175361595e-11
-1.53123737091922374e-10
2.7155889980321793e-12
1.27034445992564422e-11
5.93098231188925996e-12
-3.59662873159700322e-11
6.31033246371063985e-13
3.16338606947446347e-12
1.41193289937912914e-12
-7.48198872157605689e-12
1.35301416074027956e-13
7.18287754738472408e-13
2.93692428548657557e-13
-1.40348193935592258e-12
3.40525649458275991e-14
1.5333838824143861e-13
5.43053419324888075e-14
-2.35838640862531956e-13
1.11054795796227675e-14
3.08347834122504323e-14
9.28190725019111722e-15
-3.58732248347144263e-14
2.9126057876487967e-15
5.94678464346319001e-15
1.53828805485199742e-15
-5.15119085196224322e-15
4.61102700006782671e-16
8.84523718673062342e-16
2.03096676090746776e-16
-7.4387764248850679e-16
5.43139774291706817e-17
1.09697514551355406e-16
2.20839505952847408e-17
-8.50898834463587743e-17
5.90050720603003198e-18
1.24252371391802021e-17
2.20132463426943352e-18
-8.67596381151177679e-18
5.92502781829418013e-19
1.30437425728149317e-18
2.02559633345099423e-19
-8.11279252832078143e-19
5.49830154193486893e-20
1.2728912552977417e-19
1.72470542253164788e-20
-7.00636488101944632e-20
4.71758191175445193e-21
1.15593234376314287e-20
1.3606818699466025e-21
-5.59994184370522211e-21
3.7435074042496358e-22
9.77325195834458738e-22
9.95473268710136973e-23
-4.14608521865077172e-22
2.74658895865460682e-23
7.69366440029870525e-23
6.75596987407607682e-24
-2.84460491466406496e-23
1.86169808368479232e-24
5.63638829641130441e-24
4.25258041239302385e-25
-1.80831741354652856e-24
1.16424537726403549e-25
3.83887410275348189e-25
2.48070480119839019e-26
-1.06436195095099028e-25
6.70431033587575246e-27
2.4277375347850355e-26
1.33935486651983509e-27
-5.79409397691515114e-27
3.54598367094476091e-28
1.42248657190890827e-27
6.68178721502891587e-29
-2.91299330975843332e-28
1.71683917238410978e-29
7.70599982241354059e-29
3.0731437479488615e-30
-1.3499147392785952e-29
7.57789169717036665e-31
3.84774218143115651e-30
1.30105367736172296e-31
-5.74704516175872921e-31
3.03367479219186955e-32
1.76389227553392696e-31
5.04861077894905222e-33
-2.24182079263190819e-32
1.09445099356166935e-33
7.39362578877240057e-33
1.78698026811284963e-34
-7.97572655330455255e-34
3.52941088132810655e-35
2.81778849928275127e-34
5.74255818657119103e-36
-2.5748583666254944e-35
1.00700504159489035e-36
9.69588680162322282e-36
1.66479477647228877e-37
-7.49597392054412772e-37
2.50881913511054307e-38
2.98598025708625919e-37
4.32040290899742733e-39
-1.95295413901090973e-38
5.36432349544062102e-40
8.13887940782521103e-39
9.94111610832537167e-41
-4.51031260538543187e-40
9.61652552567474527e-42
1.93522554657786338e-40
2.00354714271131418e-42
-9.12150153306461056e-42
1.39849923917086509e-43
3.93709817744659763e-42
3.48003094426369075e-44
-1.58944470821549518e-43
1.57051315619921614e-45
6.6711020573246513e-44
5.0923902177104077e-46
-2.33298326055472679e-45
1.25671960660215447e-47
9.04879639411615189e-46
6.06686258657669769e-48
-2.78764350309182356e-47
6.15840901565924336e-50
9.22227494565894269e-48
5.55885552756232781e-50
-2.56154657652930129e-49
2.73141506847437282e-51