/*--------------------------------*- C++ -*----------------------------------*\
| =========                 |                                                 |
| \\      /  F ield         | OpenFOAM: The Open Source CFD Toolbox           |
|  \\    /   O peration     | Version:  2206                                  |
|   \\  /    A nd           | Website:  www.openfoam.com                      |
|    \\/     M anipulation  |                                                 |
\*---------------------------------------------------------------------------*/
FoamFile
{
    version     2.0;
    format      ascii;
    arch        "LSB;label=32;scalar=64";
    class       volVectorField;
    location    "0.0299999999999999989";
    object      faceTraction;
}
// * * * * * * * * * * * * * * * * * * * * * * * * * * * * * * * * * * * * * //

dimensions      [1 -1 -2 0 0 0 0];

internalField   uniform (0 0 0);

boundaryField
{
    inlet
    {
        type            calculated;
        value           nonuniform List<vector> 0();
    }
    outlet
    {
        type            calculated;
        value           uniform (0 0 0);
    }
    top
    {
        type            calculated;
        value           nonuniform List<vector> 0();
    }
    bottom
    {
        type            calculated;
        value           uniform (0 0 0);
    }
    left
    {
        type            calculated;
        value           uniform (0 0 0);
    }
    symmetry
    {
        type            symmetryPlane;
    }
    interface
    {
        type            calculated;
        value           nonuniform List<vector> 
104
(
(-2.73250001236688478 1.19660770718907301e-06 3.17076771011810316e-05)
(-2.61098760040122135 2.5827492460310844e-06 3.23343254477861375e-05)
(-2.47474992685437201 6.37679208977012582e-06 3.12536017032627971e-05)
(-2.31958141482782665 1.01922664584280675e-05 2.75120995889957552e-05)
(-2.15136464597874344 1.25012394915524044e-05 2.2560146468847895e-05)
(-1.97690705901350317 1.234576244125659e-05 2.11764771158257891e-05)
(-1.79806175649075839 1.25081664656970816e-05 1.97030054800200675e-05)
(-1.61560181312652573 1.32155142057719186e-05 1.81076981637049233e-05)
(-1.42979578606659286 1.4322313241840987e-05 1.6561268745124268e-05)
(-1.24121951770978556 1.53583604692094719e-05 1.46384340768399863e-05)
(-1.05028660811100294 1.62303799995007469e-05 1.23006152585384212e-05)
(-0.857165081942250828 1.69635910965433144e-05 9.69987577633253358e-06)
(-0.661631087831122455 1.75937708826792231e-05 6.91469770984820365e-06)
(-2.48555215761470816 2.67017420117611952e-06 2.00731713519844398e-05)
(-2.35671545254284176 2.69188484861625765e-06 2.09159949349137315e-05)
(-2.21957658389173806 3.98627863817633455e-06 2.01751957980459344e-05)
(-2.07395878788322285 5.53906941612886257e-06 1.9556511667306127e-05)
(-1.92167489402074199 6.94312523557942456e-06 1.89516536362160299e-05)
(-1.76455935860694768 7.94616822802335078e-06 1.84152316434098123e-05)
(-1.60366473727540693 8.80579252748615555e-06 1.75783148435472939e-05)
(-1.43956869467079707 9.58558738464704269e-06 1.62834118113879754e-05)
(-1.27234280353190821 1.0330838595018499e-05 1.45988120004556031e-05)
(-1.10223698605569664 1.1066655726416254e-05 1.2714479537233143e-05)
(-0.929982350226129406 1.16072710296327536e-05 1.05478722854522084e-05)
(-0.756346876632465803 1.18867180777318054e-05 8.19091003200452038e-06)
(-0.582455042600709794 1.18687960141024172e-05 5.88924248788383393e-06)
(-2.29875847458844795 1.87448667789595827e-06 1.55102286197022936e-05)
(-2.17087871838243718 1.65580116441874988e-06 1.54143087114817067e-05)
(-2.03767590905608298 2.58784558422457956e-06 1.51407562814155095e-05)
(-1.90030171072262855 3.50264484729931887e-06 1.48092613962047643e-05)
(-1.75882322504064748 4.4551694906298844e-06 1.42620896150699288e-05)
(-1.61313491512338825 5.45732322459060707e-06 1.35255692259502416e-05)
(-1.46354179381313543 6.27669083988028226e-06 1.27160265525900707e-05)
(-1.31041587262888526 6.925333559862852e-06 1.17791638363925578e-05)
(-1.15456148032929007 7.44903519721633121e-06 1.06356781961804847e-05)
(-0.996851243958866262 7.85572518560576091e-06 9.33649774962865057e-06)
(-0.838166568216252572 8.04846330445984823e-06 7.88793996827685657e-06)
(-0.679656746610577511 7.95204495937217059e-06 6.30041702662839468e-06)
(-0.522969589135194424 7.51011517023238102e-06 4.5834875153448169e-06)
(-2.1607809398954001 1.38883579900768798e-06 1.16575616380858434e-05)
(-2.03428103260143134 1.30906330413599216e-06 1.16131021257036987e-05)
(-1.9040044358283541 2.07989278004013099e-06 1.14032022246244708e-05)
(-1.77027766205975379 2.77678348081182902e-06 1.11105111912369018e-05)
(-1.63323283933425745 3.46104806982744168e-06 1.07314003708617024e-05)
(-1.49303977048456282 4.10359089228534039e-06 1.02364862618649343e-05)
(-1.35003152762312517 4.65534082222844837e-06 9.61689427421297412e-06)
(-1.20466114231079024 5.09432201677887126e-06 8.9112657116877547e-06)
(-1.05758527363941868 5.39212876286492435e-06 8.12192003647766766e-06)
(-0.909651694028282054 5.51722514720442054e-06 7.24240813077337237e-06)
(-0.761853937274494908 5.42079359046602872e-06 6.2715270830795636e-06)
(-0.615436775906887501 5.04074206754792285e-06 5.22079740723589748e-06)
(-0.472023863612270445 4.31023182049561471e-06 4.0938453146554624e-06)
(-2.06245224161670304 1.18056690603267746e-06 8.30192253783352192e-06)
(-1.93679805356066792 9.78088330504606983e-07 8.28623868123233223e-06)
(-1.80814696821741827 1.59298521742150804e-06 8.12237912418558706e-06)
(-1.6766519529413404 2.16338698229680067e-06 7.91586473440990981e-06)
(-1.54250316268815912 2.69089465787909731e-06 7.65760834748944873e-06)
(-1.40595217242611104 3.1603807803187114e-06 7.34043230270262878e-06)
(-1.26733353251160352 3.55298423810471308e-06 6.95848020909669564e-06)
(-1.12711120069898296 3.84634423280950797e-06 6.50383443160664876e-06)
(-0.985870230697856953 4.00931356815631397e-06 5.99474226944184233e-06)
(-0.844357154856501868 4.01159320517875325e-06 5.43972185964704802e-06)
(-0.703529296385547953 3.81074369645774794e-06 4.84877496507341974e-06)
(-0.564671194898187401 3.34406524152489647e-06 4.2414392694659399e-06)
(-0.42954774875047258 2.51186464631282612e-06 3.62577401837122708e-06)
(-1.99422359676966821 1.00540498617817933e-06 5.50396027302574254e-06)
(-1.86908094108919665 7.78422724473890039e-07 5.50337371267549527e-06)
(-1.74142678473851276 1.2787051720192258e-06 5.41069316641169837e-06)
(-1.61139933503075605 1.74897569977593168e-06 5.28587259691737288e-06)
(-1.47916807168496667 2.17972221093854761e-06 5.12120835838776938e-06)
(-1.34495886984161883 2.56111020948503733e-06 4.91820305846021212e-06)
(-1.20907103020825368 2.87939997011578306e-06 4.68382930263933426e-06)
(-1.07189525110035744 3.11713588037043663e-06 4.42387545015719894e-06)
(-0.933941471336427576 3.2528525220653585e-06 4.15135100935527466e-06)
(-0.795867825022551378 3.25982053242419797e-06 3.88263686986366329e-06)
(-0.658548303202687313 3.09412615429390853e-06 3.64175449617843947e-06)
(-0.523278176234551307 2.69047297718391206e-06 3.46481553315113034e-06)
(-0.392116350986349393 1.8804541816278231e-06 3.38454568070177787e-06)
(-1.95081879727091345 8.92017334467118322e-07 3.15413117512424927e-06)
(-1.82597364067735501 6.67828960647282572e-07 3.1546519921363926e-06)
(-1.69890967528648096 1.09959931659279948e-06 3.10582975476823826e-06)
(-1.5697259022493153 1.51057629478185098e-06 3.03709533145541341e-06)
(-1.43856246631801077 1.89202573289419872e-06 2.94965350320794182e-06)
(-1.30561477100067402 2.23540815859420882e-06 2.84680195757820947e-06)
(-1.1711381224909565 2.53187372139060768e-06 2.7336169307639248e-06)
(-1.03545182825303583 2.77181134523653294e-06 2.61792521911573356e-06)
(-0.898956014570185591 2.94464462770866242e-06 2.51387493554972566e-06)
(-0.762164527382405033 3.03744670659412431e-06 2.44103067405174958e-06)
(-0.625773743740391741 3.01602435291027564e-06 2.43120942424378752e-06)
(-0.490981793967474045 2.8555920689428932e-06 2.52367086150944939e-06)
(-0.35987186416319461 2.43133958149839146e-06 2.78597117748957746e-06)
(-1.92974744867412662 8.37646810112056221e-07 1.02883438865184142e-06)
(-1.80502947216566567 6.15292939473888219e-07 1.02868000460239298e-06)
(-1.6782196507001923 1.01492706669904374e-06 1.01399995438367055e-06)
(-1.54939736823486429 1.39847542060147388e-06 9.93344490628583688e-07)
(-1.41869083618194303 1.75819557990223378e-06 9.67444630450422845e-07)
(-1.28627129143688812 2.08844123386298867e-06 9.37699589820447048e-07)
(-1.1523509773185967 2.38501343396789264e-06 9.06405655326076758e-07)
(-1.01718161257627226 2.64606255744902019e-06 8.77146814757008088e-07)
(-0.881056010928780275 2.87333355353635242e-06 8.56142267027772046e-07)
(-0.744316478303353013 3.07364889202106952e-06 8.53674459054107905e-07)
(-0.60738965238249687 3.23839251368607809e-06 8.86518046082324964e-07)
(-0.471193160374036524 3.43511684111656057e-06 9.75136300930709169e-07)
(-0.337362453067536094 3.63633722685232517e-06 1.1582875119111399e-06)
)
;
    }
    procBoundary3to0
    {
        type            processor;
        value           uniform (0 0 0);
    }
    procBoundary3to1
    {
        type            processor;
        value           uniform (0 0 0);
    }
    procBoundary3to2
    {
        type            processor;
        value           uniform (0 0 0);
    }
}


// ************************************************************************* //
