/*--------------------------------*- C++ -*----------------------------------*\
| =========                 |                                                 |
| \\      /  F ield         | OpenFOAM: The Open Source CFD Toolbox           |
|  \\    /   O peration     | Version:  2206                                  |
|   \\  /    A nd           | Website:  www.openfoam.com                      |
|    \\/     M anipulation  |                                                 |
\*---------------------------------------------------------------------------*/
FoamFile
{
    version     2.0;
    format      ascii;
    arch        "LSB;label=32;scalar=64";
    class       volScalarField;
    location    "0.0299999999999999989";
    object      p;
}
// * * * * * * * * * * * * * * * * * * * * * * * * * * * * * * * * * * * * * //

dimensions      [1 -1 -2 0 0 0 0];

internalField   nonuniform List<scalar> 
7236
(
2.78972978280708972
3.3143612669727287
3.42477210658942299
3.24770156958723266
3.03075279791560259
2.81928313636185868
2.62653504858718412
2.45524627590965183
2.30251867143425093
2.16611003384905709
2.04415084724017504
1.93484465067529765
1.836429690601038
1.74727309097725958
1.66593062490958732
1.59116907725629964
1.52199140022956225
1.45764537715375875
1.3976023120514327
1.34151797623296609
1.28918094690568585
1.24046021120835248
1.19526377520724214
1.15351047323558253
1.11511631965088176
1.07999004704167234
1.04803226538179284
1.01913881229953929
0.993209128587621115
0.970150546437658856
0.949877216678214342
0.932310503330889051
0.917380825569669156
0.905027637066674107
0.89519982574413437
0.887858490480301077
0.882977871630418631
0.880542388862068925
2.677175018118366
3.12363702416414402
3.21544336340900383
3.07551609417209093
2.88522146718956929
2.68544920335296844
2.4966671204818498
2.32683970373113791
2.17511607090643855
2.03955647498071135
1.91828016760070774
1.80949858049421652
1.71148332787599777
1.62263445270174045
1.54153068713202912
1.46695580332583719
1.39792754263461694
1.33370204210903998
1.27375692827574083
1.21775427091572097
1.1654866367095118
1.11682639548393481
1.07168404674212847
1.02997914255865597
0.991628691122768302
0.956542275368297501
0.924620215807090973
0.895758168385396791
0.86985641886776055
0.84682278964127955
0.826571222697006114
0.809023171058709023
0.794109307641629458
0.781768869719952297
0.771950533834422248
0.764615775385521612
0.759739689090078163
0.757307241833902411
2.58210579367306003
2.95901549655186313
3.0130002512802605
2.8902187534208057
2.72023825398044128
2.53578897398570779
2.35612750519109238
2.19127723498961879
2.04260227400002048
1.90908280136066377
1.78924488287410499
1.6815061219993388
1.58425834276094779
1.49598283925482867
1.41531739476235119
1.3410904095338152
1.27234699567617948
1.20835959065657805
1.1486174536856788
1.09278950822058207
1.04067337583503172
0.992146496144293399
0.947122273710656049
0.905521939770400186
0.867264591899487236
0.832260835592720016
0.80041205110727276
0.771615249100641831
0.745771569469025453
0.722788817321918575
0.702580992053470021
0.685070074891099945
0.670187155035290694
0.657871707587744381
0.648072929103362338
0.640752921635371564
0.63588708073504363
0.633460163751658145
2.49407950279082424
2.78981992308279647
2.82027661489979842
2.70628689480786511
2.54862844656889509
2.37756191890814783
2.20822703684171096
2.04999907650887181
1.90561391633693034
1.77500000141031711
1.65721756546739418
1.55096503722190837
1.45480403608875264
1.36733717691795076
1.28729369397991
1.21356518797609425
1.14523603101011773
1.08160320550990963
1.02216973229806718
0.966611434467317898
0.914731972677604865
0.866414339917276122
0.82157483171201795
0.780136989682925663
0.742023056468600561
0.707145520250183179
0.675408436302126658
0.646711037377378117
0.620955360001609336
0.598049272203769133
0.577907168708490682
0.56045185065692249
0.545615113535229179
0.533337129453973602
0.523568048827291133
0.516270738334125512
0.511420683989166402
0.50900232616368668
2.39921384888037981
2.61472206670998553
2.62956879539593524
2.52290171465140967
2.37526738529900072
2.21514158423890217
2.05537260619180806
1.90414015900037259
1.76466656681163769
1.63755101078656407
1.52230991825271067
1.41792105984935857
1.32313826373472265
1.23671004094465697
1.15747372640921342
1.08439583285601948
1.01661135151278126
0.953448615149337431
0.894426722211915548
0.839230452146965455
0.787671095653269204
0.739637330331525233
0.695048144333193507
0.653829839134277502
0.615908812922609683
0.581200352420421784
0.549612982546863527
0.52104878700671553
0.495410707850418408
0.472606828210689334
0.452552214736766101
0.435170738349267672
0.420395262134731107
0.408167147102940442
0.398437873034274914
0.391171151109069082
0.386342384324758537
0.383935374058830714
2.29020165009281751
2.44554118659109898
2.44282058195612795
2.34003039223420028
2.20083668059703452
2.05008190127664269
1.89892381912014385
1.75455054384147546
1.62025028630434553
1.49700449973174665
1.38466244571615338
1.28244778945743887
1.18930541380800392
1.10413450194220175
1.02588481177991797
0.953606114656485704
0.886493098651454758
0.823910901649350436
0.765398886278028545
0.71065435429513335
0.65949714993405828
0.611821216595774486
0.567548006683187833
0.526606417484554723
0.488927186023937255
0.45442976089659104
0.423029612232498908
0.394632092547775537
0.369140946212578203
0.346464622362664065
0.326519064946323434
0.30922945015790293
0.294530154109506004
0.282364258467618146
0.272684911075127601
0.265456695178335478
0.260654695875974562
0.258261655754373209
2.167323354206804
2.27887597642268336
2.25935565401054195
2.15832283477098796
2.02582599834068633
1.88307881680394962
1.73967614112562785
1.60187530681331625
1.47280702113482276
1.35363417307448142
1.24443619353040003
1.14464140610239928
1.05336829139694377
0.969655882284637505
0.89256281794883563
0.821225902777614758
0.754904778233458584
0.693007001810907686
0.635098619203538939
0.580892994292945275
0.530218170048174509
0.482973113724138092
0.439082178613228402
0.398475409610046016
0.361085278298592383
0.32683921796467208
0.295663090842908427
0.267465327664136443
0.242150151136964253
0.219626511780602551
0.199811350101446128
0.182631398423891644
0.168023081061267843
0.155931714038869296
0.146312382036436484
0.13913054373546585
0.134360734950638161
0.13198430876701106
2.03438390094478727
2.11402136136983954
2.07846976480439949
1.97740579806522176
1.85033700413411251
1.71453422517146903
1.57816113933394542
1.44660164644423039
1.32270682646160731
1.20769434894359318
1.10179807072922742
1.00461218598014135
0.91540226153232207
0.833328863470673809
0.757550795814175171
0.68728997132445091
0.621873393697547905
0.560757739468729643
0.503542899751212358
0.449960472043480553
0.399845388175778194
0.353102443053186166
0.309660642574267619
0.269449963705001516
0.232391652758044076
0.198434830003562546
0.16751886756733847
0.13955358426355291
0.114443092439462379
0.0920970317635489977
0.0724333584062216707
0.0553806733398629625
0.040878073639916912
0.0288735047885118057
0.0193241560050225747
0.0121964097901714474
0.00746409183369045603
0.00510690461121288131
1.89173597751533995
1.94748719065461451
1.89854343994202468
1.79691964473939425
1.6743694275558334
1.54468511239652107
1.41474218734814561
1.28909183690283458
1.17025120941873717
1.05941448583359321
0.956915873000145023
0.862480480702131347
0.775492741789919338
0.695216016886613275
0.620896812422285116
0.551835788375613978
0.487428642206331419
0.427187930741520727
0.370753275900350454
0.317875092521862967
0.268393404603440855
0.222220281585217894
0.179293572761266562
0.139531711896105248
0.102842779041634413
0.0692145955987064632
0.0385974219834235299
0.0108988499009503581
-0.013977414859721593
-0.0361204304797400066
-0.0556112411064368928
-0.0725188258380355943
-0.0869006585683576027
-0.0988060266934308595
-0.108275541570392542
-0.115341654010096106
-0.120031280793911455
-0.122366548199416725
1.7409782344817073
1.77769686674622784
1.71871135698421895
1.61658595282913309
1.49786702825632689
1.37366366524695938
1.24965271471001449
1.12960231895521002
1.01567747431976585
0.908996146196543009
0.809952858806890053
0.718371549201684667
0.633732184192814518
0.555385583549610873
0.482651629833925178
0.414902067411287545
0.351602356547816131
0.292325622333304391
0.236754822596769054
0.184658998617547754
0.135880577937744773
0.0903385161985588159
1.58517381504144339
1.60547561973485786
1.53861101311178317
1.43612422569290787
1.32076607886295472
1.20153689808673447
1.08303682370372156
0.968314593880087227
0.859171468448584719
0.756614044858301193
0.661063985328212977
0.572410959581375112
0.490216995136348643
0.413909086820111183
0.342867098760222255
0.27652819721572941
0.214427928663994516
0.156200815425719286
0.101574825992251538
0.0503380177442782628
0.00233074934466936945
-0.042532604916134531
1.42741490188613107
1.43180563111041881
1.35806564667021679
1.25533663468042178
1.14300637242197101
1.02833230903551387
0.914990150717998052
0.805365314568648794
0.700881300872755464
0.602418555793756694
0.510397998481445736
0.424722862945966506
0.345046045429784121
0.270860076911119352
0.201595517747192421
0.136754066215591052
0.0759397095322593696
0.0188444398618416997
-0.0347583701169809078
-0.0850597929018703791
-0.132227185781550016
-0.176378895967939098
1.26886722217419656
1.25717234489149354
1.17700563197790098
1.07415011575564678
0.96461485992955831
0.854168635564134915
0.745694972900298181
0.64095744429552659
0.540993256612986473
0.446582527666208318
0.358097011374252761
0.275429053303464899
0.198324726789250949
0.126316290865151393
0.0588898844624199391
-0.00437974726920309365
-0.0638270345971774233
-0.119711530313487913
-0.172216427322410937
-0.221508770161016111
-0.267792858325448302
-0.311199072272582811
0.28935966495563803
0.204303397891249405
0.124634772125582938
0.0501630319395205415
-0.0196365086683112366
-0.0851946902891411728
-0.146830471148445829
-0.20483527231323917
-0.25943314614980717
-0.310771878233478516
-0.0274961399493669489
-0.0993752707241388755
-0.166961439208901163
-0.230608285693192583
-0.290554440514546819
-0.347047823618739537
-0.400286083652887203
-0.450431078325401968
-0.315630287948223787
-0.377308594669571784
-0.435511288800288332
-0.490438633763761844
2.88355924815563691
3.01714549450331448
3.04820147006586772
2.95848996766508332
2.82140818575811858
2.66891722082066707
2.51733872420166716
2.37395381466046462
2.24097450515031982
2.11906394875129722
2.00795949068974133
1.90683513599989385
1.81460385399710589
1.73013021650512511
1.65234185686809609
1.58028829947483795
1.51319127159987721
1.4504635299758859
1.39170068346426046
1.33665062053933714
1.28516510958178887
1.23715405148376068
1.19255100736948116
1.15129180692516875
1.11330701504089102
1.0785181508235282
1.04683558392840781
1.01816426062754006
0.992413294881323016
0.969498307810011117
0.949339473964239455
0.931863045873621232
0.917003744230128648
0.904704570560277199
0.894917413588822597
0.887605811692048552
0.882745245516672883
0.880320050419187261
2.75920328440690854
2.86852805724216653
2.89411169121478995
2.81502115030856626
2.68664271276219591
2.53838732044857229
2.38864139669781483
2.24624910572589487
2.1140936960518415
1.99289202880833338
1.88235814685402514
1.78167843607548715
1.68979137472864571
1.60558420802001423
1.52800296427962534
1.45611397555358257
1.38914989630546271
1.32653074913420155
1.26785925425252333
1.21288807490805794
1.16147165709017686
1.11352194270943294
1.0689733175402778
1.02776249842303691
0.98982163015007929
0.955072487107186618
0.923424988700457416
0.894784738335126728
0.869061857329115783
0.846171922916740815
0.826034695756454274
0.80857658136735322
0.793732580738128579
0.781445699464968335
0.77166796028255269
0.764363279354554503
0.759507622922034553
0.757085585769574521
2.63285933740639644
2.71991721889089666
2.73541224152391749
2.65991757880612223
2.53854885023871901
2.39700615130638628
2.25202638542533951
2.11277726192040616
1.98281581761103198
1.86320220617885912
1.7538441581242119
1.65404052145822478
1.56280812278835124
1.47909627189461257
1.40189946216774453
1.33031989895379055
1.26361333750474514
1.20121498206123878
1.14273681156288331
1.08793565494834499
1.03666886410096182
0.988851314882205568
0.944419449708293834
0.903312071031954544
0.865463327309030861
0.830795775183653218
0.799220539034707356
0.770644930327903932
0.744979774382158455
0.722140312129545991
0.702046284665285292
0.684624734960498582
0.669811231227777304
0.657549120794079567
0.647790908239585406
0.640500982426086662
0.635655508820209048
0.633238921333057703
2.49854586457306205
2.56939803898414265
2.5738389595365776
2.49931105418937793
2.38330612927968533
2.24861550868877913
2.10947846802213368
1.97450255789043227
1.84761709417590336
1.73025198360977006
1.62256171966367502
1.52399842395119056
1.43369035204950968
1.35067809397616756
1.27402834654351182
1.20289488296909708
1.13656753550721223
1.07450208191937424
1.01631998095139142
0.961781716109513019
0.910747824109247039
0.863136396196996447
0.818886289022054514
0.777939017527289556
0.740231520841568624
0.705688219605014488
0.67422302000667389
0.64574569297520279
0.620167721519678361
0.597404107164376752
0.577374952477574421
0.560008276860421539
0.545240495685885618
0.533015645047885456
0.52328703188173753
0.516019658057273012
0.511189769314217113
0.508781599297607245
2.35830293395038559
2.41519680462167763
2.40909113494415994
2.33529492845764253
2.224130294429294
2.09567926930663839
1.96240755007154544
1.83214263957954016
1.70885559667664788
1.59422015327576694
1.48859523043503028
1.39158784361716137
1.30245370194513899
1.22034156558910611
1.14440301869633432
1.07385436489278074
1.00802847677444873
0.946405873248940765
0.888619129308385602
0.83443395628302186
0.783714745664002899
0.73638264357822758
0.692378855474899746
0.6516479445080684
0.614130342788008932
0.579753479887141099
0.548435729967671093
0.520089981582822714
0.494628373995402826
0.471965836809571937
0.452023114051305019
0.434729455681052368
0.42002245662832316
0.407847259724121391
0.398158296089336838
0.390921268227983676
0.386112368724151334
0.383715345131673047
2.2191348429444826
2.26127463739310031
2.24423271195695317
2.16993389256196334
2.062534550826566
1.93951444090762126
1.81178077899510548
1.68630775999277271
1.56689690632676593
1.45531269234909599
1.35205398415435507
1.25686586473352402
1.16913232337472417
1.08811263878941999
1.0130468597801694
0.943220379718944124
0.878015070554198584
0.816940391394982979
0.759644093337434212
0.705899738302901758
0.65557560030236528
0.608595373579507881
0.564902426602885699
0.524444241080519014
0.48716483582584702
0.452995857399374535
0.421862421649320862
0.393681180975511857
0.368364899043899352
0.345828559855279272
0.325993686121402892
0.308790992650460505
0.294159689917648737
0.282046492559179351
0.272407242686407036
0.265208376314844507
0.260425834368502862
0.258042498716334889
2.07999188109967736
2.10622773518258688
2.07921461439035404
2.00356599179960071
1.89908906446571812
1.78082967840012074
1.65825516078931301
1.53750358319662506
1.42208298391059373
1.31374140154872232
1.21306228460428667
1.11990677793660787
1.0337751829249533
0.954028299623443488
0.879991453169488902
0.811020459416226913
0.746549476422756264
0.686122313774056303
0.62940765897923856
0.576189212720321753
0.526338438208481585
0.479781473409958026
0.436463950847651661
0.396335326899290963
0.359341878801318626
0.325420763585388406
0.294507683451665225
0.266523467456085572
0.241381279782901248
0.218996134638562268
0.199290315821558539
0.182196315136687215
0.16765551691669045
0.155616630534485045
0.1460371135895151
0.138884154586302211
0.134133260943239074
0.131766163630273825
1.93702730460951944
1.94920839203488327
1.91350075797188257
1.83616477597116856
1.73407423999165644
1.62005254031726786
1.50228825947760991
1.38611969723329498
1.27470269579202933
1.16970361212811391
1.07175063973509044
0.980798198029454671
0.896443623081466079
0.818135141795337195
0.745275193529702173
0.677286477767048978
0.613657393242307725
0.553972462777336028
0.497927072866374942
0.445316399270394347
0.39601422709543066
0.34994995966585174
0.307072497631079466
0.267330368076606817
0.230670200192711894
0.197034204980069294
0.166376668453941723
0.138621687584891129
0.113682251663953959
0.0914731599753908498
0.0719173135500327243
0.0549495105125037409
0.040513981018387546
0.0285616794073495495
0.019051775460024678
0.0119522960782471044
0.00723821603810392844
0.00488988900160081119
1.78926368641535349
1.79017769579221664
1.74689211089744112
1.66779103840849108
1.56766542885744653
1.45745865773909222
1.34419313726467804
1.23244230069010485
1.12498946058262783
1.02337805273372551
0.928252372340582665
0.839637895345008101
0.757209216004415708
0.680487658657741745
0.608941196158004239
0.542053049394154218
0.47936749448871141
0.420515492192947482
0.365223558832664885
0.313299010235483566
0.264617104795614955
0.219111777168293775
0.176736811591808873
0.1374394728918229
0.101148640718661476
0.0678345606936767709
0.0374697721472250223
0.00997775352820529093
-0.0147291427470974678
-0.0367367167048877619
-0.0561215517625048843
-0.0729454963988023231
-0.0872606906982031916
-0.0991140116435194063
-0.108544543990559794
-0.115583134839161272
-0.120255315438725918
-0.12258229668448628
1.63751155414106897
1.62939588282285008
1.57940713158703061
1.49848297124606034
1.39996866742861537
1.29322134654160159
1.18417160266502575
1.07667414413452711
0.973128077145054782
0.874923736445770484
0.782698762792722658
0.696529054653334256
0.616150718238542172
0.541145897064611692
0.471035340739784925
0.405356427789520968
0.343710666782600427
0.285778769051712622
0.231321255693753391
0.180158258601002208
0.132164944328288847
0.0872790237845155747
0.0454631620719814222
1.48308931890635542
1.46715796463772752
1.4110172591915735
1.32822298093629731
1.23104056022337782
1.12743803462899939
1.02235354531923073
0.91896325181181826
0.819267954951735211
0.724481787536735311
0.635215966447264746
0.551576275630689894
0.473350927397261811
0.400173120964561368
0.331604917254928466
0.267233845747791188
0.206719116577124939
0.149791084243509287
0.0962461865493120516
0.0459188621280228748
-0.00131982397633567672
-0.0455345644944256112
1.3272862425651335
1.3038487342352123
1.24173161925979203
1.15699119054786337
1.06089421210126522
0.960158924462763963
0.858830780389589377
0.759429659966651238
0.663536553178146749
0.572180994310351965
0.485927278542369168
0.404884287379913221
0.328895146213004086
0.257634593620505781
0.19069785149301155
0.127723073175244117
0.0684257327170283425
0.0125819472064061522
-0.0399745673835842918
-0.089392265195851639
-0.135808791893353265
-0.179317196769794407
1.17097251776770683
1.13977919508374059
1.07157056927638261
0.984779845404011756
0.889580042186738806
0.791505400029411943
0.693771284212634898
0.598246230675635537
0.506084927650378713
0.418156743430518674
0.334952560917962439
0.256558816746723206
0.182874363402282247
0.113599049944427932
0.0483625031919228121
-0.0131376228681330254
-0.0711358409895359589
-0.125818016153796508
-0.177313773365658012
-0.225751097459541583
-0.271300379761659327
-0.314074929155748972
0.262591030447709706
0.182402499722072564
0.106686662439495317
0.0353831909066761874
-0.0318576367991494358
-0.0953514978348759534
-0.155308287744826634
-0.211930234047548849
-0.265375898191336779
-0.315745139242795236
-0.0446133018903380751
-0.113527377057354162
-0.178702899779018765
-0.240399185491547263
-0.298748296027703475
-0.353922098889699388
-0.406059276202434205
-0.455271477819149561
-0.326919226809652352
-0.386743134686917234
-0.443419868510103621
-0.497085039793915717
2.81040631942335661
2.84524803915263025
2.82985514209453326
2.75976901153548004
2.65919711153864702
2.54246443273530653
2.42023647827015642
2.29935189885762847
2.18358673709741691
2.07483826524632242
1.97377309147687474
1.88027237852329798
1.7938239317457858
1.71374654582607922
1.63931229860176919
1.56983327270481809
1.50472764722044228
1.4435581889894904
1.3860355214171971
1.33199046168682633
1.28133161548362429
1.23400656805529985
1.1899734595114897
1.1491867762515553
1.11159289353425184
1.07712520138154266
1.04570363328460036
1.01724317842005751
0.99166250551313373
0.96888425179898563
0.948833632816991401
0.931441508046700894
0.916647186681679771
0.904397956398630409
0.894649222705270697
0.887366610306044246
0.882525983633574707
0.880111026495886684
2.68224996614027145
2.71081816084479543
2.69541829337193839
2.62790575494150369
2.52942415560047351
2.41397435483406086
2.29254540502469073
2.17234389112286097
2.05721722623345915
1.94903214266013824
1.84842815581092323
1.7552932979884186
1.66913253401651263
1.58928222958896503
1.51502784783463462
1.44569238790788734
1.38070392439535494
1.31963359886363585
1.26219785660490702
1.20823012128886109
1.15764020436501824
1.1103764363722084
1.06639748899613007
1.02565928589601851
0.988109581936933878
0.953681421356290304
0.92229450561911297
0.893864986992014443
0.868312458753810024
0.84555914295668988
0.825529749109011224
0.808155480742670074
0.793376155338523126
0.781139161393191062
0.77139995725238597
0.764124384252685807
0.759288696054134737
0.75687681351680669
2.55168814822139645
2.57239021417160751
2.55323498656296088
2.48710573307485117
2.39090087194323564
2.27805562503476633
2.15899431386392404
2.04069553515075786
1.92706969561863728
1.82007323971439106
1.72039807085896079
1.62798102942448897
1.54237199938930725
1.46294705617529974
1.38902712669238104
1.31996416220131496
1.25520755103290349
1.1943420592988887
1.13709057428189109
1.08328828991715431
1.03284584809397173
0.985712847600680231
0.941849694638042689
0.901214465140944609
0.863756374674374161
0.829408934054695735
0.798093471341615568
0.769728117406637047
0.744232915912718118
0.721529508828786525
0.701542682709524468
0.684204510687640655
0.669455485577416409
0.657243264581939934
0.647523624432181588
0.640262762677007435
0.635437134071908938
0.633030582705365052
2.41641184516572238
2.42912639053191182
2.40555313699536422
2.33995579539166831
2.2461909477511206
2.1365843596128169
2.02066284949088804
1.90499152738352384
1.79347926836329408
1.68815976619493258
1.5897973482109089
1.49839588685506198
1.41356668477414149
1.33474425507543071
1.26130263039272772
1.19263647644418502
1.12822520474554699
1.06767054242524839
1.01070167232008901
0.957154849186658163
0.906941144758381723
0.860011428564651403
0.816328072036580643
0.775851521042867143
0.738533135724804835
0.704308226524181569
0.673101399718436966
0.644833343299913153
0.619424449912349018
0.596795973058887652
0.576873220915124052
0.559589434286102749
0.544885964643836207
0.532711005297706208
0.523020943850592501
0.515782485699436744
0.510972199814024197
0.508573865661236302
2.27637578401042528
2.28169414790874825
2.25389926606603108
2.18860174707699873
2.09714320047197145
1.99084135799273976
1.87832653685701678
1.76567910788712124
1.65669586520858481
1.5534268180849673
1.45669328794210995
1.36656625756015515
1.28272769245080198
1.20468175697219504
1.13186497898711469
1.06372302724487167
0.999771339176747542
0.939631576879377373
0.883040779508106666
0.829837126206182885
0.779932066918561095
0.733277493581429352
0.689837510208164306
0.64957486206392534
0.612443811318339915
0.578382840365696205
0.547321468754107809
0.519183454151768364
0.493889589309203791
0.471360996576548175
0.451523779161999816
0.434312528616960791
0.41966970808438997
0.407544407410255216
0.397893917254761753
0.390685533560152121
0.385895837704426037
0.383508333005245561
2.13298840990975602
2.13196739533337709
2.10005693307749475
2.03446141186281704
1.94492129436524319
1.8417160543763047
1.73261794470749697
1.6231791063767167
1.51698220021012231
1.41602900237141283
1.32116943132460141
1.23253526700711591
1.14988035341405115
1.07277947734595624
1.00073356172609262
0.933242910981869955
0.869862739751365077
0.81023822751898289
0.754117581539001436
0.701342442664671162
0.651824414235168459
0.605516128756130145
0.562383024594575898
0.522389595892393088
0.485493231445409124
0.451636953947673558
0.420757297455925827
0.392781677223626224
0.367631398186494152
0.345227610956600039
0.325497290250854387
0.308376550975704156
0.29380934026691452
0.281746049365835582
0.272145118814668074
0.264974460863792061
0.260210520615293817
0.257836248340021723
1.98737042572892664
1.98057023836918367
1.94458116887461818
1.87817841933863772
1.79017372889460691
1.68980608328320092
1.58403379105427478
1.47785920862571096
1.37458777402605126
1.2761231386256453
1.18331931304288562
1.09635971918687591
1.01506274720416734
0.939067206454750392
0.867934918056096238
0.801220089346352804
0.738519668196666923
0.679506711383875972
0.623944855281072908
0.571680762810785059
0.522625943184375719
0.476733959040573252
0.433971318468280853
0.394302936109256597
0.357688078041171198
0.324075863495273508
0.293413341638374736
0.265632070985719948
0.24065383369538107
0.218399706745753153
0.198797441125120211
0.181784969817466391
0.167308224192563304
0.155319248203874549
0.145777793988063009
0.138652406797291405
0.1339192798310338
0.131560644312092245
1.83993649722629637
1.82780334306113579
1.7876490110909915
1.72010284608603703
1.63329160730955847
1.53550999082602635
1.43293259761935099
1.33000590118451867
1.22972222113523055
1.13385390023206245
1.04324117451831322
0.958107450051875253
0.8783238460414593
0.803583652382245717
0.733502175709966453
0.667683202353192895
0.605766409792052873
0.54745737676344397
0.492539414040120915
0.440865599888091486
0.392347279034412022
0.34693979714161105
0.304611142410324942
0.265324087772598194
0.229036883601341668
0.195705507078981711
0.165294651869907328
0.137739424003798683
0.112961686518823434
0.0908819591480125588
0.0714285924281374829
0.0545419124452698467
0.040170428264802216
0.0282680090803048012
0.0187957871412653965
0.0117230258947551569
0.00702563569717040703
0.00468501977704638417
1.69079501255212383
1.67380583374829506
1.62944963226766948
1.56047130233534515
1.47453430121598439
1.37909199419548223
1.27955953628720143
1.17982817451656619
1.08255308665494798
0.989351545125774834
0.90103503771472182
0.817854408777158204
0.739721825654365173
0.666375275925168209
0.597473602284715355
0.532664230569585895
0.471630347675595862
0.414113934656371585
0.359921540370903736
0.308913968972665876
0.261002209895973447
0.216144400522998437
0.174311506931345228
0.1354625007877861
0.0995384715643314877
0.0665244701328659982
0.036401637979926349
0.00910569164751606763
-0.0154418513581382477
-0.0373218704804516577
-0.0566054147709341704
-0.073348630267983661
-0.0875997886276472792
-0.0994033271519737527
-0.10879669424625471
-0.115809638772107815
-0.12046645089269914
-0.122786641277499275
1.54016574210266155
1.51874322262137107
1.47017104118371833
1.39944786575337665
1.31407185660211145
1.22072087230999982
1.12407759880822788
1.0274765933279868
0.933214345671320222
0.842732377696237656
0.75679936529390579
0.675681411377522023
0.599321831396932403
0.527494286316316341
0.459890752210936782
0.396197148113509812
0.336140857683394856
0.279502321282730559
0.226114146103991276
0.175846272597423914
0.128608061488113989
0.0843595798886300763
0.0430786325377523482
1.38850656836637643
1.36285144859755092
1.30992873064087445
1.23712077878104876
1.15199811876349623
1.06049980306062563
0.966600134034334424
0.873068052364417202
0.781819130983749666
0.694102357078298926
0.610630440356640714
0.531672098055357312
0.457193580161387336
0.386996421932230161
0.32079690728894561
0.258316978455066293
0.199328402519933778
0.143649715311098491
0.0911420052601283892
0.0416862636849268942
-0.00481348311175655574
-0.0484019424311610269
1.23655725639765879
1.20647211614651129
1.14877453366932314
1.07349741494767725
0.988336149899585292
0.898485236267465792
0.807213791007031389
0.716705169629963112
0.628470799685056258
0.543563453108587558
0.462626156393276977
0.385913188095768245
0.313410237850773266
0.244939713139672
0.180236095493779613
0.119059265349461318
0.061224120663715631
0.00658418233905844197
-0.0449688739961298101
-0.0935402067946702331
-0.139235263322806002
-0.182129416782057296
1.08512195996463268
1.04995009273293105
0.986691334400953357
0.908538634008999368
0.823111264987865132
0.734765009588842055
0.646038882281628091
0.558507988411219403
0.473276065512118205
0.391214527546638546
0.312885078282650442
0.23849702989491095
0.168052177965530403
0.101386245103401995
0.0382528557052128626
-0.0215399261127444674
-0.0781398584199177737
-0.131664690125927963
-0.182191936168959234
-0.229809654857613843
-0.274654398637147246
-0.316827065596463564
0.237182627293387016
0.161491524026138533
0.089489031231109184
0.0212053958625115779
-0.043593119503418043
-0.105106645832685253
-0.163442658519676653
-0.21872930130020185
-0.271064581569342655
-0.320500948964535182
-0.0610232690523540011
-0.127096548054530301
-0.189976699530634008
-0.249800501299539901
-0.306609953322370288
-0.360509445635324166
-0.411582896898811557
-0.45989560652788386
-0.337760879801432878
-0.395796299695797771
-0.451004705433503794
-0.503452158945064676
2.69962233487987424
2.70304474129783445
2.67757296637831521
2.61865782029496152
2.53709156473534314
2.44165950941535836
2.3393750917488032
2.23542413236419479
2.13347808069276512
2.03573702760594477
1.94326062458803461
1.85637740440457599
1.77500387437405971
1.69882262452795763
1.62738995748820581
1.5602346478558482
1.49694299396411323
1.43720780708104057
1.38083603099182772
1.32772608939488834
1.27783414764607417
1.23114168681140534
1.18763145552749583
1.14727724675877729
1.11004036517815963
1.07586492496041886
1.04468041817495783
1.01641174588145344
0.99098598752790712
0.968331461048864139
0.9483778635568898
0.931060861349083613
0.916324641199530721
0.904120570254924871
0.894406895819301884
0.887150734924492146
0.882328210442722138
0.879922519311842843
2.57274877780428834
2.57399597660829427
2.54801440876159413
2.48999856004062936
2.40926456040408787
2.31434303988891044
2.21247112890943498
2.10899991856394387
2.00753631903263452
1.91022854568831724
1.8181173954359362
1.73153472974503631