/*--------------------------------*- C++ -*----------------------------------*\
| =========                 |                                                 |
| \\      /  F ield         | OpenFOAM: The Open Source CFD Toolbox           |
|  \\    /   O peration     | Version:  2206                                  |
|   \\  /    A nd           | Website:  www.openfoam.com                      |
|    \\/     M anipulation  |                                                 |
\*---------------------------------------------------------------------------*/
FoamFile
{
    version     2.0;
    format      ascii;
    arch        "LSB;label=32;scalar=64";
    class       volScalarField;
    location    "0.0299999999999999989";
    object      p_rgh;
}
// * * * * * * * * * * * * * * * * * * * * * * * * * * * * * * * * * * * * * //

dimensions      [1 -1 -2 0 0 0 0];

internalField   nonuniform List<scalar> 
7236
(
2.8607988030215572
3.40728201771687012
3.51558904802003269
3.31852542371120585
3.09535676784728953
2.88150165264591607
2.68806378086641073
2.51660378083165615
2.36383946263280276
2.22742390104738641
2.10546355093711579
1.99615717829654238
1.89774219421580415
1.80858559155692067
1.72724312500011679
1.65248157726586187
1.58330390023039524
1.51895787715382724
1.45891481205143791
1.40283047623296642
1.35049344690568596
1.30177271120835258
1.25657627520724202
1.21482297323558264
1.17642881965088164
1.14130254704167244
1.10934476538179272
1.08045131229953939
1.05452162858762111
1.03146304643765885
1.01118971667821422
0.993623003330888932
0.97869332556966937
0.966340137066674099
0.956512325744134251
0.94917099048030118
0.944290371630418846
0.941854888862068695
2.90456257718532918
3.39217562489198476
3.49019700557824875
3.29937941035333004
3.08183063418086567
2.87201192775368108
2.68119640896569855
2.51089949061747264
2.35907597854233764
2.22349766257250625
2.10221821738539605
1.99343615523029172
1.89542083778329995
1.80657195438201135
1.72546818738848518
1.65089330335247242
1.58186504263695693
1.51763954210923346
1.45769442827575557
1.40169177091572195
1.34942413670951189
1.3007638954839349
1.25562154674212856
1.21391664255865606
1.17556619112276839
1.14047977536829737
1.10855771580709117
1.07969566838539666
1.05379391886776053
1.03076028964127953
1.0105087226970062
0.992960671058708888
0.978046807641629434
0.965706369719952495
0.955888033834422113
0.948553275385521366
0.943677189090078139
0.94124474183390261
2.93645446536264787
3.37637570056811454
3.42998110517567145
3.24735298287796725
3.04600395422299686
2.84677324415684074
2.66339745743666167
2.49795799847455902
2.34918671044364613
2.21564894721135142
2.09580793116876452
1.98806869712417922
1.89082085313908288
1.80254534140296374
1.72187989506501893
1.64765290956291022
1.57890949567877081
1.51492209065679351
1.45517995368569553
1.39935200822058325
1.34723587583503179
1.29870899614429347
1.25368477371065601
1.21208443977040026
1.17382709189948731
1.13882333559271998
1.10697455110727261
1.07817774910064212
1.05233406946902552
1.02935131732191865
1.00914349205346965
0.991632574891100016
0.976749655035290765
0.96443420758774423
0.95463542910336241
0.947315421635371857
0.94244958073504348
0.940022663751658216
2.9651356746411488
3.3368613005655976
3.32843723551641135
3.15989693225956314
2.98630281071926618
2.80940206016961147
2.63787908551785844
2.47926986814315553
2.33481704402722023
2.20419012636529565
2.08640546404885141
1.98015259503859853
1.88399154570460903
1.79652467878833244
1.71648119421297896
1.64275268799830965
1.57442353101211685
1.51079070551007666
1.45135723229808011
1.39579893446731895
1.34391947267760492
1.29560183991727618
1.25076233171201823
1.20932448968292561
1.17121055646860062
1.13633302025018357
1.10459593630212671
1.07589853737737817
1.05014286000160939
1.02723677220376919
1.00709466870849074
0.989639350656922323
0.974802613535229123
0.962524629453973546
0.952755548827291299
0.945458238334125567
0.940608183989166458
0.938189826163686846
3.00022871748901876
3.25276924391656896
3.22855559947223991
3.08757811499884482
2.93088763749360259
2.76796943292373809
2.60742410370796218
2.45600351276535278
2.31648865814060878
2.18936513237730912
2.07412266617329433
1.9697335978113053
1.87495077204850613
1.78852254231484342
1.70928622655882489
1.63620833287058276
1.56842385151410268
1.5052611151494486
1.44623922221192425
1.39104295214696627
1.33948359565326935
1.29144983033152516
1.24686064433319332
1.20564233913427765
1.16772131292260983
1.13301285242042171
1.10142548254686368
1.07286128700671557
1.04722320785041845
1.02441932821068926
1.00436471473676603
0.9869832383492676
0.972207762134731257
0.95997964710294037
0.950250373034274842
0.942983651109069121
0.938154884324758576
0.935747874058830753
3.01978801356887283
3.18278245669662585
3.14560710595936222
3.02264366516437333
2.87738441640794207
2.72508975170685819
2.57349784259669701
2.42901690527525327
2.29469322190153546
2.17144292008478557
2.05910009471209499
1.95688531690321699
1.86374291978991535
1.77857200277800054
1.70032231186794247
1.62804361466514202
1.56093059865224482
1.49834840164941729
1.4398363862780339
1.38509185429513404
1.33393464993405853
1.2862587165957744
1.24198550668318819
1.20104391748455486
1.16336468602393706
1.12886726089659128
1.09746711223249882
1.06906959254777578
1.04357844621257811
1.02090212236266398
1.00095656494632324
0.983666950157903286
0.968967654109505694
0.95680175846761828
0.947122411075127513
0.939894195178335612
0.935092195875974364
0.932699155754373455
3.01005030390520334
3.1197710778741512
3.07574695119215313
2.96078380934378771
2.82414258789064387
2.68046193698691226
2.53681375688976818
2.39895348210487436
2.26987245373227164
2.15069716820114909
2.04149877760295873
1.94170392661990343
1.85043079518322751
1.76671838274059034
1.68962531799743232
1.61828840278242203
1.55196727823389957
1.49006950181094533
1.43216111920354217
1.37795549429294573
1.32728067004817429
1.28003561372413821
1.23614467861322863
1.19553790961004625
1.15814777829859272
1.1239017179646722
1.09272559084290855
1.06452782766413634
1.03921265113696437
1.01668901178060289
0.996873850101446246
0.979693898423891762
0.965085581061267739
0.952994214038869081
0.943374882036436824
0.936193043735466079
0.931423234950637946
0.929046808767011179
2.98979123612870978
3.06230139707080218
3.00986285031018497
2.90045967980632424
2.77078508552661607
2.63439667019023771
2.49788865974634033
2.36629736828611836
2.24239584987350771
2.1273821231419503
2.02148562898418049
1.92429969960097536
1.83508976358416143
1.75301636370904701
1.67723829583972206
1.60697747132698732
1.54156089369778093
1.48044523946874929
1.42323039975121435
1.36964797204348065
1.31953288817577841
1.27278994305318616
1.22934814257426783
1.18913746370500184
1.15207915275804429
1.11812233000356254
1.08720636756733868
1.05924108426355268
1.03413059243946281
1.01178453176354943
0.992120858406221662
0.975068173339862732
0.960565573639917347
0.94856100478851213
0.939011656005022788
0.931883909790171328
0.927151591833690669
0.924794404611213094
2.96430797496440057
3.00803313621688417
2.9475519578700573
2.84110920088882191
2.71711321867249422
2.587089435202377
2.45707524404829591
2.33140849693100938
2.2125644909897364
2.10172712838131748
1.99922841274190244
1.90479298861740842
1.81780524281993094
1.73752851700641853
1.66320931243516146
1.59414828837689471
1.52974114220644974
1.46950043074153092
1.41306577590035087
1.36018759252186316
1.31070590460344083
1.26453278158521809
1.22160607276126654
1.18184421189610545
1.14515527904163461
1.11152709559870666
1.08090992198342351
1.05321134990095056
1.02833508514027838
1.00619206952026019
0.986701258893563304
0.969793674161964603
0.955411841431642372
0.943506473306569338
0.934036958429607211
0.926970845989904091
0.922281219206088521
0.919945951800583472
2.92725341921615767
2.95440712433838559
2.88716999006281405
2.78244075582579375
2.66301971787474701
2.53864717261927986
2.41460033878747327
2.29454184174547748
2.18061537459712795
2.07393374636949446
1.97489038349868218
1.88330905311022456
1.79866968469028476
1.72032308360755604
1.64758912984016326
1.57983956741190923
1.5165398565478736
1.45726312233330968
1.40169232259676946
1.34959649861754793
1.30081807793774495
1.25527601619855855
2.88694978527979806
2.9001962027880861
2.82796347584985819
2.72409509579689857
2.6084224948037158
2.48912135317238237
2.37060409203765499
2.25587808972117232
2.14673419707073432
2.04417661007239415
1.94862649815578948
1.85997346140606679
1.77777949536753299
1.70147158684707533
1.63042959876312921
1.56409069721601934
1.50199042866402155
1.44376331542572167
1.3891373259922517
1.33790051774427821
1.28989324934466953
1.24502989508386563
2.84664255680158318
2.8462887438978397
2.76915602239939851
2.66569894314757105
2.55323443230228087
2.43852977671251203
2.32517986505598362
2.21555328908008553
2.11106894267578538
2.01260609153071135
1.92058550435372344
1.83491036376162975
1.75523354553312827
1.68104757692319118
1.61178301774849575
1.54694156621572132
1.48612720953227129
1.42903193986184274
1.37542912988301924
1.32512770709812977
1.27796031421845013
1.23380860403206083
2.80725157358041244
2.79249778917966252
2.71027263118025186
2.60703850444711671
2.49744509419903427
2.38698551563594519
2.27850848356886848
2.1737702264815888
2.07380583962916187
1.9793950441085757
1.89090951391048256
1.80824155365397243
1.73113722683371907
1.65912879087035425
1.59170238446298296
1.52843275273085322
1.46898546540282759
1.41310096968651266
1.36059607267758897
1.31130372983898402
1.26501964167455183
1.22161342772741732
1.94479717189087342
1.85974089894260275
1.78007227227142839
1.70560053195801675
1.63580099133385404
1.57024280971109387
1.5086070288515776
1.45060222768676317
1.39600435385019317
1.34466562176652116
1.75056636010066047
1.6786872292830366
1.61110106079197046
1.54745421430690211
1.48750805948546239
1.43101467638126145
1.37777641634711312
1.32763142167459813
1.58505721205197836
1.52337890533045961
1.46517621119971486
1.41024886623623869
2.94623866549499214
3.0833233874302266
3.11321558328484915
3.02171370763724134
2.88350470827283933
2.73046463929300609
2.57871240260944035
2.43527902039409661
2.30228927268000216
2.18037681238628167
2.06927204355265237
1.96814764317137092
1.87591635498564435
1.79144271669854627
1.71365435689239654
1.64160079947705984
1.57450377160007116
1.51177602997590177
1.45301318346426167
1.39796312053933725
1.34647760958178875
1.29846655148376078
1.25386350736948105
1.21260430692516885
1.1746195150408909
1.1398306508235283
1.10814808392840769
1.07947676062754017
1.05372579488132301
1.03081080781001111
1.01065197396423945
0.993175545873621113
0.978316244230128862
0.966017070560277191
0.956229913588822589
0.948918311692048544
0.944057745516672986
0.941632550419187031
2.94586136160976064
3.06559032179920976
3.09214802202967975
3.00790882560824535
2.87401630244607409
2.72311039037013813
2.57274823292750554
2.43022165528137446
2.29803744110557684
2.17683053069703503
2.06629579279001785
1.96561595614277085
1.87372887770109298
1.78952170857986448
1.7119404643482361
1.64005147555992292
1.57308739630602012
1.51046824913424715
1.45179675425252674
1.39682557490805825
1.34540915709017694
1.29745944270943303
1.25291081754027789
1.21169999842303699
1.17375913015007938
1.13900998710718659
1.10736248870045761
1.0787222383351267
1.05299935732911587
1.0301094229167409
1.00997219575645425
0.992514081367353196
0.977670080738128555
0.965383199464968644
0.955605460282552444
0.948300779354554368
0.943445122922034751
0.941023085769574608
2.94459267577219697
3.03908116802171424
3.06033389230591268
2.97716393557599179
2.84949845599360696
2.70470416386855916
2.55877684276962558
2.41937359483474168
2.28938441498093637
2.16976569414699272
2.06040680333075477
1.96060304263285556
1.86937062697722922
1.78565877257775574
1.70846196224185642
1.63688239896079546
1.57017583750536538
1.50777748206129014
1.44929931156288738
1.39449815494834528
1.34323136410096189
1.29541381488220564
1.25098194970829368
1.2098745710319545
1.17202582730903115
1.13735827518365307
1.1057830390347072
1.077207430327904
1.05154227438215853
1.02870281212954628
1.00860878466528492
0.991187234960498653
0.976373731227777375
0.964111620794079305
0.954353408239585477
0.947063482426086956
0.942218008820208786
0.939801421333057774
2.93358469995803706
3.01675623715206331
3.0170687494363615
2.9356438092768955
2.81526613678046633
2.67850256768876438
2.53878712657640504
2.40371379706277777
2.27680892612614816
2.15944019261672837
2.05174932694027401
1.95318593977481481
1.86287785574512244
1.7798655945255244
1.70321584659918002
1.63208238297442998
1.56575503550768791
1.5036895819194136
1.44550748095139459
1.3909692161095133
1.33993532410924709
1.2923238961969965
1.24807378902205479
1.20712651752728961
1.16941902084156868
1.13487571960501454
1.10341052000667394
1.07493319297520284
1.04935522151967864
1.02659160716437681
1.00656245247757448
0.989195776860421372
0.974427995685885673
0.962203145047885511
0.952474531881737585
0.945207158057272956
0.940377269314217168
0.937969099297607301
2.91528642875423882
2.97919283618386777
2.96893353205724253
2.89041530349380471
2.77707575800847728
2.64778490429285229
2.51428829407667509
2.38396952141793683
2.26067074322377959
2.1460330893308508
2.04040780109857778
1.94340035840395964
1.85426620475484194
1.77215406593627378
1.69621551873236309
1.625666864896266
1.55984097677476186
1.49821837324896689
1.44043162930838764
1.3862464562830219
1.33552724566400305
1.28819514357822773
1.24419135547489956
1.20346044450806855
1.16594284278800897
1.13156597988714114
1.10024822996767124
1.07190248158282264
1.04644087399540298
1.02377833680957187
1.00383561405130517
0.986541955681052185
0.971834956628323199
0.959659759724121431
0.949970796089336766
0.942733768227983493
0.937924868724151262
0.935527845131673086
2.89741855952734584
2.94090341823082957
2.92319285729189637
2.84617968920141173
2.73754311747980505
2.61410484621291905
2.48625609514251877
2.36075332309787722
2.2413358945561197
2.12975044684964665
2.02649152880990169
1.93130337563798204
1.84356982515037071
1.76255013899127344
1.6874843598013527
1.61765787972100772
1.55245257055438479
1.49137789139499843
1.43408159333743557
1.38033723830290178
1.33001310030236541
1.28303287357950779
1.2393399266028855
1.19888174108051926
1.16160233582584693
1.12743335739937445
1.096299921649321
1.0681186809755121
1.04280239904389949
1.02026605985527907
1.0004311861214028
0.983228492650460861
0.968597189917648538
0.956483992559179486
0.946844742686406726
0.939645876314844419
0.934863334368502663
0.93247999871633469
2.87976787568429593
2.90650758093271433
2.87875893243630498
2.80170901392054272
2.69646309255522842
2.5779749510496659
2.45533791804626977
2.33457039280208134
2.21914627830574407
2.11080404517658904
2.01012481875235149
1.91696928507578623
1.83083768389021628
1.75109079973372417
1.67705395318113903
1.60808295941736734
1.54361197642285997
1.4831848137740653
1.42647015897923946
1.37325171272032165
1.3234009382084817
1.27684397340995792
1.23352645084765156
1.19339782689929086
1.15640437880131874
1.12248326358538852
1.09157018345166557
1.06358596745608547
1.03844377978290137
1.0160586346385625
0.996352815821558657
0.979258815136687111
0.964718016916690679
0.952679130534485163
0.94309961358951544
0.935946654586302329
0.931195760943239526
0.928828663630273943
2.8585641593590112
2.87120339501588617
2.83479506282578386
2.75651413328863271
2.65394268358925478
2.53978355025755098
2.42198617855239373
2.30580943344883194
2.1943906317959172
2.08939120331243622
1.99143816280898167
1.90048570199646782
1.81613112358207252
1.73782264185277313
1.66496269353579507
1.59697397776764771
1.53334489324236212
1.47365996277734057
1.41761457286637582
1.36500389927039456
1.31570172709543098
1.26963745966585195
1.22675999763107968
1.18701786807660725
1.15035770019271189
1.11672170498006951
1.0860641684539416
1.05830918758489112
1.03336975166395439
1.01116065997539106
0.991604813550032715
0.97463701051250351
0.960201481018387981
0.948249179407349763
0.938739275460024669
0.931639796078246762
0.92692571603810392
0.924577389001601135
2.83302785284586545
2.83445123151504674
2.79010829457640819
2.71047469940364438
2.61007840619145393
2.49979321921914632
2.38651083711092094
2.27475596889612275
2.16730218622324333
2.06569061412112998
1.97056488605932545
1.88195039733747116
1.79952171625394564
1.7228001586864532
1.65125369616105822
1.58436554939445484
1.52167999448873892
1.46282799219294968
1.40753605883266508
1.35561151023548376
1.30692960479561493
1.26142427716829442
1.21904931159180885
1.17975197289182288
1.14346114071866145
1.11014706069367675
1.07978227214722522
1.05229025352820549
1.02758335725290251
1.00557578329511221
0.986190948237495313
0.969367003601197652
0.955051809301796784
0.943198488356480791
0.933767956009440181
0.926729365160839147
0.922057184561273613
0.919730203315513695
2.80363127161535264
2.79557461873637791
2.74481211974125028
2.66360417712008601
2.56495607194256525
2.45816954719262171
2.34911165302881209
2.24161223258354214
2.13806572395354033
2.03986127527897931
1.94763626969854431
1.86146655561020946
1.78108821835830988
1.70608339707842083
1.63597284074125637
1.57029392778966614
1.50864816678261371
1.45071626905171369
1.39625875569375335
1.34509575860100217
1.29710244432828903
1.25221652378451553
1.21040066207198138
2.77148652093134196
2.75546032974575494
2.69880989154604967
2.61586796261389143
2.51862510144211349
2.41500549795475861
2.30991727029047667
2.20652606863619427
2.10683054790960167
2.0120443080523569
1.92277846967117338
1.83913877607235143
1.76091342745260881
1.68773562097095375
1.61916741725561075
1.55479634574785863
1.49428161657713132
1.43735358424351034
1.38380868654931222
1.33348136212802282
1.28624267602366427
1.24202793550557455
2.73799683114633075
2.71446196906183257
2.65202897724123332
2.5672132414527673
2.4710908293253695
2.37034866538070199
2.26901888794776729
2.16961734991434119
2.07372410478100466
1.98236850377100127
1.89611477997593236
1.81507178757602272
1.73908264623762654
1.66782209362335565
1.60088535149331634
1.53791057317527424
1.47861323271703138
1.42276944720640652
1.37021293261641586
1.32079523480414807
1.27437870810664688
1.23087030323020552
2.70409013196574977
2.67283088900455157
2.60443462565643014
2.51760645934594995
2.42239627559460935
2.32431894734661437
2.22658412835264796
2.13105883939569507
2.03889745162157876
1.95096924750572653
1.86776506153007027
1.7893713168305776
1.71568686341283461
1.6464115499456522
1.58117500319205395
1.51967487713187976
1.46167665901046528
1.40699448384620363
1.35549872663434212
1.30706140254045788
1.26151212023834081
1.21873757084425161
1.91802853212717084
1.83783999997429781
1.76212416247427606
1.6908206909110528
1.62357986320135872
1.56008600216517901
1.50012921225517881
1.44350726595245171
1.39006160180866312
1.33969236075720466
1.73344919812116083
1.66453512294433614
1.59935960022118562
1.53766331450847527
1.47931420397229907
1.42414040111030116
1.3720032237975659
1.32279102218085076
1.57376827319039458
1.51394436531308996
1.45726763148989735
1.4036024602060837
2.87191699682971047
2.90746373439780026
2.89191346540130922
2.82145808917110807
2.72065031910950506
2.60381890930752435
2.48155946337048317
2.36066665863421976
2.24489966571190758
2.13615083710205145
2.03508560203958044
1.94158488000200635
1.85513643205079659
1.77505904586878605
1.70062479860597282
1.63114577270520944
1.56604014722047613
1.50487068898949317
1.44734802141719721
1.39330296168682644
1.34264411548362417
1.29531906805529995
1.25128595951148958
1.2104992762515554
1.17290539353425172
1.13843770138154277
1.10701613328460025
1.0785556784200574
1.05297500551313372
1.03019675179898562
1.01014613281699139
0.992754008046700775
0.977959686681679985
0.96571045639863029
0.955961722705270689
0.948679110306044349
0.94383848363357481
0.941423526495886565
2.86658484856297857
2.89668211097118666
2.88106173556075573
2.8127921740056272
2.71373576900733005
2.5980262324184431
2.4765118113476654
2.35628765767169135
2.24115592008036169
2.13296984318447613
2.03236568568636544
1.93923080215822807
1.85307003489776068
1.773219729712044
1.6989653478467297
1.62962988790902008
1.56464142439545406
1.50357109886364393
1.44613535660490777
1.39216762128886118
1.34157770436501833
1.29431393637220848
1.25033498899613016
1.2095967858960186
1.17204708193693397
1.13761892135629017
1.10623200561911306
1.07780248699201442
1.05224995875381011
1.02949664295668986
1.00946724910901131
0.99209298074267005
0.977313655338523102
0.965076661393191482
0.955337457252385835
0.94806188425268545
0.943226196054134713
0.940814313516806888
2.85898606665864996
2.88120293216539691
2.86154428426003049
2.79457262815503338
2.69786813046251339
2.58473487060994778
2.46558440144440016
2.34726400154080306
2.23363334579041783
2.1266359368045773
2.02696060231266273
1.93454353555235503
1.84893450049120189
1.76950955630753404
1.69558962670571245
1.62652666220257336
1.56177005103301392
1.5009045592988981
1.44365307428189182
1.38985078991715438
1.3394083480939718
1.2922753476006803
1.24841219463804265
1.20777696514094468
1.17031887467437423
1.13597143405469581
1.10465597134161531
1.07629061740663734
1.05079541591271819
1.0280920088287866
1.00810518270952421
0.990767010687640726
0.97601798557741648
0.963805764581939561
0.954086124432181659
0.946825262677007951
0.941999634071908676
0.939593082705365124
2.84642848718248187
2.86022339601536046
2.8360931899979458
2.76979060395030841
2.67563817494848433
2.56585066208985513
2.44986990527051596
2.33418318208330788
2.22266757630959777
2.1173474147950273
2.01898487158141915
1.92758339231748299
1.84275418566504623
1.76393175517370393
1.69049013040277796
1.62182397644514187
1.55741270474563143
1.49685804242525511
1.43988917232008951
1.38634234918665844
1.33612864475838178
1.28919892856465146
1.24551557203658092
1.2050390210428672
1.16772063572480489
1.13349572652418162
1.10228889971843702
1.07402084329991321
1.04861194991234896
1.02598347305888771
1.006060720915124
0.988776934286102693
0.974073464643836262
0.961898505297706263
0.952208443850592445
0.944969985699436688
0.940159699814024252
0.937761365661236357
2.82891418638044367
2.83485677057579899
2.80661130057056152
2.74082042860015207
2.64910171208509571
2.54269940299114827
2.43015060326278531
2.31749413243801428
2.20850887024349429
2.10523941342154375
2.00850580836521164
1.91837876171433153
1.83454019301723914
1.75649425703523665
1.6836774789936293
1.61553552724549632
1.55158383917680331
1.49144407687938196
1.43485327950810682
1.38164962620618281
1.33174456691856125
1.28508999358142928
1.24165001020816423
1.20138736206392549
1.16425631131833973
1.13019534036569613
1.09913396875410774
1.0709959541517684
1.04570208930920372
1.02317349657654821
1.00333627916199974
0.986125028616960719
0.971482208084390009
0.959356907410255144
0.949706417254761792
0.942498033560152271
0.937708337704426187
0.935320833005245489
2.80796021472161739
2.8072602254633221
2.77504253365365283
2.70913625808042235
2.61944162245628576
2.51617854063564605
2.40706182223450194
2.2976180332746079
2.19141999705246793
2.09046656150633936
1.99560694621999701
1.90697276965823725
1.8243178537410818
1.74721697738271664
1.67517106172992003
1.60768041098223913
1.54430023975139807
1.48467572751898569
1.42855508153900179
1.3757799426646713
1.32626191423516837
1.27995362875613039
1.23682052459457581
1.19682709589239322
1.15993073144540904
1.12607445394767369
1.09519479745592596
1.06721917722362614
1.04206889818649429
1.01966511095659995
0.9999347902508543
0.982814050975704512
0.96824684026691421
0.956183549365835717
0.946582618814667986
0.939411960863792306
0.934648020615293951
0.932273748340021857
2.78479914256033023
2.77813914237508763
2.74195962000220694
2.67537330489659997
2.58728116319801016
2.48688177712753244
2.38109967472588435
2.27492248911749462
2.17165043583759454
2.07318568202408393
1.980381822864131
1.89342222062677146
1.81212524738133429
1.73612970647479958
1.66499741805819479
1.59828258934655643
1.53558216819668525
1.47656921138387776
1.42100735528107336
1.36874326281078518
1.31968844318437561
1.27379645904057348
1.23103381846828097
1.19136543610925649
1.15475057804117132
1.1211383634952734
1.09047584163837485
1.06269457098571984
1.03771633369538097
1.01546220674575327
0.995859941125120107
0.978847469817466176
0.9643707241925632
0.952381748203874334
0.94284029398806346
0.935714906797291524
0.93098177983103414
0.928623144312092474
2.75986475184972857
2.74777964306371292
2.70750977934292436
2.63986092512914361
2.55300251074289353
2.45520430243729626
2.35262185453279393
2.24969381231261778
2.14940982908940104
2.05354142945785423
1.96292867992815134
1.87779495079313663
1.79801134613291813
1.72327115239264272
1.65318967571105957
1.58737070235329947
1.5254539097920623
1.46714487676344474
1.41222691404012135
1.36055309988809148
1.31203477903441224
1.26662729714161104
1.22429864241032527
1.18501158777259818
1.14872438360134166
1.1153930070789817
1.08498215186990721
1.05742692400379856
1.03264918651882365
1.01056945914801255
0.991116092428137696
0.974229412445269727
0.959857928264802429
0.947955509080304681
0.938483287141265832
0.931410525894755037
0.926713135697170842
0.924372519777046264
2.73326097238052812
2.71627558157138127
2.67185206309944734
2.60281955109273788
2.5168584473661384
2.42140790841310771
2.32187292686932256
2.22214091309643624
2.12486565928668814
2.03166406222923834
1.94334754041787972
1.86016690914332172
1.78203432569967735
1.70868777593033583
1.63978610228526023
1.57497673056963916
1.51394284767560094
1.456426434656372
1.40223404037090371
1.35122646897266607
1.30331470989597364
1.25845690052299908
1.21662400693134498
1.17777500078778607
1.14185097156433146
1.10883697013286575
1.0787141379799261
1.05141819164751626
1.02687064864186173
1.00499062951954854
0.985707085229065805
0.968963869732016314
0.954712711372352696
0.942909172848026444
0.933515805753745043
0.926502861227892383
0.921846049107300392
0.919525858722500922
2.70519629245760784
2.68376237450551658
2.63515264115592984
2.5644025049786201
2.47901491932192464
2.38566003105598545
2.28901557864552352
2.19241425014057301
2.0981518900429994
2.00766988622544584
1.92173686658062137
1.84061891155162294
1.76425933141853286
1.6924317863187861
1.62482825221119742
1.56113464811353531
1.50107835768339704
1.44443982128273052
1.39105164610399124
1.34078377259742387
1.29354556148811395
1.24929707988863004
1.20801613253775253
2.67612196894727949
2.65045409877597793
2.59751165878075074
2.52469105626959056
2.43956333450825547
2.34806316668407833
2.25416292875126256
2.16063064909043323
2.06938165391990259
1.98166486102323858
1.89819294094467983
1.81923459813505595
1.74475608017130046
1.67455892193336631
1.60835940728906612
1.545879478455078
1.48689090251993528
1.43121221531109888
1.37870450526012878
1.32924876368492684
1.28274901688824339
1.23916055756883914
2.64677253743350649
2.61667823400153665
2.55897099978821974
2.48368826565611878
2.39852494508196479
2.30867321814374993
2.21740146950835371
2.12689272144851449
2.03865831013291121
1.9537509548442078
1.87281365665174682
1.79610068813089474
1.72359773785515502
1.65512721314017575
1.59042359549383305
1.52924676534946657
1.47141162066371622
1.41677168233905859
1.36521862600387078
1.31664729320532992
1.27095223667719415
1.22805808321794285
2.61794762391559122
2.58277063658741346
2.51950755907285506
2.44135264176437961
2.35592441822101506
2.26757778763826012
2.1788514794605085
2.09132051205260661
2.00608856995696305
1.92402702827971739
1.84569757839207571
1.77130952990982937
1.70086467796739638
1.63419874510361729
1.57106535570523564
1.51127257388725811
1.45467264158008303
1.40114780987407217
1.3506205638310409
1.30300284514238629
1.25815810136285289
1.21598543440353679
1.89262012759221254
1.81692902407090107
1.74492653123725727
1.6766428958632813
1.61184438049667156
1.55033085416732419
1.49199484148032502
1.43670819869979827
1.38437291843065724
1.33493655103546471
1.71703923094966759
1.65096595194576601
1.58808580046940184
1.5282619987004642
1.4714525466776307
1.41755305436467594
1.36647960310118877
1.31816689347211646
1.56292662019857498
1.50489120030420365
1.44968279456649629
1.39723534105493608
2.76095936645346418
2.76448074047816617
2.73899315728575354
2.68002449023413503
2.59842367562746279
2.50297765565435926
2.40068895351172529
2.29673691623764187
2.19479063291713894
2.09704953698003749
2.00457312616501904
1.91768990476802093
1.83631637442927609
1.76013512453372245
1.68870245748877901
1.62154714785590137
1.55825549396411778
1.49852030708104089
1.44214853099182783
1.38903858939488845
1.33914664764607405
1.29245418681140523
1.24894395552749593
1.20858974675877739
1.17135286517815973
1.13717742496041896
1.10599291817495793
1.07772424588145355
1.05229848752790711
1.02964396104886413
1.00969036355688968
0.992373361349083605
0.977637141199530824
0.965433070254924752
0.955719395819301876
0.948463234924492249
0.943640710442722241
0.941235019311842724
2.75673613141838469
2.75819910884240294
2.73219861794858998
2.67407162598085923
2.59325380236090997
2.49829581272362056
2.39641236270413982
2.29293820367159507
2.19147396446156639
2.09416607219229656
2.00205490022272548
1.91547223080842377
1.83434431353425098
1.75836181452407914
1.68708779083714755
1.62006007810858765
1.55687494171509888
1.49723273232720966
1.44094418671792779
1.38790912966166502
1.33808454451568926
1.29145232890438222
1.24799576650668187
1.20769001582981117
1.17049717335812198
1.13636070469876382
1.10521037710585812
1.07697253254843561
1.05157482606666663
1.02894485789179302
1.00901198670567149
0.991712525435933911
0.976991239212366525
0.964799471263935393
0.955095401580563941
0.947846325607017093
0.943028751167677703
0.940626087897643903
2.7488776806544104
2.74730401240831723
2.71951389951214795
2.66187103351517118
2.58205451334170455
2.48830439443245588
2.38764212652828522
2.28531100039426782
2.18486863401589471
2.08843557062426299
1.99704813774762302
1.91105284991595026
1.83039397138579263
1.75478121349066063
1.68380159487218384
1.61701749747242896