/*--------------------------------*- C++ -*----------------------------------*\
| =========                 |                                                 |
| \\      /  F ield         | OpenFOAM: The Open Source CFD Toolbox           |
|  \\    /   O peration     | Version:  2206                                  |
|   \\  /    A nd           | Website:  www.openfoam.com                      |
|    \\/     M anipulation  |                                                 |
\*---------------------------------------------------------------------------*/
FoamFile
{
    version     2.0;
    format      ascii;
    arch        "LSB;label=32;scalar=64";
    class       surfaceScalarField;
    location    "0.0299999999999999989";
    object      phi;
}
// * * * * * * * * * * * * * * * * * * * * * * * * * * * * * * * * * * * * * //

dimensions      [0 3 -1 0 0 0 0];

oriented        oriented;

internalField   nonuniform List<scalar> 
20390
(
0.00015061690967292467
-1.97080814391638419e-05
3.63954199241990777e-05
-0.000167304242748825797
0.000181054471386548222
-6.86892286866441513e-06
0.000162129626931275454
-0.000185699229336626104
0.00016628714808211481
1.58182732243477317e-05
0.000155036791466482953
-0.000156088264026612775
0.000132171702652688792
3.43212327461073861e-05
0.00012104976311991318
-0.000121256743754491079
0.00010303290718359677
3.0675796678785537e-05
8.75572417244391868e-05
-8.90943335056069855e-05
8.36259787967828956e-05
2.04680533259569733e-05
6.09394711028778526e-05
-6.20015317314132725e-05
7.11762936615840475e-05
1.26043216428122683e-05
4.25844682246750194e-05
-4.27398757068248088e-05
6.21347622056019094e-05
8.92324867830355643e-06
3.11636088790801164e-05
-3.10450056695220876e-05
5.49551608098081286e-05
7.03716953194006327e-06
2.35289975206431155e-05
-2.33887918618556926e-05
4.9096926296888184e-05
5.80323114221825188e-06
1.80971322178957469e-05
-1.80430366811581413e-05
4.42178774059466176e-05
4.87969324706181034e-06
1.41008786758284497e-05
-1.40999733559508272e-05
4.00797746109006708e-05
4.1679932013483719e-06
1.1085115445425119e-05
-1.11142873450699833e-05
3.65132926981796932e-05
3.60998149799259541e-06
8.77530254655206409e-06
-8.81731870181604702e-06
3.33977876800317536e-05
3.16155982500410535e-06
6.98541013396811152e-06
-7.0308020577804077e-06
3.06459484559834858e-05
2.7964848935366144e-06
5.58517273239601849e-06
-5.62977746360788501e-06
2.81898488411168663e-05
2.49835650034021316e-06
4.48152328479329248e-06
-4.5233118787041881e-06
2.59749423126793758e-05
2.25238774678357413e-06
3.6062103699257165e-06
-3.64487721439222768e-06
2.39581714951236169e-05
2.04983615182908708e-06
2.90938595259908641e-06
-2.94413335004271922e-06
2.21045790743371202e-05
1.88300544840700873e-06
2.35294666807715014e-06
-2.38321623822490518e-06
2.03864328306447124e-05
1.74345293985852314e-06
1.90650760611899324e-06
-1.93289467821503892e-06
1.87825153610911953e-05
1.62560452036858346e-06
1.54646536861052344e-06
-1.56931049582255032e-06
1.72763849284289466e-05
1.52460345651810805e-06
1.2548355715472555e-06
-1.27440295294635322e-06
1.58553208802445282e-05
1.43655222148377095e-06
1.01819797400842153e-06
-1.03499425230303551e-06
1.45088822561578456e-05
1.35957915752853857e-06
8.26376464453513513e-07
-8.40449602006138842e-07
1.32283526208459283e-05
1.29130910035864752e-06
6.70847731845992926e-07
-6.82377535730680536e-07
1.20068772088681966e-05
1.23010102733429225e-06
5.44620096880565281e-07
-5.54329047803182209e-07
1.08385553970247306e-05
1.17599956960884121e-06
4.4260959038187047e-07
-4.50743715189224726e-07
9.71668265437915952e-06
1.12887963420368488e-06
3.60620457513365308e-07
-3.66978166732442875e-07
8.63483370713292095e-06
1.08722734517254371e-06
2.94710671542571423e-07
-2.99654666481870848e-07
7.588285202667939e-06
1.05013521028129111e-06
2.41704121810606898e-07
-2.45941222211393248e-07
6.57304753004118596e-06
1.01779302209511218e-06
1.99371842203879907e-07
-2.03135210897221813e-07
5.58499767355876246e-06
9.90030521987335606e-07
1.65941840749062357e-07
-1.69151196136413518e-07
4.62031704337263831e-06
9.66469458471581719e-07
1.39859632373349357e-07
-1.42587469218188314e-07
3.67519949062227576e-06
9.47424493367632882e-07
1.19837443661966606e-07
-1.22157939969796944e-07
2.74490796351029453e-06
9.33206258482407665e-07
1.04779560541876644e-07
-1.06566006652029086e-07
1.82449087672815272e-06
9.22918552805070032e-07
9.37893554958030968e-08
-9.49626304789199682e-08
9.10161800259888247e-07
9.15432073362051357e-07
8.64067016916292035e-08
-8.71828006582463594e-08
9.10002190690071468e-07
8.25626960819361359e-08
-8.33485393863887657e-08
0.00012648066239705902
-3.85826271168873409e-05
3.39447283954401406e-05
-0.000141552930888597762
0.000161478916471291734
-1.72673248537249739e-05
0.000139219200458275328
-0.000163820833106070472
0.000156229146853530473
2.49399391638490723e-05
0.00014213710743294283
-0.000146010624475446471
0.000134965545993621781
5.62190979873366674e-05
0.000118752759490445921
-0.000119388345178922937
0.000109512552516105138
5.76532970532703671e-05
8.97136006348222333e-05
-9.12405901026528321e-05
8.83305990157410518e-05
4.30049313028641828e-05
6.33664790832962305e-05
-6.47220047920158727e-05
7.33086125396160856e-05
2.81452838957805437e-05
4.43245744985587897e-05
-4.48448114350760116e-05
6.2961288470135253e-05
1.93273113570842053e-05
3.19972844992398865e-05
-3.20584139705255874e-05
5.54126754840709104e-05
1.45486019095074879e-05
2.39056032662638297e-05
-2.38689067787249688e-05
4.94863034701170643e-05
1.17248491309406403e-05
1.83083273842178746e-05
-1.83019615727695661e-05
4.4596458870549527e-05
9.80118493043657141e-06
1.42416686052123443e-05
-1.42717278536633346e-05
4.04533575397235092e-05
8.36692667489723858e-06
1.11902201108341254e-05
-1.12415253054925163e-05
3.68765506700384149e-05
7.24806996680164872e-06
8.85842752758155776e-06
-8.91732599977936954e-06
3.37428299492545614e-05
6.35322588493941278e-06
7.05356406065666756e-06
-7.11097313646208711e-06
3.09645939683607328e-05
5.62684704697251224e-06
5.64160515986070669e-06
-5.69308908625596168e-06
2.84752255754415395e-05
5.02997429524637112e-06
4.52709073290719778e-06
-4.57221848753612089e-06
2.62244307324296957e-05
4.53779458456247205e-06
3.64220545055829224e-06
-3.6810050345598992e-06
2.41722820718255374e-05
4.13157816531312845e-06
2.93729526366139603e-06
-2.96965665263455093e-06
2.22857856488607546e-05
3.79348867914831789e-06
2.37384722848781712e-06
-2.40096154251386568e-06
2.05390710171466898e-05
3.5100819592925753e-06
1.92164772784945373e-06
-1.94479949124110195e-06
1.89113176602589767e-05
3.27042013162041556e-06
1.55704287237545727e-06
-1.5769586638672768e-06
1.73858499757995358e-05
3.06438191740340218e-06
1.26196996518296097e-06
-1.27941572441164515e-06
1.5949602349715258e-05
2.88554477675847137e-06
1.02311539675752649e-06
-1.03840484110456216e-06
1.45910292609687545e-05
2.72926196980599618e-06
8.29898250229179684e-07
-8.42914624655898176e-07
1.33005926752954374e-05
2.59065122289274045e-06
6.73347067012718338e-07
-6.84372682378213308e-07
1.20711080727431122e-05
2.46801576922544698e-06
5.46500875883631839e-07
-5.55900361418416469e-07
1.08960652542358531e-05
2.35977826317425657e-06
4.44224055498099454e-07
-4.51893284329507417e-07
9.76800307466521419e-06
2.26372784700631117e-06
3.6196143743691597e-07
-3.67976894054206614e-07
8.680373774279763e-06
2.17834603321162989e-06
2.95679230680204644e-07
-3.00661152396741805e-07
7.62855076319290785e-06
2.10347067827724362e-06
2.42374875032555521e-07
-2.46846009910100154e-07
6.60834159736333639e-06
2.03895685444303112e-06
1.99883730953906183e-07
-2.03884922734837859e-07
5.61549951550202616e-06
1.98405606798971413e-06
1.66404537182311535e-07
-1.69798075911165521e-07
4.64633120084579668e-06
1.93820667042823252e-06
1.40368620003247553e-07
-1.43083058985205604e-07
3.69699948436700896e-06
1.90111043205474801e-06
1.20403973594512552e-07
-1.22425474365529721e-07
2.76252872290005723e-06
1.87204751040801408e-06
1.05283945116523785e-07
-1.06705637771030054e-07
1.8372946933101933e-06
1.85010580005064849e-06
9.41056686765817105e-08
-9.51838944698498903e-08
9.16704892288009209e-07
1.83491032774289245e-06
8.65403829276139729e-08
-8.75965408480200177e-08
1.8246336828539393e-06
8.26240738743870286e-08
-8.3955452740455144e-08
0.000104913914194644428
-4.83157407827382727e-05
4.9055452597351548e-05
-0.000144237477009242539
0.000128414591906577362
-6.24561243142551448e-06
0.000128721644535341104
-0.000163246206383658917
0.000118651216431584825
4.66853063479003396e-05
0.000126885055586814857
-0.000138870402188701888
0.000105376738439920718
7.41460412315696768e-05
0.000103633015518824048
-0.000108287529524405405
9.3006457820282197e-05
7.24345954131945833e-05
7.85645891488231127e-05
-8.09748584476719708e-05
8.11284806578881925e-05
5.59334343015942617e-05
5.74528503529374499e-05
-5.85047056114449524e-05
7.03194624307711542e-05
3.92312981972277994e-05
4.17431966675629147e-05
-4.20226737472174797e-05
6.15363948723839652e-05
2.80860352015391748e-05
3.08036033310518897e-05
-3.07791149599270263e-05
5.46009934163605652e-05
2.14314539379169341e-05
2.32637090445692204e-05
-2.3212580857664526e-05
4.89811715550113373e-05
1.73384059006918206e-05
1.79299551517687882e-05
-1.79240411336306133e-05
4.42793307429139194e-05
1.45425567711821971e-05
1.40092975548051761e-05
-1.40453626762255945e-05
4.02535866811459342e-05
1.24546594406165584e-05
1.10453778386636702e-05
-1.11053248971784726e-05
3.67489457080498157e-05
1.08202151957674876e-05
8.76739569663427157e-06
-8.83405722646531193e-06
3.36589908473668511e-05
9.50721895063942912e-06
6.99557000830009364e-06
-7.05804276448909771e-06
3.09054315322013264e-05
8.43400742514567378e-06
5.60353070111617914e-06
-5.65791665461394232e-06
2.84291158524144149e-05
7.54913662960716768e-06
4.50138606703966504e-06
-4.5471246538576052e-06
2.61844083379963492e-05
6.81769248913228297e-06
3.62450276431143798e-06
-3.66155660578654785e-06
2.41339570800497384e-05
6.21011296655246017e-06
2.92456813997211522e-06
-2.95412909830578663e-06
2.22474088276801706e-05
5.7022952748010916e-06
2.3641606589887987e-06
-2.3883551210896466e-06
2.05003224105233891e-05
5.27593302547969976e-06
1.91385740814800385e-06
-1.93418834082932413e-06
1.8872287720251878e-05
4.91411796094265622e-06
1.55046792388583258e-06
-1.56799443156627634e-06
1.73473393728619645e-05
4.60253125793311497e-06
1.2564185441122832e-06
-1.27202749443179585e-06
1.5912509776754351e-05
4.3325467485390545e-06
1.01855424430395323e-06
-1.0324100623994613e-06
1.45557884163153749e-05
4.09687901320630557e-06
8.261323200511781e-07
-8.38120551660909928e-07
1.32677805975511195e-05
3.88788407892737373e-06
6.70238646211506413e-07
-6.80588612255061714e-07
1.20410187155828135e-05
3.70344499601877125e-06
5.43997670682558967e-07
-5.52875954387190565e-07
1.08686005830210747e-05
3.54031732391963559e-06
4.42244987059069755e-07
-4.49490679027644308e-07
9.74305299097003217e-06
3.39525062197210524e-06
3.60318872815327522e-07
-3.66120230794322497e-07
8.65804276406256573e-06
3.26671117383923619e-06
2.9425260013553971e-07
-2.99209628986454323e-07
7.60887091538719036e-06
3.15446547953244773e-06
2.41166900479381433e-07
-2.45668678720875249e-07
6.59115277919054981e-06
3.05794379114870395e-06
1.9892986238644303e-07
-2.02952026270052227e-07
5.60066822404080702e-06
2.97604021752819668e-06
1.65703658601477053e-07
-1.69086999987807289e-07
4.63377879173374678e-06
2.90783371852037644e-06
1.39867453777994541e-07
-1.42499936432529796e-07
3.68653801530329553e-06
2.85241294770808403e-06
1.20013734375549044e-07
-1.21890657468085431e-07
2.75392658802340172e-06
2.80846787072174323e-06
1.04931070460001932e-07
-1.06238256843758057e-07
1.83083357584438665e-06
2.77492850006660807e-06
9.37732612116862216e-08
-9.48541684114025103e-08
9.13342558974984381e-07
2.75168313259292694e-06
8.62487449814993264e-08
-8.74345968718392256e-08
2.73654123811693571e-06
8.23748252475026387e-08
-8.39052163595665965e-08
7.79368294448112088e-05
-3.98671366168025499e-05
5.33974835374009056e-05
-0.000139785704124304453
9.21244526102682758e-05
1.66705349525848555e-05
0.000118740734845718108
-0.000155847632508832555
8.71005426943354503e-05
6.80752137570088395e-05
0.000114872336545223947
-0.000131239300679633598
8.32283512636787038e-05
8.51484502378846051e-05
9.1477403220822378e-05
-9.86077932472902683e-05
7.96983899905807312e-05
7.89318115979555015e-05
6.94190757768401866e-05
-7.23868829916472014e-05
7.41034537420035428e-05
6.2502705195244341e-05
5.22592417434724984e-05
-5.32337025835567053e-05
6.69017107033529685e-05
4.66232079079570763e-05
3.92178326865275255e-05
-3.9407098982769393e-05
5.98181730974864742e-05
3.51393170849804954e-05
2.9585425245167115e-05
-2.95570961935293943e-05
5.36180026895033922e-05
2.75966140912885059e-05
2.26249698510344965e-05
-2.25921041319807921e-05
4.8353830875035077e-05
2.26137692986228941e-05
1.75558451647037392e-05
-1.75650287783821622e-05
4.38578771309395938e-05
1.90863985018633573e-05
1.3774827019637713e-05
-1.38216037664817147e-05
3.99625251987275809e-05
1.64158069936299179e-05
1.08950328469834881e-05
-1.09614571942540222e-05
3.65428064858330619e-05
1.43107055268606075e-05
8.66975414329830698e-06
-8.73937917465472319e-06
3.35073652407234988e-05
1.26075350012254973e-05
6.93058679881381395e-06
-6.99471250072501716e-06
3.07883639630290173e-05
1.12075248090007847e-05
5.55889265742875557e-06
-5.61468622054307368e-06
2.8333897066993745e-05
1.00490505784036478e-05
4.46989672863944906e-06
-4.51638860183088608e-06
2.61024230082768017e-05
9.08616005333691092e-06
3.60157274149375167e-06
-3.63904689735892511e-06
2.40600409411421154e-05
8.28173073490676205e-06
2.9072157220203694e-06
-2.93745643002788132e-06
2.21791585348839669e-05
7.60749117310932619e-06
2.35060563199431608e-06
-2.37551875368070332e-06
2.04363040853257797e-05
7.03955275459047667e-06
1.90292706982434312e-06
-1.92379927035113815e-06
1.88117605703298812e-05
6.55540981366793363e-06
1.54146663451158891e-06
-1.55946526743574547e-06
1.72906165585509443e-05
6.13771373530641679e-06
1.24910229709177687e-06
-1.26502323656769013e-06
1.58599024740327555e-05
5.77636511022754115e-06
1.01268863738284198e-06
-1.02661008043435572e-06
1.4507182857929914e-05
5.46131736615676909e-06
8.2136084261990162e-07
-8.33324492414897956e-07
1.32235142397116773e-05
5.18131263602463801e-06
6.66403450669609091e-07
-6.766878604650731e-07
1.20009590538336011e-05
4.93469618840245467e-06
5.4093726203744896e-07
-5.49710916595339017e-07
1.0832427865726487e-05
4.71645475321454768e-06
4.39808843335576882e-07
-4.46964413332556458e-07
9.71068627315343125e-06
4.5224532023442187e-06
3.58300841561899216e-07
-3.64117145333621159e-07
8.629592900765808e-06
4.35102431277249789e-06
2.92542536612098022e-07
-2.97574782963976188e-07
7.58428572161864972e-06
4.20165925350037565e-06
2.39765499798421369e-07
-2.4431263979190877e-07
6.57020502088190212e-06
4.07339111802947252e-06
1.97849893492956973e-07
-2.01868756003309656e-07
5.58315575127405271e-06
3.9647822646771306e-06
1.64901102767166953e-07
-1.6823982282728352e-07
4.61948933198943013e-06
3.87443178454219152e-06
1.39246836406785843e-07
-1.4179031046974384e-07
3.67515479537837555e-06
3.80075765860075942e-06
1.1948147913172445e-07
-1.21253979328658351e-07
2.74519345080068939e-06
3.74193321148295659e-06
1.04447619780241267e-07
-1.05700075398531656e-07
1.8247662434553443e-06
3.69678714250093916e-06
9.33538078454563589e-08
-9.44751370551146319e-08
9.10171190618874332e-07
3.66547271349989418e-06
8.59116084390285745e-08
-8.72261778091602081e-08
3.64542569678890309e-06
8.20951371303769546e-08
-8.37846993660644776e-08
5.44568238295037627e-05
-2.48333436520178642e-05
5.04221929159851608e-05
-0.000119914175587400784
6.63953191633709475e-05
3.86996836070700905e-05
0.000108311174008163822
-0.000142279020822262843
7.01435244138018756e-05
8.15134687106291913e-05
0.000103153068533095167
-0.000120338885663977946
7.22370272577308148e-05
9.06725327933944475e-05
8.22318448578043007e-05
-8.98490264774483668e-05
7.21551405619482328e-05
8.19579469551613948e-05
6.28720803855963901e-05
-6.58153588909256239e-05
6.89553869565416854e-05
6.66412124209997501e-05
4.8120706374145618e-05
-4.90581379658552017e-05
6.36815145941724384e-05
5.21013128214091722e-05
3.68312938573485025e-05
-3.70372844561393935e-05
5.78649260131578911e-05
4.09599829219883072e-05
2.82578175688122691e-05
-2.8264833945951682e-05
5.23892899722557367e-05
3.30691789340130919e-05
2.18661930704902089e-05
-2.18625483140192717e-05
4.75333706804519437e-05
2.74995518076378136e-05
1.70955768580283603e-05
-1.71244859884683174e-05
4.32828514901185434e-05
2.33929542971102185e-05
1.34817997905170193e-05
-1.3539913748129746e-05
3.95455193672267989e-05
2.0223756539197807e-05
1.07031240813969913e-05
-1.07745446957748911e-05
3.62309698292131912e-05
1.76977705588713558e-05
8.54105670844360675e-06
-8.61256234971094104e-06
3.32665846771394025e-05
1.56374500382556236e-05
6.8420202220256674e-06
-6.90748131399174748e-06
3.05964116334235444e-05
1.39345771227665692e-05
5.49650328649984184e-06
-5.55339770291948855e-06
2.8175364254075118e-05
1.25177278789948014e-05
4.42491549732495103e-06
-4.47231695589244083e-06
2.59667858902895027e-05
1.13327844920916721e-05
3.56830756290708664e-06
-3.60704862967391683e-06
2.39410361060159737e-05
1.03387858851314734e-05
2.88212944927867839e-06
-2.91387572154798932e-06
2.20729063291978402e-05
9.50305258538382702e-06
2.33134250463656733e-06
-2.35751267797948096e-06
2.03398868671470083e-05
8.79560054284110262e-06
1.88774486315803364e-06
-1.90964685777374293e-06
1.87235495397865503e-05
8.18980851879222622e-06
1.52932795907232645e-06
-1.54822209490578458e-06
1.7210299067015767e-05
7.66625243285458849e-06
1.23949046914121881e-06
-1.25598354635437249e-06
1.57869957749150979e-05
7.21387794019927011e-06
1.00506494721226002e-06
-1.01923739041150514e-06
1.44408378770337652e-05
6.81981415748262912e-06
8.15183206026878586e-07
-8.27292897422508152e-07
1.31637792293892447e-05
6.46824920860276893e-06
6.61521765850559788e-07
-6.71825996850683483e-07
1.19472060185053028e-05
6.1597083437736646e-06
5.37054859615573947e-07
-5.45799289061282614e-07
1.07841273688631782e-05
5.88661531581047021e-06
4.36732194336825919e-07
-4.43876094887611272e-07
9.66771976851391894e-06
5.64398609668040637e-06
3.5579068789850877e-07
-3.61673903896962633e-07
8.59199127138270077e-06
5.43001219370886088e-06
2.90463893248945744e-07
-2.95571593968567459e-07
7.55188926185269575e-06
5.243835224608198e-06
2.38089218231370125e-07
-2.42651321338229937e-07
6.54269913612135726e-06
5.08415565462746997e-06
1.9655722501104838e-07
-2.0053626757572732e-07
5.5602155488989457e-06
4.94920583873044668e-06
1.63914018657014586e-07
-1.67173699786925403e-07
4.60073367151668895e-06
4.83697788292055757e-06
1.38444707852287664e-07
-1.40878798132473871e-07
3.66013859822275902e-06
4.74516150574497429e-06
1.18770487989933616e-07
-1.2044683246969125e-07
2.73363667756892697e-06
4.67146692851880722e-06
1.03806093402568002e-07
-1.05041443121187293e-07
1.81673078712253929e-06
4.61469782317112807e-06
9.28113789093713473e-08
-9.40250274041187063e-08
9.05909594850828449e-07
4.57536113653048308e-06
8.5486275802834775e-08
-8.69719737725471206e-08
4.55024494531261017e-06
8.17480538652399921e-08
-8.36116652053810286e-08
3.74194929374874885e-05
-8.22609177036435409e-06
5.34506064116029104e-05
-0.000107475605868086465
5.25810797379324402e-05
5.30977523071266865e-05
9.73780027599929467e-05
-0.000126935367815079179
6.16084345511042173e-05
8.83791641213883973e-05
9.24412802371743047e-05
-0.000108333650821942706
6.61712397259817825e-05
9.3321401343853601e-05
7.44620680178161444e-05
-8.16730767827871348e-05
6.71646269964014359e-05
8.37568186111986595e-05
5.75236227089151377e-05
-6.03147744748393547e-05
6.49460735063686059e-05
6.97706052193374871e-05
4.45678016310766252e-05
-4.54801534916907709e-05
6.07431906416331809e-05
5.65399988478815373e-05
3.4587774107380281e-05
-3.48263584616090031e-05
5.5832666147635578e-05
4.59215373583046931e-05
2.68857659365095676e-05
-2.6937270146154622e-05
5.09934332519454869e-05
3.79392297350842044e-05
2.10239254187104109e-05
-2.1054508956270326e-05
4.65505484677292342e-05
3.1990496108285553e-05
1.65630888814342125e-05
-1.66135799776653047e-05
4.25675373955829091e-05
2.74426912980029581e-05
1.31344828711874861e-05
-1.32037808868546876e-05
3.90089221000682339e-05
2.38586474732818454e-05
1.04707985973922708e-05
-1.05467690346226621e-05
3.58170018185979044e-05
2.09639625607693813e-05
8.38186300128085674e-06
-8.45539211070327276e-06
3.29391352537537985e-05
1.85826659573826734e-05
6.73048240663582369e-06
-6.79723418230505004e-06
3.03308565603725128e-05
1.66016129983556136e-05
5.4167543918209941e-06
-5.47450927390839956e-06
2.79540787852048314e-05
1.49424739265157399e-05
4.3666929144722255e-06
-4.41510266058372365e-06
2.57780356479633913e-05
1.35476602403199333e-05
3.52512084175680195e-06
-3.5651835344343034e-06
2.37772167978277433e-05
1.23735517750174883e-05
2.84978138936002156e-06
-2.88264967658685866e-06
2.19284222520158342e-05
1.13818358149278904e-05
2.30669579249414151e-06
-2.33365784087989587e-06
2.02106614336298296e-05
1.05376324391177716e-05
1.86851086921616611e-06
-1.89116724619396014e-06
1.86072796333036239e-05
9.81222597175557809e-06
1.51419235254865124e-06
-1.53375787123593086e-06
1.71060121204422894e-05
9.18402820450825863e-06
1.22767531921631703e-06
-1.24451737451041722e-06
1.56933904239677462e-05
8.64150979675259019e-06
9.95755648253496321e-07
-1.01004840214581958e-06
1.43564529569889801e-05
8.16922005931812661e-06
8.07667854331571553e-07
-8.19873701155228079e-07
1.30883655387623915e-05
7.74589789887128734e-06
6.5565785011608239e-07
-6.6590320417692446e-07
1.18795364512915315e-05
7.37652756261292262e-06
5.32376970225607517e-07
-5.41067211860323061e-07
1.0723513052383757e-05
7.04921767273722776e-06
4.33065238213381559e-07
-4.40188049734592437e-07
9.61400465749521785e-06
6.75846448596114225e-06
3.52858277979647332e-07
-3.5877863886112744e-07
8.54510372033596342e-06
6.50241871421325802e-06
2.88073459840103595e-07
-2.93190853847340067e-07
7.51157500720398573e-06
6.27982150908596917e-06
2.36164379739825649e-07
-2.4067020913143814e-07
6.50855447004281079e-06
6.08913421689549286e-06
1.95056826645694991e-07
-1.9894088055532504e-07
5.53175945703187207e-06
5.92822448553076528e-06
1.62737753072744846e-07
-1.65880541869517414e-07
4.57740049722872346e-06
5.79434708758281031e-06
1.3745177999665528e-07
-1.39763209463951255e-07
3.64136715448304389e-06
5.68449209555159058e-06
1.17869089193411689e-07
-1.19472271930859301e-07
2.71914037945218852e-06
5.59600882912467142e-06
1.0299391038418387e-07
-1.04268199587844119e-07
1.80665449870402425e-06
5.5277114736324067e-06
9.2134894134764421e-08
-9.35054709529239242e-08
9.00661634687114256e-07
5.48045537721531038e-06
8.49670520757863001e-08
-8.6663379295556356e-08
5.45025548967968204e-06
8.13365695330451731e-08
-8.33698564879817609e-08
2.98173613033748147e-05
9.21038142718176524e-06
5.99575121284229301e-05
-0.000107210037843882974
4.61963906679460076e-05
6.34248981373596309e-05
8.87443933014582173e-05
-0.000115450931612477958
5.67701968472964522e-05
9.19744787337473167e-05
8.32393368799355351e-05
-9.7407718215866511e-05
6.18661919403119722e-05
9.46213594832499177e-05
6.76039510954722187e-05
-7.39991058409099507e-05
6.3151724893734237e-05
8.50079593316297816e-05
5.2743004920328474e-05
-5.52806133166620437e-05
6.14675671841245362e-05
7.23211428290647114e-05
4.1309768834857575e-05
-4.21783688996441372e-05
5.79949590294167265e-05
6.02843252331294912e-05
3.24352626848079304e-05
-3.270778111906753e-05
5.3785870512569839e-05
5.02282356880798527e-05
2.54999331089383438e-05
-2.55982769360777936e-05
4.94975718658168033e-05
4.22904258235199014e-05
2.0132648965292925e-05
-2.01983833921421765e-05
4.54467128898710618e-05
3.61097086075274894e-05
1.59798392474713811e-05
-1.60514258610738484e-05
4.17352921760553964e-05
3.12330392246262095e-05
1.27444753752536557e-05
-1.28240163723621261e-05
3.83666165682445786e-05
2.7308652420291169e-05
1.02045258237352505e-05
-1.02848500371136789e-05
3.5310316237926483e-05
2.40965861410892928e-05
8.19624289408419035e-06
-8.27189384363632181e-06
3.25314916843243561e-05
2.14306202119447086e-05
6.59860425363667305e-06
-6.66648794543534723e-06
2.99960501636037553e-05
1.91960916602837574e-05
5.32128717968324426e-06
-5.37990958339808142e-06
2.76734232095560948e-05
1.73128453107656254e-05
4.29644394830297334e-06
-4.3459731208454078e-06
2.55388387972848464e-05
1.57227464487801971e-05
3.47296687440238802e-06
-3.51404812453835235e-06
2.35702039360698742e-05
1.43785921608675043e-05
2.81071481337453159e-06
-2.84415974760781095e-06
2.17465764605584717e-05
1.32365137293684275e-05
2.27687285830967712e-06
-2.30428879770210225e-06
2.00493011640523018e-05
1.22594744709330348e-05
1.84532849502375871e-06
-1.86855197517061886e-06
1.84634888947270186e-05
1.141805806776392e-05
1.49614619387801627e-06
-1.5161436984767653e-06
1.69779864980244639e-05
1.06872553829179528e-05
1.21373753252049424e-06
-1.23068487566059042e-06
1.55790656615428341e-05
1.0055776399340658e-05
9.84919862650354369e-07
-9.99080564515097786e-07
1.42544316392077115e-05
9.50578578012731264e-06
7.99070354550818678e-07
-8.11030668290654715e-07
1.29976027101630765e-05
9.01167854389234437e-06
6.48893902875728679e-07
-6.58898571544295598e-07
1.17981155355661652e-05
8.58352257797973518e-06
5.26925774975694066e-07
-5.35507159492796489e-07
1.06507250566374963e-05
8.20273000146128157e-06
4.28871967259243741e-07
-4.35916539034836288e-07
9.5496764507170381e-06
7.86445940302049741e-06
3.49577579012224634e-07
-3.5544483759954139e-07
8.48904483486985896e-06
7.56694910730091255e-06
2.85409476438743391e-07
-2.90419884793437816e-07
7.46345906001170253e-06
7.30841827171359655e-06
2.33995610333715749e-07
-2.38345744646984471e-07
6.46788008304041555e-06
7.08720943446507425e-06
1.93346910350516456e-07
-1.97071988143471806e-07
5.49785731575280537e-06
6.90072341532613964e-06
1.61369958958640842e-07
-1.64365888945951647e-07
4.54952797813037941e-06
6.74536104454158902e-06
1.36259723364729374e-07
-1.38456560658165854e-07
3.61887297367406362e-06
6.61759488680112826e-06
1.16765976357642517e-07
-1.1834500640250696e-07
2.70174048593586903e-06
6.51455354471918041e-06
1.02004121109695287e-07
-1.03392230329184179e-07
1.79457628880842593e-06
6.43499136672823872e-06
9.13254547697308921e-08
-9.2917376994691567e-08
8.9443238542548182e-07
6.3800151123981043e-06
8.43621061218087363e-08
-8.62857526389205482e-08
6.34477640496392282e-06
8.08729890481330033e-08
-8.30355497659645439e-08
2.82211442234710663e-05
2.70360991412623621e-05
6.41516324391152139e-05
-0.000110200459785062015
4.36135591201368376e-05
7.29013523358689212e-05
8.29687501122580565e-05
-0.000107836616822414816
5.35701881932974431e-05
9.46062282423133907e-05
7.55655906011469666e-05
-8.81533031198019853e-05
5.84945121165117806e-05
9.52622501809668554e-05
6.14395949019832177e-05
-6.70051219764574715e-05
5.97261660201411741e-05
8.60192428750064742e-05
4.83810028754390055e-05
-5.06247538941222074e-05
5.83386310601607681e-05
7.4527097182966386e-05
3.82829317752060751e-05
-3.91016577696910272e-05
5.54018248944707575e-05
6.35253505627105734e-05
3.03746241318106979e-05
-3.06796293201434169e-05
5.17552116039371601e-05
5.40136056491201562e-05
2.41239919792657578e-05
-2.42659149607156506e-05
4.79418034727644842e-05
4.61979688551972942e-05
1.9216183212091386e-05
-1.93136846998457403e-05
4.42528353789714649e-05
3.98876880902496341e-05
1.53625143245816861e-05
-1.54525938672758989e-05
4.08066834143236762e-05
3.47685678455959601e-05
1.23220957371052737e-05
-1.24107364790769355e-05
3.76326176616625067e-05
3.0567921181045127e-05
9.9107435464031064e-06
-9.9953501631687567e-06
3.47207501127213807e-05
2.70868175110012071e-05
7.98842459367992626e-06
-8.06612697891593821e-06
3.20503887880224398e-05
2.41708905261020317e-05
6.44915515966928191e-06
-6.51806935418573898e-06
2.95969611417876044e-05
2.17080544140057003e-05
5.21204510165884705e-06
-5.27162470030468779e-06
2.73373730236578535e-05
1.96209060040855349e-05
4.21566046421740528e-06
-4.26617196108417406e-06
2.52519768828991539e-05
1.78509048513204347e-05
3.41281139831875736e-06
-3.45445466052552929e-06
2.3321615275586999e-05
1.63465484826547196e-05
2.76537646067110884e-06
-2.79908958496223105e-06
2.15284863188637749e-05
1.50602879815802006e-05
2.2420944920521781e-06
-2.26990969595050076e-06
1.98568417714258426e-05
1.39557251226903669e-05
1.81839668206271121e-06
-1.84208479334825538e-06
1.82930496540512996e-05
1.30030911820613545e-05
1.47534816548451449e-06
-1.49555916776905375e-06
1.68267471652936223e-05
1.21722659700146091e-05
1.19779851956506819e-06
-1.21461136815286333e-06
1.54433946271542518e-05
1.14541808677136597e-05
9.72619631205066857e-07
-9.86294228697310779e-07
1.41359499003930434e-05
1.08227837958463e-05
7.90339624741391562e-07
-8.00407600631005063e-07
1.28918717961707228e-05
1.02639816317400775e-05
6.41234532083033059e-07
-6.50712049201848536e-07
1.17030485855988717e-05
9.77938682330649048e-06
5.20732694680346773e-07
-5.29093110508748463e-07
1.05658831933670306e-05
9.34548141984656811e-06
4.24250739660895959e-07
-4.31070069265254026e-07
9.47487423992154554e-06
8.96037467324832945e-06
3.46035171216604694e-07
-3.51665388326941189e-07
8.42392917026850825e-06
8.62221047622579664e-06
2.82487639783672602e-07
-2.8721544036787602e-07
7.40765758826859089e-06
8.32834385387231021e-06
2.31564869709462088e-07
-2.35635692063673267e-07
6.42076951097247105e-06
8.07722292172214553e-06
1.91423309633558743e-07
-1.94920292530551846e-07
5.45854897998997084e-06
7.86556866926435928e-06
1.59814419263002898e-07
-1.6264197552045415e-07
4.51714574723817418e-06
7.6888242498714014e-06
1.34866229913118903e-07
-1.36969482062742631e-07
3.59271249528207641e-06
7.5433562315633343e-06
1.15457711419967033e-07
-1.17072037940114251e-07
2.68150440613550681e-06
7.4262058513935928e-06
1.00839333468368467e-07
-1.02422498761495651e-07
1.7805494015343413e-06
7.3358144874202993e-06
9.03910533552026036e-08
-9.22655241214949327e-08
8.8723576919724221e-07
7.27337742031399124e-06