/*--------------------------------*- C++ -*----------------------------------*\
| =========                 |                                                 |
| \\      /  F ield         | OpenFOAM: The Open Source CFD Toolbox           |
|  \\    /   O peration     | Version:  2206                                  |
|   \\  /    A nd           | Website:  www.openfoam.com                      |
|    \\/     M anipulation  |                                                 |
\*---------------------------------------------------------------------------*/
FoamFile
{
    version     2.0;
    format      ascii;
    arch        "LSB;label=32;scalar=64";
    class       volVectorField;
    location    "0.0299999999999999989";
    object      U;
}
// * * * * * * * * * * * * * * * * * * * * * * * * * * * * * * * * * * * * * //

dimensions      [0 1 -1 0 0 0 0];

internalField   nonuniform List<vector> 
7236
(
(0.560817398248451227 -0.0146998242138372277 0.500142977650359311)
(0.596436997613817077 -0.00529941218500003947 0.643800412659754295)
(0.547844102727293669 0.0174032438989479774 0.530340241292411196)
(0.468539311336859554 0.032834436760205199 0.407160722660021179)
(0.365266321703409669 0.0276089575190257563 0.292036664720912165)
(0.28909191779487986 0.0174635044838758365 0.200336197597262733)
(0.244297850556954355 0.0103004578377009475 0.137907444750372699)
(0.211858214134621387 0.00722280522424519934 0.1001734442888704)
(0.186406955384774198 0.00562030177222742813 0.0753944824626801846)
(0.16589347309510763 0.004565320555579345 0.0580182131337809645)
(0.148983912189519424 0.00381331340248827972 0.0452732718763676073)
(0.134728524168760189 0.00325619670402503905 0.035635266947657257)
(0.122494552618790373 0.00283439549802567015 0.0282331960214747858)
(0.111850477102558146 0.00250358735209700546 0.0224835977293162612)
(0.10247784996713992 0.00223661976022829093 0.0179792604026684684)
(0.0941377589270267073 0.00201668112051528979 0.0144263961272061859)
(0.0866450573372961053 0.00183077487507222873 0.0116091807040091272)
(0.0798535444757876162 0.00167263658047432065 0.00936646771063829979)
(0.0736452131594346054 0.00153789629050881901 0.00757551838039183419)
(0.0679228201724648567 0.00142185892326205537 0.00613975747068641262)
(0.0626079336131112191 0.00132188954758548469 0.0049822486314341748)
(0.0576382194082723093 0.00123544841716647725 0.00404458394533428137)
(0.0529641886801337919 0.00116018777883996889 0.00328374646388763115)
(0.048546235919652618 0.00109489675904254208 0.00266621901715555784)
(0.044352187552307451 0.00103766860843571267 0.00216488561937214566)
(0.0403564591752834587 0.000986981399728028728 0.00175827469440894375)
(0.0365384105713285473 0.000942622109495838776 0.00142942629143718398)
(0.0328780320041249241 0.000904273334319838124 0.00116425565480012417)
(0.0293546943263140354 0.000870562598722433465 0.000951085585634976337)
(0.0259509597686617063 0.000840656790783654334 0.000780322821779090483)
(0.0226532139893513805 0.000814640994310407928 0.000644087452734932336)
(0.0194487074643583668 0.000792338675986924818 0.000536211668221167398)
(0.016324877824440618 0.000773421475256137227 0.000451966601994620049)
(0.013269610921191782 0.00075812215877342189 0.000387234300236742992)
(0.0102692733867314999 0.000746671581020023727 0.000338186476317085686)
(0.00730824785369051273 0.000737562276935643996 0.000302029345829124172)
(0.00437275390260134095 0.000730000510654372483 0.000277762852667926311)
(0.00145413625634255913 0.000726473526129035895 0.000265471352167547545)
(0.452562807768437547 -0.0399673610578726579 0.457464845682527266)
(0.516414343018785527 -0.0256401396151916365 0.564052939707255341)
(0.498080420846845506 0.0222190833647045831 0.493431583961164155)
(0.468413114977435374 0.0688691522351235208 0.403477750619238462)
(0.386161969702710606 0.0718024870222455647 0.302075886391856785)
(0.30818780851739469 0.0519895522592656173 0.210193717878186082)
(0.253571901927664656 0.0328101955170013726 0.144854379542815354)
(0.215320229454514595 0.0224375020411333101 0.103444614294530057)
(0.188041944957166307 0.0171298652010436619 0.0768954410104165376)
(0.167160009613761068 0.0139442254873890521 0.0588269982148735826)
(0.150184581757501906 0.0116843666500628645 0.0457832089281780819)
(0.135917392467411802 0.00997843798004672058 0.036002667341418132)
(0.123666447142360969 0.00865225141696049013 0.0285196531893792404)
(0.112981151333098814 0.00759531441980274002 0.0227173690784831447)
(0.103538716661689331 0.00673809817885122862 0.018171772395182563)
(0.0951026910628948174 0.00603388326471682428 0.0145823976897004864)
(0.0874980078321964672 0.00545032335224246434 0.0117318763369391628)
(0.0805911002507100072 0.00496587795972723307 0.00946015533890179686)
(0.0742726123477568945 0.00456115985367564446 0.00764525465035289717)
(0.0684515806402913873 0.00421992565133815639 0.00618992327786994662)
(0.0630531516236909201 0.00393016178161119303 0.0050169826321002399)
(0.0580151035260440262 0.00368078196294941047 0.00406825280554436695)
(0.0532867401807623764 0.00346403754774083847 0.00330012044558112769)
(0.0488258728730570357 0.00327496707053280458 0.00267789529739857887)
(0.0445972236010253875 0.00310783382518206716 0.00217346874767156573)
(0.0405733911146248238 0.0029597319262311011 0.00176469714202800976)
(0.0367321886481938864 0.00282922015144657871 0.00143442092464065251)
(0.0330514291445278066 0.00271428781672861628 0.00116836207020277333)
(0.0295091176406246103 0.0026124184289578428 0.000954477732762938776)
(0.0260878121025822016 0.00252269676526088683 0.000782994935041187996)
(0.0227737542593878205 0.00244511989897303657 0.000646206766262894688)
(0.0195536864004921367 0.00237892884503837932 0.000538055456299675844)
(0.0164150545604521553 0.00232335602177740665 0.000453621239973845834)
(0.0133458979160844763 0.00227840248508050973 0.000388601812262603724)
(0.0103321659930843048 0.00224372825495100124 0.000339240250465358236)
(0.00735753036216166712 0.0022181104794779926 0.00030290666868216555)
(0.00440500946954796094 0.00220038034225460925 0.000278652087027166291)
(0.00146458069229210498 0.00218721799060415337 0.000266551691096604928)
(0.409764719460209204 -0.075451835266496084 0.470004994168276014)
(0.413360092528738399 -0.0167839975090143256 0.522826188416357196)
(0.379513367019895409 0.0618516831845979387 0.453891488081519801)
(0.352611317887307651 0.109674170424225156 0.35687413843816751)
(0.313896014876300367 0.107605303300905245 0.264169038179570992)
(0.275365291101117182 0.0810307515789066568 0.189590549740300596)
(0.239849706216979319 0.0546884766740966533 0.135907881186217883)
(0.209162101284834978 0.0381378741556981718 0.0994080543401796024)
(0.184712275171914686 0.0288057152597180621 0.074795945393303212)
(0.16510955171663555 0.0232454401610237386 0.0576058368337066529)
(0.148898243245680711 0.019481718455595709 0.0450382813633742607)
(0.135107358992124227 0.0166735730165068242 0.0355440277219126535)
(0.123149217056451335 0.014470575129483406 0.0282350240511964057)
(0.112644316108466591 0.0126975686274473781 0.0225376811461817372)
(0.103309733843972393 0.0112493254369867672 0.0180553155998113488)
(0.094933773390332668 0.0100568380648548457 0.0145038273169461954)
(0.0873595051721902383 0.00907367526338189075 0.0116761338584156407)
(0.0804646415552153771 0.00826104535606780009 0.00941886876276605903)
(0.0741483199432791951 0.00758457860321604116 0.00761322157371649259)
(0.0683263029211749334 0.00701803628144997884 0.00616356659261803157)
(0.0629267972333256848 0.00653852711599301351 0.00499457405462527468)
(0.0578893736866473718 0.00612608070267091614 0.00404940012529301889)
(0.0531644627697542282 0.00576839215750533495 0.00328455808375111187)
(0.0487090364894706834 0.00545595500075289012 0.00266511081919966909)
(0.0444874191777943767 0.00517896339115231363 0.00216305533894604364)
(0.0404721013175519118 0.00493414999028221439 0.00175625499919020416)
(0.0366396743011251289 0.00471762600346303622 0.00142766783138095744)
(0.0329672678581292775 0.00452509719832121064 0.00116292722746891741)
(0.029433243499410764 0.00435419648425483877 0.000949977953194754208)
(0.0260204173126546215 0.00420465773217791345 0.000779247568138210036)
(0.0227146226859949799 0.00407594113542242547 0.000643234559553526467)
(0.0195023415974300458 0.0039665829592401159 0.000535828647181880264)
(0.0163711532265651029 0.0038754088561989892 0.000451909384312025413)
(0.0133090129122608244 0.00380145953052687859 0.000387138356217132864)
(0.010301626788947674 0.00374312070963653222 0.000337939999057880198)
(0.00733278043774190837 0.00369883013793640032 0.000301856577860016488)
(0.00438851437613712106 0.00366815366069303019 0.000277934370703441548)
(0.00146003352119028224 0.00364780417664678719 0.000266080138807326229)
(0.348495079678314335 -0.0740546395543854596 0.43380996611672773)
(0.29379139055142478 -0.000833933924122863546 0.489170776720011524)
(0.267760630740705774 0.0911895010299998698 0.417534827530901265)
(0.264829444351132259 0.128084750160896543 0.317110402381113432)
(0.25945118296762798 0.121833225884916629 0.233146548709891321)
(0.245763154038918241 0.0952615074091316127 0.171849040467957959)
(0.224902048412687683 0.0690196651983436826 0.12737781109955662)
(0.201844806062293436 0.0507643471161388499 0.0954479305635001496)
(0.180695377393346207 0.0392861013448067842 0.0727812005376149013)
(0.162617160067230787 0.0319822992971935532 0.0564360863632813042)
(0.147248866578171739 0.0269209268145822328 0.0443039678069175463)
(0.133975622887291368 0.0231134059159388977 0.0350707610205500189)
(0.122353974116250735 0.0201165223835052843 0.0279256346474848274)
(0.112069345410797688 0.017695964203145835 0.0223321668157818107)
(0.102877276246188865 0.0157105677021547874 0.0179157872503065731)
(0.0945926100725534846 0.0140716348331457811 0.0144061478307507783)
(0.0870752483961974022 0.0127145577652447838 0.011605674098377261)
(0.080214622054779583 0.0115851571911181738 0.0093666746363100465)
(0.0739200207619605809 0.0106405768767881877 0.00757301065737440993)
(0.0681134896864506317 0.00984638541292071415 0.00613113070873918132)
(0.0627261293841234191 0.00917072388048674816 0.00496784149644187781)
(0.0577004862259958631 0.00858812165916600888 0.00402746984173259562)
(0.0529885208456562645 0.00808348425856374869 0.00326658474321214276)
(0.0485460594714877819 0.0076432139979708668 0.00265027348537007299)
(0.0443377999287632926 0.00725271828671220087 0.00215101783907465207)
(0.040336464590674824 0.00690844030324949156 0.00174652598223898402)
(0.0365172502681845104 0.00660369636069932982 0.00141987912404841583)
(0.0328572929201067648 0.0063326521597304895 0.00115659097767108871)
(0.0293356962284117735 0.00609280822842260712 0.000944690079361946793)
(0.0259353653578684937 0.00588360484246759109 0.000774878896617157802)
(0.0226416090610603409 0.00570383160245064788 0.000639803556178610857)
(0.0194406739286698792 0.00555146442853545526 0.000533210876361921073)
(0.0163201664519435838 0.00542465115509519098 0.000449797218761302953)
(0.0132678600603934466 0.00532139923789850394 0.00038528038283875592)
(0.0102693893953006137 0.00523920005851591028 0.000336315004205223309)
(0.00730902056672371337 0.00517626050796680861 0.000300586887311264487)
(0.0043736101673791921 0.00513261405206156748 0.000277068364410607807)
(0.00145541361574290156 0.00510479553790618885 0.00026544643490581559)
(0.276637724503735583 -0.0492664138679691291 0.360980137326029515)
(0.199134131701131228 0.0480756277063442497 0.446463695096482316)
(0.204439537970366236 0.121531841283291753 0.377027220143783204)
(0.222504304989140145 0.140912757130547295 0.285166126453488156)
(0.231428898309783915 0.12877368862141747 0.210793115260084984)
(0.226145994034129438 0.103383168093455158 0.15792263804333162)
(0.212060043543144172 0.0791087270220815486 0.119508234794471147)
(0.193986432689271932 0.0609705254378703626 0.0911724297403513628)
(0.175834594101506925 0.0485772096960017524 0.0703777963422930475)
(0.159442149446855669 0.0401156937853151402 0.0549902794364993605)
(0.145056065138858908 0.0340021719852192025 0.0433830964380205047)
(0.132400082435053079 0.0293266919716604624 0.0344637960720847319)
(0.121188744040339844 0.025616793205011805 0.0275163065984173894)
(0.111182436088785752 0.0225999802206199238 0.0220508815896889483)
(0.102182089851164101 0.0201126127601809236 0.0177184380381480572)
(0.0940302685864257831 0.0180493485482277824 0.014264666055339454)
(0.0866041577574772348 0.0163300603965091592 0.0115025500024072934)
(0.079807294733530959 0.0148915838183483629 0.00929019044331109989)
(0.0735596578003711032 0.0136843821004731369 0.00751467092414194373)
(0.0677888841324719299 0.0126648267630227566 0.00608528784437847338)
(0.0624299863060066504 0.0117934347855931827 0.00493128740633470321)
(0.0574301211846260998 0.0110407331016244403 0.00399824888938115838)
(0.0527429026513930727 0.0103895228342859164 0.00324299215533578079)
(0.0483223748867559477 0.00982192395079471529 0.00263098920061132164)
(0.0441349195435630157 0.00931743012671181099 0.00213565278232063669)
(0.0401541540481761133 0.00887383328099302163 0.00173421838307677195)
(0.0363535605062279138 0.00848103013401627082 0.00141012274720634105)
(0.0327109981712146447 0.00813185963662582841 0.00114873579263434977)
(0.0292065737367600206 0.00782361332872214855 0.000938206220531527307)
(0.0258231876776077104 0.00755522665898821291 0.000769571262030650143)
(0.0225456122411072934 0.00732489970154592482 0.000635626420853176882)
(0.0193598328462871901 0.00713007559103998306 0.000529942725381509242)
(0.016253352390573933 0.00696803018587996599 0.000447068272911363277)
(0.0132137518778205915 0.00683564980846107853 0.00038286137387659149)
(0.0102268246296008877 0.00672964128420301504 0.000334242812530459693)
(0.0072776281958603032 0.00664811045948025554 0.000299005676887979615)
(0.00435393867188902956 0.00659158543303642406 0.000275987274176733724)
(0.00144863040237419322 0.00655544667238087617 0.000264620276450434021)
(0.198502841202309377 -0.0286422596178508258 0.331332234412694437)
(0.145024826315955951 0.0749741302346304261 0.397230364950458215)
(0.174247140806272571 0.136860640994470761 0.337764954975095399)
(0.201672356080938614 0.147778997732890854 0.258025930214802357)
(0.214267829210304961 0.132723379688381382 0.192625645024112502)
(0.211860123718132842 0.109221034466012445 0.146137355992264517)
(0.201068672421610306 0.0869958645779043138 0.112200956258914838)
(0.186207841486663916 0.0695719471221475649 0.0867736589381293)
(0.170498736030020748 0.0568533050876229989 0.0677085541128393531)
(0.155729301146234067 0.0476221527103450962 0.0533131613698544921)
(0.142382349775819761 0.0406893472659858937 0.0422883195573138457)
(0.130412644132514716 0.0352815736912724873 0.0337276758605542237)
(0.119671151835001988 0.0309400748970587273 0.0270100896431360836)
(0.109994604931744899 0.0273815943469007776 0.0216958395207428253)
(0.101230715450555731 0.0244300523082057672 0.0174645557375168077)
(0.0932496233141228148 0.021966347722019379 0.0140802423281512334)
(0.0859476949903391768 0.0199011820106056066 0.0113671001733782837)
(0.0792436962259992494 0.0181664775424932069 0.00918933021608138792)
(0.0730671712146439001 0.01670484907060759 0.00743797061331707716)
(0.0673514336067290026 0.0154639439869181036 0.0060257476631150747)
(0.0620370922316643564 0.0143993696406218858 0.00488455482798465061)
(0.0570771686530740369 0.0134782302990639983 0.00396141992071325465)
(0.0524266566469927531 0.0126816103751345392 0.00321358716012982472)
(0.0480368411219490657 0.0119875801260310409 0.00260714831039536186)
(0.0438777608457478069 0.0113691209085293298 0.00211696474219096216)
(0.0399244795062596164 0.0108274608382165436 0.00171929799390896148)
(0.0361479888710114286 0.0103473891698620656 0.00139844491972290351)
(0.0325278728300355396 0.00992078791682464087 0.00113947159673785832)
(0.0290454371230728994 0.00954482403585432855 0.000930613971456202105)
(0.0256835073419824783 0.00921783435175067313 0.000763351267320348695)
(0.0224263377532057662 0.00893755974255562753 0.00063069441339182544)
(0.0192595513992727015 0.00870088578978243585 0.000526007308950613025)
(0.0161703940753925232 0.00850401153333984333 0.000443706491055128347)
(0.0131463162917632402 0.00834268021337491658 0.000379868993411262704)
(0.0101735527491976022 0.00821293934491375104 0.000331713505582891823)
(0.00723827619179919467 0.00811288331376442545 0.000297098337628010274)
(0.00432941748557771379 0.00804360157555555726 0.000274668533589088489)
(0.00144024988073374613 0.00799933892723716546 0.000263580688633807659)
(0.152276592272350519 -3.89293635483277736e-06 0.336220323368958462)
(0.119875781473654394 0.0939589027218565159 0.356885995376710785)
(0.1601407772610354 0.145177116595357147 0.302375523011488179)
(0.188267461680169779 0.150769847800072354 0.233445696494436139)
(0.201054334230981319 0.135114717615328117 0.176270723207859026)
(0.199857780642536897 0.113737068389921786 0.135322334611023276)
(0.19115334112786958 0.0935289312575125487 0.105203229273014467)
(0.178635546399217249 0.0769829365069257254 0.082337569822937412)
(0.164936700210558673 0.0642311452133050853 0.0648832658963515163)
(0.151646090061902633 0.0545112165514455987 0.0514722836725723526)
(0.139325314285675655 0.046961395610326459 0.041055677013106015)
(0.128071085606414919 0.0409489380098549197 0.0328830079945642839)
(0.117838831971416702 0.0360592681633076229 0.0264195326607798431)
(0.108531872699601087 0.0320174985142379354 0.021275130908790716)
(0.100040686136130333 0.0286414827158235422 0.0171598330180095654)
(0.0922628904138738937 0.0258047493732172298 0.0138569173575864898)
(0.0851152202407861186 0.0234149824025461743 0.0112019600939816666)
(0.0785303953231153706 0.0213994897624633709 0.00906572020587325528)
(0.0724463896191217122 0.0196922122925197104 0.00734390435613365995)
(0.0668035461858619561 0.0182352533636336474 0.00595308594121240434)
(0.0615492448484158128 0.0169820923320062357 0.00482797577216162628)
(0.0566429109333983979 0.0158954097261487896 0.00391725283709955154)
(0.0520406660691744294 0.0149557792009136787 0.00317864515130403171)
(0.0476899634544435402 0.0141353749714278228 0.00257900075922243722)
(0.0435670693297284806 0.0134044846551405524 0.00209510409420574691)
(0.0396482845294821168 0.0127671035922815746 0.00170181827698273158)
(0.0359010872010700061 0.0122007257970420998 0.00138499145483975692)
(0.032308384270176585 0.0116974999531926638 0.00112894998270061486)
(0.0288526962421089724 0.0112546342364095095 0.000921962394799666287)
(0.0255166978340909956 0.0108697063569906972 0.000756194387933400644)
(0.0222841481900532892 0.0105401658325635795 0.000624991836369661658)
(0.0191401167627687219 0.010262235995029758 0.000521412701925075641)
(0.0160714645438113958 0.0100308335120043585 0.000439721416968265051)
(0.0130656663562025641 0.0098407201332375259 0.000376310010331385629)
(0.0101096827880490236 0.00968748371117456042 0.000328735804268819867)
(0.00719108208287231633 0.0095691846717887788 0.000294868585898859915)
(0.00430012364350888018 0.00948738852589440552 0.000273102081397138597)
(0.00143028690562518293 0.00943502512326943599 0.000262309599362689917)
(0.13544545285978643 0.0285563057582089962 0.339289552670119621)
(0.110978136529976706 0.110313089190069047 0.327596638112020444)
(0.152007306058235619 0.149710090833755527 0.272110764948635342)
(0.178697234413409567 0.15211109497051295 0.211140240393094841)
(0.190139734518585957 0.136870452593029102 0.161263892314719548)
(0.189282876789572341 0.117516198474752503 0.125273125187039008)
(0.182020189263212062 0.0991088398732597187 0.098517390742957317)
(0.171308274637984814 0.0834578100341200613 0.0779368970336462158)
(0.159276655512494342 0.0708403475569031188 0.0619743131738905093)
(0.147307421956777318 0.0608307588851885808 0.0495183151278275335)
(0.135965163902135366 0.0528220698711795306 0.0397174031198651023)
(0.125429611358175541 0.0463156022052129274 0.0319499945471724417)
(0.115729955816442714 0.0409574324513493626 0.0257575604896908457)
(0.106821044805704993 0.0364892924282521763 0.0207976589349728735)
(0.098630884392474652 0.0327288998500590081 0.0168107341228597336)
(0.0910843316985337909 0.029549986571957107 0.0135992178613862542)
(0.0841173536210469003 0.026859614608643903 0.0110100981363676232)
(0.0776742074030971202 0.0245791947241539473 0.00892125542213623168)
(0.0717015650334803523 0.0226356179386398258 0.00723368985069035991)
(0.0661486079686141454 0.0209698646245915325 0.00586811566055399098)
(0.060969125139442637 0.0195348169526569672 0.00476212443837190427)
(0.0561295425387888028 0.0182870793994016866 0.00386614936782045003)
(0.0515859501770499565 0.0172073179716620492 0.00313805693759695468)
(0.0472823108956091226 0.0162773568912959639 0.00254720715795176637)
(0.0432044494830143913 0.0154330356612990584 0.0020700377410783552)
(0.039326599413111972 0.0146989178793776529 0.00168182864219950756)
(0.0356133217299770266 0.0140442594788790284 0.00136995490244339524)
(0.0320529777582477735 0.013463541536788139 0.00111731284688136221)
(0.0286287680162394462 0.012953610412378835 0.000912218282852294334)
(0.0253231323107841015 0.0125107270327466415 0.000748012360348670547)
(0.0221193805534547483 0.0121321836162852116 0.000618503264304241318)
(0.0190017428089842635 0.0118131759785166553 0.000516189022026708054)
(0.0159566749448764415 0.0115471245533925668 0.000435129476303538305)
(0.0129719396284676027 0.0113282750194183303 0.000372192110655768162)
(0.010035412696626422 0.0111519380468593863 0.000325329422762230891)
(0.00713623743473055204 0.0110158470113843471 0.000292337592455511181)
(0.00426616399104262634 0.0109218297162089438 0.000271291145931355651)
(0.00141877382447292821 0.0108613532344099106 0.000260796841234257914)
(0.126311115715744854 0.0564490859485801896 0.333634417632654445)
(0.107093175465985652 0.123403377591388363 0.303868749143928474)
(0.146995424926759405 0.153270050690807125 0.246037488943046723)
(0.171133886353373205 0.152826995297328683 0.191003591050175253)
(0.180741987880398802 0.138415790692250074 0.147550357917958314)
(0.179854111351209794 0.120877625961219912 0.115949460972024632)
(0.173580425204655164 0.104000393361016227 0.0921643220898207827)
(0.164252182459492913 0.0891830373459650133 0.0736226967948343386)
(0.153599211684501774 0.0767925234475990148 0.0590351401912335635)
(0.142795167096183229 0.0666288555987162856 0.0474934370342049855)
(0.132367110234220958 0.0582826791663925842 0.0383028278428545893)
(0.122537438992453174 0.0513769864389445469 0.0309482793767539323)
(0.113381165132201173 0.0456236581568555954 0.0250376033802230877)
(0.104888668492857287 0.040782682593723224 0.0202730574175252476)
(0.0970213033921713264 0.0366785190858117671 0.0164241544742276153)
(0.0897293702091541689 0.0331904065032801177 0.0133118558777867661)
(0.0829649453225258932 0.0302238058700766768 0.0107946185068685304)
(0.0766820824632855336 0.0276943507861724184 0.00875797126498801225)
(0.0708377279559728595 0.0255252194098414438 0.00710871758564831421)
(0.0653909991683564173 0.0236597147885768758 0.00577186189635972742)
(0.0603003017550852866 0.0220506106737503073 0.00468774209778780124)
(0.055539596524900689 0.0206468860708671244 0.00380836614658513085)
(0.0510720574808782302 0.0194461151347204327 0.00309271397667067486)
(0.0468211745288105857 0.0183852978675123277 0.00250372239027531977)
(0.0427878027936418673 0.0174318205007444535 0.00204197022406461554)
(0.0389570176498866758 0.0166021948545845809 0.00165970367389815538)
(0.035282852382090571 0.0158636355222353254 0.00135378696743751578)
(0.0317607289078107799 0.015210617973304294 0.00110482157802477797)
(0.0283731794877676788 0.0146375105627637239 0.000901336211807007999)
(0.0251025901567128416 0.0141390097192189181 0.000738718933533621578)
(0.0219319410444563621 0.0137112446738425729 0.000611275821839985379)
(0.0188442626330351942 0.0133491312838125951 0.000510411820372079841)
(0.0158258944528118783 0.0130464987550161452 0.000429938448278807455)
(0.0128652363753232173 0.0127979718635249998 0.000367502032376038664)
(0.00995098252975313083 0.0125993260643865752 0.000321513868341097157)
(0.00707393472740661979 0.0124485008015277916 0.000289538605069783711)
(0.00422758480401463389 0.012346459317616177 0.000269247906468504498)
(0.00140571526958853041 0.012280923721621392 0.00025903716248293964)
(0.119425795505322355 0.0810942074398161294 0.321148926251201783)
(0.105461017711357713 0.136514755949001754 0.282223609056863167)
(0.143550688807073751 0.156247878181707767 0.22320533501605952)
(0.164597224726342917 0.153227615698507125 0.173155635076344461)
(0.172402674692766156 0.13987581055486259 0.135080352790831443)
(0.171330129772835238 0.123964712159613105 0.107303345909971384)
(0.165727730225926739 0.108374258940218349 0.0861402809639408573)
(0.157463287355947335 0.0943085028439611395 0.0694261973154045448)
(0.147949411194200742 0.0821803786311812029 0.0561059429454968811)
(0.138166822379871879 0.0719502492746920963 0.0454326500415275641)
(0.128583892386522236 0.0633593215907438112 0.0368383250468376083)
(0.119438222029929014 0.0561346317563861941 0.0298969694311180187)
(0.110826476358454759 0.0500518199338438399 0.0242734451994426614)
(0.102760631094134941 0.0448878482836432627 0.0197112557218912555)
(0.0952324211455189695 0.0404803793117437388 0.0160070402616422254)
(0.0882135563768881581 0.0367160123185117024 0.0129995168593928095)
(0.0816687580882376196 0.0334968279716994222 0.0105586252543174493)
(0.0755614956252062819 0.0307351657584846935 0.00857795500944789208)
(0.0698607352305996854 0.0283530725576304037 0.00697048628496370077)
(0.064535549768814926 0.0262975069065412223 0.00566548141434763692)
(0.0595462042731264019 0.0245211568859843333 0.00460564543029750705)
(0.0548837407664660576 0.0229703082674492035 0.00374472042666633854)
(0.111432756421074586 0.101710897171535933 0.302120160753799438)
(0.104954407430119509 0.147350045650718742 0.260049792964811399)
(0.1409113802390628 0.158689259913460584 0.202519218404885959)
(0.158826032211523416 0.153795128074595389 0.157266725886982567)
(0.164899696416452024 0.141426442605454616 0.1237564693716766)
(0.163515588688755931 0.126882042779847437 0.0992865351462419998)
(0.158358868345677473 0.112361689889649369 0.0804373218654862859)
(0.150917490667917015 0.0989474526422289002 0.0653704808475367577)
(0.142349174469878548 0.0870786584040694756 0.0532191920552165243)
(0.133463038232172093 0.0768381508566720328 0.04336582610861206)
(0.124658113894390979 0.0680693342956006503 0.0353480597572635932)
(0.116169989905610671 0.0605927468289890192 0.0288145140634733024)
(0.10809695427640556 0.0542390408740278801 0.0234786996423235923)
(0.100461728193735167 0.0487985572604373238 0.0191220016013431068)
(0.0932842582767485912 0.0441270286974224518 0.0155660686275113612)
(0.0865519274349724477 0.0401179374984090495 0.0126666895563164773)
(0.0802397130548227755 0.0366692913085512606 0.0103051609913452427)
(0.0743207552577775099 0.0336940541804297555 0.00838331707565039864)
(0.068776915654000001 0.0311132503394263848 0.00682052113344662914)
(0.063586435001577804 0.0288782861354075424 0.005550127495720307)
(0.0587113617836438895 0.0269401368184438196 0.0045170163027486469)
(0.0541453397292117611 0.0252466403493571238 0.00367386192171983549)
(0.101847703683065477 0.117406657097975764 0.278848128638970683)
(0.104695349832122558 0.155213640476646014 0.237213647355004553)
(0.138593821972807091 0.160898544597590343 0.183207634995837643)
(0.153601702650267624 0.154710969415238875 0.142745508869557336)
(0.158024910684896214 0.143111875283026685 0.113368376889923322)
(0.1562520502478425 0.129634982813229549 0.091838206546424439)
(0.151379087314981314 0.115968583562434113 0.0750514432828893185)
(0.144580434413769165 0.10310749136371869 0.0614759090466507618)
(0.136807173635888096 0.0914940237966898051 0.0504029966938148444)
(0.12871099991226731 0.0812951614145820539 0.0413189848954851752)
(0.120621842926746409 0.0724372967377841515 0.0338549944610817138)
(0.112765782090641309 0.0647598852349992177 0.0277188489819091347)
(0.105220871984526482 0.0581829867862151753 0.0226665967157880406)
(0.0980153866772879995 0.0525098000019963082 0.0185145219018604361)
(0.0911959102282751677 0.0476125178572905094 0.0151074739652561178)
(0.0847590162938528513 0.0433886809254046754 0.0123176530294910047)
(0.0786891963008680695 0.0397336987073235934 0.0100372000216701548)
(0.0729690143396485164 0.0365652666916154376 0.00817610423197615357)
(0.0675935349737449148 0.0338016515633051268 0.0066602299010538081)
(0.0625482791012318268 0.0313986870799643283 0.00542676572893678166)
(0.0577953759001657297 0.0293388540462975154 0.0044220851537275542)
(0.0533258912264069143 0.0275040619590403435 0.00360252972502684513)
(0.0936372743530530793 0.124423339577906841 0.25295335129151969)
(0.103933147562803183 0.159834681756258506 0.2141268177964952)
(0.136324272558534965 0.162740626767470975 0.164864442878340567)
(0.148670017813080813 0.155964605794342126 0.129287597959413136)
(0.151599092059376744 0.144997965177633581 0.103767728642019136)
(0.149399334273516343 0.132328083374240707 0.0849049467626806359)
(0.144710521840481054 0.119337649186900985 0.069987975945156225)
(0.138434794885087975 0.10693357720849736 0.057772543206327201)
(0.131345352883090377 0.0955289145682242102 0.0476944048958575922)
(0.123960387271393802 0.0853974925487746561 0.0393287592570988331)
(0.116520818095212836 0.0764574928972124174 0.0323799733062895764)
(0.109249666615933785 0.0686556209155267105 0.0266267450986155431)
(0.102221679412926258 0.0618941516524428581 0.0218508373413573709)
(0.0954445100846189887 0.0560203984432094265 0.0178981442856537831)
(0.0889859904250309974 0.05093256625162048 0.0146371701097275167)
(0.0828490664539398985 0.046521998432199077 0.0119564083325214166)
(0.0770290447141764034 0.0426842416733514279 0.00975756938956814229)
(0.0715162047272890622 0.0393443896753584016 0.00795822335129705086)
(0.0663184223911929827 0.0364140774855206961 0.00649076754256395615)