/*--------------------------------*- C++ -*----------------------------------*\
| =========                 |                                                 |
| \\      /  F ield         | OpenFOAM: The Open Source CFD Toolbox           |
|  \\    /   O peration     | Version:  2206                                  |
|   \\  /    A nd           | Website:  www.openfoam.com                      |
|    \\/     M anipulation  |                                                 |
\*---------------------------------------------------------------------------*/
FoamFile
{
    version     2.0;
    format      ascii;
    arch        "LSB;label=32;scalar=64";
    class       volScalarField;
    location    "0.930000000000000604";
    object      alpha.water;
}
// * * * * * * * * * * * * * * * * * * * * * * * * * * * * * * * * * * * * * //

dimensions      [0 0 0 0 0 0 0];

internalField   nonuniform List<scalar> 
7340
(
0.002494614990846372
0.00215336603149196256
0.00163933660934463153
0.0014066627978419192
0.00136876294484659282
0.00136551202498881846
0.00135441391315411336
0.00171864721362677882
0.00257574872461184545
0.00431804790528275695
0.00712659896980724107
0.00751952902914492481
0.115966428548096315
0.205566764053312451
0.697407099553291276
0.762964940413807358
0.00270383232007975847
0.00250222806008261901
0.00202044480903248308
0.00159862638022343121
0.0014066664110768852
0.00136876376443305229
0.00142101017331903827
0.00148422459044736019
0.00191018697996857582
0.00312560400020291292
0.00533696365567689658
0.0072646643614856371
0.0193974448359792648
0.0955552223274817314
0.330590040766094884
0.831896996857807491
0.00278829566190652058
0.00276300205466116586
0.00230862986588727895
0.00199509287733367876
0.00159852672577682521
0.00141580179290256257
0.00146676528520698051
0.0017672630413632243
0.00235366803408956597
0.00331486388174987486
0.00509427710678140439
0.0106606259281054848
0.0633528221307455841
0.181788413713350083
0.256963361058176798
0.851966395410203248
0.00395163610206104247
0.00302871937832555147
0.00214990470871878007
0.00250416997287375691
0.00202875314318176278
0.001711728164288117
0.00175596526469538904
0.00202767287818979812
0.00306686463171584531
0.00463285765135960231
0.00776947431855126019
0.0528332663971574773
0.532808051692095663
0.364120914587951094
0.57980326655318204
0.8372234619950496
0.00407538268299893758
0.00441963177086221806
0.00502085621376285526
0.00592253218751221094
0.00755328125548263441
0.00524043323340015604
0.00402682494228274145
0.00277031385293400115
0.00244706360548047064
0.00254093794938181627
0.00301778617275951346
0.00413237330611857315
0.00735118973757358917
0.015913463525254478
0.130116299436977056
0.608641080745004781
0.717414553998129811
0.77818271404040118
0.810223359050552538
0.00567387169616424478
0.00696684419555533216
0.0071981429713023036
0.0315032911908455227
0.040172951259577587
0.030168014724658819
0.016420236462633804
0.00570845003303274354
0.00368764436840933203
0.00425125090736721504
0.0051351277044460299
0.00715752602471885109
0.0135073252428403023
0.0840794268839639425
0.36504692005885192
0.656492810082629497
0.712884236812654448
0.548574121023469363
0.696392485240759029
0.00869331489140366155
0.00694567404355183899
0.00776199241000607477
0.00793026827276967911
0.00944043470356201175
0.0377944463862004837
0.0765517987760565427
0.103316081227524267
0.10556904561252009
0.0253335364154533005
0.00628297680571764626
0.00674473861355971184
0.00887475647734024299
0.0160406611626990603
0.0362686440626788231
0.189677112418271093
0.609611762654974076
0.686029009270569756
0.739992957100950033
0.553081909754433942
0.735250584392499795
0.00242184574515332983
0.00200323443326734562
0.0015836557751143347
0.00140641434526892991
0.00136831322641983179
0.00141202403318173406
0.00194112634663187126
0.00306769940176142199
0.00421864504956246701
0.00886995201047116773
0.0263068389520507567
0.253034343812342799
0.517345049712910399
0.838472539389424121
0.810607051128385825
0.00264091583730577742
0.00265272169462864912
0.00240729217053545219
0.00189746534977521105
0.00147459551583740663
0.00142101017331903827
0.00146886075294861687
0.00151103943110006238
0.00199780038044055546
0.00322708046104079951
0.00468895081633935451
0.00939385194006320604
0.071250074836696653
0.238998614477003796
0.732094378773949561
0.871518922850281097
0.00258905175127543269
0.00251822565171808599
0.00284082595280662825
0.00248168389324896236
0.00180772015799484948
0.00144526022978621422
0.00146886075294861687
0.00146886075294861687
0.00176687418268323495
0.00273418682158379145
0.00413159914512800045
0.00990655258949632925
0.0694256012868770256
0.599887598717923076
0.416258408942642544
0.879503476361291225
0.00336927096343435546
0.00383815268967863804
0.00400235339228006016
0.00383708822958576902
0.00233039889257017664
0.00170888265838951619
0.00145290644737248792
0.00158806163707826773
0.00209204846632225034
0.00305843623611225983
0.00472584505477469802
0.140609592190053867
0.420279511819832141
0.742283900485722126
0.528612946459739774
0.85880710108022229
0.00471286493539858388
0.00603389831045200459
0.00507922038965080876
0.00624139997996928791
0.0075250002316005881
0.007997426052599425
0.0068041965811929811
0.0039136428529932786
0.00245018194779855541
0.00180070763523620101
0.00203260803036303585
0.00285005207422475357
0.0044300969187310215
0.00765121390261038273
0.0638712826078672857
0.705947152276293899
0.772879405850512402
0.605474928701592585
0.790133570713207556
0.00727211448659620396
0.00973127010730890502
0.00840167780155312571
0.0103295738350724052
0.0136366039737171318
0.0232131007834630934
0.0321301571280587159
0.0123196638197198612
0.00507031589970457618
0.00276198570153062244
0.00306535258059182237
0.00433852880180487632
0.00693081946369059933
0.0124875086315124756
0.127658062375159947
0.726957440003284106
0.790303907272079664
0.640479655601315701
0.678540140769006372
0.0232970820903542937
0.0267205941723472201
0.0275492216567445602
0.0199111540972667089
0.0168364621020832411
0.0168456225191234987
0.02214053539569176
0.0522177418535288013
0.077560773582592446
0.0599929526955643097
0.0163555173445326003
0.0047307362072572046
0.0052107791214518898
0.0081934279862574122
0.0126963166034736053
0.0228975852530008683
0.156238260831296466
0.759714652658228129
0.814477040518371109
0.795145500546189599
0.712235187435109163
0.00266202069003746399
0.00242224824561277415
0.00195875162286303492
0.00153914173740969402
0.0014430646378077055
0.001469882411668666
0.00164700613288713176
0.00221931866667483563
0.00316543856424083593
0.00424493246392378641
0.0145576729815187645
0.332702095570775569
0.540089245559619568
0.869607113376136498
0.877416283542689301
0.00216634212915475235
0.00226745622026874134
0.00269506976069607994
0.00265153028718150821
0.00194673566721716802
0.00147712292368472071
0.00148097824613967937
0.00149096942629670234
0.00173358004819008146
0.00252363371961251623
0.00396506325904074242
0.00512588333713007681
0.103532927822440834
0.724020098984512472
0.65154755932770192
0.894408350577301503
4.75875958567697176e-05
0.00339989527762650685
0.00410696888458850218
0.00406616632135405835
0.00286096980752407418
0.00155748218430845891
0.00146886075294861687
0.00154401842496023787
0.00165412335661896089
0.00216197141114298939
0.00347669107359213463
0.00636627024953757489
0.084100714401564497
0.807958830396503402
0.787615319123895041
0.895779986927627503
0.00565191128696926944
0.00699778012992268578
0.00693923608341374173
0.00590004215387069948
0.00546260201421556058
0.00243608918556144187
0.00151601769159571617
0.00165433050892283343
0.00170461115502789284
0.00214050411920784596
0.0035340043445840812
0.00663884932379500865
0.121275431843124115
0.819155191151909601
0.882236701873931217
0.884440099568949201
0.0568959281835388214
0.0736053291847398594
0.0406681710784241174
0.0143795434365480319
0.012369459714156707
0.0110105086841497685
0.00952578317473069466
0.00880316302897818544
0.00543799083430596998
0.00187302600760756114
0.00167897657258712332
0.00204580192175427347
0.00291278540090469723
0.00462281170479753381
0.00908394350739910594
0.281262539397369338
0.836976217308412762
0.871562637155008257
0.772572128047152584
0.0511669928769474328
0.0628868215561693977
0.0820209894253474681
0.0408212508659719225
0.0251496484568589015
0.0188807060677797199
0.0163759883139083413
0.0167055671110483209
0.0131798361684132628
0.00436356203435523272
0.00202884662729573397
0.00278679160228792249
0.00442079187851961066
0.00722150271036397194
0.0106559150773490787
0.27156346815785315
0.849211262556142543
0.88395730116326976
0.733509862700713722
0.00611076205428889244
0.00774951996279516116
0.0359455869140041101
0.0566135759585543047
0.0724524557360538279
0.0810449892969121871
0.0619273073365148863
0.0584927951703010582
0.0426871873440009264
0.0619588281507519878
0.038807544093642711
0.0169039475272479076
0.004697055426565502
0.00450904802587513958
0.00750260625461876031
0.0117822140594915428
0.0251893415924076755
0.198800739593718606
0.86168879914770502
0.888552973393150314
0.898894009097911617
0.00351345625166893513
0.00214672388434199515
0.00275111305338362512
0.002458012722034289
0.00184475778124849801
0.0015750872560786615
0.00165005241719553631
0.00167668602326136586
0.00196945269952727986
0.00248606821890585104
0.00323398393772553108
0.00549106113784497002
0.217390302419410791
0.632761407634766515
0.594170261360435381
0.767968986127289144
0.000413275481078914392
0.00322175176357848616
0.00379319234646519673
0.00322598214427021694
0.00233838466149407283
0.00165023733079609834
0.00149096942629670234
0.00155400960511726106
0.00167716299918263491
0.00196294380575731415
0.00277650669389452147
0.00546139515274708144
0.0481906495108116797
0.597774880736690384
0.739885965260347778
0.917691283887236198
0.0377161376344041233
0.00581660452766304299
0.00584524297296430077
0.00463644157916360232
0.00374604650087195356
0.00232286175422763072
0.00153982827007855612
0.0016213480056980578
0.00162134800569805801
0.00177602456730607838
0.00256961451534451274
0.0049110918206914829
0.044659461196893499
0.854219931054401527
0.911038205253106859
0.916608804965607815
0.0900964955181882965
0.00957230207967763556
0.0106159574477999469
0.00729401956794274546
0.00598431851517130207
0.0039959826911483776
0.00189132274869213235
0.00161799843610001704
0.00177622154291075078
0.00195499032274303649
0.00256838191199444416
0.00489639235188339336
0.0692623098456939534
0.868010943088516562
0.900526362360686061
0.911335311785760993
0.0253672242969454551
0.0907633061325031076
0.104771218073036756
0.122042029465453603
0.103061034807804874
0.0170517150301610042
0.0117507410508628299
0.00948553890996697499
0.00738547641302432934
0.00363716487652024053
0.00193104633007877818
0.00195499201663775933
0.00218812267554925654
0.00309073201280321303
0.0055981704055947986
0.0834023744836516756
0.844106122036496709
0.902516169884282071
0.911202888357346197
0.0124735704916063266
0.0404341941975744704
0.100448847977922695
0.117672663745114051
0.141153012535559869
0.0947499558551141707
0.0199392800053397254
0.0152804982818249384
0.0134984855032806925
0.00871611244301290916
0.00330036561720818125
0.00212272745312014647
0.00306749784776745322
0.0046925691716579402
0.00749908486217903437
0.034652899723467738
0.642238565747432766
0.904859320233855957
0.910041757690403408
0.0029387140261166924
0.00286366207229424297
0.00482737718975631124
0.0115886114289551253
0.0726130158048393509
0.113647430528370508
0.135791149154040475
0.164643516511021493
0.106636493724895004
0.0272665949289815045
0.0260712239135664284
0.0206927091737130094
0.00953120145241475106
0.00322742655382852062
0.00457314544894122255
0.00742620901293066481
0.0123555962105324491
0.0303875252008437326
0.564926322578069962
0.904373144407922824
0.911214479050003634
0.121383614180749749
0.00745010088336151271
0.00375520863962152578
0.00311676804542458359
0.00244770680020297421
0.0018300081458205858
0.00183479155750171244
0.00201486200927557127
0.00251609055500297231
0.00353361904482437077
0.00474384669260027262
0.00560223610532913779
0.0134814560862734356
0.771990570591358338
0.796977031665780267
0.843071259244850157
0.130314484921328799
0.00970004967073929796
0.00534946124270182979
0.00340454020610090908
0.00279483119511163801
0.00228305133589679727
0.00164817308201266463
0.00167255398562372415
0.0019689819649453765
0.00291835995560877411
0.0039345367150547348
0.00485205598487729005
0.00857091618690985525
0.556309679757512221
0.870045052629401017
0.923084815560882843
0.144781735155268876
0.0481725400222939304
0.00997858733338264844
0.00554568347132598696
0.00346614789345017337
0.00254186561894710963
0.00199836127845755707
0.00161811586757022231
0.00177402853258989534
0.00257350694735737889
0.00321416922524480567
0.00444911689151106585
0.00845379317561988607
0.444980762081342185
0.921106506782483736
0.922573718860085323
0.144249641625979447
0.16232803989562089
0.0181329966754615012
0.0103289614706813509
0.00594013792642862463
0.00340937031226157651
0.00244001055523968436
0.00199932127346490098
0.00195148995382953038
0.00346310387330548645
0.0035863823610094033
0.00471721025288003061
0.00696300807341933108
0.567193324642126795
0.916588886480095288
0.917544678847029838
0.0198886571456691266
0.0673107459233318051
0.125435059824888756
0.144801061351903737
0.165398662962453313
0.103708305466818709
0.0205371783820450203
0.011041043630826421
0.00604870168314141591
0.00352299606668180464
0.00241948855659850776
0.00217309766922127228
0.00283694736666042276
0.0038582926013136622
0.00518970915986230203
0.00726938336778843418
0.398753432694262666
0.912646550609322205
0.915177738917825279
0.00993179191688304056
0.0189290242667703515
0.0935148929033655929
0.144034599160498156
0.166458298814795291
0.191360320683268637
0.064105998252641197
0.0195512392462609888
0.0115387614420205224
0.00685621848462666678
0.00345366114140220181
0.00278688919005237994
0.00385082105948838897
0.00462028590118876772
0.005750551241746912
0.0080063214543027901
0.159582374366122326
0.912568746490831417
0.917117518456391334
0.00328037090430853551
0.00204875737136632919
0.00355152578144800292
0.0072412709667476257
0.0275896406658397396
0.136807009959591663
0.165647843462892519
0.192350773077793136
0.221517659228530561
0.0639036442506204644
0.0231056538984109466
0.0147918657519392031
0.00762094859544008244
0.00408392575634246996
0.00457263388782530502
0.00570576781623158974
0.0079512388645079108
0.0137294893466293789
0.0919006730579007974
0.913281592089866812
0.912246368486996806
0.135061821113341612
0.132358152071992086
0.0115489404763901259
0.00560492104654412675
0.0035239348602853107
0.00305922023993840603
0.0031775110329542687
0.00345826659721038465
0.00386292934780839252
0.00469582982934962662
0.00572814739133851569
0.00764089333570932769
0.0150846122181933287
0.853223172655871775
0.937339930393143228
0.944288800889597657
0.14632884338633223
0.164478025759966007
0.0161395491483306425
0.00580542655218503276
0.00323699563396053023
0.00261967099879229295
0.00211084713267302351
0.00228477616897705248
0.00279826957173277477
0.0038379356991992044
0.00482130975888516063
0.00674625609837791948
0.0085697855621031261
0.64835030619183609
0.928042894953431619
0.934737551261518917
0.163286247819051267
0.174699966529025807
0.0739366963638622143
0.0101566962500162887
0.00548213018231179846
0.00339056486363130492
0.0024226335166408694
0.00180109979423092215
0.00204743671903592555
0.00272687848806141622
0.00435884702114491211
0.00740609474402727491
0.00797983591805389442
0.188138548869132283
0.895784594365092945
0.927011370341024321
0.1633551437028265
0.182578019292953087
0.199646960376925919
0.0205134167490115121
0.00972145856400291261
0.00550799387152617163
0.00352466876094759997
0.00224273759542061978
0.00747887523713752604
0.011708567529854115
0.00679352261984394502
0.00811959692501760047
0.00834508385088762739
0.0125113772998207782
0.867076070424771861
0.923657843481604957
0.0285709439948207099
0.0608589455709837579
0.140478435629132758
0.167275652176744505
0.187192023419241127
0.211232586342026851
0.104912453476666973
0.0197884757667411218
0.0100914497128666743
0.00590166665876800355
0.00333250838987985288
0.00572300754512723546
0.0116243970623345523
0.0109368373438108492
0.007402491760658967
0.00850016214756280086
0.0441709961352891867
0.877150737293878935
0.919535987018815337
0.00759481403307935878
0.0163940181614094377
0.0486953834167263636
0.167292003444602599
0.193854939581345392
0.21532917055252529
0.241578935813555024
0.0497454625670067929
0.0203070297997684675
0.0101673712622097068
0.00610180152293203926
0.00434791165914257503
0.00459211066659411665
0.00573825386107819704
0.00751697186931148467
0.00872928610782592804
0.0931110279985999378
0.915136903606400764
0.915279845772122513
0.00491752069403205566
0.00190489753144594326
0.00261347059315415959
0.00573657382090055241
0.0130285777217024508
0.113087530344302953
0.193291565625443418
0.22194514730446166
0.247121597489670497
0.240219993287635492
0.0430771073330974696
0.0215613269995338606
0.0109763614422345463
0.00748784131953640457
0.0061500030389543027
0.00845178112051473557
0.00866936131789263105
0.0114268834017331143
0.0897351095656150066
0.820208136403315136
0.915382560826956349
0.0895170921367455519
0.129185600983091953
0.0375606404303123198
0.0189602092410882592
0.011544622443574357
0.00907883820338582781
0.00831571733708692112
0.00785848132440241168
0.00766467814746857583
0.00924995921581506404
0.0114452358088244603
0.0123806696736167756
0.129453019630507538
0.734951130009035003
0.947761887980953399
0.955339809544842877
0.162744605072044635
0.179578413045850538
0.186679217256165264
0.0189220680937952253
0.00830244834980440986
0.00496439515476238859
0.00466028235226564631
0.00512853186474327392
0.00602625566183245115
0.00641954777006716396
0.00686240562862946036
0.00857821280111579348
0.0124480129492352959
0.730370578347747212
0.937289701702826994
0.945844611965554138
0.175647010908990403
0.195662913637489833
0.208911151713714105
0.101399220703942777
0.0116562834235862042
0.0044858837997765709
0.00490920625961664345
0.0153948466233573764
0.0181188370429934131
0.00646063129085371318
0.00647331534303525243
0.00792826688815340651
0.0118998008747150455
0.122690310994050783
0.825923199104521499
0.933753586094029364
0.186224985920606878
0.203171901306079455
0.223531289950490986
0.247603832783556271
0.0249744754979559953
0.00889842322017568924
0.00425313274298598238
0.00738876191095729808
0.0239111019201877772
0.0264692128919990916
0.0135736831861664603
0.00825525171358178732
0.0144926217524688119
0.0161037648502394201
0.796265597408945647
0.922516565287425427
0.0475866247364796421
0.0591302786526620092
0.128270753118014114
0.190562638642092608
0.212135803979680349
0.238096558658665081
0.26006821566064986
0.168331444122362894
0.0226494505520314776
0.00935379510208858046
0.0058461536757012586
0.00976410718322362307
0.0417973351787265107
0.0356969736752863753
0.00831226049389515581
0.0108883133308819921
0.0163765297298833351
0.701624556430147761
0.916112109569731325
0.00582148046932901356
0.0117977814578345153
0.0260993648144512008
0.144595797195786219
0.217805592614854299
0.243864825828373266
0.274222345086442276
0.297227825947452173
0.06454327169076092
0.0259252071582561153
0.011250995392190901
0.00740232885246232698
0.0211385406415653919
0.0196053577184930848
0.00844353004603949631
0.0113780229524574582
0.0340854884067205502
0.873450970800865423
0.897318591490547046
0.0218880997354378715
0.00213708715555816636
0.00181174832080069565
0.00408235375804497699
0.0090787703421467119
0.0281354973360690708
0.221256982779104605
0.248994939638198354
0.278730831108868538
0.318437123705669345
0.242222318888086541
0.0609739323959602869
0.0277346968989296734
0.0157686374332530223
0.013603963688247964
0.0144750151103791302
0.0102660937018397187
0.0209324532895562576
0.0477721252602488905
0.743739418244058204
0.910234087351656784
0.0788336765119510285
0.0965648892059608466
0.0854431214918309617
0.0543931754896385955
0.034827753546910388
0.0256675489150250645
0.0212622770426939174
0.0186475556487810182
0.0233889288592063656
0.0613636886364949327
0.104872236195159327
0.118413780280321068
0.401595738368444255
0.94491423617350323
0.956832034494223049
0.953719458097147754
0.0905418371763678231
0.112311846386703523
0.114980764653726392
0.0662537085472125614
0.0330132572339219138
0.0206559609304864875
0.0169335879513535306
0.015536117374110571
0.0150012626320222067
0.0136842947662354029
0.0121499063768601596
0.0123846518042962928
0.0376964183761699864
0.715679573093121468
0.943221147614507927
0.951506905248056034
0.179886844606584495
0.199354092002033634
0.236540497557561818
0.273121489412971097
0.13590709963272754
0.0253654233758565696
0.0128493629823198102
0.0178595209515274751
0.0188133262653576994
0.0163753753536218412
0.0137996143391968407
0.0113772833385713916
0.0182502965972349482
0.292525326066058744
0.786900342667011365
0.943490077185755283
0.200663900353294566
0.225888333867467345
0.255511227616147141
0.277990016411423735
0.314204285078124423
0.233176907280813556
0.0507674416665095038
0.0118227426952386278
0.0227006981618962447
0.0265587565546516954
0.0182570650906971436
0.013066211192174975
0.01614761458483659
0.0214259133654140059
0.819921112330567303
0.929320411569102056
0.0679520470900374374
0.0824589780915013087
0.133850938771379019
0.205539712804848673
0.241655786549009682
0.262883794880959309
0.295318446402532631
0.309911966759565061
0.322580023524760229
0.235317974172199185
0.0249275771626951553
0.0274282692626385098
0.0496521032064945397
0.0331349731927210178
0.0157399399028143108
0.0163782949133706932
0.0216100522718897028
0.66779700553080712
0.914149856431678343
0.006543624589027984
0.0111239405247634676
0.0234131905884458862
0.096305823153154696
0.2425948041960794
0.279781006612377647
0.302291926831698921
0.318834142378117247
0.345729592752361814
0.356446903191368181
0.186841192188594157
0.0395990925607806604
0.0336128032580120667
0.0385868458910308826
0.0208961822529414726
0.0187811208098858928
0.0303669433268863379
0.808614540783334945
0.903266752117427574
0.0240871283148762216
0.00366554362817596378
0.00178705546870132912
0.00347101097634308024
0.00823139160701616759
0.0185205870833597581
0.139249054052682508
0.283019483341270806
0.319243846808831166
0.345701231778408724
0.370920280420425463
0.397002789323700811
0.375294069175854006
0.278080658438393191
0.17520818693929982
0.0391961938496376699
0.0444269442994671068
0.0293155570496093816
0.0533561745493055795
0.659171267178116027
0.885629890411070209
0.00897941511567064421
0.015989159146806195
0.0194295134606639677
0.023533141475796094
0.0198864417872030574
0.00849224051532874655
0.00784238801276499961
0.00828139603157761195
0.0089446134038435321
0.0123489502324587771
0.153487650626301764
0.374575474018020327
0.418561386644057953
0.835909433028231952
0.859227942659346766
0.00729765594350565219
0.00766005251743588113
0.0159266446610007995
0.0229556734836119034
0.0273713317505861475
0.030908694808286466
0.0308652191079943176
0.0103939892415635619
0.00944897240897584964
0.0126003743042043589
0.0531411733799406205
0.214109531947084597
0.476717643678403413
0.51656502182807662
0.470331435601813785
0.856392331089341985
0.00645073585100804786
0.00612498329693060214
0.00545319534217460645
0.00606736821397925973
0.0056966604440037219
0.00358643443647085197
0.0175614755758894577
0.0368705995100199399
0.0310648189774003214
0.0653879037197682839
0.158447007304978127
0.22864328348419638
0.350695781573027721
0.714734746028468537
0.672370526308961658
0.853710764435145597
0.00595864949432823102
0.00594572833047761658
0.00610758802044588343
0.00656198990199908724
0.0068275516840921955
0.00613646539358716873
0.0048278667794652147
0.00648639778888818099
0.00875009074837059149
0.0167521162491714656
0.0966590991281243705
0.137307582610626866
0.310392370848907972
0.656041393973869624
0.848522184998451223
0.851053562434921584
0.00699475161112766367
0.00686237376080091332
0.00679514076900037019
0.00634967325296749603
0.0065652611476495152
0.0070401225857068192
0.00756755476515324869
0.00694262126189853449
0.00663069059763327345
0.00824373558978041057
0.0105064538995926614
0.0117019829651860002
0.0164863124504826403
0.0201338152615723985
0.0425350802249705867
0.290081692784387779
0.66665068044855369
0.845213835415301151
0.848003374435721824
0.00755128374979508951
0.00700568867774954349
0.00686237376080091332
0.0069564502860961254
0.00750737351373347538
0.00702993676598489842
0.00578484122551228396
0.00643440130394167496
0.00949342724583536815
0.0120948347861214375
0.0117726852515830545
0.0176944300862618524
0.0234194402054183556
0.0315266114078531015
0.0501439064498558906
0.576321306994741933
0.659246210311478009
0.841904988978638302
0.844762109449662901
0.022931405788155064
0.0156059294769636987
0.00841482766708875896
0.00762898518773952317
0.00735312865897976616
0.00791426273974188063
0.00883856509531824597
0.00805074268161414322
0.00682910621011772068
0.0102985752552537113
0.0126412275946329571
0.0146865001707038936
0.0181151343385024532
0.0233431921728319558
0.0297312497617615475
0.0369280830602970317
0.0619034257966939588
0.574511957703854215
0.771956732464309514
0.804560063142710336
0.842408001578454191
0.00857531620417732211
0.00516559380445372369
0.0103391216592680565
0.00721097264992460237
0.0054722411541321906
0.00486841925251702175
0.00455174182181615136
0.00575904827971220057
0.00661637699675891693
0.00704749065250401957
0.00816825147166007695
0.0171429940938554425
0.0719239251045586114
0.716534686382348407
0.856483531752358695
0.0107328248198207479
0.00806356602353079654
0.00440927473805015867
0.00867921429310711777
0.0119877856418803171
0.00660506483346589689
0.00451321263822071234
0.00556384826677813922
0.00368233167411670219
0.00472892530092401762
0.00695772320985447393
0.00629360451781979871
0.0292894937923315786
0.0288929878006406633
0.591549992255847923
0.853694861389613369
0.00609888839718070955
0.00504987250549713152
0.0043235638253808998
0.00455902708985233239
0.00459377532833352923
0.00457842085899517505
0.0028596308839167351
0.0042756770102333223
0.0057426478044387743
0.00394253156402510005
0.00715445144779860466
0.0731694725705798188
0.267761513346491731
0.263746247959723457
0.174634977113515555
0.850273093353943521
0.00593904514277987603
0.00593811399763669728
0.00525576965482832479
0.00559850664776308411
0.00661714356316413232
0.00460384958233279323
0.00406119949774085432
0.00439274632876475273
0.00465572279860900721
0.00714629882934081796
0.0105737003833887844
0.0370446642968119202
0.241598677225645708
0.456784533864100895
0.276653045657924701
0.638101989543562453
0.0106247302013686568
0.00669921284306577991
0.006347686583187029
0.00595826668206286825
0.00594837767954952031
0.00609223648874895538
0.00634995979652868379
0.00670005933497393787
0.0056006946675888963
0.00510085561646755892
0.00686583732243526389
0.00967521110267557417
0.0138959056110262401
0.0232472854862477811
0.0375343760002399343
0.0696326303192500023
0.459168673713652997
0.504382251143118521
0.737070118567815458
0.0119543847089442629
0.00700073883403804983
0.00727595122770823347
0.00633499988221465984
0.00657121790771635766
0.00576910859738767948
0.0191513887968498102
0.0112825384199068332
0.00809929591525177656
0.00806244488729274296
0.0110688221427503002
0.0154901746703525207
0.02271197797512952
0.0330454394325379111
0.0468837770433664994
0.163006876076045137
0.586940313918872913
0.815350491980610048
0.841486567465251634
0.026751073172317754
0.030665340967984487
0.0165171153149533609
0.00805069224744174756
0.00836885817746037611
0.00782484064161400282
0.00811309324634925527
0.00832223919213308239
0.0117480848314274813
0.0179143156766514711
0.0132149606607628832
0.0110071583180919308
0.0159048923582166303
0.0229092091656669591
0.0314651555569357699
0.0416582031351892673
0.0536275119189502242
0.431178133004517627
0.590590094507131402
0.794021261434159409
0.838058940058064472
0.00905932931066950713
0.0065408884662158202
0.0038612482248193726
0.00331441372270029413
0.00281612016058463421
0.0025945912104695457
0.00340862820757719146
0.00464360634807087398
0.00582759416264779992
0.00625523606763915031
0.00646592258802574683
0.00754284360091771883
0.0124800509337126362
0.0193341780708022257
0.0399154018176822029
0.712001333874802356
0.0111024795201826749
0.00827635675118293737
0.00340686218234642277
0.00327886827285685549
0.00321224948376171897
0.00321051849240396514
0.00371800318177736237
0.00470239278424085423
0.00567845657186009673
0.00648013108580157079
0.0070118259038292035
0.00746586548288357289
0.0115195221818954786
0.0213361282531204094
0.0387875422235202313
0.830757570054235672
0.00856240575941449172
0.00370461355928086407
0.00376478394638194531
0.00394911834275751134
0.00396853480942825632
0.00407607678787580939
0.00428316312007030915
0.00484799751293004018
0.00551197715368757172
0.00632773523650509168
0.00711255542759737288
0.00784290761333222841
0.0155104667565773013
0.0657692395404407965
0.0886313561977381814
0.813971469640995871
0.0051306056414729042
0.0050717944786950464
0.00432397560504662552
0.0044058689642873395
0.00471828744294048447
0.00477204062421813548
0.00434518531426579622
0.00506311423356367064
0.00540387807984433598
0.00531268513959052766
0.00681050182782109818
0.0130585106858477993
0.0887279952422229956
0.309325536533175849
0.203523461219371482
0.667145969430304797
0.027219066510680498
0.0221032020836699483
0.00716369696769296113
0.00630450988877040343
0.00627227212013785947
0.00526253183498432472
0.00553067065365261089
0.0040923850771696739
0.00363529320731524348
0.00516341320945705798
0.00531257780961235607
0.00617263434434424819
0.00847103300092477175
0.0133208300814264234
0.0257119587935856903
0.0428045766116983695
0.312196854628708831
0.540299158023863635
0.67377372168750449
0.0321393181160119779
0.01502484331785435
0.00756432286268630266
0.00771948897285947618
0.00755193968436599326
0.00919266498091867584
0.0252495616989867888
0.0274609785669599135