/*--------------------------------*- C++ -*----------------------------------*\
| =========                 |                                                 |
| \\      /  F ield         | OpenFOAM: The Open Source CFD Toolbox           |
|  \\    /   O peration     | Version:  2206                                  |
|   \\  /    A nd           | Website:  www.openfoam.com                      |
|    \\/     M anipulation  |                                                 |
\*---------------------------------------------------------------------------*/
FoamFile
{
    version     2.0;
    format      ascii;
    arch        "LSB;label=32;scalar=64";
    class       volScalarField;
    location    "0.930000000000000604";
    object      p_rgh;
}
// * * * * * * * * * * * * * * * * * * * * * * * * * * * * * * * * * * * * * //

dimensions      [1 -1 -2 0 0 0 0];

internalField   nonuniform List<scalar> 
7340
(
54.1960088346249336
59.5739608442590338
61.7157248226392596
62.0937317808333873
61.6832924188351157
61.1321103773333618
60.9486174927950231
62.2319791598553493
66.4273859321982201
76.9909732437650831
92.1981699830114962
104.190849066616451
239.786094631818571
380.887047181237222
1031.98549644707646
1288.33637768345216
54.7182047655657016
59.8828327906022295
62.2739526170361373
62.5210764057036812
61.8907601190664707
61.2098234380522825
61.0106812668498151
61.6411746348860135
64.734544102370208
73.7904591757708488
87.9973867155815128
102.635887431373661
128.576250576566451
268.320299536538585
636.355416413724697
1443.32526985232425
53.4845044843217323
59.3719201169779609
62.553576564939668
63.5076935908465643
62.6878055183809977
61.6865810167515107
61.3822626460235341
62.1738570958285806
65.2944905589969551
73.6112413597911086
87.5014973540878458
109.740549957475011
203.518257783011478
419.183981832281347
592.060611754131173
1569.84896463893256
52.5908449321187277
58.0376697711951479
61.9137488872473227
65.2176334044918917
64.7361876743979963
63.27628802218819
62.6048314004552253
63.2718989043021267
67.2111569340898569
76.2043119406358471
92.4458726288990107
178.92018867002929
944.685564788691977
754.394114297358101
1151.20691190337971
1664.62849584527862
30.9325136791433799
34.9111506338022011
41.7105538734509267
51.5534904443238204
62.529931814475411
65.6908755285396637
68.5599218946641003
67.8703394181726622
66.2063449728062636
65.1871546497021512
66.2493978258599157
71.0899680155382327
83.4717464167021461
109.714720721039996
321.463201568122543
1166.71700930016323
1419.11341926776663
1588.41008578113565
1739.47106393519925
28.3481303681001044
32.5129985073058876
37.9773300626318999
89.3140581381912284
114.474737994353461
106.49189180403522
90.3110437349496635
74.8189948951522439
70.3550378564302719
70.0921209416427473
72.4149765558895524
80.9995174902573467
102.024764313553817
242.536061335085066
775.037034539561319
1355.15456031446342
1525.96565430887608
1300.60598639970681
1656.59393929085354
30.7550244174729741
26.7022040108780487
27.6261012431669748
28.0855101233168227
34.9403950022765102
94.7348142525390244
177.081887571112304
238.687082144095996
254.895026552918836
113.044744478496696
76.9610663090081601
76.4255080688992052
81.3277432603202755
102.443057478526825
152.469988343617757
460.40812503564689
1297.70390691895864
1504.40349746263769
1674.13647029288609
1391.9175578090701
1840.34523858212538
61.769453925657821
63.4671364301421974
63.4139692746167825
62.6370583455497751
61.8204550748015009
61.6619361368578325
63.0357704463770645
66.5032024369189116
72.7277355870792661
84.6803916100476641
110.011656118466092
395.170365625228442
793.496687669576204
1328.72641706933314
1443.32065292786797
56.7313607741557533
61.2435374032153419
63.651118448191653
63.8208035884776237
62.7924286446159243
61.9587161943490656
61.7099983613912499
62.2467549210634985
64.6000937994384827
70.3753119428007352
78.329182003449958
89.6432528028174431
183.580230542168096
477.519911529293154
1263.74961942198411
1575.9624623702739
54.9496463111984923
59.8437317992688733
63.676594823765754
64.6358217988514667
63.4966366713126433
62.2480168398373053
61.9491817220789969
62.2962829345752596
64.1844948102120014
69.3815316991643982
77.0245898581573556
91.3109028563085161
192.908456971510503
1013.18453710416441
905.068385601840191
1669.47176573224215
53.2680752964703288
59.6210440955555185
64.0309864936862994
66.445787351010253
65.0099599341586867
63.4354151148932601
62.5039109130245265
62.9463888817466355
65.0809814923498067
70.151299747670592
77.3539488071707666
288.675218457552319
746.945550868047576
1331.94833418133271
1146.52760030315449
1739.72868002867403
36.495021307513575
42.1702360362087205
45.5567286133968707
53.4792420668463038
61.828267222462209
67.8948624628981889
70.3667563907313394
68.4156349206530194
66.1921785844032229
64.2588446305436065
64.6020941461220417
67.394008571239155
73.9909991344857048
84.6775001914172378
184.517037178351302
1295.40690998213972
1502.13712157061832
1353.24762883981793
1735.88737968688042
37.2514198423937941
43.0669851811235418
45.2341608570472431
54.1468010502191248
66.5788338104516697
90.0499527809245137
112.561268702010864
83.5756953014906827
73.326535560946482
68.1410489940643203
68.2578692202768451
72.401943926208034
83.3281404942215573
103.275629171057147
322.542711106267177
1441.3914658592962
1644.59589471497702
1502.94660341881104
1650.61052674650909
56.4414822569451005
65.6524826128920722
69.8024643455231484
56.7141634251242408
54.4274011615938349
58.5297265182373962
74.6539498365319787
137.578947113986743
194.106186835987018
172.216402479563897
98.0342279297892247
74.8618255290903107
75.1607645978033645
82.3153716806117046
99.29045449112688
135.188021249093651
409.158609875317609
1604.45628110129246
1801.81762303674236
1891.46527674777417
1824.35425478303023
64.1978457877328736
65.2545920599781937
64.621636782610949
63.3228968670951602
62.3809762354765667
62.0046777940139933
62.3172917583189445
63.8400032265143125
67.038591606987751
71.863093075949962
87.5325022228578007
481.295021190439627
865.252724859858404
1515.5590156242904
1632.67769601012446
59.3724091058372778
63.1206505505513533
65.403454566971476
65.5274165837244311
63.9272349380871674
62.5473413897710699
62.191213727351105
62.3201391132495743
63.2648164574048764
65.8884873334940835
70.7161138072874849
75.6437240276518281
213.755879118145685
1115.5382752239625
1287.2931630381272
1690.86152013814194
54.8701826543718312
63.7040236969419098
66.8665313499869995
67.4005836895555746
65.33396281639493
62.8131003472075164
62.3550372593025983
62.5957983463343268
63.3180661104859865
65.4226427395357604
69.7190133955952831
76.674529453747752
194.221508067089729
1302.37975077305373
1526.2533563316897
1753.7957430384879
60.7256561510478647
67.5173991632538133
69.9723815888729206
69.667098275944582
69.3399827067342898
64.4721285932467083
62.7409370412018959
63.0985095286014754
63.7268767519726964
65.7576183412374888
69.8609533892236669
76.5184556635680337
260.164611878142409
1421.72335726439223
1744.35542540992196
1816.55006354567126
112.565022164658401
151.511664782090747
108.415737937509903
71.5803720263939027
73.822191279829795
74.421120045982434
74.2620473133806058
74.6203965482357034
69.9763124420400686
64.0694846540076668
63.8169398804353278
64.9285539384949999
67.8663863995637513
73.3181446554431488
84.1900884001720442
544.65167317363796
1555.46215652343494
1816.86063526200769
1730.68334877716597
100.284870457267516
129.715687512063852
177.02863802935596
113.590375190125613
92.2326843208917779
85.0299050706776001
83.5900877838066805
87.9455839522438936
84.8852366675114496
70.62428505295523
66.0447855037371454
67.6431160093274713
72.513449857728915
82.0305824333616869
96.6351878723367577
572.167665775001296
1682.9282124723793
1937.91985752554842
1768.35539296536763
12.6152820611242671
14.9345131467528596
70.7971803873339525
115.692593168388328
155.90269038309026
183.488444299904103
155.414600835008258
153.872901499725458
127.520182139099958
170.436403358221497
135.165815268788293
98.3168418682788854
74.5653340849005701
73.9201499596133971
81.0732817378025459
94.4177668399990893
136.321157861315328
485.444563621681084
1821.06907921642664
2059.98606935163252
2193.42395078064601
66.6373584673188901
65.5575018508990581
66.7473541167296247
66.0078329081132864
64.4480317734113584
63.3493105519019792
62.8491699292133674
62.4769337705775385
62.9171078637738148
64.3758328355263529
66.8993043939528462
72.0944617029986716
328.417258597632497
946.674388577390459
1280.49725642271073
1609.84655121638139
60.3513900604558131
66.4249099027190226
68.0264623518163631
66.9825881042442575
65.0269402392168416
63.4482697242496911
62.7803249420866862
62.5891867289527042
62.7888678699781408
63.7338022662453909
66.1309184032759703
71.2582714717464683
129.250840146553003
911.938556046425219
1460.14315970525968
1797.34038636749824
110.456253927922532
69.6125542149593031
70.8301910677553792
69.029379933817097
67.0632058392329213
64.4411888618482749
62.9492451734110361
62.8657548534335646
62.9242942080326699
63.5985732056032163
65.9225513720822534
70.8231393858235094
127.510707817084295
1326.06208101343623
1721.71394460375541
1832.07228706330579
190.140292910924444
75.1506287833621229
78.0391728721731681
73.0658428569287821
70.5475077687769527
67.0858276076991729
63.6142391549279012
63.0280458195172955
63.3905338429397744
64.1528544257027704
66.4111676890242677
71.9340739890361789
171.32726816766538
1438.52486678940136
1755.47740600610814
1888.04142531844809
51.9923314969823878
170.257464850822572
204.241158710647341
245.351058004838933
226.159119309011146
88.7958590577052576
80.2448714286907148
76.2124257256601112
72.7752706632632567
66.763457463342462
63.8056991419362731
64.0800676209584168
65.1571294512411754
68.494033449431825
75.3320344346514901
204.811140964667686
1489.64694840064544
1821.41045055252243
1974.01845165644181
25.4738470136093866
80.1820477921463208
198.659397657955765
241.42386717993935
295.781488707313486
223.95375845235327
94.6929658263873506
86.0062700876752046
83.6330423630035824
76.5300097781284876
67.0734956200179653
65.3211884318890554
67.9629932288634109
73.269613629496348
82.3621854814847723
131.147800869544426
1229.20608871590184
1911.35260335136741
2078.01769772865737
7.00764313755142787
5.91404368620372001
9.66065563772763269
24.2887534535998313
146.500956734694313
235.468141906888548
289.414325166759227
356.015915377614931
255.698497722454988
106.891758761999867
105.939632163079125
99.9971773775980353
80.6246956701431827
69.6217632617404547
73.5292422215763679
81.2871616197314495
95.1159751725497244
135.588349472460436
1176.27763084511093
2024.51226747615965
2202.89509396152107
235.109242131275494
81.0916382436618335
69.5211499847779066
67.2331798651714792
65.6131634755274007
64.2751501264766318
63.63786128238592
63.1929352708405503
63.3458706473953441
64.7259465630396704
67.098719459941691
69.7992083338767344
87.1591722136069222
1062.00020097818265
1524.33674733133466
1782.19779394918555
248.064875930710087
81.9836902273559218
71.6466651336703961
67.7110216601914345
66.003481354958609
64.7583324884870279
63.448802472220649
62.9720421092806859
62.9759244199218458
64.2538738838248236
66.3947105684149932
68.9203801457203298
76.2139950509480713
809.086869866763209
1586.34336648484418
1856.49994558992466
272.946937963245318
135.314580647179412
78.5227168723064182
70.9549220918979415
67.0180364220443607
65.0949971209696798
63.9403403646890567
63.0053713709023882
62.9607478290116447
64.1048415433791803
65.7903003278656087
68.9642909500790466
75.0004428896844075
700.75466185784046
1656.26049722186349
1862.10724673403956
277.090198269497989
310.223424724484687
91.9451707007222439
78.8195592210509091
71.0342898471808581
66.4689991220810157
64.644427952583527
63.6634616361379955
63.4187073667548731
65.8217039304300755
66.9790689639787331
70.4941401674751376
73.7041946350263402
933.681189649367866
1675.13659001771248
1891.45248341156866
45.0257096513872455
134.165401164517476
243.404560959660955
282.251899510507599
325.027084554278019
232.332660809372271
96.6030910599181425
80.1746759185290898
71.0809994481333405
66.5144536598797487
64.4657063750802877
64.0142017465415449
65.531426759589877
68.553948165348416
72.7785722676629945
76.3229388774684594
719.963186818951272
1728.93752460285259
1954.42283059212718
20.9004320871880083
42.5007266207982184
185.372470455376373
284.635208377942604
335.446910132228368
391.193209461371453
174.457049033618716
96.8134857726676046
81.609331599578951
72.6378153813281671
66.3691678964717653
65.465035411699759
68.307385746653722
71.7922933647413544
76.0224339625068666
80.4759964987710816
349.010857314119278
1826.40065298226205
2050.65308585144567
7.19464558664764375
3.87093174915014826
6.73243524969834262
16.3073210413901322
59.7881607904904158
273.900630963635876
340.943194842984155
403.443428375974975
471.301545425180905
181.59938604376066
104.175387014348317
87.6497117711006553
73.8359296461819383
68.275900678955864
71.503037631192484
77.1839105735347744
83.1819872310068291
95.2242583810053702
252.937357165234232
1951.62702763898938
2158.03952241413344
308.240213843276877
267.821208186064723
92.7860883751996113
72.2676044342847206
66.6728983806942921
65.4159607970740637
64.9466359976641172
65.020591364838495
65.4000279128866282
66.2423390649871067
68.0168349468087996
71.6007434472700481
87.3613815128589124
1175.53789226646086
1680.40881795098653
2002.70422879712282
317.638963884522411
312.190232265984775
98.5519300399206202
73.4186787257411027
67.0990400055202372
65.3293882462555189
64.071635137509233
63.9140627117689348
64.406194574365955
65.6021744953901447
67.4547408892213127
70.9723376075292265
75.4660894490616272
927.720493615836745
1593.58291600745906
1939.29733621473224
335.146047417000602
334.173285469262112
180.186089153053587
80.6480110094337732
70.7664370474612241
66.6508721969223075
64.6890484266159831
63.3763127468267911
63.5630963641306934
64.4348945358698586
67.3241692691166946
72.7634057481912322
74.0742293269118619
331.870572722287477
1500.69426065983293
1899.69876829361806
329.143492965597261
353.082418250702574
375.598455735758648
98.2290915821561299
77.9932396768097078
70.1705116826233706
66.5367052246291451
64.0934533459408442
71.7701715077736822
78.2520833616042353
71.7116383457495061
74.8863273415007313
75.038351010479289
79.8962501274671411
1461.77488505916972
1902.4261769337968
58.4797896975723788
124.020250440786086
272.472714656752885
330.517472103552223
367.003726549603414
409.234633479414924
238.671799396627932
96.0523896680837481
78.6082071949199133
70.9437018499491785
66.1830615590342433
69.6694264503071992
79.6111734959023067
79.7758282780857684
75.1970134248998363
76.7436662583642288
132.54075402520661
1569.84481547581163
1942.61210387178403
15.5254612292486129
37.4342563043584136
105.238439171011606
328.434663120573646
384.09432267671292
430.332044806260058
485.636693446695006
151.771678111354419
98.7747849458715308
79.9835481527984768
71.8492060091253677
68.3968849849807299
69.4637802138340987
73.1977078809026409
77.5308216339740426
79.0192052089289518
227.824676418580026
1764.98532120724167
2013.4413509391627
8.39075406336413288
2.18291170910712484
4.1552668823644181
12.9850104644652529
32.0866365498704837
227.988858851415188
390.054093473301009
456.287659173534621
512.650063602739351
511.959084790627685
144.903570422565934
103.347897876313112
81.8754056052730022
75.1547230688937873
74.5879133839307968
81.2730716614229181
82.5566604630973728
85.6586262300513113
237.518587982529169
1705.33365661788844
2114.8410817965937
334.022063148624227
357.795816322281269
198.774122979706561
124.812190529132465
92.049631054059887
81.6978812745938683
77.8052527734683537
75.3799755553384045
73.8944764069900941
75.1803227225360331
78.2746732349035597
80.8177730568534542
231.957992804512543
1091.19697165499315
1708.87651612737432
2027.68439698990187
404.404964909587875
410.32002320053499
376.529922357982002
118.950338828022254
83.580881215352008
72.803031620298114
70.5435110832650452
70.6362131674107729
71.6255374633634858
71.9997918786672813
73.0108793227819888
75.1723580307917132
81.0218164271608288
1050.00012029569507
1604.66350155942678
1970.04426936524601
398.888395207111159
421.23286591564198
408.846297495453257
229.72235672956208
85.7813356692604856
69.6604923419711355
68.7498639399536557
83.2948057165651505
87.5008366921360476
71.705541677951274
72.6292825130044832
74.8007729847774669
80.2486186252155989
242.407161431867422
1387.38367339834235
1917.50310069446414
392.672994561590031
422.567884797925444
435.521467819123927
455.031934228944976
106.785909227935747
75.9235636892275068
67.3112601029636153
71.4137515430409167
96.3994854650845525
101.408924495850698
83.5153946152136797
75.8580274875701832
84.5782331985897997
87.9417787209480366
1336.7390268232914
1892.71570924213688
87.3266635439315451
119.207838828291386
255.029077498339916
381.868999694358138
429.125447428604275
466.632214149511924
494.877436607818424
344.696127346604897
101.048430095304724
76.9366375827711835
70.0793482821107574
75.4601757682091119
128.652609226706375
121.260039129383216
76.978147448354008
79.6693540379586977
86.5089206469107665
1239.29405998036236
1914.38023118971842
10.6819184157112126
27.4009157878448022
64.1069678170979955
290.493094510828257
434.453870610383206
485.115989943310865
539.201015383317667
585.31648918599717
179.96006128892239
109.606892471025191
82.0583754773597605
74.5790821308493719
99.2037862331370377
98.6961725023501657
79.3782866581156838
81.6666444058792536
118.385364505123476
1638.28748260139855
1951.44429487575871
39.4706641648456582
1.44901979825204363
1.9210022347629252
9.01027733206557535
23.9570643897510074
67.3722911665157227
442.163523561415047
506.395973517686173
568.129461036297698
650.37915514809481
521.292640868260833
181.347131690728588
116.630907414973592
92.9204852849323544
90.8655880901639108
94.6898926958902223
86.5342745560541999
100.676035403818204
149.988362492890758
1507.5157510905392
2067.07302450880434
394.25697013608135
433.524766935199523
392.99806024220436
294.255237291981302
217.363813120800614
172.563116036145999
145.400219417349746
124.175625852988034
112.080200013887193
147.309898798290561
199.799604415879656
222.263204493825214
610.141624878975904
1458.93170317624458
1813.49308992106785
2056.7480387775995
369.294567894441514
409.767430659923889
387.891391174881846
272.236590128210196
181.829623427158396
138.311987022479258
118.487838461113455
105.626542234508094
95.5137646744580309
87.876701512544301
82.6054382582282898
82.9294784850980449
124.693487539478525
1093.93732478007996
1709.64564644175334
2017.42492253219939
446.597740920671185
487.54255298647297
522.17758567918338
534.837726952300955
305.1159599189902
127.929666503104329
97.8890340149802256
97.8181595393279935
95.007487127430764
88.7966326550802876
84.2288244459065254
80.6448571280759694
91.6979388166403027
502.331502469166537
1416.02547825747547
1968.20203968496912
438.314080805663934
494.591903216377659
530.779704305465089
541.813345444136075
575.087475849233329
436.436415912252016
149.322139648726477
83.8750377473650559
98.5548500455088288
102.587495572009416
90.6491763897156062
83.4057340205594642
88.3293927583877405
101.254965535361762
1428.6370421804952
1928.70557334417504
123.829708218275115
159.871236085005563
267.021663837326059
415.659041015394621
497.640227677324333
533.76077354802419
576.499236825411003
587.25543881405622
600.667922226828182
454.951753027626637
105.705811728660819
107.0245900337829
140.899877546535265
115.518162637524384
88.7003398010844961
88.8894266408027249
98.7911204925929667
1210.63870301122711
1923.71586120138659
12.65930528235865
26.2075293339225794
58.9541457501487756
205.920860038116047
484.706014111299623
560.877488056600214
600.519852044366758
626.051199316863176
672.04860919182704
690.593828386446944
394.865772487694301
135.13477612297018
121.49634526461405
130.419400969232811
99.0474537718870778
93.3043709354945463
113.664552909129867
1519.22710431139785
1961.93423170476558
44.6041376976567818
4.81581917048769448
2.16217670843488463
7.82434212040295218
21.9532780342167371
48.9222301587291497
285.906661516826546
571.16539861536512
649.185379372666262
703.181952397016971
754.1677237828643
805.125840607369355
771.612892294511767
593.507966323645746
397.666685647668203
142.549504581147374
148.719626936209153
113.12817674220841
159.188919661294079
1337.39249183194715
2018.42616552384879
84.2812877061175527
93.5443555643806519
97.0088536147774789
100.116246444709958
95.2027543929984716
86.2871519140638554
95.5965323399818772
109.912212418077388
123.91673541639372
137.941995393254984
312.913852775986925
592.87594306508845
626.201068297298775
1108.11857948408715
1259.96002609804054
77.3387263756846295
79.9181566646113026
91.0272766502751978
99.3511563020750685
104.037842709830997
108.373811927141745
113.496264544217837
98.6172822464027519
111.455060089897117
126.623411910877238
186.825541617173087
400.712735944595863
757.398176098817999
799.057496266889871
733.980896172949656
1354.11818769013712
73.5542489207205961
74.8198548183148944
74.3411005326828445
75.0646457260625937
74.8997412531877131
73.2245018655086852
98.4491955321620225
137.96244919130649
142.564520334034114
197.637242039587562
330.658055853925248
432.22656324411588
619.631697724332525
1124.77739341299139
1079.22914257512048
1466.98077961186482
70.3241208528923494
71.9543921689279244
73.4285986275336455
75.6253310464976778
77.8947693288678948
80.029245261059117
84.0773472808336635
97.6132184534912
112.995385094093578
129.359670682335377
249.219020955106345
313.824135598225382
589.623996502145474
1113.35212206778669
1446.04397723618786
1587.82483919171841
58.4853254060714676
63.5691401798873201
66.7123720481974658
68.381801550614199
70.5422764749632165
73.4732682472955361
77.642755252535153
80.3162326820367696
84.7856906734809428
94.6093540450565484
108.283108592120755
119.159774351951398
129.018178605535098
133.461292156441317
174.609152242448971
589.273629418486621
1218.75011888504082
1573.10798467933182
1707.38639363621428
56.4367795056054788
60.9629704183983776
63.8149611728976467
66.4322905883390433
69.8824031277557083
72.3490758750118488
74.897702955309498
81.8149630498503484
93.9355112828551171
106.64859010545166
115.273156909265694
131.724515933683733
139.891069683095708
150.724252250616814
186.163078003948613
1122.30025119027869
1303.43924219531391
1704.69983357912429
1819.96205875905139
68.1449116817681642
59.6418021932635511
53.3832142784385297
57.5981422399684533
60.7162746299591944
64.8166455433684376
69.8949628476756146
72.5882715626545973
75.9664410382146542
90.0610440388583982
103.165601231348262
116.11965463215563
130.584578751183642
142.741969946995937
148.134716991787286
153.344940143654412
197.135990235501822
1166.17796448480567
1604.62747989195032
1759.61150428041265
1922.11989423917908
80.0090641788616495
75.2176247125022712
78.3562608333640043
70.1476640356876544
64.5523878596687553
67.4452905006920389
81.4783673781922744
103.433433681717332
118.481780459797037
130.113002831558987
150.876740838798014
186.104406609885245
248.309018421821719
988.568622115251856
1261.73073921413652
80.3251854139926422
77.7002516515968722
72.0617968382642573
75.2492757260709482
76.7389903703637373
68.4600038112036486
70.3553865454205862
83.674574373885136
97.8832280322400976
111.448812291181341
126.873517401013231
150.154245294869241
211.387099318809732
209.233100250072056
903.924647096805529
1352.7906038779181
72.446218746868567
71.6352110007105836
70.1613351430357852
69.5151467667892291
68.9785634073290765
70.0275740454059274
72.2779991149059811
84.6123473407515263
99.2456992867937089
106.065864480188139
121.793320750715679
238.274970808806415
548.651701488826689
540.350873398223143
376.175232186957942
1447.45110062547224
70.4357439700991961
70.8450746165261052
70.2986002249122777
72.1019519228295991
75.9711178591192748
76.1588744443931063
80.1874800421485929
88.9864770857671914
98.1694297984674193
108.91945327359322
122.399524055352501
179.911959972883977
523.668763188458342
850.161931438924739
553.066138202324623
1236.99577955844507
61.3373778470383115
62.8529829405672444
66.7854774450565429
67.7033781653588989
67.8038282172889524
69.5331743969867802
73.8127504540223356
79.7678508137327071
83.4840579983360698
87.7655925165139479
96.6963113407263819
107.186517274486775
118.688711268099141
140.720475508752571
179.660145770326864
255.167532823597128
897.311420611554126
967.329383770774825
1497.03858857767773
60.2352698820315453
59.3305894987810163
64.0776517809075585
63.8949974160588212
64.5893163922911526
65.6135997563649056
94.8043423860343921
88.8206345835549911
90.9318093097150779
96.6618458597555872
106.469063068394036
117.257662079426552
131.694452325722921
154.196009911948664
191.406879156159249
418.641964434771012
1174.045125553145
1596.0651848757293
1786.28853901631214
70.2690941689136537
83.3343337486284241
63.5486807402756781
54.9515571871939272
60.5039362518581783
61.9998681985900078
64.075228361499228
67.2092775253372992
78.3324750070330822
97.8682868913436153
97.5053201108331251
99.6053030239909276
112.982176739545579
127.741298434611991
143.511137687807917
162.320296614398615
190.463928835566264
925.193058757957715
1248.24437110523036
1671.37714817234678
1891.04191528005094
75.6402068418992286
74.3577162969395147
70.8358741735610238
67.8335947307166691
63.6366583658125293
60.7740275776498891
63.8040243739593365
76.44882256022089
96.1996069926898087
112.516584082098888
123.133964960801748
139.218939718561046
166.748872424694355
181.209411913983843
191.668954963092773
1066.90568042701489
79.8392973398294998
77.8619007689335803
71.0398060127397741
68.5992139148399644
65.8583838198246241
64.2658256605893428
67.5994166377477939
79.0078470111962048
96.0832790936777172
110.38898980891048
121.987963903625996
141.095442177903891
169.636233987916654
186.207307275048095
196.604554211220147
1311.57305848052647
76.1918159696515289
71.273205408736672
71.367409760234068
70.0539241832937449
69.3383770274079723
69.8578129246021575
73.982978681776757
84.2957323439275399
97.3637669457484805
108.057399374538491
120.357288231763505
142.242257960391555
177.970375042002786
250.89502400905991
269.62700664609747
1394.85317792186561
70.1662759645138578
71.3970894662027717
70.3292672120026623
70.6385910325758459
73.5746082491081665
77.5117768751982368
82.0789547147860929
90.865321740347099
99.4885602551879487
105.790290635916421
118.175908080402294
148.826287261555819
289.05052691583461
631.351296771710167
465.190299600564515
1278.74547816043787
86.1367171835376126
85.3618058936689437
67.5168383551213509
69.4835221516449764
69.6276624929270014
67.7589716101541626
70.7888719921662073
74.9620214068322639
82.5522176292891032
91.4609636871319651
97.0675399311220559
102.907204763340957
110.298105942584698
127.201400742886406
168.367968533069018
218.285205043272384
675.403018119758485
1062.36916452166474
1383.28636389219582
93.0691695049331003
70.2868279037878096
64.0351851707222295
67.7188211936071554
67.7305032912106952
70.291998310673705
101.969718556504134
114.770916719463031
99.0082052852119574
99.1566872036271576
104.175865039259889
106.637331465048931
115.167377758813188
141.615426719346971
196.447416221817946
249.555039054697943
502.190576746444094
1397.16699408229442
1648.13778131679237
76.2234250044803048
86.9286065558414123
97.7454175272290229
78.349665668786372
61.2008826218397601
66.0959638748418001
68.1316263359583019
71.938432847196637
113.566669419778947
185.975056449278611
238.081835463181051
178.983820688894554
115.214049867370576
111.763197480479249
128.267590048512801
165.541952770066018
216.968532478249756
266.725226030583372
620.355096942794376
1305.72636067708459
1840.72859960466872
70.5355276870641887
69.2119857620014187
67.6742587115283953
65.3845143880198805
62.6684361083783514
60.7651640117029572
61.9868926616691311
69.7131345839368919
87.111558496291039
106.072566977604026
118.456581302660581
130.201862682075699
153.438620399622266
179.938564748369686
193.038608229208251
1068.20066646957957
75.1606220919546928
70.9355958026591509
67.8661178784181516
65.9476692192536689
63.4918407901580721
62.0142950890886482
64.0955582387010168
72.5942663283525604
88.8916287723417469
105.350354192407352
118.000337685391059
131.877288570264739
161.120409417335907
192.616129725139473
197.132396947767432
1232.01389858065841
66.9023437591412744
67.6079479648768711
68.051860624732285
66.3468063188469017
64.521202656898808
64.4947977181896732
68.6815116874048357
78.6782770775653404
92.9111981306134567
105.873989061360476
117.949091575202544
137.23943609750458
168.111547102648501
221.727186366989116
237.977149609970525
1313.61197787417063
66.3073166536146346
67.4129605228505397
66.7295838407128628
65.4714422101533415
65.1194185880503227
70.0017023433636041
76.9037570774009254
86.5787733835336297
97.9824878229894978
107.190264728398802
118.784969420442593
141.774080886385377
182.316644512100794
299.598059052763688
539.522509391950052
1346.85005351056247
93.1189984233752455
96.9590691136266116
69.7274503858896111
67.5742073888899313
67.2941182512599028
66.3200369835393388
67.3046550938922508
66.8620003238804372
71.9352671419370751
84.3169288177658984
95.3836548135384987
103.250545274339416
109.180079001285051
119.344755406516782
158.500907381660568
213.870219628299907
343.988347172504632
1253.37883568569714
1351.41134955468647
99.4548326648599641
110.626596481659007
81.5277143799786757
70.0169823604718431
69.1784230955497321
69.8764351470795617
94.4725623611723364
110.579115477132646
114.245388205188164
114.434316884895367
116.462386123460064
174.444548846320743
194.481141922684884
195.366765366602266
193.063503700338657
251.973294056287017
297.13303298571509
1073.76025612193007
1529.16330735685551
83.0324993067451516
91.9718224049137802
103.720894191413919
114.461461458934266
127.02973475821814
85.9236771857624859
70.7431839765598909
76.5032558099459976
87.0061756191380198
182.683624920293397