/*--------------------------------*- C++ -*----------------------------------*\
| =========                 |                                                 |
| \\      /  F ield         | OpenFOAM: The Open Source CFD Toolbox           |
|  \\    /   O peration     | Version:  2206                                  |
|   \\  /    A nd           | Website:  www.openfoam.com                      |
|    \\/     M anipulation  |                                                 |
\*---------------------------------------------------------------------------*/
FoamFile
{
    version     2.0;
    format      ascii;
    arch        "LSB;label=32;scalar=64";
    class       surfaceScalarField;
    location    "0.720000000000000417";
    object      alphaPhi0.water;
}
// * * * * * * * * * * * * * * * * * * * * * * * * * * * * * * * * * * * * * //

dimensions      [0 3 -1 0 0 0 0];

oriented        oriented;

internalField   nonuniform List<scalar> 
20536
(
-1.52679068970245605e-05
-1.53462724561994244e-07
-2.34059073207695541e-06
-4.28778683032850207e-07
-2.87283965955792982e-07
-1.97889947746509394e-05
1.83259688560524856e-05
-7.37255212871082768e-05
8.85688868766241232e-08
-1.11664019085571215e-07
5.5371977215826467e-08
-1.62275193657625555e-07
-9.33089740649260584e-08
6.06254029827655609e-08
-1.93962225828806885e-07
5.13720081993081173e-08
5.89887399010598313e-08
-1.47628809138172963e-10
2.36661719545760154e-08
-1.27755237633924604e-08
1.06539041765254658e-07
-5.28426484959288197e-09
4.17323112802082722e-09
-1.66612673688046851e-08
9.47256108733815602e-08
-8.0156542605475642e-08
1.03647838447367675e-08
-7.01993142821429885e-08
6.98503171826830553e-08
-1.16693287912044533e-07
6.78702047042154636e-09
-9.71955962370379575e-09
-6.39650630170620569e-08
7.76049406931768899e-09
-2.80243078781524864e-08
5.44397081453478852e-08
7.54373985939536369e-10
-1.39193161375174793e-11
1.99564757172357356e-10
-1.7822513414965487e-10
6.35988105783329056e-08
-9.46985496848099198e-11
5.65926883496024934e-09
-3.91510847723580723e-09
2.47694767002699756e-07
-3.77916321852482003e-09
3.32642618516156269e-08
-4.57714078979937853e-08
1.54527339319707851e-07
-9.30387867744254764e-09
1.41075825251646e-08
-5.03307753624492563e-08
-6.10712526903860479e-09
3.19839790438851802e-09
-1.87587609307963785e-08
3.45313848344418653e-08
1.07763158496120454e-10
-2.19931569386100475e-11
1.92688314308206713e-11
-2.31472703291171687e-12
5.71820013006247046e-10
-6.7765745729462492e-11
6.15854894811479218e-11
-4.89972119689920023e-10
4.61028246318474723e-09
-4.00932154610905577e-10
6.27377975526254202e-10
-6.92293448091101237e-09
5.55651182002086079e-09
-6.96899432461280345e-10
7.65226328748586205e-10
-1.00758493100495135e-08
-2.05563472197024392e-10
2.32866863229766836e-10
-2.75676640702776813e-09
2.56375673373906353e-09
7.98876033046417798e-11
-4.65819649698072865e-11
1.56221967169019478e-11
-7.70301311848560643e-13
1.29761632890143492e-10
-4.77075478434302607e-11
1.14015532457163845e-11
-1.08591695701459835e-10
5.16838403856548301e-10
-2.80659639635283753e-11
2.59360871748638161e-11
-8.74797200366338601e-10
3.21347640152616699e-10
-1.65383918053444923e-11
1.51754067900672322e-11
-4.92889637443601408e-10
-6.14746839711163812e-12
2.27551128179720421e-12
7.32748839987711662e-12
9.88347141135772781e-11
6.02985459112471153e-11
-3.02754154900331951e-11
5.66211075451799914e-12
-2.59443984352181741e-12
4.6105921533203344e-11
-7.06078055444869532e-12
1.22416736298091658e-12
-6.23255040938045776e-11
2.08123162292716986e-11
-3.50638305184476503e-12
1.2121235366458297e-12
-1.21414884024813876e-11
8.64616521563343424e-12
-1.7821568446934473e-12
3.82272683714998709e-13
-2.90943979328709859e-12
-8.81536050672679329e-13
1.76905757916788472e-13
-3.17991051712106138e-13
4.54430254123072813e-12
1.02940371283394162e-11
-7.98653188792185381e-12
5.60646634508746497e-13
-1.42560495911648725e-15
4.75473291863547764e-12
-1.96971238217117553e-12
3.48561948958282842e-13
-6.79873768711474551e-16
1.723547446970491e-12
-5.65216388102430858e-13
1.16510062744808238e-13
-1.19639620855689668e-15
6.22757662880646089e-13
-6.53322228675835303e-13
4.27385035207065803e-14
-2.14370272406299497e-15
-9.15447233124440866e-13
7.13622080500198698e-14
-8.92191808205098722e-14
1.0795090184059532e-12
2.41502085388509369e-12
-3.44713899071488116e-15
2.71793634415037908e-13
-8.53738779215126715e-15
5.79590651562362756e-13
-2.78990064630757296e-14
8.14578750748238213e-14
-6.60691710691581124e-15
2.30370465075742807e-13
-1.74422758648780967e-13
2.25223942968381756e-14
-1.44495825929159584e-15
5.43721359252044435e-13
-3.14807703113209582e-13
3.96305245730253408e-14
-4.05260791514056927e-15
-1.77029751907516258e-12
7.24208189512743274e-14
-4.97296594801905616e-13
2.53896909702503071e-12
7.44369298123956073e-16
-1.30099177336933275e-15
4.76265367501393836e-17
-8.92963136517980828e-16
8.03461733505373334e-15
-1.42475647585538151e-14
6.32780896832689776e-16
-2.95921585688832273e-15
1.35496032846446752e-13
-9.05808993449036001e-15
9.64401495536661619e-15
-1.30338714042891194e-15
3.51801664916139968e-13
-2.06129277132036476e-14
2.05550946481419494e-14
-1.12865592445839124e-14
-2.69872832721943907e-12
1.76375042797460951e-13
-8.39990989788498666e-13
3.14769376049606696e-12
1.36662107557378637e-15
-7.38344473841959356e-16
3.41868805876108048e-17
-3.90538443446824894e-16
8.47153582651752813e-15
-1.0569865719769703e-15
9.58670432428445165e-16
-1.07009094554711865e-15
4.76580112209400371e-15
-1.56437958643161912e-15
3.55045165779272502e-16
-4.34589090372708175e-16
5.35307002936909211e-14
-8.92144338411719784e-15
2.51889384426058124e-15
-5.90045349796383375e-14
-2.14984747128499892e-12
3.84947012550928741e-13
-2.56925637024766932e-14
2.07822743674604007e-12
2.54336138744160864e-16
-1.2880427438401358e-17
4.22376012374644986e-17
-1.04720258987366841e-17
2.85901840942001423e-16
-7.05514087468911735e-18
4.41461701886966742e-17
-1.24562514763194421e-17
7.50761927014060148e-16
-8.34995528974896726e-16
9.22145881187968522e-17
-9.40711214531416064e-17
2.09360001960942339e-14
-3.42427743344381047e-14
9.39999963649409089e-16
-7.07880923783631071e-17
-1.01972109490057833e-14
2.27571884819678985e-13
-3.12402203319305913e-16
6.16342147228283472e-13
-1.26859398463932828e-22
6.91264505188163317e-23
-1.05229166655852387e-23
6.05251084793939953e-19
-1.7657377225060488e-22
-2.16059593356066079e-20
2.37098359129670095e-18
-8.61301111770844915e-20
4.74723310721447363e-19
-1.77037203717169307e-19
1.49509351896518773e-18
-9.39060780678339703e-19
2.2204957437949429e-19
-1.27956522656192728e-18
2.16917281915923519e-16
-2.43766185589788308e-18
7.1471077264157173e-17
-9.45086056691819808e-18
1.11652310344632204e-14
-3.73148617749931163e-18
2.91606054037211535e-15
-1.7953382854968145e-16
-6.51458424206639234e-19
3.40118146840887762e-16
-1.97687002002867689e-17
6.48738365412498883e-16
-1.72027623301119797e-23
8.97166918325870365e-24
7.87230075330660777e-25
6.14952685554313146e-23
2.20062026017080631e-24
-5.05598464203664217e-26
2.03430938912904304e-20
3.76307611964228819e-25
1.7072317716511088e-21
-1.50264014474148161e-21
1.84514537655834715e-19
5.25009201555133089e-26
2.2940372506652791e-20
-1.23504047486739423e-20
4.67876496723377102e-19
4.636884042261277e-27
8.48646909320998021e-20
-3.97129274272124166e-20
7.91316300306188634e-19
1.12046493785728318e-23
2.4570779656260106e-19
-4.44630196778572348e-20
4.25522010798868e-20
1.79281340227936495e-20
6.84797397867570536e-23
7.93090154403453284e-20
-1.29498858616532072e-24
1.04599547803645931e-24
6.69613124184127305e-26
-3.19096783136756551e-25
1.29462115712469615e-25
1.38547574209667105e-26
-5.38451511022028377e-26
9.36676109421163585e-27
-9.20836265742711679e-27
2.2997459571089756e-27
-7.26720216123372894e-27
5.16632806701464052e-28
-1.49215936395177738e-27
3.39174913208523577e-28
-6.05873272931734414e-28
2.39482951570636951e-29
-1.57496921155058367e-28
-4.34606790090689667e-28
-1.33604004448627422e-24
2.63013698428218688e-27
-4.6365579057142719e-25
2.03952229021872412e-24
4.83291289759001535e-24
-2.16926958361759065e-21
4.93326375769585185e-21
-4.39394443028602875e-21
-4.94551140984598463e-26
9.47580917893559027e-33
-6.15488175987253739e-27
1.64770809692519707e-31
-4.39673353888555879e-28
-7.79233719804857709e-29
4.2936794574197832e-32
-2.3456632418674579e-29
-5.01042874600635845e-30
3.37987687891212799e-31
-1.02495287696891973e-30
-2.78404474824781402e-31
8.21472478329546503e-32
-1.02318196752186021e-28
-3.73591824740726923e-29
4.78501581675060668e-28
-8.48543959133312384e-26
1.06698165552439137e-24
-1.61048799323142551e-25
-2.38872115224117722e-05
-6.04448004694265845e-08
-4.61062778088281324e-06
-1.33081545663249976e-07
-2.2668660542462301e-05
-9.4927743453684799e-05
3.685195970970445e-08
-2.04965232666765593e-08
9.9390503107771989e-09
-4.87072516207214912e-08
4.09222192122085782e-09
1.55096076012266379e-08
7.27554466009304049e-08
-2.51104364031079919e-09
3.73859101319336327e-08
4.21092787695358906e-08
-6.438044773088638e-09
8.23369207505263864e-09
4.13305912057227366e-08
-1.34105723198940356e-08
8.04645886345529496e-10
6.20851163094205404e-08
-3.76100568814558983e-08
3.11384245604790626e-09
-2.80356884942088708e-08
3.295492705726201e-09
4.37781682129362849e-08
5.16190365025846091e-09
-1.27464350952396663e-10
2.99958749725186075e-09
2.32695868996594844e-08
-5.37528197598895349e-11
1.46300673253483565e-09
1.06026702179749475e-07
-4.51069374447321581e-10
3.97180937621571972e-09
1.08345959006338658e-07
-7.02998360481058452e-10
3.80700621244352455e-09
-5.33656544249342807e-10
1.6189284330646822e-09
2.95054485139137148e-08
1.5865082112588543e-10
-9.16185874812505344e-11
6.78032852155102286e-11
1.73812710006812859e-10
-5.38427656201988445e-11
4.00105841112395336e-11
4.03326712553972324e-10
-5.25393279895476554e-11
4.43489881055819454e-11
4.66465620388248876e-10
-4.73504144418016079e-11
3.71541686575717494e-11
-3.24906926007886083e-11
1.70988727323578384e-11
2.04498298371443572e-10
8.73382075429292471e-11
-7.19527995944930143e-11
3.54966421432605933e-11
6.70790498605527132e-11
-3.34701832290220624e-11
1.51963880555678922e-11
5.21087362172358483e-11
-1.55991775209822601e-11
5.23016565307746047e-12
2.85489437501239998e-11
-8.0044909179725224e-12
2.20520136886115574e-12
-9.68951257717131826e-12
1.3105489877926496e-12
1.83374613755489738e-11
4.12378425734429849e-11
-2.8251255002488644e-11
-2.77126660904809748e-13
1.9164943447793842e-11
-1.01010264852916744e-11
2.54422230003902809e-12
8.6277092119148252e-12
-3.71379780312820899e-12
1.28487628801062828e-12
4.78379366561520889e-12
-2.41321401561798004e-12
4.81010578109444943e-13
-3.52669213196583516e-12
1.14141535411132568e-12
8.53119428735554568e-12
1.03736357836861701e-11
-1.1878195719950715e-11
6.02369182220330033e-13
3.5802216054713712e-12
-2.53642038679153357e-12
3.01031818645636424e-13
1.28275960915382204e-12
-9.02404041294689122e-13
1.27543926775621211e-13
1.36357247568195935e-12
-6.93122810308477951e-13
1.0404111356420387e-13
-9.8566243479346489e-13
2.91808203316513737e-13
4.65984314262067154e-12
3.09328014903378277e-12
-8.70036734662272425e-15
4.59940614798018316e-13
5.21801053103800225e-13
-4.05838450192592212e-15
1.0251773495564856e-13
3.39754977567207523e-13
-2.32899618002904324e-13
3.81821835731147677e-14
4.45704060561688009e-13
-1.30368174916552386e-13
3.09942523612675609e-14
-2.16488513970775929e-12
9.51938149183535121e-14
1.9979114434401794e-12
2.30566895470931939e-15
-8.90881477608666697e-16
1.84457614544396987e-16
2.77572306324994236e-15
-2.71231022669845386e-15
1.99069195105154513e-16
1.06474795677962184e-13
-5.32390072189065924e-15
9.73601339585128701e-15
2.52369394717720555e-13
-5.32666989164929462e-15
5.9807073314226071e-15
-4.22466929721448949e-12
2.77839102042161047e-13
4.58535522859626408e-12
4.50579040398074194e-16
-9.22205192304065616e-16
2.61555536787989635e-17
1.95770421156825969e-15
-1.10579967628830886e-15
1.69458233475572763e-16
3.91840872171712688e-15
-6.57735639210507839e-15
3.0603760582057595e-16
7.11585601715250594e-15
-6.53578045520255719e-15
5.53792527356993136e-16
-2.70955336784802783e-12
4.65454106663515129e-13
4.4666743085605742e-12
4.73103775767260559e-16
-2.9775552228581275e-17
7.06906343131641569e-17
3.28843102034120511e-16
-2.54019043799557132e-17
4.50305560615659912e-17
3.5886441649759152e-15
-6.58861665952756064e-15
5.60914327482511828e-16
1.00933038953627469e-14
-8.75579548787375168e-15
5.84269371148453033e-16
-2.97241536762048266e-15
2.3161657284766627e-13
1.06654193485195204e-12
5.60140411770914781e-18
-7.13005578197247436e-20
9.09766087707321522e-19
5.62984592319158861e-18
-9.38305417710399204e-19
8.54725252553677435e-19
2.69715594630938542e-15
-2.1374307931082562e-19
4.81545391770628522e-16
3.03139377273824019e-15
-2.39982664863145406e-19
6.67098112760534209e-16
-2.44216724043688394e-20
9.09709746055547307e-17
3.08156225664017308e-16
1.6539248925759263e-20
1.28380054297628135e-25
1.70625219982613447e-21
1.47789904614507429e-19
1.98800492058509164e-26
2.00360600021314586e-20
1.5700656426200799e-20
2.56640633808939919e-27
3.20997892817787447e-21
1.69030242788464261e-20
1.82277029998861878e-24
4.52089357481560481e-21
8.58796362798324228e-21
5.94410787197877997e-22
1.19364500632337125e-21
-1.88309776924085229e-26
5.49331401311382673e-28
-2.90814413911670574e-27
-2.85134234878223749e-27
3.40019271337853329e-29
-5.17960573693155567e-28
-3.52455774619624252e-28
1.79381696249354046e-30
-7.9118116143604254e-29
-2.33064687116199485e-25
1.34263965009455238e-28
-6.77301200700653601e-26
2.59222690954950677e-25
-3.88355813493978732e-22
-9.80147022085224021e-22
-2.64317316905791023e-29
-4.22089011300467524e-30
-1.59956458974984811e-30
-3.01774783829598223e-31
-8.07025233738098287e-32
-1.88977559721292364e-32
-5.60459710889602286e-30
-1.70944292937543063e-30
-4.02563469361905514e-27
-9.570903026172579e-27
-3.15654046344925588e-05
-3.08082114586783777e-08
-4.94284734301885985e-06
-6.15683369834259118e-08
-2.24090338149846819e-05
-0.000108889204299677931
2.42333543035147018e-08
-6.86505999147863418e-09
1.72305627217449464e-09
-9.50653634322624672e-09
-3.18993348600174864e-08
6.07339063909453978e-09
9.61126176622633064e-08
-8.43453266543732089e-09
6.4228298000063215e-09
2.54862030372343831e-08
-7.69168071934896994e-09
3.41872930729291028e-09
1.9688449702682163e-08
-3.26412156861737945e-09
3.3838290394789868e-10
1.94775854301597803e-08
-3.8824997015895451e-09
2.96397027210556862e-10
-3.88613227374224003e-09
7.68483223948260026e-10
1.50772780317413744e-08
1.17424447356930698e-08
-4.14791611900600597e-10
8.31706121989882286e-09
6.06964411059383508e-09
-2.72235737875737248e-10
1.6084075444125704e-09
6.35325536018241157e-09
-9.74374749163994773e-11
6.13082475640063341e-10
6.54565016049547077e-09
-8.02714381635619776e-11
-1.21986388804845566e-10
-7.09631810864957183e-11
-5.51446079886835946e-11
3.61847155154964915e-09
2.87257836754158778e-10
-1.46411509293275594e-10
1.74070514301615331e-10
1.5393651714536041e-10
-8.07520246566412099e-11
5.68453844926216629e-11
8.28905026529291e-11
-4.08023193617203546e-11
2.86006889455909969e-11
7.44650883957379753e-11
-2.81934586949332649e-11
1.16633606158774795e-11
-3.98664273282063446e-11
7.72271195141140947e-12
6.86091520337845873e-11
8.35177176671514401e-11
-1.01007730202926523e-10
3.67163966348946442e-11
4.72500766768653099e-11
-4.41432126863680106e-11
1.46675196155965638e-11
2.6507394389475848e-11
-1.87367188515181405e-11
6.24264529848177095e-12
2.0378270034484111e-11
-1.08797125726588351e-11
2.98473827748263345e-12
-3.42203763723064422e-11
2.4345755464100561e-12
3.29758304161430847e-11
6.80198957396227552e-11
-6.88627784812034514e-11
-1.54774285594789355e-11
3.01335644701400752e-11
-1.588535822113657e-11
2.23784208361608135e-12
1.32653513579123733e-11
-4.99718423484522273e-12
2.88493774431696338e-12
1.63171997851031887e-11
-2.52158729890812605e-12
1.19242328089550217e-12
-1.09320532553308179e-11
3.66451712074548879e-12
6.56375034894872992e-11
2.41230077912568635e-11
-7.88281217751702907e-13
5.59415961197196255e-12
6.93985952619574653e-12
-2.57477172870168669e-13
1.96837579554363244e-12
2.27901550217635414e-12
-4.02630394126526917e-13
5.78614085112715183e-13
1.62777281045606038e-12
-2.41975729521561888e-13
1.2568032147883371e-13
-6.85269919187863615e-13
3.04954416873651957e-13
7.84809683082844045e-12
1.94980773361571479e-13
-1.79552290533218135e-15
2.65584485794082133e-14
7.56103105870416849e-14
-2.19651368367500619e-14
8.79597687197062776e-15
1.48438487137606925e-13
-8.99608075612358001e-14
1.20086479164529907e-14
1.12583971040170675e-13
-2.66258031250360382e-14
1.0972958160718236e-14
-1.07747103689155741e-12
3.52746859467606922e-14
7.80713138928571519e-13
1.02350651647801845e-15
-1.01725837518216789e-15
7.29635811883103893e-17
8.24901597406945259e-15
-8.40821741724261368e-15
6.26806164766791342e-16
4.24100052110578087e-14
-8.57115611793068387e-15
5.48344711838317131e-15
5.1752752345192289e-14
-8.45789477711994436e-15
2.20711824891354978e-15
-3.44750282488560797e-12
8.50984881568502291e-14
2.6502532699153634e-12
1.28553600922486617e-15
-1.45158413892955998e-15
9.13805859045346721e-17
4.81443676930216416e-15
-1.31922027409317177e-15
4.43230132347376104e-16
6.77470885844264204e-15
-7.03733358862639876e-15
5.720162421518929e-16
2.36624821736432972e-14
-2.14582734938466349e-14
9.01706831854874079e-16
-1.75087553393190832e-12
2.78620591518683446e-13
4.12230886512192806e-12
7.565078737640738e-16
-4.10042785626044348e-17
9.31777822948338174e-17
3.67549692366253843e-16
-3.15750925527270953e-17
4.39134733435468988e-17
5.2081701105868332e-15
-8.070677859710578e-15
4.71955153516911685e-16
2.87153595200844576e-14
-4.70530268638042469e-14
1.60318292296357768e-15
-1.44325540986891205e-14
7.99435420285459394e-14
8.19843548720685714e-13
7.82858754039356181e-18
6.59378075870397845e-22
1.11972675722566886e-18
1.04067068889157149e-17
-1.18625614167129299e-18
9.12937120085920173e-19
2.9905203713635341e-15
-1.8195253049452301e-19
4.61031958416821403e-16
1.74923778008096782e-14
-1.14328041176648659e-19
3.18427410536878539e-15
-9.64901040023772339e-21
4.04967436777074426e-16
2.74583941504667352e-15
-1.70274980157753968e-22
6.82806830066149943e-22
-2.16785225464050399e-23
1.93814452502617037e-19
1.17441421174432806e-22
2.68497237138702136e-20
1.38529686013488672e-20
1.71459126737207756e-23
1.20178642224931887e-21
2.72922607962569847e-20
2.39456629685923298e-24
5.8630116862495693e-21
1.03606618739766006e-21
5.07986251395528295e-22
1.66936087444239553e-20
-1.02267205581575429e-22
1.70490788127155558e-26
-1.37491007612891121e-23
-1.73518146180969028e-23
1.02086920702474613e-27
-2.69253923808403629e-24
-2.4528584479704241e-24
5.19965523635220172e-29
-4.604957330845024e-25
-3.23645779806747996e-25
6.88594330856737534e-30
-7.67134391064166215e-26
9.57127797744728738e-27
-3.99115128406857577e-23
-1.2759530881073064e-22
-8.37677662170602809e-28
-1.16112273989127511e-28
-4.94708347415334544e-29
-7.95630175395931077e-30
-2.43669186962628439e-30
-4.76403489373186441e-31
-3.03871164379621107e-31
-7.5437196262068244e-32
-1.2622407225593348e-28
-3.81485118692962036e-28
-3.45693127042592089e-05
-2.99244099202013723e-08
-4.50061041914229597e-06
-5.66901548955640813e-07
-1.96797003101355645e-05
-0.000117657517138511513
2.12856861999651744e-08
-3.76018926715717201e-09
-5.20702672683067203e-10
-1.07485562871929264e-08
-2.08929339620644297e-07
-3.57433730765578205e-07
5.73232130880719199e-08
-1.04030240509264249e-08
-3.06873598657399742e-10
2.3002315085733248e-08
-5.0292989830804268e-09
1.0882496281673479e-09
9.48386613366075126e-09
-1.61927152129410823e-09
1.00839327722114484e-09
1.53053155663172006e-08
-5.6331173478914075e-09
9.41846780246291644e-11
-6.84524353040587896e-09
3.59687849390341639e-10
1.23624366979676821e-08
1.80526887009779107e-08
-1.41996741470942569e-09
8.63867126001012856e-09
3.76882411791771464e-09
-3.62006134809240283e-10
2.07702368099313764e-09
2.18169262830650411e-09
-2.08540128997531694e-10
7.7772535785720007e-10
4.84044898502850888e-09
-1.16507908482713759e-10
1.25217538295988592e-09
-1.11514101886119487e-10
2.69258669230827939e-10
7.44608359653060217e-09
5.21240665411801028e-10
-3.09784895127250135e-10
2.6820124054958532e-10
2.7851735189071275e-10
-1.52794507413707476e-10
8.31131716049127742e-11
1.6012941139177176e-10
-1.06546064475558244e-10
3.49249544227754919e-11
1.12402659742951251e-10
-6.24625903614443032e-11
1.25743230606210599e-11
-4.67534031998429069e-11
6.00624025776025934e-12
5.59251629870769449e-11
-1.90678175695007898e-11
-3.39449529970448431e-10
3.50387560714554109e-11
7.11379661521360419e-11
-3.1204211962527604e-10
1.63454040753859001e-11
4.55471550934337268e-11
-1.45662229325879775e-10
7.51643405490582083e-12
1.8134730514463098e-11
-3.5228817135361037e-11
3.7342384373191479e-12
-2.93765978713290769e-11
2.61734997526804644e-12
2.12846995000350599e-11
7.3758864111756813e-10
-1.91953839449161237e-11
3.63219264304307898e-11
5.20357662734718526e-10
-1.8086554939969229e-11
3.02341372417278165e-11
2.63045216789694257e-11
-6.38634603845033064e-12
1.31597039254186948e-11
-4.19647341437637616e-12
-3.40371099971687726e-12
2.30286925730217701e-12
-9.54249035271745135e-12
1.38698901283388104e-12
2.78895865952529952e-11
2.23815653702046313e-11
-1.56189327370303451e-12
1.67623471729204703e-12
5.9193277939561551e-12
-3.58001312093982647e-13
4.65628297577274656e-13
1.36266809157551887e-12
-1.02413473434728097e-12
1.40415954122298513e-13
1.6358723479676743e-12
-1.536734275404821e-12
1.06978245772497579e-13
-9.38093443360547235e-13
3.35576487772129155e-13
6.2874022613894092e-12
3.72910211718345365e-13
-2.70702424463714093e-15
2.41718506524133077e-14
9.13038243960973779e-14
-5.75554385710845912e-14
8.2339092575992784e-15
4.33135329449923459e-13
-5.90192682488770282e-13
2.4613633621704499e-14
8.78046308879448202e-13
-4.91216247351795463e-13
1.06819730962291941e-13
-5.48870515036473977e-13
6.51143421749375929e-14
1.07928518675072642e-12
5.23902185782319566e-16
-1.84049579078131012e-15
3.55550244421524758e-17
4.22014602992900362e-14
-5.71153731418612767e-15
1.28234644685888611e-15
5.13486966993005909e-13
-1.55404507999374372e-14
4.51876731423221859e-14
2.40174675197549802e-13
-1.09500921236018608e-14
2.62160963186087365e-14
-1.11533896408557637e-12
4.27650766470743343e-14
9.94131099054608245e-13
1.81638393385795722e-15
-1.9277993955213842e-15
1.48118506046553538e-16
2.93217621086096609e-15
-1.36127816326893905e-15
2.36282514175093433e-16
5.11101286792206669e-15
-2.46267359702139413e-15
3.15975052418447917e-16
1.37553630778663503e-14
-9.68827213103708029e-15
6.73514516385607406e-16
-1.76315385348540408e-12
8.87123734126371763e-14
1.83140928173188194e-12
9.66269104014127379e-16
-8.51589583312331662e-17
8.98025594884067621e-17
4.04278435420213701e-16
-4.59838456670809728e-17
3.98106347305347688e-17
2.24065163110673392e-15
-3.45743411800807642e-15
1.26233542018273717e-16
2.52882589199494307e-14
-3.05727993731657827e-14
4.51648423286838996e-16
-9.88239436108209553e-15
1.33468597511895683e-13
1.51341563926272767e-12
1.66370971001725027e-17
-7.19566426551401155e-19
1.65895289841198563e-18
1.10036871089400621e-17
-8.48593101276758965e-18
1.26488876042379173e-18
2.48382771037169271e-15
-1.13423241618596592e-18
1.65315246887219811e-16
1.18387922609772011e-14
-1.4574891402643045e-19
1.69424383888101993e-15
-4.07812410521160718e-21
2.00978737294368904e-16
2.16039401674716603e-15
1.76104925178260743e-19
8.88087200085252312e-23
1.68481032748087677e-20
1.2196144745527303e-18
1.70311897574301169e-23
2.56477714878838382e-19
1.53257418728313939e-19
2.80825663828337771e-24
2.34198355344538582e-20
1.17488585551222583e-20
4.27572082310961251e-25
1.62223026092847956e-21
8.38429746831900884e-23
1.8503964444822221e-22
7.90983808217476983e-21
-1.35263501575704186e-23
9.27193350282106109e-28
-1.50881988533540971e-24
-2.57704088981628546e-24
6.12487877245796276e-29
-3.26265761920173133e-25
-4.1494123349243113e-25
3.48718341559935794e-30
-6.24317249842532833e-26
-6.03174707784963114e-26
2.85602898288074224e-31
-1.12318107940897768e-26
2.53349428594866184e-28
-2.61986042026346884e-24
-1.09227201380416989e-23
-4.63333155671041086e-29
-5.31424269789737019e-30
-3.03970221587836464e-30
-3.98098003025046865e-31
-1.68767059598693247e-31
-2.64070374524716555e-32
-1.31506728564653944e-32
-2.56128972552500073e-33
-2.70398050899549168e-30
-1.06737310363078395e-29
-3.27049788505941847e-05
-1.77745950552618542e-08
-4.89980408674520251e-06
-3.05030661187782195e-06
-1.77373772870002085e-05
-0.000126548650414115072
9.90071890914908594e-09
-1.84320896850733733e-09
-1.46794268790181004e-09
-2.23143329238947754e-08
-3.4997539114159111e-07
-2.88001489810232581e-06
7.39208539093756393e-09
-3.08486987516541615e-09
3.26717183424263799e-11
6.7957423704704155e-09
-1.03546029960585356e-09
2.42748359612782588e-10
7.26736350996978613e-09
-6.67783667595703137e-10
2.990403492567581e-11
1.49797995317255658e-08
-6.97888123603488858e-09
-1.67922829108358461e-10
-2.4299708413220906e-08
-3.19148218873021951e-10
1.78459454189151942e-08
6.98758970770347118e-09
-7.52536093083810722e-10
2.56031518641393049e-09
6.87740085083231793e-09
-2.88725838989983544e-10
1.38736093935403305e-09
6.9640456478659642e-09
-2.9734149731629242e-10
4.75820185278954061e-10
3.92887462266277219e-08
-2.80023487357810864e-10
2.86527573193229893e-09
-1.04521322692576942e-10
2.98268490467630821e-09
4.35207033644407672e-08
4.63249961153994819e-10
-1.44021833156382633e-10
2.43745205244832384e-10
2.19194966749459399e-10
-5.94622584239735608e-11
8.534170275071181e-11
4.40762280729410872e-10
-5.76192398028893268e-11
5.61485197967983585e-11
1.77809627534982088e-10
-3.31730483773138954e-11
1.68646204651783736e-11
-1.84136408944520665e-11
5.82685280739564652e-12
7.06600661383339156e-11
7.75363104714242419e-11
-5.10230051268718038e-11
5.14632760631701679e-11
6.12272427012786979e-11
-4.41387028723031624e-11
1.51643755108236921e-11
3.62591727533488488e-11
-3.12742841197995763e-11
5.34397278087937471e-12
1.71463350766406209e-11
-1.2269945316555326e-11
2.02781397929282089e-12
-1.44824505705243534e-11
7.70463778778951696e-13
1.50620309750317378e-11
6.56569399801924239e-11
-1.97677494362131292e-12
2.94282096150363503e-12
6.84559904524014274e-11
-1.09194194844629612e-12
1.57130080275925222e-12
1.676430582276317e-11
-7.00156573820756152e-13
1.05590403836325413e-12
4.32606283051199542e-12
-1.19294109153099227e-12
6.03231140382880335e-13
-6.90801877762433266e-12
4.96360273889608553e-13
2.10313673592160425e-11
9.34851489562414359e-13
-1.3799922606252478e-13
7.8444471892751868e-14
3.59271126128427166e-13
-5.45631762765599282e-14
2.61034821983802429e-14
3.90285960733907533e-13
-5.0647424008806142e-13
2.30620641130215399e-14
1.67350534595965805e-12
-1.61169112720071444e-12
6.10929054569767432e-14
-1.47609839108722223e-12
2.57659258370219117e-13
6.96457010559338251e-12
5.86609741964005294e-14
-5.08080562002546741e-15
3.05565430333566548e-15
3.42491017603542711e-14
-1.15981896309140785e-14
1.68449317877200577e-15
7.04097862028401206e-13
-5.93310414868680009e-13
2.82541295399277979e-14
1.58493202642406872e-12
-6.3441132042554508e-13
1.00242634206207474e-13
-6.37135621208404958e-13
7.3684705403417623e-14
1.37727212822772687e-12
5.14515145996357369e-15
-5.24633503552475429e-15
2.8554374115994484e-16
2.61317706550193481e-14
-3.17001769496682379e-14
6.11113172438754422e-16
5.38784559718011927e-13
-1.69875331022624195e-14
3.76570553659053881e-14
2.85893717496034917e-13
-1.93614740717215661e-14
2.86309958352567852e-14
-1.08951250020738555e-12
4.0724512441814933e-14
1.0004395403954733e-12
6.31628762804318434e-15
-1.34329118024760033e-15
2.68970234467570083e-16
2.22791019541706381e-14
-4.81611628626191094e-16
2.75548394909902622e-15
4.85887099505814519e-15
-2.37472084013535621e-15
2.74595298606006925e-16
2.60244569467353274e-14
-3.54202414363884398e-14
8.85802825526225445e-16
-1.87359593598576561e-12
7.82445444304021238e-14
1.70200535362413926e-12
3.45633666317110259e-16
-2.03689499599063384e-17
2.11255277649951739e-17
1.30444193466185857e-16
-3.53543420643219443e-17
1.20226226139283443e-17
2.86973679345008056e-15
-5.09571584374561557e-15
1.16651374678284533e-16
7.2396926881665226e-14
-1.27150225859987934e-13
1.79746704964111142e-15
-4.91607392533045761e-14
1.00305216311316554e-13
1.64167593879895226e-12
6.2492858273001881e-18
-2.11465231356799467e-18
3.29056050227016649e-19
2.91668874338833496e-17
-3.68651013968761162e-17
1.42152405877459051e-18
1.98710206715097037e-15
-6.91487774247460201e-17
1.89490862600085264e-16
4.94383863752772023e-14
-7.97055914353329695e-17
5.45880089481275293e-15
-1.33625267420938711e-17
4.59305032103541948e-16
3.41612639087125271e-15
5.70003727235213149e-19
9.40744636414384253e-24
3.32128503495296204e-20
1.02489629953295146e-17
2.62932015949692808e-24
1.31012692173657416e-18
1.1754307710626294e-17
5.483961821162687e-25
1.79369503852885068e-18
2.0559072363196539e-17
9.69870948611237734e-26
2.57881508780060942e-18
4.68498948756924339e-24
2.41960021670229269e-19
6.95476595408739918e-18
-1.451335325244846e-24
1.30765250916387574e-24
-1.25076798112370922e-25
-4.05185999765780968e-25
2.16619771677538158e-25
-3.90752910010872774e-26
-8.3041502742749004e-26
2.11449070079791183e-26
-9.38121082220360556e-27
-1.41249529668772331e-26
1.58124250105599077e-27
-1.94506919937627446e-27
1.05085166293670591e-28
-1.10783570097969941e-25
-6.35513320327131448e-25
-6.62002047222658425e-26
-5.85039907083153692e-27
-1.09492435717715817e-26
-1.09023078226896794e-27
-1.04865203572074843e-27
-1.23059128982267989e-28
-7.51348998440407603e-29
-1.08173091313193994e-29
-8.49088212779883084e-31
-4.60516305997603718e-30
-3.21439287789070146e-05
-7.62427346031454151e-09
-4.56866433296531155e-06
-4.64105434063610002e-06
-1.44081068785316274e-05
-0.000133350025171886618
4.13341710777879189e-09
-2.13626710063144819e-09
-2.37260801324055674e-09
-2.9965987008922153e-08
-4.90045528081691935e-07
-4.46359813435669757e-06
4.3981282516384275e-09
-1.49074503013750516e-09