/*--------------------------------*- C++ -*----------------------------------*\
| =========                 |                                                 |
| \\      /  F ield         | OpenFOAM: The Open Source CFD Toolbox           |
|  \\    /   O peration     | Version:  2206                                  |
|   \\  /    A nd           | Website:  www.openfoam.com                      |
|    \\/     M anipulation  |                                                 |
\*---------------------------------------------------------------------------*/
FoamFile
{
    version     2.0;
    format      ascii;
    arch        "LSB;label=32;scalar=64";
    class       volVectorField;
    location    "0.720000000000000417";
    object      faceTraction;
}
// * * * * * * * * * * * * * * * * * * * * * * * * * * * * * * * * * * * * * //

dimensions      [1 -1 -2 0 0 0 0];

internalField   uniform (0 0 0);

boundaryField
{
    inlet
    {
        type            calculated;
        value           nonuniform List<vector> 0();
    }
    outlet
    {
        type            calculated;
        value           nonuniform List<vector> 0();
    }
    top
    {
        type            calculated;
        value           uniform (0 0 0);
    }
    bottom
    {
        type            calculated;
        value           nonuniform List<vector> 0();
    }
    left
    {
        type            calculated;
        value           uniform (0 0 0);
    }
    symmetry
    {
        type            symmetryPlane;
    }
    interface
    {
        type            calculated;
        value           nonuniform List<vector> 
67
(
(0.000209147791193537954 -0.0036973320296435218 -124.241714146625469)
(0.00417005746190446305 -0.0146370325218587415 -112.229037580657888)
(0.00500395981461272676 -0.0267200385697618781 -144.823710686044848)
(0.00111729974171260907 0.0028989379455578502 11.2089346373000183)
(0.00791739465696434004 -0.00673304168487710939 -27.709139121485677)
(0.0101108101041472755 -0.0236961042787416296 -114.718072648209713)
(0.00988709664547871188 -0.0321875660679998912 -170.38649394510071)
(0.00612962508169714263 -0.0152156036077985019 13.0362741818706969)
(0.00708770082495843723 -0.0241196972763878456 -48.8891036063305862)
(0.00968237486585069203 -0.0364642579144587795 -146.077035730683463)
(0.0111345320005474362 -0.0365967483265063065 -192.331186718401881)
(-75.3343539107912363 0.00021357056860891286 -0.000365527393586019555)
(-46.2238935953816821 -0.0157179278542591803 -0.0109090486886381493)
(20.0244185353323303 -0.0272942107221574304 -0.0137203365891682139)
(-75.9004164886371626 0.000386494452743077542 -0.000252703988162430472)
(-50.3560125342695244 -0.0124191945926460726 -0.00567756532649196181)
(13.6253869417970392 -0.0272676101219490284 -0.00970621035112676812)
(-76.10925648006112 0.000179594546842940601 -8.35372054943764081e-05)
(-59.6562133856612675 -0.00559267119575573585 -0.0048446706229257671)
(-7.07424115545236187 -0.0254706407832405828 -0.00951862144122324512)
(-76.6146558406114195 0.000194443822671125024 -5.95310576803234452e-05)
(-59.5654312173642495 -0.00516094040060205081 -0.00233689868206832284)
(-9.54078211896859685 -0.0252980188831339083 -0.00609232978284315885)
(-77.7776845891590085 0.000214699759611559823 -6.3965075905020823e-05)
(-59.8492999067189615 -0.00528878572627306236 -0.00277750818444007404)
(-9.10944372915035672 -0.0257677697225770393 -0.00575016569222523786)
(-77.6850330274498191 0.000292259724083063644 -4.54702922246638583e-06)
(-57.2120254716673458 -0.00778395271116857999 -0.000393283323575439414)
(-0.0656311970152752694 -0.0284165911360029048 -0.00342686740350667436)
(-76.6852494437892318 0.00104168257313067458 0.00033394615499914357)
(-42.0655437914762658 -0.0167131164854150971 0.000618892344464452631)
(28.6963761477282944 -0.0329007107225766857 -0.00161020732183681002)
(-72.952552238150389 -0.00515103928288223115 0.000867659271118393803)
(-1.51222660360504424 -0.0257417883624754783 0.000580107882131940689)
(76.4080673368735859 -0.0363953533320323236 -0.000282922890432476626)
(-0.00148749698953306512 -141.940484747960681 -0.0103244721720935993)
(-0.00218884825394737156 -159.629569929755718 -0.00831986744918050344)
(-0.00339935869897904251 -170.632030821762044 -0.00747286615898812723)
(-0.00400634465380935931 -176.756020417994932 -0.00599662829812391135)
(-0.00431160315588051662 -181.149124103151593 -0.00493464616256109219)
(-0.00465755701377219052 -184.426025689721286 -0.00348912950247052319)
(-0.00506466033103968993 -187.357697496716071 -0.00230196587883692858)
(-0.0053489027988435911 -188.756035129401738 -0.000797238042175364464)
(-0.000901017834319500798 -156.084234342898526 -0.0103749836521239147)
(-0.00342638061957018913 -179.493610546361111 -0.0104554578359089857)
(-0.00396985633838865207 -199.665970940339463 -0.00882510911148251878)
(-0.00426230347558042341 -212.561709449039625 -0.00673301652336106074)
(-0.00447700926025810381 -221.242197236627476 -0.00512097255086745376)
(-0.00494731878933442337 -225.461674799551304 -0.00380986166431377012)
(-0.0057312180220318535 -229.135091652951019 -0.00330696627983046625)
(-0.00625144858205499594 -233.097323158078581 -0.0014683804419739965)
(0.00199306058461245095 -147.358566357475837 -0.0105115002456020405)
(0.00275140388879831872 -186.343434071642235 -0.0107507784980328414)
(0.00274608582852684316 -213.408643654970547 -0.00825337743060275582)
(0.00332413828175599562 -228.488477144751215 -0.00626846817752804448)
(0.00367390539788418598 -239.747262852945511 -0.00520485629184208425)
(0.00367367065909348159 -245.968838889672895 -0.00457580233711993214)
(0.00301247546992362142 -251.425380841126696 -0.00395843504402665965)
(0.00285571356007508674 -259.39500819077341 -0.0015338680456939049)
(0.00524133145548495282 -139.326459982589768 -0.00917665624523827939)
(0.00731243083685439998 -174.203110408526754 -0.00939992786538253709)
(0.00793612385140334171 -195.850044644843507 -0.00699063021801907009)
(0.00836858373156239982 -208.495844943537264 -0.00541143090784092663)
(0.00852449665828717944 -218.993779596278415 -0.00498113291997414036)
(0.00879656317510165396 -225.671169327715234 -0.00501437113873138326)
(0.00948659220776136569 -233.56411785798096 -0.00447451278596818023)
(0.00788373114351366075 -236.807023194285165 -0.00170417306659963901)
)
;
    }
    procBoundary1to0
    {
        type            processor;
        value           uniform (0 0 0);
    }
    procBoundary1to2
    {
        type            processor;
        value           uniform (0 0 0);
    }
    procBoundary1to3
    {
        type            processor;
        value           uniform (0 0 0);
    }
}


// ************************************************************************* //
