/*--------------------------------*- C++ -*----------------------------------*\
| =========                 |                                                 |
| \\      /  F ield         | OpenFOAM: The Open Source CFD Toolbox           |
|  \\    /   O peration     | Version:  2206                                  |
|   \\  /    A nd           | Website:  www.openfoam.com                      |
|    \\/     M anipulation  |                                                 |
\*---------------------------------------------------------------------------*/
FoamFile
{
    version     2.0;
    format      ascii;
    arch        "LSB;label=32;scalar=64";
    class       volScalarField;
    location    "0.720000000000000417";
    object      rAU;
}
// * * * * * * * * * * * * * * * * * * * * * * * * * * * * * * * * * * * * * //

dimensions      [-1 3 1 0 0 0 0];

internalField   nonuniform List<scalar> 
7248
(
0.00133129401255893394
0.000168951182478218709
0.0120380618519644426
0.00988449392746836887
0.0187528060586758145
0.0170288276424753471
0.0129595774082001021
0.0124315020401304151
0.0124994415038053221
0.0154586981947375263
0.0146906171491475324
0.0114918588642661836
0.0103524548179687627
0.0124894157183452151
0.0167484732199029603
0.0157477818728398618
0.0146249327318307889
0.0139883831947835435
0.0139167307834732468
0.0176469125360251798
0.0168298293834464839
0.0159276581755493328
0.0151820218107962743
0.0145288420733624968
0.0176317225364361028
0.0168963321669890962
0.0161729089311801397
0.0154788708399168466
0.0148371417967388813
0.0177711102619838475
0.0170643665538232382
0.016360772338000297
0.0156870230912440935
0.0150654396903666509
0.0179162271404153493
0.017283335241162847
0.0166382265080622267
0.0160048477119193698
0.0153868855686970715
0.0181618622572983675
0.0175729132373418084
0.0169710055213568717
0.016365656424978673
0.0157522853796551732
0.0185097839424192903
0.0179641857325116179
0.0174042722494370389
0.0168296093576126814
0.0162323824461145863
0.0189341796833839976
0.0184343123749851068
0.0179208926665210995
0.0173910846146632415
0.0168380875383438468
0.0202919934203695911
0.0198604499170952076
0.0194187485785262508
0.0189684382073390424
0.0185106076901438293
0.0180446978682021093
0.0175677649969960721
0.0207383349430730057
0.0203473350514781666
0.0199492987717051762
0.0195476855533055667
0.0191461129027807771
0.0187483071537674732
0.0183578765847974938
0.0212296352133815071
0.020876807083512864
0.0205177571906830399
0.0201574975688324394
0.0198018056040499685
0.0194577149856435747
0.019133666391032849
0.0152099841509327691
0.014818408590466476
0.0144249516000868969
0.0140366813377102197
0.0136610436164302778
0.013306297586295205
0.0129818492458362751
0.000874140299905538367
0.000123425999959121994
0.014051638394862136
0.0124853152754023089
0.0151492250715336094
0.0161260406094342369
0.0160556174395025883
0.0144994458963251423
0.0131735530536834303
0.0155186843534091332
0.014966350865378673
0.0136584688354813126
0.0124790987015855649
0.013185687029573772
0.0165378811714379029
0.0156432001643844604
0.0148142768570620545
0.0142030472224037013
0.0137950812372557071
0.0176904927521921579
0.0166338720800742884
0.0157090843493809425
0.0149887190540053984
0.014442190302739466
0.0180379918037965117
0.0169344158180204651
0.0160433975125897112
0.0153373184043672298
0.014740055130087101
0.0179752424574166833
0.01708463341157632
0.0163128147577490216
0.0156427865312370948
0.0150409810053543144
0.0178977408873541646
0.0172328320660769946
0.0165873585218934728
0.0159650429247462193
0.0153585429451207969
0.0181431308674693537
0.0175430034652351713
0.016935677272327844
0.0163294263215870115
0.0157189045006476541
0.0184830311861879509
0.0179255195636195686
0.0173559995642727158
0.0167744559570961148
0.01617210923445285
0.0188937397412303441
0.01838231926105445
0.017856322519005919
0.017313177766997704
0.0167454626509995694
0.0193708526484534897
0.0189075566264996532
0.0184338007778574731
0.0179484625851933748
0.0174481309741860574
0.0198976691307554687
0.0194826982785548247
0.0190642445888309087
0.0186452946212990779
0.0182288946865248047
0.020466623684191422
0.0200942417030281657
0.0197228524129939645
0.0193589387118630052
0.0190106291960211622
0.0143699954917023698
0.0139723002851180281
0.0135837543113746101
0.0132120065716145388
0.0128657931283701638
0.000692545539390001228
9.30861773176957738e-05
0.0144937834235123828
0.0140724462291492089
0.0143488488449915966
0.014836739129543421
0.0153125386009659963
0.0142490364034028472
0.0129620155712888933
0.015492800153611784
0.0148771490431060232
0.0144881038333975146
0.0142522383706766356
0.0139405671140053703
0.0162004392358919697
0.0153605333152264257
0.0146751289154432307
0.0141408652586656244
0.0136669484067822311
0.0177222277284794193
0.0165688754795592155
0.015592580031657215
0.0148485138061612218
0.0142845806298848368
0.0180772605280033263
0.0170129481994500328
0.0160433535450645696
0.0152910879086400955
0.0146789929052531364
0.0178628059237749895
0.0170113231769116711
0.0162540390782164729
0.0155952583842446299
0.0150021578529283689
0.0178429985386032441
0.0171817122738926673
0.016544192414246147
0.0159318318783400435
0.0153349659676846641
0.0181249456228060636
0.0175190851298716553
0.0169106571219581232
0.0163055261185162392
0.0156989157769611316
0.0184605408346956677
0.0178962711508619012
0.0173216668166290798
0.0167371166043997974
0.0161338313900100914
0.0188647174230065599
0.0183455169642829374
0.0178112582152530133
0.0172597692635256331
0.0166829186567159157
0.019335713543129119
0.0188626457483107371
0.018377510792068355
0.0178787980467329105
0.017362527161359588
0.0198575847501639945
0.0194325105411816516
0.0190015793450641624
0.0185673133469782849
0.018132587100180321
0.0204246244229725864
0.0200426866676289145
0.0196591148249386713
0.0192801773058117049
0.0189140708092026717
0.0143201112823636446
0.0139144955259435221
0.0135151096075078504
0.0131292518482584615
0.0127653274393229391
0.000579406380373645533
8.13777520083420894e-05
0.0149927911115230808
0.0111613693264652359
0.0158144386231678126
0.0152191818410446385
0.0148443334865978951
0.0138626205038585339
0.0126237130269783362
0.0150151236036106736
0.0149876149312235217
0.0146600534217560721
0.0144641412143059721
0.0141706171578301638
0.0161250012375051856
0.0155257000520926617
0.0149832761465300245
0.0144469383454629424
0.0138771825723935198
0.0178806664263977989
0.0167618059094749201
0.0157736452808214869
0.0149622070928102768
0.0143040318834297495
0.0178099868268659887
0.0168852933467706426
0.0159965092444179363
0.0152616887497730204
0.0146396507528541112
0.0176478018519937996
0.0168645245992912023
0.0161652422779210922
0.015544362645147719
0.0149684036220890625
0.017808945364723279
0.017154653788043369
0.0165263175243157215
0.0159192414761087746
0.0153246855760194624
0.0181120781067249936
0.0175025438725748932
0.016894952946767787
0.0162925412107155464
0.0156903376801001901
0.0184447803715667991
0.0178794160764940147
0.017304271851806094
0.0167199485606042281
0.0161180785665240058
0.0188490624058646888
0.0183251826780760768
0.0177861830573850833
0.0172304877908167932
0.0166492073253317087
0.0193141931218320205
0.0188346320561100372
0.018342156550965303
0.0178353397506918025
0.0173094721032334316
0.0198301795914073674
0.0193980568085620718
0.0189586206972677841
0.0185142204965593159
0.0180676672028232538
0.0203929550554854955
0.020003932342631054
0.0196115039565327894
0.0192219173947719563
0.0188438718240890452
0.0142767807003976403
0.0138648115190718214
0.0134567218749545719
0.0130596404909126655
0.012682016595937845
0.000504451028354328595
7.55766808114799417e-05
0.0157147766487889425
0.00528701945657031238
0.0178086980572301906
0.0169469647524722739
0.0157298707046206708
0.0142113345500844562
0.0128184968217366618
0.0154862754944416949
0.015397988062582536
0.0150844806228524354
0.0143589526954124753
0.0136642266700708337
0.0164971290298179564
0.016040139050465918
0.0155411253103241564
0.0148677467348440513
0.0140296393382887356
0.0174922762432758935
0.0166297782748236443
0.0157706156506587473
0.0149864658005539695
0.0142749481041295583
0.0173508075379110276
0.0165593146941935554
0.0158263076590559743
0.0151794003010674861
0.0145880578525105567
0.0174289909829595767
0.0167518214776091641
0.0161239014872864364
0.0155368319112695365
0.0149683427291697636
0.0177840752028120969
0.0171434895469397136
0.0165228873279406573
0.0159191307445256218
0.0153258098113863012
0.0180936558612426052
0.0174915070141009148
0.0168917117385862479
0.0162967056611615091
0.0157004344706404599
0.0184431944015678202
0.0178793967393211378
0.0173061533144362213
0.016724206539634516
0.0161257887498565851
0.0188483489159890008
0.0183221863270221323
0.0177814165096219813
0.017224975829510606
0.0166441113375547338
0.0193073334463443325
0.0188241998899093509
0.0183279666907839658
0.0178175574138683263
0.0172877462653510533
0.019816463343397421
0.0193799648688039589
0.0189355459432788246
0.0184855985209929317
0.018032786322883864
0.0203724572540615184
0.0199786597666147536
0.0195804482116404555
0.0191841366960962025
0.0187990539178461112
0.0142413196441676521
0.0138245244023196736
0.0134097967328294532
0.0130042288825041909
0.0126165126473928111
0.00045150793934753766
7.16634696201733508e-05
0.0155927739297897824
0.00392529997715492397
0.0156935410209725033
0.0157442366870798774
0.0154868716331155315
0.0144279519727861343
0.013175959252431018
0.0157101984717317317
0.0153262819017099053
0.0148287728088167918
0.0140188085621298086
0.013390514186215511
0.016007678210665198
0.0155737408342995071
0.0151112883238597902
0.0144642142403833742
0.0136537931917046652
0.016531708240597371
0.0159178629743019565
0.015318986547396763
0.014739755211040333
0.0141613976706403272
0.0168721578816377407
0.016241854600110444
0.0156635187386608837
0.0151125728587264627
0.0145609981218119376
0.0173601186054366287
0.0167348198066336364
0.0161348612744408072
0.0155553304414868671
0.0149806107789701229
0.0177739812022740806
0.01714557438267756
0.0165318055399920165
0.0159351615260386152
0.0153427705790177681
0.0180980119155498796
0.0175040549176680299
0.0169111905686682162
0.0163231255763608973
0.0157281253258299628
0.0184615584304515731
0.0178995669374709711
0.0173288579840605826
0.0167506470464883171
0.0161559076551090197
0.0188643544289423468
0.0183378826934107002
0.0177980383101201782
0.0172439612807165771
0.0166676418430349339
0.0193162313012921125
0.0188319528202564486
0.0183352550166778934
0.0178255258281997848
0.0172975875765645284
0.0198169438102353337
0.0193784636602435459
0.0189322776447373407
0.0184810054106285503
0.0180274185701634442
0.0203636672536435942
0.0199672470569811251
0.0195660571670585835
0.0191664969008979169
0.018778461981411837
0.0142147977772150991
0.0137946305887612589
0.01337523380536507
0.012963692440424477
0.0125689191912719336
0.000440305428527320935
6.91148950641564888e-05
0.014522955080035262
0.00343498171049210496
0.0129320914597845157
0.0134454950851919646
0.0138236112437593265
0.013497763713850388
0.0127734681351099073
0.0136228259842547279
0.0142923476099379738
0.0143885654415126692
0.0139032856253521846
0.0134099076176212757
0.014863015712724614
0.0149210783128732351
0.0147488079316590043
0.0143422434709985138
0.0138184930758382708
0.0159201722774511695
0.0156289196718184462
0.0151998124121581306
0.0147080443690113267
0.0141832715709036446
0.0168006959755251303
0.016263637490480775
0.0157205432171719679
0.0151791797102315117
0.0146314577783497948
0.0174175357974819221
0.0167965094107719419
0.0161934671568070253
0.0156084773800380747
0.0150278856861633531
0.0178040213545510098
0.0171837054235539285
0.016575963970290826
0.0159846636730907737
0.0153947709795109328
0.0181409552379979966
0.0175501642440993276
0.0169599042496278128
0.0163756472604662563
0.0157842685856105745
0.0185036340603433568
0.0179417719400846373
0.0173735045954035335
0.0168004466045522764
0.0162132445643096701
0.0188987837915177807
0.0183729321839873547
0.0178358329618825105
0.0172869675511614501
0.0167190098163713524
0.0193414551800993907
0.0188577294108028849
0.0183631740907670253
0.0178574662540433304
0.0173358698225409731
0.0198316391960453517
0.0193933342025105621
0.0189482000961481399
0.0184989646268206472
0.0180483652799188418
0.020366824291594525
0.0199698009316667466
0.0195682080774959299
0.0191684254024632739
0.0187799774949118266
0.0141980695342487882
0.0137758901007764573
0.0133536677508471827
0.0129384385607217624
0.0125389594658197618
0.000393819933045640104
6.792039929786547e-05
0.0138531547621416583
0.00352111346529773543
0.0108853503901095716
0.0115217485896785526
0.0123322129564420388
0.0124373584018581465
0.0123042341271989829
0.0103175770375461568
0.0111045194491603445
0.0126978180383510199
0.0134996889684462253
0.0135905966559710829
0.0112706472610391989
0.0128163340760140219
0.0142922037827163829
0.0143972045053371214
0.0140266614854882669
0.0140435096651511451
0.0152725620006940142
0.0154153090856356777
0.0150305890801229053
0.0144222945989951456
0.0167284780438532003
0.0165462393699092394
0.0160170268955470534
0.0153877349434682516
0.0147682225194713541
0.0176683225149849819
0.0169903799042263812
0.0163176826041765213
0.0156936645024246223
0.0151041425754515329
0.0179141536200744557
0.0172591853032367099
0.0166432466747540968
0.0160534272488826249
0.015466986915615627
0.0182035646617952525
0.017612594210264957
0.0170233061563184983
0.0164404031861266273
0.015851780601123449
0.0185571315159796871
0.0179937897994115782
0.0174267018249858012
0.0168584787830356742
0.016278190036569419
0.0189373227102892852
0.0184128529774529176
0.0178804830911586214
0.0173393399934049612
0.0167815680586542067
0.0193673410251613831
0.0188866843643119391
0.0183974830923487979
0.0178998242045813223
0.0173895331733959248
0.0198445778835683664
0.0194091563300600491
0.0189686117567414089
0.0185259701651519434
0.0180839235661071074
0.0203653853650343011
0.0199703563791650551
0.0195716059076222575
0.0191755553410586262
0.0187913535708500584
0.0141837671226286953
0.0137613205013833607
0.0133385025283991893
0.0129222956948901371
0.0125213493166350075
0.000273165151549811022
0.000216973798378666344
0.00923050965544841041
0.00847294925060983369
0.0175799348153957077
0.0157910451378425083
0.0127787923143951737
0.0114197467746678244
0.0108258393387532879
0.0225654828131025033
0.0212557476224808813
0.0183929791021091374
0.0151981388096463881
0.0129441356204204709
0.016492366945237355
0.016462323115117878
0.0168911814306156489
0.018268753081062624
0.0164466318051200849
0.0179135706656073472
0.0174331352766062542
0.0171671770221379187
0.0177351977204897385
0.0178291927796130588
0.0180751548246175509
0.0175029477600612757
0.0172110199566844202
0.0173264642329057743
0.0170233846778045303
0.0180906815004263193
0.0176273431721241935
0.017294823587895445
0.0170749174897367045
0.0166113967253058957
0.0183550161622911406
0.0178498926530645807
0.0173992878800539354
0.0169957274198424928
0.0165264891782009454
0.018681940369206302
0.0182107069308389581
0.0177620001245756762
0.017329919153345235
0.0168834158471969226
0.0190937911984915935
0.0186936516673190355
0.0183334541439234937
0.0180302715126625483
0.0177805624211823284
0.0195714180536299652
0.0192564560429948385
0.0190091876714267305
0.0188464270766732153
0.0187592067545822618
0.0207642674420849514
0.0204258069938749003
0.0201258487619957009
0.0198749936702712175
0.0196848544350239144
0.0195670841412886147
0.0195475535614806663
0.0212379253978886608
0.0209265248306314926
0.0206441772733346879
0.0204030197156459918
0.0202197287888743089
0.020119545820026178
0.0201372234257985137
0.021627235495895597
0.0213355985336092478
0.0210675620239528204
0.0208354217663447409
0.0206554343896352029
0.0205494777770036698
0.0205476469533965173
0.0155602784907152222
0.0151972366315514737
0.0148516868950688639
0.014534802662086347
0.0142597651505640705
0.0140432116144699557
0.0139073034562758342
0.000941991500943757166
0.000336171257705304596
0.0111334841031962405
0.00959169525011033253
0.0199303871575156541
0.01748342854379515
0.014975488126989624
0.0134315208919029688
0.0129980482142826575
0.0147687146790220249
0.014651090099828349
0.0150188442658249263
0.0159129962472354981
0.0162328012956373842
0.0144888206477464965
0.0140511760994937902
0.0137256378041900849
0.0137302063954016021
0.0141882946042777552
0.0163064621520155224
0.0156455236225769637
0.015076371689605671
0.0145507625159606059
0.0139438188907902421
0.0171047230139167797
0.01649055373582093
0.0158935728728358781
0.0151662841981509561
0.0143376015347390483
0.0176119242513218532
0.0170454054140917917
0.0164327588936508291
0.0157036760413631453
0.0148987123938032467
0.018015878410548216
0.0174698396312402901
0.0168997172674233455
0.0162747282594222532
0.0155882850560462635
0.0184392802911892729
0.017939690964063091
0.0174334513422349131
0.0169141087251103786
0.0163748755125892112
0.0189015935795543433
0.0184647056252877292
0.0180360358441549462
0.0176243335258641394
0.0172629054384159097
0.0194030553007086271
0.0190373353421307394
0.0187055758808808703
0.0184344504399141136
0.0182639152594366791
0.0206215729512986383
0.0202607366860000949
0.0199265495714086721
0.0196294941034453954
0.019387627786399856
0.0192258232791717998
0.0191791314818469324
0.0210619985704593414
0.0207434928986858745
0.0204520541061793647
0.020199868279351562
0.0200039284223929616
0.019888996182235566
0.0198922626802357956
0.0215194554834996776
0.0212263819093845389
0.0209548166492142668
0.0207171748296406458
0.0205300162237279198
0.0204157974883789166
0.0204060275957469762
0.0154912022964510902
0.0151307280813833302
0.0147872411884948096
0.0144720461144259276
0.0141986401261734313
0.0139841591425881855
0.0138516148865106079
0.00176115841450390958
0.000814739236516148226
0.0127997261084514171
0.0101958794622805347
0.0123040528586810492
0.0121374160761744312
0.0157881800681644834
0.0157719030525365969
0.0159468913110032418
0.0136742837280001365
0.0129428944978014476
0.0132243116062082371
0.0137289528180591629
0.0146531970714221822
0.0147622145786220869
0.0138084599261562753
0.0131700977510845561
0.0127076430044991244
0.0126984665038282485
0.0163176637898656725
0.015389636393787768
0.0146441350480227724
0.0139974924833646073
0.0134765878467107449
0.0171499861118833835
0.0165025000343707907
0.0158420003135055359
0.0150693669347253117
0.0143101591321561153
0.0176122572674684008
0.0170301371928454209
0.0163768908883156483
0.015635303414311099
0.0149113749668041261
0.0179581512531465093
0.0173966793460764262
0.0168095146662785126
0.0161905755883022667
0.0155485136068043307
0.018391076777355235
0.01788633677991016
0.0173712304603858558
0.0168421717117676895
0.0162954222974028527
0.0188532959577060039
0.0184092915875719576
0.0179717779135787417
0.0175459233095281546
0.0171474869390338056
0.0193542921721783882
0.0189767350030209045
0.0186262441995388509
0.0183179098523515403
0.0180787338207424181
0.0205862884469567159
0.020219754537037473
0.0198743007240302326
0.0195583010858585218
0.0192847188838142988
0.0190734472150895749
0.0189538891176982173
0.0210274441837838243
0.0207002340872289199
0.0203949242192135692
0.0201222677296160474
0.0198970499945735416
0.0197404542777605135
0.0196821160813370859
0.0214899124883678842
0.0211896076808648845
0.0209071192451162208
0.0206537450384006553
0.0204443621343618383
0.0202990252913013702
0.0202446800517371781
0.0154664922964475766
0.0151029831469421238
0.0147546905022619117
0.014432465947207318
0.0141491532323894942
0.013920815628624893
0.0137691303421016622
0.00260380914911935695
0.00161507361217238013
0.0157182678896730134
0.0145809729015282941
0.0113717407117557845
0.01012147015570951
0.0119066686239169203
0.0149855666255457893
0.0154640019705670519
0.0142379516486839507
0.0113167590683841118
0.0117968931113278403
0.0126596579319493748
0.0129189210989360797
0.0150191059378345232
0.0139323683583093133
0.0131745701924827052
0.0126288889874700116
0.0124064204238356866
0.0163990820829737136
0.0153961668958061786
0.014561539137210212
0.0139441090562372264
0.0134998790606574957
0.0173480571414513646
0.0167098294737018371
0.0160042650099733973
0.0152344157930752438
0.0145090607329925233
0.0176829822648583469
0.0171151274557838247
0.0164462928673820528
0.0157054915842821836
0.0150033450264845779
0.0179321581329230685
0.0173633341914816094
0.0167589348320027406
0.0161391416334875741
0.0155241378968713813
0.0183391377010186478
0.0178199111696959872
0.0172865812656123122
0.0167412199883352417
0.0161832950905556015
0.0187820309522445314
0.0183206809089328099
0.017859931923122907
0.0174037297323757709
0.0169588333362222336
0.0192752566270342138
0.0188764530956717774
0.018496105778461721
0.0181436882073545899
0.017833837826767323
0.0205324877159120504
0.0201556933498414741
0.0197940838521453895
0.0194542460369624207
0.0191459003420709484
0.0188839155763281252
0.0186893115515132241
0.0209787278764578776
0.0206409085222534656
0.0203195880687465601
0.0200239527169205934
0.0197663634540862256
0.019564056875680632
0.0194403704803516909
0.0214500023096452531
0.0211410910194437252
0.0208459087268403481
0.0205744718860541159
0.020339744271239215
0.0201589570948603504
0.0200542453310807514
0.0154325190020688074
0.0150650786277067832
0.0147105419110937861
0.0143791629319663956
0.0140829453356269597
0.0138366890517568342
0.0136596191775927075
0.00385099777069701976
0.00375562492906077834
0.00981186530085944794
0.00925831036717170153
0.0146698352556645598
0.00933051391710239611
0.00830075624031453331
0.0106969813854600124
0.0104921089492377075
0.0141094250011374617
0.010293630229891838
0.0113047904929513936
0.0117116514482366006
0.0115875316315767213
0.0153840043907750943
0.0141381734235675634
0.0130763462459689405
0.0125160268102550831
0.0123699109688344393
0.0166508794368063449
0.0155313548014998359
0.0145296943731733057
0.0138795602325999367
0.01352311315020506
0.0175920409987689388
0.0169755565203525104
0.0161408577369496382
0.0152827252942911405
0.0145525023377440672
0.0177832190198015661
0.0172096960829806189
0.0164881608263535706
0.0157043619937351463
0.015009382698065666
0.0179380791026843046
0.0173551045685999342
0.0167233536504746531
0.0160829827245535031
0.0154693841030005101
0.01829696220617558
0.0177629944838057427
0.0172069957653188284
0.0166345889248505352
0.0160505199751289039
0.0187135726981087387
0.0182321763858020215
0.0177436378336629334
0.017250107972412599
0.0167519706853459238
0.0191940478218483174
0.0187716253538166081
0.0183576702612764063
0.0179567731036993292
0.0175737751838376949
0.020476736371641116
0.0200882451531797651
0.0197088139205872821
0.0193433465669158033
0.0189986195509386502
0.0186844862939807357
0.0184139949295022733
0.020926775519840686
0.0205775015303045865
0.0202392324492113584
0.0199195433512622845
0.0196282368811297042
0.0193784688892320485
0.0191875537092364885
0.0214059148568190895
0.0210877187680484149
0.0207788786247721825
0.0204881196113711264
0.0202264641818605435
0.0200082681584612954
0.0198515560591922234
0.0153930819035950784
0.0150210016798676682
0.0146590775933635835
0.014316885096060895
0.0140054121543939595
0.0137379751594399763
0.013531363116707858
0.00540133050099720052
0.00721216391499144346
0.00563961470362368822
0.00651383278659838603
0.0202470535131400002
0.0146616563070671377
0.0101197888713996965
0.00589929287846636605
0.00669608137926209178
0.0169432654083741564
0.0135844274825338961
0.00918449395072776058
0.00845664993422616008
0.00910550309265216115
0.0166079998613767703
0.0140886434379351513
0.0107250093718800066
0.0106624116487930194
0.0119472730231575293
0.0172288164915543919
0.0160918367891484185
0.0147415170243377688
0.0138795242586035698
0.0135179565776724648
0.0178592132348204327
0.0171606045791262395
0.0161267893494836945
0.0151316072566569527
0.0144275957540630443
0.0178498377269845701
0.0172364326053662531
0.0164368649960268051
0.0156263368853890756
0.0149698454966677736
0.01794983879256375
0.0173488939063453605
0.0166958971351216477
0.0160436060473236955
0.0154314597575896505
0.0182607590899937604
0.017713335337504299
0.0171374536260920363
0.0165425761977574214
0.0159406577140718854
0.0186518788560681228
0.0181508264617094538
0.0176368590128903983
0.0171111288006752828
0.0165709542479029089
0.0191175341479953957
0.0186721311921471365
0.0182262440972373665
0.0177806897575112609
0.0173339307714591474
0.0204232194690335614
0.0200228226518599575
0.019625629373600937
0.0192350828003504046
0.0188555485745338161
0.0184925908533714531
0.0181523661857584395
0.0208748686724507942
0.0205140551091725215
0.0201589334511789939
0.0198155861716394661
0.019491510648943302
0.0191962230095923808
0.0189417067598970576
0.0213599700942370234
0.0210323011664153917
0.0207096318567362853
0.0203994377561754966
0.0201109376947892111
0.0198558529294970594
0.0196486130878123673
0.015349643547118999
0.0149725323656393662
0.0146025650210232193
0.0142485992573634871
0.0139205734233736611
0.0136302602492210257
0.013392014270821144
0.00787956384581782812
0.00406992761067346675
0.00739966642355424122
0.00724714973332798041
0.0201333898522679695
0.0173664483407338296
0.0110290632652487609
0.00678008016262853647
0.00745689474602041855
0.0163368918959235811
0.0154463638260702984
0.0108660397389297031
0.00699232616068917994
0.00787651010444523174
0.0169389111719571057
0.0151551938426568306
0.0103420922996796481
0.00859244596224993835
0.0111364715413439976
0.0176798644393277547
0.016809991864243673
0.0140804023770945731
0.0136518511769567526
0.0136341631531790713
0.0179595271233600161
0.0171965205059471278
0.0161153218577041839
0.0151240078955845632
0.0144369531699644147
0.0178447263357427166
0.017207323775795591
0.0164064155922742372
0.0156150605599363126
0.014982583529344097
0.0179482731905171548
0.0173362366523212852
0.0166812118867604997
0.0160275705301582763
0.0154112537716613145
0.0182249558100870714
0.0176643141962419641
0.0170760278765844792
0.0164709086194260342
0.0158613064980781572
0.0185969079617244633
0.0180783115260061446
0.0175442721403723315
0.0169951826014471223
0.0164278089204107809
0.0190476045164029821
0.0185810846447070077
0.0181073882693058991
0.0176252088859541987
0.0171298166786572927
0.0203736544231111691
0.0199617401378277375
0.0195478276846583025
0.0191342352612574595
0.0187235876358408625
0.0183185126887167142
0.0179200801907881818
0.0208250301784359548
0.0204530920725118047
0.0200819852385665
0.0197165652559319997
0.0193624726928843006
0.0190264315034291177
0.0187164121204344003
0.0213141458404340935
0.0209772794081367064
0.0206412625216123927
0.0203125035796936984
0.0199987073464693681
0.0197093932211536635
0.0194560962304204214
0.0153036467476325606
0.0149214291573502283
0.0145432416101919527
0.0141772658568490896
0.0138324561934261882
0.0135191544956646259
0.0132496477462564332
0.00351892446311718706
0.000650702340214466698
0.0104181101194599345
0.00876621803054148871
0.0206298296694861633
0.0149601186297498197
0.0109394221374110555
0.00997652448651373605
0.0103706558426778211
0.0156395622161239548
0.0149170108270710727
0.0115891002581497878
0.00855061728771056018
0.00984137580400253412
0.0167935575287868344
0.0157414398754525155
0.013738204562362976
0.0120573901745603344
0.0123729821399901317
0.0177737855777317759
0.0169599444409168666
0.0152840059686958959
0.0143280464243344084
0.0141076803692866803
0.0178226636812240311
0.0171059595476072135
0.0162902252245546685
0.0154111009607649455
0.0146892029929319556
0.0177973721974200999
0.0171412881280691085
0.016412574408206506
0.0156902436097396021
0.015054441760486122
0.0179373210371932962
0.0173167897639728285
0.016668214082306728
0.0160232940271179264
0.0154029182566086283
0.0181917990664495731
0.0176163679302092403
0.0170206679251253268
0.0164143321473927926
0.0158026230596263854
0.0185493088983199397
0.0180160612731738411
0.0174671952221019874
0.0169022453686970622
0.0163173385277408205
0.0189857620653587009
0.0185009147683789059
0.0180047623125680172
0.0174948035183943688
0.0169650710889815426
0.0203296029094423118
0.0199071231773548553
0.0194781357987642602
0.0190444565206046752
0.0186075837977068559
0.018168208018860911
0.0177244508638544941
0.0207790501058412007
0.0203969192601153732
0.0200113178039368796
0.0196262663274532033
0.0192461413372808678
0.018875818272560959
0.0185204303338475547
0.0212702147922799352
0.0209248548629081578
0.0205765606125241501
0.0202309326768261126
0.0198945337437993752
0.0195753052452567987
0.0192827811503428516
0.0152565909151667085
0.0148694691546413741
0.0144833379805355909
0.01410576035577258
0.0137448516789700961
0.0134097484824711281
0.0131110263957328835
2.6887155546238899e-05
3.7967963990682117e-05
6.96619553010418402e-05
7.15147753964369659e-05
9.0808906335885874e-05
0.000101710170348858256
0.000132375417077369229
0.000131723052993733654
0.000112002478650376661
0.0001319860764954235
0.000242789314599010345
4.9887729619091007e-05
4.19430497918336012e-05
0.000101358346294071232
6.79654207063676286e-05
8.31253690234834842e-05
0.000123466154583754326
0.00018415529343568073
9.88893941741456566e-05
0.000120143275049569415
0.000200622964400797195
0.000814647355939466318
0.000140988049504386172
0.000273883780660634491
0.00015942320945625942
0.000106176267642896636
0.000128488784966682157
0.000174872576541729982
0.000127191148858224164
0.000126123473808579975
0.000188850067593972801
0.000393674981601535297
0.000822497998278879424
0.000232715292303727024
0.000221364586808991119
0.000412353483087199381
0.000200334463109106358
0.000567516370766825342
0.000701327064059234441
0.000355259991953734127
0.000470491946139433908
0.000704618117457683183
0.00148037156635507337
0.000942318582676170699
0.000117045533818601507
5.61268034257324076e-05
0.000233469552489285072
0.000122305658491225918
0.000719374361475196619
0.00056487148163337044
0.000379582983745468331
0.00207956734672097967
0.00158291009220796986
0.0014502041745799311
0.000877265805120474966
4.88311162773851141e-05
3.08724557653930622e-05
7.63691238306203049e-05
5.16354840950861569e-05
0.000189301065557135792
0.000136510760333866945
0.000114507458013591687
0.000558552636138287366