/*--------------------------------*- C++ -*----------------------------------*\
| =========                 |                                                 |
| \\      /  F ield         | OpenFOAM: The Open Source CFD Toolbox           |
|  \\    /   O peration     | Version:  2206                                  |
|   \\  /    A nd           | Website:  www.openfoam.com                      |
|    \\/     M anipulation  |                                                 |
\*---------------------------------------------------------------------------*/
FoamFile
{
    version     2.0;
    format      ascii;
    arch        "LSB;label=32;scalar=64";
    class       volScalarField;
    location    "0.330000000000000071";
    object      alpha.water;
}
// * * * * * * * * * * * * * * * * * * * * * * * * * * * * * * * * * * * * * //

dimensions      [0 0 0 0 0 0 0];

internalField   nonuniform List<scalar> 
7236
(
0.250040057671064297
0.349200644162222518
0.451955256466579525
0.545890701968413383
0.599210074834864881
0.658083455727275113
0.670077227438720335
0.67845831088624986
0.73461791413841282
0.792045137899224816
0.787517713900744543
0.796080394165325611
0.852026122624579441
0.796884166018360096
0.75357995825663282
0.717870632610901449
0.693731531737277418
0.672253168879720753
0.617612850569512206
0.587127486924788333
0.548562105546103518
0.512920318330365776
0.471179880368221449
0.421084797935637412
0.381399661632573994
0.345516372918403036
0.321919965129774943
0.291483569342812221
0.25355259647988615
0.2187621739541733
0.150784380437942039
0.131504170653037045
0.120550578674121472
0.0877727074827147208
0.0348255901741350224
0.0545372612320029829
0.0577212800253747993
0.051476510206157608
0.00956997392889987267
0.00898139439960791638
0.0153851900838191634
0.0188962216182026847
0.0231480176868215232
0.0258443216927819568
0.045634366870329908
0.0713308931527323331
0.0755981265485953097
0.109949989325895781
0.11641624145615273
0.10957807008788821
0.0914222638795347264
0.103404078829921559
0.0950915900524224034
0.0892368985266953074
0.091510785937188116
0.0800293497875700921
0.0649107577147829962
0.0567360809781025932
0.0542110016525195262
0.0499222773251272178
0.0402136076301383844
0.0331092001059867802
0.0287159863574014927
0.0234850971786768684
0.0173863475050215349
0.010819285127159876
0.0083896772597186059
0.00744706796717045823
0.00540761614015841489
0.00609215830509809812
0.00658146254074343066
0.00755272368106131575
0.00792722458278248034
0.00050977612773653693
0.00839959655839489852
0.0439666345973616646
-0.000347728054816792275
0.000810558074429281491
0.0025523848268328834
0.00229733027560602085
0.00450691983048197384
0.00627980708059377481
0.00847217304379096342
0.0105496693034621489
0.0111474205598745355
0.0104374408697797388
0.00976360539599310795
0.00909270353264869657
0.00787655548753629121
0.00687894313544096421
0.00619321032814906455
0.00579657061568839352
0.00552477501380927837
0.00521927558100325657
0.00483616223907833848
0.00428215525020025217
0.00375969188104691588
0.00318560318931510262
0.00263177481551039091
0.0021387677458952494
0.00159071463199685309
0.00135412252795472435
0.00118343186458665789
0.00105872894713993234
0.000919330204629756169
0.000740431917222720139
0.000547795650290665835
0.000397333508773655623
0.000288851502698206429
0.000187018596138353827
9.63932062095273964e-05
0.000335027305851612106
0.00146872752727313029
0.0282270577111352651
-0.000759124992330194705
-0.000507955123450993824
-0.000143811577168544141
-1.47819506589725086e-05
8.51799916751812817e-05
0.00127248739279018698
0.00230492310931845659
0.00249919852236104873
0.00244856394986650789
0.00244690458125193001
0.00246994576754021311
0.00246678529866093494
0.00241981326725105618
0.00235420537157551889
0.00231937101944610941
0.00227468445841009885
0.00216183345820160702
0.00198997283832034848
0.00179803428197292548
0.00155637561889989274
0.00131765208791178234
0.00109782942648038425
0.000945978394963983599
0.000844303274841175992
0.000730367938594359565
0.000608028829998308838
0.000576152895425857399
0.000541385191866329486
0.000493343749427327524
0.000490840742395027164
0.000403386608088568258
0.000341087857134692875
0.000280007844477421779
0.000148922070987119349
5.96689875390437837e-05
0.000126056415643817447
0.000426370435057046946
0.00985563583440930181
2.13279722650413557e-09
9.43389298531149771e-08
1.1299335724889775e-06
3.61649220614278171e-06
-9.08691991488824301e-06
9.35955496473334808e-05
0.000146432120297533541
0.000299544041306337044
0.00042760267976880772
0.000548292499038462167
0.000626668599077875995
0.000716441880171387224
0.000770397623679566898
0.000785587495629873865
0.000774450309021597035
0.00074721870054501253
0.000681981516517403841
0.000605730700640673587
0.000522612957139474438
0.000451643029331537903
0.000401984471007080105
0.000342559993555652937
0.000332453959412432986
0.000361639386165443397
0.00038181217290316681
0.000374641456181309517
0.000383896314743262593
0.00032976218941480279
0.000252678172315698381
0.00020010777751632594
0.000157006031977569146
0.000116083753761801015
9.27807463737040144e-05
7.44041354286304694e-05
4.22776156053423797e-05
6.4640202878508282e-05
0.000171940166923188634
0.0167528804820703606
7.83539337170352273e-09
1.85302681172034234e-09
-2.12353671768494935e-08
-6.54725552865562321e-07
-3.87577374204060682e-06
-9.88295124747560301e-06
-2.80267796402866653e-06
1.72900222104444978e-05
5.68236769899877926e-05
0.000106705807778281455
0.000147787533240948765
0.000186502768673571257
0.000198349850452855933
0.00019424596911836792
0.000186295111358323202
0.000174127007050041725
0.000162367513137656836
0.00014929616469473787
0.000148117786970452229
0.000153671561609392427
0.000175900511181956024
0.000178338944651788785
0.000167145304444868946
0.000162667867664630295
0.000126802099826646864
9.16316691906923656e-05
6.06255912036796023e-05
3.71528335267199078e-05
2.61103452105070161e-05
2.27592217902666843e-05
2.2235366709352364e-05
2.48504787978296963e-05
2.48509214092901084e-05
2.9392554149074771e-05
3.28690922652624128e-05
3.93106001780701265e-05
7.96052803894040719e-05
0.0167782677313934349
3.49066298476960867e-09
-7.72884974736175558e-10
1.47244743562984558e-08
6.29766123365551123e-08
8.36499976659872652e-08
1.95864273048817868e-07
8.53664155325827919e-07
1.71412647750232065e-05
1.92557247023449798e-05
2.08624650022804226e-05
3.32953353101116727e-05
4.30400032164501246e-05
4.58630014143782965e-05
4.59100763358827367e-05
4.6055039360136053e-05
4.56262184867289327e-05
4.53089546652980137e-05
4.40537481349184429e-05
4.13191689653340561e-05
3.78583054929632176e-05
4.02720511277575961e-05
3.62256829513363796e-05
2.44392520725549757e-05
1.67709471635051695e-05
1.34456642973478742e-05
1.205115064179935e-05
1.08739167140216405e-05
9.67696446420761509e-06
8.79015482981944897e-06
8.89389625018771377e-06
9.38306440545165274e-06
1.03489846899642447e-05
1.07353536409798877e-05
1.53450071764610005e-05
2.24439336353433343e-05
2.54646005634896203e-05
0.000417324354834791925
0.0144387663445597007
2.29209276037637362e-14
3.49914614154537897e-09
3.57894909703152785e-08
2.79489472252814923e-08
3.72913061240085528e-08
7.3908168267087332e-08
1.94236051399295665e-07
1.98822202782854925e-06
4.08809873757654383e-06
3.83458924462455471e-06
6.39239462730647016e-06
7.48954818291900079e-06
7.89304919570545595e-06
8.330973422746695e-06
8.97409992960412617e-06
9.71557499066411524e-06
1.03180089892452936e-05
1.05426667126124813e-05
1.01628485637426408e-05
9.24563671677620218e-06
7.99129364649270644e-06
6.94218851016583575e-06
6.00494091496884631e-06
5.20048887760165915e-06
4.89844523575039438e-06
4.75262348128849347e-06
4.39695247740821978e-06
3.97257052739337503e-06
3.72138948656306922e-06
3.86027044795631816e-06
4.14678934906046974e-06
4.55773035157733267e-06
6.00746580975754184e-06
8.77773195690428658e-06
1.37013459459757351e-05
2.8629429695950452e-05
0.000541069657378825562
0.0116184967722141042
1.32283878869206823e-11
1.46951966379418896e-08
3.04987239895978518e-08
2.82360096074002211e-08
1.89399429464338328e-08
2.72984356289058601e-08
6.48545138495340777e-08
1.2790279180460606e-07
2.78413884386061812e-07
6.14537296721585655e-07
9.97993229914348474e-07
1.289267774560446e-06
1.49007819163028708e-06
1.74680227126417732e-06
2.05752846832366709e-06
2.42226303634426324e-06
2.70466922162918641e-06
2.85696769109114385e-06
2.88363016492077771e-06
2.72107893171706633e-06
2.4882349627527867e-06
2.26874287688924237e-06
2.05615971027069147e-06
1.92244557338387157e-06
1.88287998342021148e-06
1.83698980891900135e-06
1.74045576643158314e-06
1.6045262626644798e-06
1.57630257861943422e-06
1.67424727136564258e-06
1.85510340291182026e-06
2.37508214980952365e-06
3.60044128189665638e-06
5.45896305385633027e-06
9.60394360945732132e-06
1.88987388323918843e-05
0.000664134095314928294
0.0031124549199273285
2.97997713716273902e-09
7.65994056104314292e-09
1.30979710893379711e-08
1.99249552401193784e-08
1.40484126982177355e-08
2.16813012388787105e-08
2.85544304309288261e-08
5.81571078449922532e-08
7.56636751326671118e-08
1.42445284874371995e-07
1.9789547214000428e-07
2.5689459902752812e-07
3.22869230949524455e-07
4.12986333927610483e-07
5.2887643272345167e-07
6.51419108021690382e-07
7.52671940090467009e-07
8.16530434390924981e-07
8.54266014207124946e-07
8.61858884795647367e-07
8.27874729807925929e-07
7.77892730074207593e-07
8.79226882145351804e-09
8.04110476774389944e-09
1.15535565323970726e-08
8.03916769941560905e-09
3.12095641836923489e-08
4.23610665582562536e-08
3.06059023078109043e-08
1.88357046557351443e-08
3.29892549104197844e-08
3.97025110678344429e-08
4.68346567827357135e-08
6.17467392273846412e-08
8.0832834578520856e-08
1.07666992558225938e-07
1.42092900667091447e-07
1.7939393603939413e-07
2.14199605781715612e-07
2.44515751621319327e-07
2.70035096909678763e-07
2.86333577840370877e-07
2.86678948055020738e-07
2.75967460561826419e-07
4.36246115135585346e-09
8.00463466889159888e-09
1.11534040051461921e-08
7.89760299080704702e-09
2.23891848602567614e-08
3.22087915998467272e-08
2.30340169015819797e-08
1.43053905843628372e-08
1.94764507265183896e-08
2.17189485541779901e-08
1.93006167641684372e-08
2.04438924193307342e-08
2.30225600406403752e-08
2.97069321418673455e-08
4.00826627153678832e-08
5.19140598090932031e-08
6.36297591660523065e-08
7.64252735579197264e-08
9.10846293903116329e-08
1.00832661163777408e-07
1.03934549118590505e-07
1.00748391030275564e-07
8.99709113415149197e-09
2.27743820871361705e-08
2.27627206051667061e-08
1.39846709608092217e-08
1.62444947807504106e-08
2.88741703947770351e-08
2.16468438932925149e-08
1.51377168666242189e-08
1.48106868081949301e-08
1.38588134444023144e-08
1.09805197548105673e-08
9.59582358636419103e-09
9.05276858390087896e-09
1.01670751456678939e-08
1.25771419771466239e-08
1.63378162767697176e-08
2.07267454515482869e-08
2.62613653039312172e-08
3.27196570629721328e-08
3.83438289788892697e-08
4.02538013320879396e-08
3.92340125485837897e-08
7.51217281856102489e-09
6.25748374712222101e-09
5.44441574012318555e-09
4.97599180539988969e-09
4.76169143870294288e-09
4.74818412972410634e-09
5.93095199230105522e-09
7.49683649212917139e-09
9.86711393477279345e-09
1.28856178721310338e-08
3.00584440289351479e-09
2.71443611812807711e-09
2.56750266526572873e-09
2.50430911977612958e-09
2.72284812133286162e-09
3.48607602552011462e-09
5.08239876177791141e-09
6.62431522737086451e-09
1.25215214607878001e-09
1.26168980619971657e-09
1.41785139266329245e-09
1.74265170723538201e-09
0.00444828556615358903
0.00946556485643231492
0.0270746216359700614
0.0575671023562834075
0.0982240224134468543
0.134832449109957175
0.14452369066938911
0.17074750595858465
0.330362063455178767
0.521486305881894818
0.528096659741157159
0.498610772193533669
0.435391257351175232
0.610614354004733295
0.698729745068500829
0.667208264152420627
0.6085256740338012
0.585846273093449055
0.549967972616149159
0.505288559385697722
0.486383688470995612
0.43722451073664137
0.418878528599445743
0.377374307674604559
0.343568545167585115
0.317475239047077695
0.285090060536801082
0.25397808334429528
0.217910918182888463
0.187667060097784388
0.156616518031627239
0.146625610238015625
0.122552563039299706
0.0933290175505498698
0.0438233573093762888
0.0518537248026479033
0.0542351677171635377
0.0496690045921113488
2.06199174310501053e-05
0.000470583783668842605
0.0025978910945096698
0.00340726284252496634
0.00412765307099405114
0.00621661539484823916
0.00857450474194455456
0.0111723693757514262
0.0130175331721906432
0.0137540368719531927
0.0134883544805021235
0.0126746427474597224
0.0115469809386010685
0.010467547491435851
0.00877202417029354295
0.00683275274194282585
0.00543260996474408467
0.00400468974562175409
0.00297418640965641098
0.00227058947577809351
0.00176512696692784346
0.00121412764355519759
0.000776498288557788373
0.000954722771847920943
0.00061595280707259616
0.000560735875261366128
0.000428560960490897242
0.000916651509378709232
0.00069820568847299121
0.000219324418139479004
0.000519159782224591355
0.000515283570741069375
-0.000229425527148251381
-0.00050636504882537142
0.000469778166014331528
-0.0001421320837072866
0.00708888789689626504
0.0445246665571899861
-5.5910288288257291e-07
-4.11821540463964814e-05
-8.84324956398414754e-05
-7.28364872028937837e-05
9.15110961094424787e-05
0.00120183175402637605
0.00221221175954702072
0.00314892438222669907
0.00367229850965319123
0.00368016928104103773
0.00355655048287383761
0.00315189227630046894
0.00268305193989934335
0.00240169185071421485
0.00226225327036324664
0.00216685201523675536
0.00210210409825545416
0.00206269719759735216
0.00188285303838214542
0.0016678295445230007
0.00143065224931508781
0.00120596487542350898
0.00103182833744253663
0.000915874093619135454
0.000853666417016892584
0.000708730904147741891
0.000690874299659192926
0.000649025125721255903
0.000683141880452231044
0.0006249453160389717
0.000475388536214317451
0.000334981260820962033
0.000222520778778906818
0.000110911862831333707
6.70363237876202506e-05
0.000147092629430373254
0.000562673420398785741
0.02639862677546587
1.25340780656435929e-07
2.43439735618069678e-07
1.50265510271164172e-06
8.06551371849398634e-06
3.50782724819006413e-05
9.68613382613324166e-05
0.000259003612553360683
0.000388279223626222629
0.000529498590978827173
0.00066656067859234894
0.000763692658882254155
0.000835272234594092167
0.000838465373446621001
0.000839652664872499806
0.000838734549751017763
0.00083596822166798028
0.000798855948960722402
0.000751471633428478915
0.00068039631513879277
0.000635434430149778903
0.00059555562321228126
0.000544779809247491835
0.000496323314995028879
0.000542023929039296324
0.000591802950538113711
0.000632215554003522627
0.000659773927684630069
0.000623039023488049541
0.000568013701314087341
0.000450225665375187625
0.000331852151689669066
0.000228845479999724763
0.000174286198024070074
0.000135405766702527538
4.61098053808328543e-05
6.11098120817738974e-05
0.00015509173356406802
0.0117980362040887594
6.65287430365992817e-09
6.47473721626466943e-09
-4.20263731942429173e-08
-4.12993173897989195e-07
-2.17218787553884921e-06
-4.0544054044033446e-06
-8.02302028117476775e-07
2.9943011452643224e-05
7.18090124377547139e-05
0.000109950970461047978
0.000143635369571297748
0.000182375117904618822
0.000220859880949943643
0.000253891306530696509
0.000265767801621209494
0.000265523387089171086
0.00025359335157545005
0.000244651581402222725
0.00023394221463933566
0.000245219684128778175
0.000276114817104322456
0.000301243476720740007
0.000291698978887503673
0.000279370563777666184
0.000266097423385081955
0.000211398840605806951
0.000153086711658629302
0.00010044275218178795
6.87373616597988996e-05
4.86051352312067797e-05
3.88788650108605707e-05
3.52687405049427531e-05
3.82294671524166876e-05
4.27623445641933615e-05
3.94056523798925996e-05
4.05248754216344686e-05
5.9466731864920063e-05
0.0206037737156246521
1.13689027406382647e-08
1.45473486519785968e-08
2.46448220257128162e-08
5.87935179922077424e-08
1.1399333138489867e-07
3.52265412800731635e-07
3.52818745024612613e-06
1.41912462287792451e-05
1.50233397819327366e-05
2.40541273893134674e-05
3.70308287776630778e-05
4.85845857279849954e-05
5.59699478879692529e-05
5.97376853262312241e-05
6.1416825273352636e-05
6.28555460113452345e-05
6.15193478635448187e-05
5.81702025983425625e-05
5.3792904762310688e-05
5.053070737290761e-05
5.53433866356107634e-05
5.6987281331407926e-05
3.96057081120304423e-05
2.6305228301949553e-05
2.13700531474761733e-05
1.78936095165806905e-05
1.5074396194640121e-05
1.30398518525923747e-05
1.21725962870318899e-05
1.20245121255627878e-05
1.21593539460120596e-05
1.16336744020479702e-05
1.13485435942598903e-05
1.76004492526317058e-05
2.34673232782660587e-05
2.73310056384589784e-05
0.000202352544432429874
0.0187933219324309397
6.39793027754937244e-09
9.94863701627037998e-09
1.96627801985198511e-08
2.24473747549314112e-08
4.74728351656583773e-08
1.28161044914310398e-07
5.88780852554360805e-07
1.33319029369332192e-06
2.64245165944672749e-06
4.67454307869329104e-06
6.93432657269052082e-06
9.20317643969228851e-06
1.08918331711081176e-05
1.25209957225233025e-05
1.37143649082331514e-05
1.44010459739633802e-05
1.4553739956231277e-05
1.42364240656389501e-05
1.35325572941036295e-05
1.23502836743885145e-05
1.10560366406387624e-05
9.96855820272840465e-06
9.02555244716981699e-06
7.8029596765858329e-06
6.64113941368199913e-06
5.74586443917543638e-06
5.279619625941753e-06
4.95580600758068717e-06
4.75512153719420189e-06
4.96714530245989533e-06
5.10103381640959867e-06
5.00519394444447208e-06
6.08332751870827872e-06
9.2151539745734502e-06
1.37483413937374454e-05
1.69500636841333439e-05
0.000360627880257187374
0.0138118510407295916
6.8516325920238533e-09
2.42114032113537822e-08
3.45603829627368297e-08
2.44156393128038667e-08
2.67655915437997661e-08
4.4449230630905791e-08
1.00010663201622935e-07
2.58357431035295536e-07
4.61666563497740069e-07
8.09641535263016064e-07
1.27066805869154155e-06
1.80533558247396619e-06
2.34588584318319656e-06
2.82045487762263745e-06
3.22302649307530902e-06
3.52400355297964932e-06
3.71236169951996716e-06
3.76485941622753539e-06
3.69265596284389082e-06
3.47745783937411265e-06
3.21261447212363075e-06
2.97580453828265289e-06
2.75121455598891645e-06
2.4374808595916814e-06
2.16392351659511848e-06
2.10013272682059783e-06
1.96382627985721839e-06
1.83406205926960387e-06
1.83572113364936125e-06
2.01699922710501025e-06
2.13367865985124629e-06
2.37464655182143019e-06
3.62027106034722457e-06
5.52030035073134784e-06
8.32900998073931957e-06
1.06285147198804405e-05
0.000569643084014948746
0.0031814198860639852
1.08782236934219918e-08
4.35615196052383187e-08
4.40897218395760531e-08
1.97430422431130146e-08
1.92908555277052755e-08
2.5716472680992528e-08
3.30874608698707404e-08
4.10278716525779165e-08
9.55277808315689607e-08
1.52175607731071413e-07
2.45510973743687796e-07
3.63039163571353986e-07
4.95428541373956296e-07
6.27320526255480844e-07
7.52655210085467695e-07
8.61568486584947684e-07
9.48491846585626686e-07
1.00125072995221956e-06
1.01819252646318688e-06
9.93669513105541533e-07
9.50274324014945328e-07
9.05566023211367915e-07
8.52833113286763279e-07
7.78401436491923969e-07
7.64684680209184288e-07
7.60868883352795874e-07
7.38443205090193252e-07
7.20986267079658377e-07
7.64858352898347777e-07
8.27018148930877941e-07
9.31947235671566955e-07
1.36616766258861034e-06
2.09057066744753954e-06
3.37859384379748654e-06
6.16750178941595359e-06
8.24713852231861988e-06
0.000665552273013265993
0.00433261588425679078
2.63690506020243283e-08
4.19839593431268637e-08
1.3129168253861229e-08
1.02948285589682257e-08
1.15486742219276234e-08
1.25865976161089317e-08
1.33854079561316969e-08
1.38980946762777672e-08
2.06073506273818585e-08
3.29856562999594976e-08
5.08226923258759341e-08
7.46400848023485569e-08
1.04294726085219621e-07
1.39342054908374427e-07
1.76161981244498333e-07
2.11983822432092884e-07
2.44730446583060607e-07
2.69775214552433274e-07
2.85271300895438356e-07
2.89291364685493537e-07
2.86560941630646223e-07
2.8008725091870675e-07
2.68923078636115335e-07
1.39167713312338301e-08
2.95041392108817053e-08
7.30312831154358634e-09
6.01050283586007489e-09
6.25286898802769494e-09
5.11528336887881258e-09
6.61392171388249981e-09
7.74345177553790058e-09
8.37519747075901544e-09
1.04383780758636261e-08
1.36872413254085164e-08
1.8100214227061507e-08
2.50590521142050052e-08
3.41774282766247872e-08
4.47053607823887141e-08
5.54089563578298652e-08
6.51070855918510826e-08
7.44351230239869546e-08
8.32304390753261131e-08
8.97999573950315493e-08
9.22809218594882844e-08
9.24105396654010136e-08
3.8571158262759529e-09
1.48454092898705246e-08
7.56175838030743778e-09
5.0511374440313658e-09
4.31864745449206613e-09
4.2158082822807718e-09
4.80395971805910632e-09
5.08990393658446015e-09
4.97472430926851708e-09
5.01245997120841859e-09
4.98979856918216603e-09
5.70960320307344292e-09
6.87533796660114404e-09
9.24327428701614648e-09
1.22536398440766724e-08
1.57520451828243247e-08
1.94486181463939235e-08
2.33251427117452231e-08
2.72287451342772611e-08
3.02766791474769203e-08
3.18683029795253527e-08
3.2261310124659387e-08
6.06813211521695689e-09
1.64317260881684733e-08
4.44071220702880424e-09
4.08735364264349143e-09
3.46485748877979129e-09
3.24277860873515942e-09
3.41011915867294234e-09
3.16782052237164031e-09
2.8715869868166364e-09
2.70559222586970664e-09
2.46305000551209057e-09
2.39864469639310184e-09
2.59261903668633137e-09
3.07267853094601426e-09
3.97518051810807598e-09
5.15621445002848778e-09
6.58881559663386402e-09
8.21251855442301419e-09
9.93166282544864258e-09
1.12957784898196479e-08
1.19870199177807119e-08
1.21465333688023866e-08
1.52571667164426076e-09
1.42825929857784654e-09
1.37621767197581994e-09
1.35145040610254962e-09
1.37845570516930651e-09
1.73540888166903032e-09
2.2398413877720376e-09
2.81913170226246066e-09
3.4611374699521658e-09
4.13080675291930352e-09
7.87762523184651597e-10
8.05528639622087596e-10
8.83689816912437625e-10
1.05229857303902788e-09
1.34043951505000553e-09
1.74281177699313206e-09
2.15208986562360513e-09
2.44866635769829995e-09
4.95853551023744259e-10
5.9740237131906815e-10
7.72077380127974558e-10
1.05217494495252242e-09
0.000678204588778260047
0.000563060685458512968
0.00259982231351276729
0.00435947727733615453
0.00654341332676777482
0.00900608494490759241
0.011105601659286219
0.0133595253074600094
0.0154896237196083687
0.0382205691311166065
0.0413094212561638946
0.0551314329247681589
0.0966602233227396024
0.164051803795707496
0.223599748699001344
0.390523786429602504
0.436066802148157184
0.441109590387381179
0.404539916172188541
0.40682330373956016
0.336991338198946
0.316764369334136209
0.310228990736982735
0.30103611277871567
0.267796973887097278
0.240877539824196352
0.215808283963509706
0.203060850418303407
0.193800761672997895
0.164302226162267639
0.143016936708902587
0.124626467052315892
0.105034671714356237
0.0862340831625016124
0.0498925366910281942
0.0496418094607248839
0.0499003419552934008
0.0469814282746385675
0.000230333622407005755
1.41472253853259272e-06
-7.61974897341878706e-05
-0.000135852667122857688
0.000290295938913928198
0.00113019708842177456
0.00228480077418038649
0.0034805515163724471
0.00488854775226545482
0.00621514668203620828
0.00686136200411156111
0.00536193250536552268
0.00558290070220157208
0.00549220442062850738
0.00522985464415043864
0.00447804984948084548
0.00385067831585532601
0.00325286997499595011
0.00277831905852697928
0.00248190118694237988
0.00217387111986452409
0.00191063059574109683
0.00165471744906797312
0.00136947227856923002
0.00116312877343034975
0.000940414842358126488
0.000882355994143216131
0.000789683809481838014
0.000668667277526566466
0.000574960321123410751
0.000463537630367141871
0.000384172684412639254
0.00018317790361792495
-0.000115440057988183854
-0.00035187175242520273
1.09661413881198837e-05
0.00438345856425990249
0.0403575000320794755
1.08588121615334009e-05
9.56497635048273962e-07
1.7491360051070842e-06
7.84826074806551399e-06
2.76362411766517674e-05
0.000119373722453519667
0.000426311888954354862
0.000739612374468413478
0.000981653561485616982
0.00109550267350806761
0.00114192629892582716
0.00118718358349091148
0.00118771454351221427
0.00118607743666659178
0.0012437721723197754
0.00116839860542233723
0.00106856112239071994
0.000989168911221757242
0.000907561666708880466
0.000837674409620156645
0.000795459186640503171
0.000757818986670603023
0.000683605956660147365
0.000610417843584140835
0.000515918741494171052
0.000455313163514034557
0.00043509085431852598
0.000429395185758461243
0.000377851461838023402
0.000395180065740595064
0.000420104985589839046
0.000337956978840884637
0.000278101552037258949
0.000109172438552869547
4.19399759132728413e-05
5.79999179010500882e-05
0.000178182116659425239
0.0240244263161738907
5.25712510619680476e-07
3.7503250404515323e-07
1.81519147871958774e-07
6.58124452221630058e-07
1.26968694085245115e-06
4.26657266239096949e-05
7.65027519426388585e-05
8.00799868711508966e-05
0.000132069684826321233
0.000183669055551353278
0.000232623366889521068
0.000266330104570738197
0.000278791334090827182
0.000295777157321835352
0.000429469721979052637
0.000390839308831281488
0.000313521588347375683
0.000278129822209559666
0.000257670589887025339
0.000257878669025795389
0.000278238073869957556
0.000322449160179037882
0.00037454855141209626
0.000437122538231118224
0.000510841001858709527
0.000469165362065946463
0.000366526767767477355
0.000277735368138992255
0.000190231173052188507
0.000133100610896011982
9.19322886465562012e-05
7.27931328170191617e-05
6.98358475442160411e-05
6.54951096445277733e-05
4.42868245157093928e-05
4.1751124266812051e-05
5.60425108966786375e-05
0.0129717677864500443
2.066631169964539e-07
7.55505528520043578e-08
2.87399781422495692e-08
5.79297460491033288e-08
1.97396912363236026e-08
2.13336473856879276e-07
2.85309343421676034e-06
9.15126951014572661e-06
1.81288887440831524e-05
3.46159775500713332e-05
4.89984008514607222e-05
6.09094959508719189e-05
6.90190657474708334e-05
7.342830746437826e-05
7.96219212307304686e-05
8.35768006577062325e-05
8.39857265491836529e-05
8.12201648117624346e-05
7.67604509052145778e-05
7.91769057031428843e-05
8.98320280680820821e-05
0.000106500292108748363
7.89984403943611339e-05
6.14277426431538885e-05
5.16007483455286459e-05
4.1376927530516048e-05
2.75413722574786362e-05
2.11090083519160527e-05
1.75642143724614495e-05
1.47050907737539435e-05
1.36403816015749816e-05
1.35414834479741494e-05
1.47985380601389526e-05
2.27126125541611476e-05
2.78764675198056811e-05
3.02260731197344883e-05
4.14464049186638277e-05
0.0205980898046304421
2.50938010085045837e-08
1.32713239628587725e-08
9.76155476276021668e-09
1.8374539712755798e-08
4.07688840224944641e-08
1.43461505421566626e-07
6.03898255276184169e-07
1.61502838032369007e-06
3.4671850245872847e-06
5.69095248743737005e-06
8.28805819131761021e-06
1.10873460620903379e-05
1.36567367280657072e-05
1.58129660118791623e-05
1.75710118362614784e-05
1.90864644677186499e-05
1.99358780785820077e-05
1.96693303048382337e-05
1.87573523997071429e-05
1.73514416374350985e-05
1.58079590634211341e-05
1.42383582859568178e-05
1.26853906026157101e-05
1.07439304581418737e-05
9.00884634809174387e-06
7.95509491641086948e-06
7.10134592342262023e-06
6.19269741396053351e-06
5.51114343684737522e-06
5.47054572440314345e-06
5.21917274621370129e-06
5.25917251101110492e-06
7.1058349387540551e-06
1.04413842980207575e-05
1.55294982591237522e-05
1.97647614887673696e-05
0.000266784095003700056
0.0188604379786644419
3.6297565099826884e-09
4.6618725544721393e-09
4.67355927613543848e-09
6.62419786067073048e-09
1.30576463715800643e-08
3.41352559902705856e-08
1.10952001628760528e-07
2.98303150972452966e-07
6.24369927946987783e-07
1.1027101287505065e-06
1.67853641949711493e-06
2.33583767869574421e-06
2.97770041720313461e-06
3.56063570192004768e-06
4.10504250204878729e-06
4.611423694568804e-06
4.98474173477356796e-06
5.09411667308253985e-06
4.95581492078195791e-06
4.67557432387800799e-06
4.35207289813827724e-06
4.00408181925134319e-06
3.62118079836698736e-06
3.13163895666100469e-06
2.70959067925199445e-06
2.45871517923414147e-06
2.24150451052759533e-06
2.122836830638381e-06
2.13721914062724783e-06
2.18362418966884825e-06
2.15650370507727801e-06
2.59651686505254328e-06
4.13219001118781546e-06
6.3167331295004112e-06
8.65903491739290719e-06
1.35732235246666108e-05
0.000421315951684317304
0.0105216511039089178
1.54249731177637803e-09
1.51399809288103773e-09
1.59758403144667783e-09
2.25113562559012347e-09
5.87728391829436959e-09
1.21115498539551335e-08
2.66112191760906186e-08
5.58033827640154891e-08
1.14547628265220695e-07
2.08710243513356814e-07
3.33393784550742104e-07
4.84212027630971744e-07
6.45711506106956372e-07
8.0713807495507572e-07
9.70371536617592831e-07
1.12901706312395e-06
1.255677690276428e-06
1.30752712141198221e-06
1.30833762876083204e-06
1.27174125184092654e-06
1.21800990099342411e-06
1.14901881101273903e-06
1.0590949504032286e-06
9.42612566459363264e-07
8.46249184045150511e-07
7.89579469533482089e-07
7.51650114024988134e-07
7.69753206975467815e-07
8.25453716651230273e-07
8.69770511346898942e-07
9.84294871860608525e-07
1.52390503432741188e-06
2.45980696908690126e-06
3.64777627224402759e-06
6.26114513376227057e-06
1.1506552057770103e-05
0.000522453156781052747
0.00459789421411001438
1.07366303100882518e-09
1.08009739754868316e-09
1.09145388111571145e-09
1.40253632665387905e-09
4.15533504380847197e-09
6.08055877854849932e-09
9.28421509429232774e-09
1.34057204403364514e-08
2.23695123241762852e-08
3.96605002571481646e-08
6.55928361388746494e-08
9.96070804208292869e-08
1.39517354630966944e-07
1.83838650952486839e-07
2.31266222014191599e-07
2.76254903851426666e-07
3.12624186266725269e-07
3.36418224225755622e-07
3.483487236143658e-07
3.50089791800470239e-07
3.45422782576828126e-07
3.34516038658391703e-07
3.16308640516470658e-07
2.91553220882606499e-07
2.72616137889998672e-07
2.74410787323559257e-07
2.78494136273565565e-07
2.95532141716678479e-07
3.27068547021110655e-07