/*--------------------------------*- C++ -*----------------------------------*\
| =========                 |                                                 |
| \\      /  F ield         | OpenFOAM: The Open Source CFD Toolbox           |
|  \\    /   O peration     | Version:  2206                                  |
|   \\  /    A nd           | Website:  www.openfoam.com                      |
|    \\/     M anipulation  |                                                 |
\*---------------------------------------------------------------------------*/
FoamFile
{
    version     2.0;
    format      ascii;
    arch        "LSB;label=32;scalar=64";
    class       volVectorField;
    location    "0.510000000000000231";
    object      faceTraction;
}
// * * * * * * * * * * * * * * * * * * * * * * * * * * * * * * * * * * * * * //

dimensions      [1 -1 -2 0 0 0 0];

internalField   uniform (0 0 0);

boundaryField
{
    inlet
    {
        type            calculated;
        value           uniform (0 0 0);
    }
    outlet
    {
        type            calculated;
        value           uniform (0 0 0);
    }
    top
    {
        type            calculated;
        value           uniform (0 0 0);
    }
    bottom
    {
        type            calculated;
        value           uniform (0 0 0);
    }
    left
    {
        type            calculated;
        value           uniform (0 0 0);
    }
    symmetry
    {
        type            symmetryPlane;
    }
    interface
    {
        type            calculated;
        value           nonuniform List<vector> 
352
(
(1570.3700302951363 -0.01881647717250233 -0.0560984852399813369)
(1457.51832156305318 0.000971178330240713957 -0.0590553626556456074)
(1345.16838711702349 0.0026617530060797632 -0.0582165740140432458)
(1236.14036751342951 0.00277007031521383715 -0.0572144043945988154)
(1131.48768329920631 0.00312918419184451176 -0.0555687348655189844)
(1031.08686703688295 0.00360607305511269653 -0.0538072380127731648)
(933.972234725635531 0.00411984000244442448 -0.052081761427979878)
(839.267851405474858 0.00471100888023882024 -0.0505794631645060597)
(745.391553688479917 0.00600288545705112211 -0.0500731017515851778)
(651.666841037101904 0.00775856050128244119 -0.048129818365082129)
(559.703569362626581 0.00966786737530197886 -0.0458558691917555425)
(467.582557964903685 0.0122621247891501334 -0.0451440005296471283)
(373.581881814299777 0.0156591083964261711 -0.0440059532804406711)
(281.263457285815832 0.0198165379774634769 -0.0430027615946869321)
(194.078868532179456 0.0229364386265703511 -0.0429099096150662926)
(126.198044646105799 0.0223856951784714847 -0.0420383436896701185)
(1758.59006345991588 -0.0123380115188951103 -0.0366357199523170071)
(1641.89946495084905 0.00204344777945753746 -0.0401704050151457798)
(1524.67714625229883 0.00362848129665967103 -0.0393869251734570158)
(1408.05957717585306 0.00445224484810336722 -0.0389753330797662084)
(1293.79582498182481 0.0053879802717677356 -0.0378869395420281113)
(1182.82950654575097 0.00646447137149640336 -0.0370892308333497511)
(1074.34534572356893 0.00746499536250315107 -0.036345796861379509)
(967.897713508303809 0.0084788169075753414 -0.0355359382721444558)
(862.900767243125301 0.00965677456667781917 -0.0345834161793360517)
(758.767907508278654 0.0110986644111100517 -0.0336500875017202578)
(655.709913684347725 0.0129442147627011825 -0.0325620449723140123)
(554.179030957242162 0.0152478637666321956 -0.0316291720117923975)
(453.459932995561587 0.0186091178717840977 -0.0317191931240430949)
(354.357773360717488 0.0221251485511803243 -0.031405424439589491)
(259.753708869608033 0.0257328522408635588 -0.0312693112619430863)
(176.677179836717755 0.0261765957632216668 -0.0311735298906511728)
(1846.82615202809643 -0.0121758732287284375 -0.0293141612670150438)
(1729.99059435194795 0.00225465403748951283 -0.0323575353150343803)
(1611.27115551583051 0.00479688861971682128 -0.0323462846315599808)
(1491.51947601143729 0.00612080938678203311 -0.0322549176168374988)
(1373.38642080690897 0.00719086041778572126 -0.0308476956648439313)
(1258.5645345837238 0.0082505917913752707 -0.0303192502987784107)
(1145.30728070776399 0.0093016409498870023 -0.0298575100450739934)
(1033.48944923644081 0.0104224372538167399 -0.0292821106177027085)
(923.100050823195829 0.011735602425263102 -0.0286825944674205836)
(814.027463038264614 0.0133658104339958311 -0.0281351491501612705)
(706.53977328304893 0.0152399667572458639 -0.0274768251956393796)
(601.097883496775466 0.0173918631478929692 -0.0268776328984685585)
(497.71640071115263 0.0200325840046225133 -0.0264889320791223057)
(395.873703845639113 0.0235764633444191518 -0.0268284255651617329)
(296.937315098968725 0.027119731018488788 -0.0266056448366049428)
(205.979411265660445 0.0277525076527793506 -0.026651983886371463)
(1881.82574239869064 -0.00873372511472675708 -0.0177925872384738885)
(1764.51744176051307 0.0027494262242349814 -0.021232513367752736)
(1645.24895734690654 0.00516996810842341049 -0.021106399969907718)
(1525.42823695989591 0.00666044091332701135 -0.0207320710457371687)
(1407.10038508444995 0.00811337616104874232 -0.0203640240069570926)
(1290.77391064502922 0.00945208419121818834 -0.0201531512666954758)
(1175.74321123239156 0.0106933992095015369 -0.0199204940428646705)
(1062.08006248753031 0.0119466808938619145 -0.0196656548291863874)
(949.933610106621131 0.0133525222496908742 -0.0194047739988629023)
(839.30668807479708 0.0149657738213478091 -0.0191709594790197765)
(730.24437664163429 0.0167901121425732686 -0.018925994619427771)
(623.234127111461703 0.0187718238379285009 -0.0186028419485009811)
(518.469306156719199 0.0210726982133784754 -0.0183837555100820442)
(415.718368346167097 0.0240310565383111789 -0.0184625256112576908)
(315.486412609129275 0.0279309162861702404 -0.0187715156983682581)
(221.345573979526449 0.028420368878836387 -0.0188083673832795187)
(1900.49990200577031 -0.00726636725487341938 -0.0143880148322472392)
(1783.36630171134289 0.00301258900747669155 -0.0161132889695931626)
(1664.46273427810274 0.00548033180975615944 -0.01622914649946431)
(1545.38170017976972 0.00721967401632575903 -0.0162293788079741208)
(1427.13072517587716 0.00892568555601214869 -0.0162336200290212791)
(1310.19166566996523 0.0103655846101617898 -0.0161417055799988503)
(1194.53639257323584 0.0117319299590731476 -0.0159819142841291645)
(1080.301516415072 0.0130688371406224319 -0.0158222087698458788)
(967.595825803826301 0.0145146709000825956 -0.015671508496755162)
(856.479648768275183 0.0161019446603187094 -0.0155114568088000875)
(747.003983067440686 0.0178629046256652546 -0.0153344818044960658)
(639.439054181620577 0.0197849758885906106 -0.0151442308876207701)
(534.032548190640682 0.0219533003217559884 -0.0149854397777095475)
(430.657787542970937 0.0244607802649616651 -0.0148989373316007027)
(329.232684961178506 0.0283251018062070127 -0.0151282821184606717)
(233.068819506809518 0.029154927890782556 -0.0152012729903630503)
(1908.84961460738805 -0.00596518262512823853 -0.00769066645654539575)
(1791.91951504264034 0.00326551012120350741 -0.0101646228847350854)
(1672.93018632501253 0.00562702210746604276 -0.0102822345475491773)
(1553.89638948219681 0.00755467673133654576 -0.0101359121591381336)
(1435.82629377511535 0.0093283936138425002 -0.0100846900156548978)
(1318.84966173114503 0.0108337272937768497 -0.0100578308862437054)
(1203.06353306919436 0.0122516593096594836 -0.0100000820503498115)
(1088.72381716871064 0.0136926489151583414 -0.00993673026317037043)
(975.925429763043439 0.0151576164644245722 -0.00991104324760347551)
(864.688511573887922 0.0167462439859745703 -0.00983965382216224309)
(754.915773888128797 0.0185304805324717804 -0.00971587159308184671)
(647.083774408105455 0.0203576968342642807 -0.00954934228189359587)
(541.670306954097214 0.0223968688061892303 -0.00944805817575031931)
(438.356795647586353 0.0247424728082620213 -0.00943772307224770811)
(336.764242279613427 0.0284486468880222748 -0.00961169300755070934)
(239.548077531832121 0.0293583418401300207 -0.0096940340957115765)
(1914.28952673746016 -0.0055599769463383665 -0.00451445134368456871)
(1797.09795658446433 0.00351127029784208686 -0.00598603039100353666)
(1678.07467285654866 0.00585554996878157215 -0.00605138906224559053)
(1559.40248639939523 0.00776458723308829767 -0.00601788647867528871)
(1441.80512608266736 0.00962983280208267248 -0.00605827229065278392)
(1325.10269140944774 0.0111951805299453384 -0.00609959059968236995)
(1209.48690974857254 0.0126560065343345775 -0.00611684071062822653)
(1095.40198045757097 0.0140860372608950079 -0.00613399406091535287)
(983.142605031803214 0.015419626223760502 -0.00616206358707802743)
(871.601401504830051 0.0174295231489013762 -0.00625485548469248941)
(760.915170973592581 0.0189855437844023631 -0.00604320179340319796)
(653.14807007835168 0.0205032101541572538 -0.00580423384688283882)
(548.365176705662748 0.0226150477366036384 -0.00574431760706068436)
(445.705477051370451 0.0248950718480938048 -0.00572925285136923704)
(344.634375821893457 0.0284722833384331922 -0.00580344458422064717)
(246.974506341981908 0.0291422940210182488 -0.00579680151505395942)
(1916.28953105189021 -0.00472028180360165462 -0.00145930199514662166)
(1798.9123734839111 0.00368287589618013569 -0.00189823922328871534)
(1679.80786832205104 0.0060834756414094044 -0.00191579741913635551)
(1561.29095589469694 0.00804530712452447387 -0.00191725264296817603)
(1443.96108910125918 0.00977260019853757461 -0.00194617696824253171)
(1327.48969043587545 0.0113572318471127157 -0.00197613898827538438)
(1212.02081545407941 0.0127869602510907333 -0.0019972203671014886)
(1098.12231337041135 0.0140873865238323424 -0.00202317210434133305)
(986.102932165199832 0.0154594248101850972 -0.00205054337115962489)
(873.977277750340022 0.0177065692640569414 -0.00207597454975873156)
(762.695291947998385 0.0187639583898108024 -0.00191922661092355697)
(655.522299173820329 0.0205277260836252244 -0.00186227508778459365)
(550.840837775380237 0.0226651143463803481 -0.00184313952960908612)
(448.189339251187903 0.0250061693810636268 -0.00182326607344797105)
(346.856127900607191 0.0287850098276713866 -0.00181500845170963466)
(248.666496601412774 0.0292874625634441284 -0.00174285823156112066)
(0.0812430902615025458 0.0416045945262333433 195.682775573999464)
(0.0780857747698219806 -0.00298978706001910887 86.7356386852892456)
(0.0753062564713640886 -0.00819490172522331639 6.79605397254931454)
(0.0696949571671257317 -0.012377384867576743 -49.6669760704288947)
(0.060512700181166397 -0.016524354546156788 -83.7428818968935502)
(0.0509104023449937979 -0.0197636640959209103 -96.2070112754858116)
(0.0443608995949782633 -0.0218681792960355829 -87.8171937416266246)
(0.0381763111894583423 -0.021258601735934711 -48.8507280117359457)
(0.0267972246721631877 -0.0154271292253788262 -1.90929715554968471)
(0.0282379229848533295 -0.0126849054788223514 0.918956382860868892)
(0.0247586048624422149 -0.0100467013270403391 1.08892241761255248)
(0.0204424026245509406 -0.00693385101219246795 0.737991562375704735)
(0.0149318123066930659 -0.00398838903219858772 -1.17502726493229925)
(0.00866365127582571087 -0.00159560645146468818 -9.62756539120972477)
(0.0049731162126924371 -0.00185764695183896584 -30.9153003673312554)
(0.00365009873995711907 -0.0026728997812591436 -43.6623229230725514)
(0.0607269391987328572 0.0266846574971661595 339.108428310684815)
(0.0553364244333671637 -0.0140045846424717395 238.495906252881099)
(0.0457234957245751042 -0.0251162258750071109 145.004120085588539)
(0.0324257467453970133 -0.0334083089260462512 49.9169678482720443)
(0.0120808772259987096 -0.0203968465753783315 -14.7383431218520187)
(0.00327732550561930141 -0.00899609874367127138 -26.9009331511653116)
(0.000706230843566236035 -0.00581568756476127935 -9.64176347733084604)
(-0.00101183022424795963 -0.00352893565418167061 3.61285433267057954)
(-9.56474092508372264e-05 -0.000123711438084520817 1.53317308390926232)
(-9.76144316037628654e-05 -6.43278525924351516e-05 1.70396291916610187)
(-9.22093545932707457e-05 -6.17719358981074006e-05 1.6508088180108722)
(-0.000118314422248556913 -5.26097574030322029e-05 1.51997575055712253)
(-0.000173209699373354979 -6.4214586278149257e-05 1.31333198178326205)
(-0.000362588754894199456 -0.000107623206041008388 -0.353546199048232312)
(-0.000519078953789650632 -0.000305924230456921511 -7.02263545229888564)
(-0.000273787217545516269 -0.000836247132343534926 -15.5543034160272313)
(0.0501705427502994114 0.00890423758605475395 463.570592510895494)
(0.0384969097126224152 -0.0202555263287603135 328.413720597691167)
(0.0196002431098185603 -0.0245870120661131376 182.716591173121742)
(0.00841646796582662914 -0.0145713156581094919 73.4310871609613969)
(0.0031196485962365246 -0.00373851661736777311 23.3044939869732559)
(0.00054058368146264258 -0.000799731356761317568 7.17410363136246776)
(2.64709064601358296e-05 -0.000177507794035706306 3.36784857481700417)
(-8.87528027732527494e-06 -5.66729804015021988e-05 2.80998181443724926)
(-4.65319722387008618e-05 -4.30028424525452711e-05 2.25980933736595047)
(-7.89418708120489908e-05 -4.49642351086486803e-05 1.98661286978012952)
(-6.25666858513085908e-05 -4.92472594792330538e-05 1.76889468105362369)
(-6.28011401133248432e-05 -7.04654625619768914e-05 1.6435814756297995)
(-5.52418726972018454e-05 -5.76703144738972216e-05 1.48165822243600376)
(-6.55289136598191478e-05 -0.00012480824347180778 0.548286757043814577)
(-8.320296258942899e-05 -0.000292995699791643574 -2.07341081056701615)
(-5.01514243142341408e-05 -0.000520417401630118501 -5.046845269353474)
(0.0541139153761446973 -0.00575110927267281045 339.463432729143449)
(0.043124519377222198 -0.0240111142255890336 211.895799984922405)
(0.0381989339232581826 -0.0200168237891647956 104.502399204717378)
(0.0110606087199460693 -0.00382393036385588869 47.4771454669537647)
(0.00573713851218492742 -0.00253234608213972383 21.9394790656464345)
(0.000750135505412654734 -0.000534369982634854378 7.25187921961350312)
(2.72002918456866763e-05 -3.59853740591165622e-05 3.18300875598305044)
(-1.20826356122478615e-05 -1.33171721526225607e-05 2.64495503915192209)
(-2.61709740865070102e-05 -2.77940656693342132e-05 2.39811769343311321)
(-3.8065582610028698e-05 -2.97674062126227072e-05 2.13682336118455884)
(-4.30838225859845513e-05 -4.15850952270380766e-05 1.93307388970717509)
(-4.22624627264195756e-05 -4.00396524805121459e-05 1.75793347117129795)
(-5.18102094174180587e-05 -4.2544021123106971e-05 1.58917928449013179)
(-5.72867540078768805e-05 -6.15084286356491994e-05 1.20001852882657478)
(-4.65544075299353978e-05 -0.000116345185673216139 0.26749376444308326)
(-1.13752948447516228e-05 -0.000227879614878398717 -0.614044349449168858)
(-29.7723101636062566 0.0163275253780509402 0.00437656203888867577)
(3.22863935769217614 -0.00408705245543520158 0.00474913309478234343)
(-0.945759166940861817 -0.000137508027421689159 3.47130854538952192e-05)
(-1.6139754825680912 -2.43921214557034992e-05 5.50125816177612307e-06)
(-1.97583597549132417 -3.21791746819067209e-05 -1.51206423068752933e-07)
(-2.16307599239485127 -5.5608291354482241e-05 -1.69114720864462267e-05)
(-2.19680212198729308 -3.37219382206425117e-05 -3.19793879854921633e-05)
(-2.13580640587150938 -2.53731086832920608e-05 -2.42654344484129974e-05)
(-2.05466064007964722 -2.48381195866625923e-05 -2.37054141386415736e-05)
(-1.96146998543109929 -2.40816723665944368e-05 -2.39122629241537495e-05)
(-1.85597933500196111 -2.32575144397480513e-05 -2.34767850207995048e-05)
(-1.73592185995436021 -2.10256467698126566e-05 -2.35176613527450889e-05)
(-1.60946029674694135 -1.02813430540854561e-05 -2.33355655453757308e-05)
(-1.4580193421280101 1.28482201416594772e-06 -1.87028141496928343e-05)
(-1.13969982677254178 -2.77053389525985054e-05 -1.93125097914480565e-05)
(-0.598277784064486062 -0.000163194312375851555 -6.25227659609249988e-05)
(-15.1018726175654585 -0.000589471581846672129 0.00493431293499705954)
(-1.74072172383225587 -4.56913475400535799e-05 -1.99756500917039059e-05)
(-2.05218191541313022 -4.9984537533606935e-05 -9.20775933340738551e-05)
(-2.16906314627233909 -4.25125401544731676e-05 -6.49267013311439519e-05)
(-2.23039597499410869 -3.10479972162517297e-05 -4.40712767942413617e-05)
(-2.22744024764862703 -2.50311946564382847e-05 -2.99593135960619929e-05)
(-2.15731982912130649 -2.28918515828803214e-05 -2.30423243459467314e-05)
(-2.07827814655187204 -2.27063246227079048e-05 -2.2217085825391696e-05)
(-1.99130745644915264 -2.24595426489563718e-05 -2.07744654847721616e-05)
(-1.89891038965547465 -2.23150664941901274e-05 -2.02664873260666012e-05)
(-1.80067993519752667 -2.35230560356035643e-05 -2.05844174503613487e-05)
(-1.69738992700608793 -2.48725578899658104e-05 -2.1907120341019507e-05)
(-1.59562368719568637 -2.30093134828185198e-05 -2.4963768674926595e-05)
(-1.4889098301628636 -1.67083921111475771e-06 -2.5282450647420889e-05)
(-1.2174761329719328 -1.29235321149784461e-05 -2.87109448561995888e-05)
(-0.564669855195299997 -0.000172210480459745671 -5.77841940306201716e-05)
(-4.30563863111874667 -0.000216578016563252437 0.00053239261248682712)
(-2.65294722621423551 9.58095804153221959e-06 0.000103401683330898845)
(-2.36553480855726006 2.23000454867719968e-06 -3.52037192845688654e-05)
(-2.34319101023868814 -1.72239919243444719e-05 -2.95570625410371465e-05)
(-2.28699404905917447 -1.94437100867165215e-05 -2.61897628225221928e-05)
(-2.21649728416910108 -1.86715353128794676e-05 -2.45948108027437368e-05)
(-2.13598499749991788 -1.89393593794718257e-05 -2.24210234398910949e-05)
(-2.05204112834273156 -1.96504918354350567e-05 -2.09692054770759214e-05)
(-1.96889337318213831 -2.07021514560710524e-05 -2.02295531297320185e-05)
(-1.8884348985552899 -2.19923588373698512e-05 -2.00139711796001524e-05)
(-1.8107378428431089 -2.46978734134298416e-05 -2.05042388891097696e-05)
(-1.73861015393818885 -2.86136945364888598e-05 -2.22313373496421559e-05)
(-1.68457721206745781 -3.49495379527125209e-05 -2.50113929520043586e-05)
(-1.65638183086737523 -3.11304121943471515e-05 -2.29768643754715943e-05)
(-1.51611563218823853 -2.91964340827516802e-05 -2.249784199588436e-05)
(-0.900202179236398226 -0.000148019369825214201 -6.34232925965938103e-05)
(-3.3081350774724827 -9.54481654307230329e-05 0.000596389103700439307)
(-2.75348789411543038 1.57390728102900301e-05 1.45904931979463968e-05)
(-2.56404451536854161 3.80676996253651851e-06 -2.36167302430045461e-05)
(-2.42461886167457852 -4.90496768530365033e-06 -2.66686084946360629e-05)
(-2.31497246381336375 -1.12458232883870523e-05 -2.3285958808009264e-05)
(-2.21511174204898431 -1.33620269297219735e-05 -2.02730634495510506e-05)
(-2.12171717070577248 -1.50386840340997254e-05 -1.82482902668792637e-05)
(-2.0339002798941852 -1.68297469733326866e-05 -1.65582798761086267e-05)
(-1.95416055739941941 -1.85180380834498979e-05 -1.5269124744793287e-05)
(-1.88339717129809281 -2.10606373254331017e-05 -1.42037721758503362e-05)
(-1.8205417926630576 -2.53424860635035492e-05 -1.36220858464585643e-05)
(-1.77189386937087079 -3.00029263509074793e-05 -1.31340817507910579e-05)
(-1.75713595403759548 -3.7757915522043645e-05 -1.14844565551425404e-05)
(-1.79124223954354633 -4.10525732943900617e-05 -7.1266534674092056e-06)
(-1.77407508874092823 -5.1787615541918059e-05 -2.26814598912967621e-05)
(-1.31988043805067412 -0.000139273858772224237 -5.59826852201310973e-05)
(-3.66489663316057745 -0.00016060890231558666 0.000934758892744340093)
(-2.65363862590583865 2.25206412654897799e-05 3.27712584426138556e-05)
(-2.5006510054282689 -1.33166966099407569e-06 -9.21094722105630595e-06)
(-2.38503944914645638 -6.95766528287934847e-06 -1.99566287170783145e-05)
(-2.28521678876393741 -9.41448465524402443e-06 -2.07195998680326808e-05)
(-2.18971190105495372 -1.08043979535872318e-05 -1.91434122205715569e-05)
(-2.09692462209560793 -1.18817516439012663e-05 -1.7088243200005029e-05)
(-2.00748769280257866 -1.34298487100455488e-05 -1.50549452083312637e-05)
(-1.92372531639962907 -1.50560425897872144e-05 -1.30639115338622649e-05)
(-1.84674475148711581 -1.70971097378708653e-05 -1.08760056980156157e-05)
(-1.77533822399005903 -1.96069146559380913e-05 -8.12449813537692331e-06)
(-1.71054114553846759 -2.37755606002005029e-05 -4.29689112763257098e-06)
(-1.67845145497081871 -2.66359632716380376e-05 2.28448673638361154e-06)
(-1.70050805418386575 -2.7083147935199682e-05 1.40345257100014539e-05)
(-1.69774075166453797 -1.14845147973568161e-05 -7.55865595693362094e-06)
(-1.37440904571001465 -0.000105557861301754953 -4.70381962672980266e-05)
(-3.39685333006059142 -6.08911152435636242e-05 0.000438043254308295227)
(-2.61585174267865117 3.67302984086985987e-05 9.46909180826166198e-05)
(-2.4127877534446025 1.14910779467184011e-05 -5.90834289519661593e-06)
(-2.32940719472034408 2.13336913763027673e-06 -2.35481725753996651e-05)
(-2.25658244320980872 -2.40707324318625389e-06 -2.33069473483999899e-05)
(-2.17381429683568994 -4.74911891733137696e-06 -2.00039848581419366e-05)
(-2.08295738632554572 -6.44016180699098739e-06 -1.63307005142656415e-05)
(-1.98767339153998579 -8.02974345793019036e-06 -1.3272527054768699e-05)
(-1.88955574556799477 -9.65055012841239399e-06 -1.06065239868140262e-05)
(-1.78945581950007049 -1.07447148977343292e-05 -8.00063958049458011e-06)
(-1.68588319319117974 -1.08390487490650949e-05 -5.29983254096162332e-06)
(-1.57514992454512281 -8.86135200049655605e-06 -1.48487229164491895e-06)
(-1.45693049497703808 -9.77769802595749995e-06 7.86502161019447402e-06)
(-1.3648744465678524 9.74653909152254756e-06 2.82904415207345225e-05)
(-1.13572934044215246 1.19312464920988673e-05 2.01426094077760008e-06)
(-0.5081210554933413 -9.88100004353464044e-05 -4.18809012266430555e-05)
(-3.43346246933524046 -6.2611689250971243e-06 0.00015104846393802635)
(-2.80059193425158481 5.98454907145106252e-05 9.10191754895551424e-05)
(-2.460035931617083 4.17507443859110164e-05 -4.13040719484901747e-06)
(-2.3454480863099394 2.21451079481997384e-05 -2.53640449119850601e-05)
(-2.2842914712995479 1.50524145672147831e-05 -2.57004701959087802e-05)
(-2.20253281460414652 8.06370531622983963e-06 -2.11549510314173287e-05)
(-2.10277477722715878 2.4314925347688651e-06 -1.59894480895977537e-05)
(-1.9931467537070704 -1.37304593914967529e-06 -1.16908020659362824e-05)
(-1.87659782838176503 -3.60351160604710123e-06 -8.7567509118515223e-06)
(-1.75226200085789485 -3.87026763178863768e-06 -6.20822627444722443e-06)
(-1.61630941701215858 -9.94381367853544536e-07 -3.1261926286900974e-06)
(-1.45531466411000077 2.72770976342078109e-06 1.62478609253604887e-08)
(-1.25123138796211131 1.2649381281736439e-05 8.67960061033846946e-06)
(-0.977022039730318981 3.73525857107241544e-05 2.63150461984211987e-05)
(-0.421981327963026398 2.2013390620056184e-06 2.4479297926914676e-05)
(0.274356534066927393 -0.000184438746025112574 -1.888140204985884e-05)
(-3.74292078953008689 2.31887758778962281e-05 4.22417005421125576e-05)
(-3.22444002877245017 6.6609922120168023e-05 3.00866770041508425e-05)
(-2.77896272926749033 6.70206231150838284e-05 2.32320793684268135e-06)
(-2.53513080439260907 5.49643443476853258e-05 -8.54301931626182589e-06)
(-2.38953034627833061 4.07989459851104813e-05 -1.08355279554762703e-05)
(-2.272195344737721 2.70534318724492676e-05 -9.52903292226111013e-06)
(-2.15061421306665368 1.36588787541570149e-05 -6.93900746188334677e-06)
(-2.02195356537938409 4.5407014574973897e-06 -4.76564113459768178e-06)
(-1.89032627388013763 1.51431754499267964e-07 -3.34577525259115723e-06)
(-1.75429871676929205 7.30961219322200219e-07 -2.09076123883718635e-06)
(-1.60765880332448718 1.69938779418548176e-06 -8.74686289005684429e-07)
(-1.43206863417910557 9.60900204559543911e-06 1.21729289122626719e-06)
(-1.19677476875670696 2.11047881114963178e-05 5.00364793005573377e-06)
(-0.77553195793722296 1.1934718540805653e-05 1.27214280376746277e-05)
(0.155044659775175647 -0.000156371678290424462 1.49093373895081098e-06)
(1.04826262362808764 -0.000376351146173990151 -2.44024377524415829e-05)
(0.00638445051650827784 -87.2382171522291259 -0.0129074552964643496)
(0.00874060135132306154 -100.68408285928966 -0.0115071735100670848)
(0.00755555524061639425 -106.951507436765752 -0.00937255558914928781)
(0.00846417368590569874 -117.103834742469161 -0.00741032962223861849)
(0.00813365707823202402 -126.801569759971741 -0.00724091760825308368)
(0.00696125216830038342 -121.537291309525713 -0.00369776381010482802)
(0.0106040223096265773 -115.992898542341521 -0.00197107240792711866)
(0.00678044236785985046 -142.435656805048808 -0.00176901634384998342)
(-0.000899265610550207943 -14.6485633247002003 -0.00149690464016552656)
(-0.000879173860854542836 -20.9250200038430734 -0.00114250510641146692)
(-0.000916652383994229865 -26.2645800534154397 -0.000938336257616953062)
(-0.00101625178044772242 -33.6572043455270631 -0.00079625450064951895)
(-0.000847505183234831196 -35.069183340745127 -0.000959173699205317031)
(-0.000841184350497632574 -27.5954957812822208 -0.00054301255659999683)
(-0.00114928855502502425 -25.4762012523083357 -0.000105193939936443207)
(-0.00169416753381862678 -48.2859163538761251 0.000158891074617273874)
(0.000112127751776554873 -8.77310422851194005 -0.000379989006934651323)
(0.000173995797345351288 -12.0838948878406161 -0.000332170996402260952)
(0.000210373363102855563 -15.1157583851081032 -0.000305178033296988564)
(0.000204429334233062156 -17.2646353030410538 -0.000242692527710923272)
(0.000130095956780065461 -16.6328691017829549 -0.000173824342000527014)
(0.000151122341667443152 -15.1538411093482459 -7.95891307942396016e-05)
(0.00013746133574093003 -15.7148632031606947 -7.46794739953346757e-05)
(0.00039268518261778286 -18.1870975972537536 -3.96838257794928536e-05)
(0.000150120678116006008 -4.96762935287699658 -0.000166760101730552675)
(0.000246150195641032447 -6.58690674821655264 -0.000167046626330066031)
(0.000253604479347327503 -8.14809036414077958 -0.000161246274026575988)
(0.000217514050041330161 -9.26326919093872903 -0.000142483990313570377)
(0.000242966991916246654 -8.91656241343039291 -0.00012390616680467618)
(0.000235893386472260864 -8.17360419448590747 -5.64223424131036995e-05)
(0.000222903316445285032 -8.53624184464504943 -6.45342892587183123e-05)
(0.000295019924256597786 -9.522162583978103 -5.30632404328822252e-05)
)
;
    }
}


// ************************************************************************* //
