/*--------------------------------*- C++ -*----------------------------------*\
| =========                 |                                                 |
| \\      /  F ield         | OpenFOAM: The Open Source CFD Toolbox           |
|  \\    /   O peration     | Version:  2206                                  |
|   \\  /    A nd           | Website:  www.openfoam.com                      |
|    \\/     M anipulation  |                                                 |
\*---------------------------------------------------------------------------*/
FoamFile
{
    version     2.0;
    format      ascii;
    arch        "LSB;label=32;scalar=64";
    class       surfaceScalarField;
    location    "0.0599999999999999978";
    object      alphaPhi0.water;
}
// * * * * * * * * * * * * * * * * * * * * * * * * * * * * * * * * * * * * * //

dimensions      [0 3 -1 0 0 0 0];

oriented        oriented;

internalField   nonuniform List<scalar> 
20390
(
4.15433853577630263e-07
-1.15120496604897132e-07
-5.37371300678779631e-09
-2.60325323732819902e-07
8.19721403103090042e-07
-1.37912896654879995e-07
1.58706711871664364e-08
-3.02226599779963368e-07
8.68439140839163498e-07
-1.18550287463989397e-07
9.61410339374921495e-08
-3.73625405163871281e-07
6.94984083711721745e-07
-4.42982305441657137e-08
7.62913006462239954e-08
-2.8540885187861698e-07
4.36642363539249993e-07
8.47965588043562837e-09
5.06441621773487529e-08
-2.11557419280215973e-07
2.62528095368983838e-07
2.93592332470566242e-08
3.57434526333544831e-08
-1.69215021645326788e-07
1.1965835745496863e-07
3.01631808940021431e-08
2.38703669515858426e-08
-1.04651194118640825e-07
4.35192001881850766e-08
2.2076926111861814e-08
1.3968557670790746e-08
-4.92554057629855671e-08
1.57412219202027794e-08
1.23874046164318439e-08
6.49988945242376059e-09
-2.43893951537821281e-08
5.17304887748954697e-09
5.12499938721831853e-09
2.45748449778947134e-09
-1.23507941360470171e-08
1.49755048332116979e-09
1.55788928110891025e-09
8.23313041195606879e-10
-4.6605644990766775e-09
3.78805220987471376e-10
3.69518136252765293e-10
2.54693767792954656e-10
-1.46574276220367206e-09
8.61140977475305968e-11
8.68285414002151997e-11
6.92128447288493747e-11
-3.71180709488927713e-10
1.80234672471615291e-11
1.74147657715712201e-11
1.61610908323555592e-11
-7.99524069373033342e-11
3.40928927655333441e-12
3.28971475495804106e-12
3.20855387664525972e-12
-1.50103086810309477e-11
5.90867852227310781e-13
5.65149181713667249e-13
5.52161974063344751e-13
-2.52119196966797238e-12
9.69905709399726865e-14
8.77275768128922746e-14
8.18858038123618511e-14
-3.76959169096788016e-13
1.63969888407939515e-14
1.18983628280373249e-14
1.0760000272187746e-14
-4.84877463892811337e-14
3.28596216539645374e-15
1.58295192167465474e-15
1.35831400620764196e-15
-5.69023013572434879e-15
5.25372445280137671e-16
2.11385166176874618e-16
1.73707096817541636e-16
-6.49341104558011209e-16
5.99130377470401905e-17
2.55996797822969512e-17
1.76994690463761329e-17
-7.41913035035182931e-17
5.87327224413451049e-18
2.76337396094539579e-18
1.62426355278761085e-18
-6.93988191298996168e-18
5.3307253975775687e-19
2.74731993136561866e-19
1.37718793379622154e-19
-5.96710042167706888e-19
4.43191557890564524e-20
2.52509751195820434e-20
1.07596005563751663e-20
-4.72000281396897578e-20
3.35905613764452841e-21
2.14069831648648501e-21
7.72741692376997958e-22
-3.42898414360390139e-21
2.30957613575690896e-22
1.66843655186680336e-22
5.08639965954685325e-23
-2.28135357885062119e-22
1.43181826530499552e-23
1.19034760539458811e-23
3.0568971126639464e-24
-1.38485069367160046e-23
7.9417434811266578e-25
7.73183278923563965e-25
1.66946369568282952e-25
-7.63392218387537766e-25
3.90215259274835963e-26
4.54152788264752509e-26
8.23601191444761359e-27
-3.79897736410655414e-26
1.67673492189101105e-27
2.39191694780471441e-27
3.64317330760440214e-28
-1.69419846746523466e-27
6.19453026914517186e-29
1.11736710054127735e-28
1.4315574174937612e-29
-6.70826382047249783e-29
1.92259399307898427e-30
4.56432620934733507e-30
4.93727259304595525e-31
-2.33030481226803784e-30
4.85148386458508348e-32
1.59948375335246965e-31
1.47084847614590852e-32
-6.98958488064811081e-32
9.47609455301949495e-34
4.6816300578343772e-33
3.70083906192565536e-34
-1.77013422972609261e-33
1.32204104849906188e-35
1.10026569008524193e-34
7.60231637107005271e-36
-3.65908923799457751e-35
1.1626185172359376e-37
1.94781742638507771e-36
1.20464039822414879e-37
-5.83351605998492341e-37
5.32453029073842299e-39
2.35732749642574463e-38
1.33866012148519131e-39
-6.5937773033564546e-39
1.8075298873169757e-40
1.1580899861675029e-41
-5.81713457594002312e-41
6.57268462623126711e-08
-6.51948882802879402e-08
-5.17967794649537783e-09
-6.06914388938245143e-08
1.71277759927333e-07
-1.22108930836431651e-07
-2.51800785553998157e-09
-1.47803631027954181e-07
1.77682131176263653e-07
-1.01976726939855793e-07
2.06796009051408323e-08
-1.7877286775841361e-07
1.43120036597140968e-07
-4.05066243195149685e-08
1.14935027931205743e-08
-1.71813237001957431e-07
1.07062954314713929e-07
-9.77761864366121444e-10
1.48330925279565731e-08
-1.40814095464973978e-07
1.00303107241638382e-07
1.2909713296336182e-09
1.35002620373343297e-08
-1.10641354558418241e-07
8.04185215330120354e-08
4.10485316422149512e-09
1.05951696643105904e-08
-9.51942686530185863e-08
4.56305857133939024e-08
8.09919276940302971e-09
6.52832358280277482e-09
-6.45687680663140568e-08
1.72275738601542354e-08
7.33217053625427705e-09
2.85946475321848969e-09
-3.48984285795868635e-08
4.53785972061995561e-09
3.81020981382096687e-09
1.0926142493486777e-09
-1.41830755656517482e-08
7.85684498387598967e-10
1.37951379586566703e-09
3.46166786363596697e-10
-4.1980704453083969e-09
2.21121843990938947e-10
3.17568700379716453e-10
1.36691631113801169e-10
-1.01801401163424518e-09
5.76103149906513174e-11
7.54864441475816147e-11
4.51261564073722743e-11
-2.68598023637869096e-10
1.25183470119345875e-11
1.82998769344726624e-11
1.14837686514175449e-11
-5.86913563105688519e-11
2.46576703332891855e-12
3.67305230703913707e-12
2.4211649828326126e-12
-1.14844604417259094e-11
4.45160171302368461e-13
6.67044744556233581e-13
4.3262586399462452e-13
-1.97612328370860125e-12
7.68952549761337596e-14
1.09001491359399152e-13
6.56389304100105456e-14
-3.00118367157883111e-13
1.37177648108934361e-14
1.59641289852003986e-14
8.97376621344010622e-15
-3.90433511111341937e-14
2.96156255581115084e-15
2.28736884362952195e-15
1.18137490284870532e-15
-4.7329291578248915e-15
4.66241718744414909e-16
3.22203457863378973e-16
1.53742476794012662e-16
-5.57642202298192541e-16
5.20905823480562862e-17
3.90771515344921343e-17
1.54194025009595469e-17
-6.39640491640972419e-17
5.16214917252896714e-18
4.26866758498007408e-18
1.42728841193155981e-18
-6.03487392325390551e-18
4.72419551815372528e-19
4.30171645710820184e-19
1.21986742298796641e-19
-5.23133354280841723e-19
3.95890707835562596e-20
4.00794198514453069e-20
9.60531089382485584e-21
-4.17165537844503424e-20
3.02427524495788125e-21
3.44405460466745652e-21
6.95228665847924934e-22
-3.05511056804489415e-21
2.09588353043922706e-22
2.72089671451562753e-22
4.61194025060469232e-23
-2.04898661082458319e-22
1.30971882367045244e-23
1.96794379905837513e-23
2.79352638300094385e-24
-1.25382667198985207e-23
7.32313038770772577e-25
1.29606214663849829e-24
1.5377131909541592e-25
-6.96758534509955835e-25
3.62763742653433275e-26
7.72039386621688786e-26
7.64669753032699375e-27
-3.49559664638748377e-26
1.57176027201492442e-27
4.12470148556596095e-27
3.40982675312426199e-28
-1.57169065773148827e-27
5.85622041052940104e-29
1.95521572679144882e-28
1.35082995814100013e-29
-6.27477445392442125e-29
1.83358642001920158e-30
8.1078842480556129e-30
4.69756247864540992e-31
-2.19803935354837267e-30
4.66945388843052584e-32
2.88586705720478966e-31
1.41129729081995083e-32
-6.64934498868155584e-32
9.21030510171349754e-34
8.58578812865545059e-33
3.58197361204871172e-34
-1.69880661878450666e-33
1.29906520081696235e-35
2.05327844606385081e-34
7.42535743713865399e-36
-3.54400423557179409e-35
1.15034350202460125e-37
3.70789957725030586e-36
1.18824279294180255e-37
-5.70633580054477358e-37
5.34804731046587674e-39
4.5284578630476826e-38
1.32960825103197333e-39
-6.48524470934419089e-39
3.59569584398472876e-40
1.1691540481960888e-41
-5.83038993999223706e-41
3.00690508094314198e-08
-2.80360758861581281e-08
-3.44252755563658214e-09
-6.658012504972112e-08
6.96309151847676305e-08
-6.93285093914509204e-08
-5.76709883116440646e-12
-8.95827801963180553e-08
5.53748388568062905e-08
-4.3534952479209059e-08
7.79632739478294468e-09
-6.74528229208024542e-08
3.09120731781488885e-08
-7.83134607592366279e-09
4.70532540110410177e-09
-5.57954568221082988e-08
2.15188740912139822e-08
8.63249109869569497e-10
5.35259644770319449e-09
-4.55095352578456395e-08
1.72692034133884138e-08
1.4445704378238063e-09
5.57206075528862611e-09
-4.60843938855566679e-08
1.41744821913290527e-08
1.08457008731385948e-09
4.88584497163058699e-09
-3.52636224658819474e-08
1.04385744928098732e-08
5.34098123181324587e-10
3.51393881039095476e-09
-2.10353455893276301e-08
6.53756416574790709e-09
-1.38713800813991839e-10
2.44336731708396838e-09
-1.18466676649563263e-08
2.71168654444919075e-09
2.91439636765326787e-11
1.1383999186315225e-09
-5.93292741853883072e-09
6.81377737487187883e-10
1.84736663371455244e-10
3.30169201583335684e-10
-2.29720453313384986e-09
9.96370681955988291e-11
1.20164930792860648e-10
7.65244946530294515e-11
-5.77695588589496253e-10
2.10432164408640127e-11
2.69154368129637087e-11
1.78562104211472732e-11
-1.22408338170998813e-10
5.01804697141695598e-12
7.32948861486552704e-12
5.18889689018987953e-12
-2.76221841147654887e-11
1.05650765010198693e-12
1.720822030468769e-12
1.10983712014066247e-12
-5.48958708418635301e-12
2.04169931836816324e-13
3.53706273473112522e-13
2.08725924556854073e-13
-9.73056326302132327e-13
3.98939723157600735e-14
6.32619279956907811e-14
3.30030793980278658e-14
-1.51276534250492562e-13
8.31618506512238787e-15
1.05355649467292851e-14
4.79045628774085148e-15
-2.04436957065321624e-14
1.92580898885052969e-15
1.64026792795740631e-15
7.08993403647575077e-16
-2.61396121824050113e-15
2.85299174794126455e-16
2.34777803046753027e-16
8.90432466808893436e-17
-3.46343166038507175e-16
3.05963198495314235e-17
2.80822257493098092e-17
9.00198607764986944e-18
-3.72422452373998795e-17
3.06739092877843052e-18
3.07693945400529327e-18
8.40969449643647629e-19
-3.54048014979629761e-18
2.82734414151249752e-19
3.11673593138766489e-19
7.24363071890666948e-20
-3.09230609311009501e-19
2.38380738660013292e-20
2.91745451652990896e-20
5.74359820423166276e-21
-2.48333773050089334e-20
1.83117634943223161e-21
2.51659435253258426e-21
4.1838318809841814e-22
-1.83048941714356031e-21
1.27561595035232418e-22
1.99443441418255096e-22
2.7918237955902472e-23
-1.23503078582420908e-22
8.00995518853416041e-24
1.44613522801221485e-23
1.7003669677648236e-24
-7.59969255062292243e-24
4.49903779753210873e-25
9.54210315508902299e-25
9.40817133593850001e-26
-4.24529265177583014e-25
2.23821991067058411e-26
5.69152388763636149e-26
4.7012853585841309e-27
-2.14032665873850978e-26
9.73677410474069138e-28
3.04307124613102501e-27
2.10608667480219428e-28
-9.66812162328319298e-28
3.64160435177102183e-29
1.44280120292603355e-28
8.38005151180585257e-30
-3.87691476109517683e-29
1.14423365479366769e-30
5.98087476901145506e-30
2.92637302689510536e-31
-1.36378068325672483e-30
2.92341624233117231e-32
2.12671182193571505e-31
8.82670245506130104e-33
-4.14210943899058794e-32
5.78282694495745419e-34
6.31639011872681199e-33
2.24869771074665754e-34
-1.06224959593347757e-33
8.17473880171597937e-36
1.50653213773639409e-34
4.67775714360113725e-36
-2.2238107882139473e-35
7.14804396535245484e-38
2.70951999527974387e-36
7.50864286156323e-38
-3.59172984194903381e-37
3.16665407584717768e-39
3.27005172002455045e-38
8.33827553976887764e-40
-4.03501866212333597e-39
2.67558866872985367e-40
7.19937076519306689e-42
-3.5957004541510742e-41
6.5972829096955348e-09
-1.20783448582393548e-08
-2.09522903507893201e-09
-1.1868397037990359e-08
1.88299787461784185e-08
-3.16923375019819084e-08
-1.1059303519804127e-09
-2.72556106565294876e-08
1.07844877072002341e-08
-1.10631746458039458e-08
2.02527047841363017e-09
-2.55576292816265308e-08
4.93350499339446393e-09
1.8272195836658822e-10
2.24132559022599914e-09
-1.57742676539414127e-08
3.91934603417798258e-09
8.69297867954816936e-10
2.21964319239015404e-09
-1.5797269650271507e-08
3.84685346046298613e-09
1.01302351812524007e-09
2.47125507298569784e-09
-1.24549794333772321e-08
3.71844217897356939e-09
8.97913427331707076e-10
2.16081454030014669e-09
-9.55543248573909101e-09
2.95613346612409485e-09
5.95178032408965651e-10
1.4847774752941923e-09
-6.49304157099712105e-09
1.88011150847437614e-09
1.85025029841580818e-10
7.76807826675283785e-10
-3.79346559092139993e-09
9.34910309683055374e-10
-3.12058658128856122e-12
4.03378877991194862e-10
-1.8852309969865004e-09
3.16577758390096689e-10
9.79363746781561287e-12
1.532448928874892e-10
-7.4835005256627638e-10
6.38007888375535136e-11
1.78615511514193085e-11
4.09828714122112605e-11
-2.30203993357193173e-10
1.26234121349231578e-11
9.58566981597300361e-12
8.87677291646595179e-12
-5.1546694817720119e-11
2.73487163617858844e-12
3.20888009101326104e-12
2.34690175415615427e-12
-1.21015704704905344e-11
5.45783388846789139e-13
8.4878755830800271e-13
5.13694133742025349e-13
-2.47864161464373039e-12
1.07584236795785503e-13
1.890360008562726e-13
9.7069116980443909e-14
-4.50010494953329889e-13
2.27488497512219247e-14
3.71531253277290039e-14
1.64120456892960321e-14
-7.01234724991677437e-14
5.93222652404848583e-15
6.66417186786270132e-15
2.62151608896835291e-15
-1.00565150807217758e-14
1.12378870824976013e-15
1.12855243198659781e-15
3.95402579876590112e-16
-1.37732447645581583e-15
1.44466348060212407e-16
1.51019026310992743e-16
4.51202037138331378e-17
-1.81792420307852376e-16
1.5851766954669547e-17
1.8116605181431414e-17
4.61873526354830785e-18
-1.90898986845736536e-17
1.60511189999146767e-18
2.00063372449845621e-18
4.35617824054035154e-19
-1.82947571608987882e-18
1.49052525374974928e-19
2.04253506868800852e-19
3.78343931382868958e-20
-1.61093310734210667e-19
1.26484069526091983e-20
1.92574716015486936e-20
3.02233355660400864e-21
-1.30334879320759133e-20
9.77334972274105818e-22
1.67183019589719516e-21
2.2165343212067436e-22
-9.67223876987065809e-22
6.84517102659020748e-23
1.33281032661423009e-22
1.48822940976858758e-23
-6.56628996947658406e-23
4.31991950437640506e-24
9.71691845256666063e-24
9.1160170255831683e-25
-4.06367007879291392e-24
2.43781134218539374e-25
6.44394791801046085e-25
5.07080184087654601e-26
-2.28211626064930509e-25
1.21813051981962454e-26
3.86162826070569437e-26
2.54652099284928896e-27
-1.15629471641783446e-26
5.32121154359654336e-28
2.07375789829042322e-27
1.14613932770378098e-28
-5.24759707666490973e-28
1.99802414418926124e-29
9.87289933781588876e-29
4.58065783243367847e-30
-2.11360845026480157e-29
6.30166113782609119e-31
4.10863130177180986e-30
1.60633062988378506e-31
-7.46634703795078446e-31
1.61581683431365017e-32
1.46638184934917585e-31
4.86455729931726706e-33
-2.27681428098229295e-32
3.20728442495141786e-34
4.37047801233463693e-33
1.24405266409433872e-34
-5.86136870146329829e-34
4.54886640380214833e-36
1.04584292900117063e-34
2.59737279493499803e-36
-1.23158099100853815e-35
3.96263943478237246e-38
1.88652466063883157e-36
4.18377223849856596e-38
-1.9961049311093421e-37
1.75646134407950002e-39
2.28083011551564151e-38
4.65597037494598655e-40
-2.23433615410084927e-39
1.8985268260577845e-40
4.02172427324780018e-42
-2.00511819771966735e-41
1.01459182245084429e-09
-8.09609534977703838e-09
-1.06316525558758963e-09
8.44490147109351891e-10
2.44885081108980091e-09
-1.15221510864803954e-08
-1.51002616932581834e-10
-6.74422408801818064e-09
1.54981242837903259e-09
2.16013105690182205e-11
1.31165198009960293e-09
-8.69772463146788388e-09
1.08647131454382854e-09
6.58726796402746997e-10
1.43377586369867643e-09
-4.42913473530161785e-09
1.20672797854005861e-09
8.20931999533755919e-10
1.11970608804723648e-09
-5.00256367878218458e-09
1.36818734672515431e-09
6.78430936387748745e-10
9.84727901387201246e-10
-4.40300470105544735e-09
1.34413030987810038e-09
5.12127727030306611e-10
7.95010052765350549e-10
-3.47148516662248442e-09
1.09861438192874661e-09
3.12295125359260095e-10
5.42520632633609913e-10
-2.39520940257729819e-09
7.00994391463220868e-10
1.41107174116275307e-10
2.94961150672658918e-10
-1.42561209366019791e-09
3.37002526542083971e-10
3.67783651680574135e-11
1.29838318633611366e-10
-6.8202638148722977e-10
1.2200975652849915e-10
9.0245488349456607e-12
5.08823629311181535e-11
-2.67303748712068726e-10
3.03280546471399068e-11
6.84146643226256327e-12
1.57454929932337303e-11
-8.31521210508483899e-11
6.22760703402343528e-12
4.3160499173690128e-12
3.71664960425644534e-12
-2.11100974041214888e-11
1.28704963652649046e-12
1.42969617942094561e-12
9.77222291762837581e-13
-4.99044138965619357e-12
2.57772362836864631e-13
4.09395973164676811e-13
2.20458994640537832e-13
-1.05297847433674448e-12
5.49849346936891579e-14
9.75224812756628226e-14
4.35146983081158755e-14
-1.92455620110757359e-13
1.35550187216462061e-14
2.09483140565356123e-14
7.72543834194765958e-15
-3.10502262394563371e-14
3.42947014307780242e-15
4.09343744049594046e-15
1.33426189736168307e-15
-4.69982372001142747e-15
5.70356430915218293e-16
6.59002484901521371e-16
1.89112707960577782e-16
-7.1094016917635451e-16
6.9055060365174618e-17
8.72457353908777968e-17
2.13406568071759743e-17
-8.63511057961716354e-17
7.6802817065402475e-18
1.05234449997814811e-17
2.20843680518108331e-18
-9.12011757503227816e-18
7.844914692375592e-19
1.1712406816641467e-18
2.1024701014253201e-19
-8.8148598490387603e-19
7.33694077644856489e-20
1.20471384449021679e-19
1.84119803392268851e-20
-7.8254125598592057e-20
6.26540751610715601e-21
1.14356191914987413e-20
1.48175596175739812e-21
-6.37827595625667059e-21
4.86914219924792925e-22
9.98742802339497952e-22
1.09409323457177284e-22
-4.76520405309088318e-22
3.42842484553141108e-23
8.00686148871889907e-23
7.39122096541669697e-24
-3.25485339811211937e-23
2.17428501231965853e-24
5.86769742270891508e-24
4.55327290398752869e-25
-2.02576437863161095e-24
1.23261074640138376e-25
3.90988035117311272e-25
2.54621968318611198e-26
-1.14365683320129126e-25
6.1856312746326457e-27
2.35350215291407037e-26
1.28504040517489311e-27
-5.82325310332645536e-27
2.71309004154443779e-28
1.26917384775480645e-27
5.81072602294725094e-29
-2.65504355041342921e-28
1.02266523122840221e-29
6.06642003650610103e-29
2.33258831931290012e-30
-1.07410100674497821e-29
3.23740334470848324e-31
2.53414636688811218e-30
8.21435390940308931e-32
-3.81022775253431199e-31
8.33077919908684772e-33
9.07747189436784549e-32
2.49767060327256856e-33
-1.16659293653213527e-32
1.65934633655613463e-34
2.7150649359739664e-33
6.41239763836875464e-35
-3.01492903179855662e-34
2.36141893225915781e-36
6.51950617580791632e-35
1.34384984453909945e-36
-6.35876497351858841e-36
2.06390798854090568e-38
1.1800088260421991e-36
2.1725472088392599e-38
-1.03436947304295975e-37
8.90224428143925356e-40
1.43154354178931444e-38
2.42635220439707073e-40
-1.16193516434622465e-39
1.19287398291206566e-40
2.07504737344019311e-42
-1.0348160751730391e-41
-8.09075499100365887e-10
-5.52928709731009793e-09
-6.68151212679950234e-10
2.27072854241931406e-09
-4.94673536909472865e-10
-3.56648251107096903e-09
-4.88235113784745344e-11
1.08070797152524158e-09
3.35676159086264789e-10
5.98735259952123738e-10
6.91208709081601608e-10
-9.79954332295062827e-10
5.58050636044594063e-10
1.02515994117332462e-09
6.49349914264700925e-10
-2.26519334301621164e-09
6.21568114809317637e-10
7.75735378507382722e-10
4.77732706633249009e-10
-2.31147293784758252e-09
6.39306299904378435e-10
4.77154633330855217e-10
3.91995778756069933e-10
-1.84856924589243214e-09
5.86593733983037199e-10
2.93828332506745114e-10
3.00518630932895753e-10
-1.38259885031618794e-09
4.47094373117212645e-10
1.62091471864814573e-10
1.99718126395695572e-10
-9.18567667420044788e-10
2.79441806287406633e-10
7.26467637508661973e-11
1.06257595869206782e-10
-5.23979761657929424e-10
1.32572020973296216e-10
2.63109533074389792e-11
4.52758952898070636e-11
-2.51233982901352249e-10
4.74882409852999356e-11
8.51630928804934575e-12
1.74671001120396286e-11
-9.89378870084262672e-11
1.32371527090497246e-11
3.94183086241335654e-12
5.64000930432843411e-12
-3.13762308907862658e-11
2.88904612778584159e-12
1.94035823809462716e-12
1.50529715089512173e-12
-8.4941589532211411e-12
5.87232747850715657e-13
6.64979073183018753e-13
3.99534792440022383e-13
-1.98939331644432529e-12
1.21773134626369542e-13
1.99496631354210098e-13
9.48750990315153473e-14
-4.29333388418340304e-13
2.82686756954251598e-14
5.22467535541921494e-14
1.91695790155803393e-14
-7.87969224490929989e-14
8.61067986928760787e-15
1.20014532581011641e-14
3.80292244832292927e-15
-1.34616444535232192e-14
1.82364809335509634e-15
2.35457051481527897e-15
6.63066056464039031e-16
-2.21855469470379424e-15
2.56931192789441199e-16
3.5015481216783148e-16
8.39835328296842411e-17
-3.30587139990443281e-16
3.15034578962993383e-17
4.63631950755950438e-17
9.57844285831154535e-18
-3.88564379138897392e-17
3.53990413329344381e-18
5.63440939714023458e-18
1.00157267231850099e-18
-4.13459075808174191e-18
3.64438141667775848e-19
6.3201445811487936e-19
9.62285668040733783e-20
-4.03101441518418805e-19
3.43154598799321397e-20
6.54732950171008545e-20
8.49595306404981155e-21
-3.60736997190014167e-20
2.9481494796197282e-21
6.25517394024461747e-21
6.88745962065702646e-22
-2.96161488956110119e-21
2.30380595532917343e-22
5.49381932054642854e-22
5.11962604762693537e-23
-2.2271341860229569e-22
1.63037444858115998e-23
4.42784487832045914e-23
3.47930943996858659e-24
-1.53031307768794409e-23
1.03880368319902388e-24
3.26062987202412631e-24
2.15535101601944026e-25
-9.57697889925658429e-25
5.91454010841666878e-26
2.18233603713264777e-25
1.21152450489426208e-26
-5.43439659396851649e-26
2.98014458477542443e-27
1.31904058643654443e-26
6.14384619450843936e-28
-2.78026757353846475e-27
1.31212666382419829e-28
7.14063793437634488e-28
2.79069713897617806e-29
-1.2733040048840717e-28
4.96386176758671594e-30
3.42552020606494711e-29
1.1250515006433661e-30
-5.17297690534391969e-30
1.57684268167660213e-31
1.43590326507739846e-30
3.97805205095472402e-32
-1.84244475865479897e-31
4.07123358016147397e-33
5.16050746658424182e-32
1.21428285674469057e-33
-5.66288901281163293e-33
8.13543947924735434e-35
1.54841797216637738e-33
3.1291661236995669e-35
-1.46895345530638975e-34
1.1614058082036355e-36
3.72958458900869913e-35
6.58151069626864502e-37
-3.10928217139069185e-36
1.01820565008484388e-38
6.77073566908996075e-37
1.06771778612220814e-38
-5.07535479693077321e-38
4.26161969397164346e-40
8.23861888752138339e-39
1.19648340832582858e-40
-5.72045328910253026e-40
6.86094208564685843e-41
1.01211751950590707e-42
-5.05173815510037867e-42
-1.26456642107736871e-09
-4.00620431098965052e-09
-2.20400100862260324e-10
1.69189776261364369e-09
-7.68258098722977794e-10
-8.16160940522165053e-10
-7.50699557710986319e-11
2.04181864931564563e-09
1.56814462554133362e-10
9.40833295457700377e-10
3.74614654591087573e-10
-7.31141373228587387e-10
3.47045104358886808e-10
1.02054822599436458e-09
2.89129479023765394e-10
-1.1979292382647998e-09
3.42038805337951816e-10
6.1517111599199879e-10
2.05679859830266627e-10
-1.07804207899268602e-09
3.13166955135781332e-10
3.15808660013874295e-10
1.55610569852227543e-10
-7.88030656227447975e-10
2.64636681662616306e-10
1.66523165572336653e-10
1.13782852000673479e-10
-5.57484010794292013e-10
1.91138674776971133e-10
8.38083010232126534e-11
7.37304294204691232e-11
-3.57594033611039454e-10
1.13446103848920508e-10
3.6909857346575461e-11
3.91442987919535554e-11
-1.97843709046957571e-10
5.30974831510532326e-11
1.38366564901084383e-11
1.67295807669131927e-11
-9.30070538085003626e-11
1.91959548243795523e-11
5.22293433031512568e-12
6.13177869990396789e-12
-3.70561176190368062e-11
5.53458747941704219e-12
2.16485112784847142e-12
2.05076422337902049e-12
-1.20372317224575297e-11
1.2706783155528262e-12
9.16118917409406314e-13
6.06271272880272869e-13
-3.3302317745470906e-12
2.66528195812238405e-13
3.27653359132438871e-13
1.65840043132958102e-13
-7.87853320566237015e-13
6.22338842333639489e-14
1.03424808509740897e-13
4.06179748841421255e-14
-1.69998617435517861e-13
1.83783408580330245e-14
2.86798339092473736e-14
9.16377117408173987e-15
-3.31093470483009005e-14
4.69309000766176806e-15
6.79640281586641386e-15
1.84849517119900038e-15
-6.08725669632652566e-15
8.16464133914922716e-16
1.18590169271543662e-15
2.82180045008825306e-16
-1.06776746331883807e-15
1.11712787333545947e-16
1.74039406812667684e-16
3.57881470769893438e-17
-1.42305321158311134e-16
1.3839676941902865e-17
2.3168881291390549e-17
4.12513217517036298e-18
-1.67649462328079354e-17
1.56859939649012104e-18
2.8382326689169629e-18
4.35653158429285854e-19
-1.79909487452854768e-18
1.62654519424594043e-19
3.2073494494521611e-19
4.22278238004913392e-20
-1.76898133196946102e-19
1.54126588516109815e-20
3.34481858626595568e-20
3.75792445301932303e-21
-1.59529488452257261e-20
1.33171901140371999e-21
3.2145309418307855e-21
3.06822643980676853e-22
-1.31878551384718433e-21
1.04607229048852291e-22
2.83810696855640051e-22
2.29528529354562055e-23
-9.97965949798869012e-23
7.43805371671923851e-24
2.29887159374277398e-23
1.5687512714202798e-24
-6.89637790423423919e-24
4.7597520686808066e-25
1.70040423317961278e-24
9.77033140021258545e-26
-4.33863406947011216e-25
2.72087722414436111e-26
1.14267724903721151e-25
5.51911764096377765e-27
-2.47390188981310059e-26
1.37609115304620818e-27
6.93233909761663223e-27
2.81168856391508433e-28
-1.27137746319584032e-27
6.08010071041074714e-29
3.76591898803062169e-28
1.2826326420993474e-29
-5.84726980612245832e-29
2.30780416341301069e-30
1.81252275632143524e-29
5.19182199538676638e-31
-2.38502204713932277e-30
7.354363142260951e-32
7.62132586706265082e-31
1.84284138748634683e-32
-8.52692784408990073e-32
1.90460928844065347e-33
2.74716309285571858e-32
5.64590575119970824e-34
-2.63033627988264583e-33
3.81716519552461496e-35
8.26640979752405907e-34
1.46007517793529093e-35
-6.84691203979242828e-35
5.46499270142837554e-37
1.99658057797349843e-35
3.08139901651560881e-37
-1.45413561827784638e-36
4.80463481629547336e-39
3.63438669062017792e-37
5.01531657268287597e-39
-2.38130224463893769e-38
1.94642898765475042e-40
4.43422087459608303e-39
5.6379368783412953e-41
-2.69237568963067097e-40
3.68322933824028042e-41
4.71330198046758705e-43
-2.35587064502228689e-42
-1.1524307267255444e-09
-2.69402896292099019e-09
9.1302064271292377e-12
3.29708843927425066e-12
-6.44215682467716509e-10
9.30742653022774204e-11
-3.48910466610854256e-11
1.31934909146280964e-09
1.12807312481368021e-10
9.07705425164376247e-10
1.95003702749822659e-10
-6.33744897986772914e-10
2.26345557910140714e-10
8.01160887956881037e-10
1.24389087473090822e-10
-6.28031854138607242e-10
1.91151677161259441e-10
4.17382795010524841e-10
8.27977335262361411e-11
-4.82354813787094664e-10
1.54818187203153499e-10
1.92595981854568368e-10
6.08138881012100877e-11
-3.3980712851707255e-10
1.19326024115497854e-10
9.2106661211652885e-11
4.30710078186229567e-11
-2.27987240960703709e-10
8.10752534845892208e-11
4.3040360550261018e-11
2.72117935329778722e-11
-1.40324603702519985e-10
4.57333531220252543e-11
1.8501817207678281e-11
1.43269440092007677e-11
-7.49580955155494265e-11
2.10423024403348973e-11
7.12603513063665286e-12
6.14049783072110736e-12
-3.43176368200653759e-11
7.66366572505967631e-12
2.73350676989361727e-12
2.25153677499000484e-12
-1.38276434983636435e-11
2.2703931308360191e-12
1.10850525855316726e-12
7.64315066125156694e-13
-4.56472904647731357e-12
5.53476246757164461e-13
4.60440784161186689e-13
2.44970128963376014e-13
-1.28269955291497006e-12
1.26802662098640241e-13
1.71240846977652558e-13
6.97675081247650002e-14
-3.11100852510970609e-13
3.48693525317220791e-14
5.56385545715406801e-14
1.84854985589402267e-14
-6.87189286612729659e-14
1.02414438068478597e-14
1.59568382446936659e-14
4.31375670644875716e-15
-1.41650687866714305e-14
2.19849155157549927e-15
3.39246142245800977e-15
8.04892922851454017e-16
-2.80153052189316352e-15
3.43250733625814235e-16
5.61026593733684275e-16
1.15376688757610405e-16
-4.47805029782484405e-16
4.71348186893669762e-17
8.22949138257238108e-17
1.47451505360211618e-17
-5.89746943035524291e-17
5.8913928177408227e-18
1.10356466871158604e-17
1.71716894491393689e-18
-6.99292343637854601e-18
6.72811003567247616e-19
1.36235766781668081e-18
1.83057241122131745e-19
-7.56904822003704933e-19
7.02235556985852141e-20
1.5500886862053501e-19
1.7893409401326588e-20
-7.50252566537241711e-20
6.69242618553446165e-21
1.62645230264080239e-20
1.60447841397034933e-21
-6.81459749907184753e-21
5.81344750308913918e-22
1.57093407272295067e-21
1.31960999487545705e-22
-5.66892016271062255e-22
4.58854474653432336e-23
1.39409174511641714e-22
9.92647565790196651e-24
-4.31598895279399628e-23
3.27679339092057316e-24
1.13439537281721195e-23
6.82035940005421925e-25
-2.99865392007388804e-24
2.10511360930179876e-25
8.42387339575609166e-25
4.26959131437203712e-26
-1.89586431166164039e-25
1.2077370811850474e-26
5.68115332988913989e-26
2.42306173594993152e-27
-1.08594344491458745e-26
6.12879456447930219e-28
3.45802086948999784e-27
1.23972552031848667e-28
-5.60432304776548914e-28
2.71651018581998673e-29
1.88432268926546567e-28
5.67809023134383047e-30
-2.58765524321943974e-29
1.03417829454307369e-30
9.09540275186632465e-30
2.30706635354481359e-31
-1.05938210799004868e-30
3.30502103909644851e-32
3.83490056717614773e-31
8.21833743685716868e-33
-3.80083819414759174e-32
8.58256326287265546e-34
1.38591373364677326e-32
2.5264719662054687e-34
-1.17640477184441137e-33
1.72462386199686735e-35
4.18072364528151233e-34
6.55510900883549688e-36
-3.07213372698618819e-35
2.47545286265425743e-37
1.01220762049098942e-35
1.38777975097907102e-37
-6.54479964864734593e-37
2.18181331902971193e-39
1.84687649634713407e-37
2.26559307629647862e-39