/*--------------------------------*- C++ -*----------------------------------*\
| =========                 |                                                 |
| \\      /  F ield         | OpenFOAM: The Open Source CFD Toolbox           |
|  \\    /   O peration     | Version:  2206                                  |
|   \\  /    A nd           | Website:  www.openfoam.com                      |
|    \\/     M anipulation  |                                                 |
\*---------------------------------------------------------------------------*/
FoamFile
{
    version     2.0;
    format      ascii;
    arch        "LSB;label=32;scalar=64";
    class       surfaceVectorField;
    location    "0.0599999999999999978";
    object      Uf;
}
// * * * * * * * * * * * * * * * * * * * * * * * * * * * * * * * * * * * * * //

dimensions      [0 1 -1 0 0 0 0];

internalField   nonuniform List<vector> 
20390
(
(0.616097050757769549 -0.0505019179163115339 0.221478936752140448)
(0.404156712027938902 -0.114559532066572781 0.120825587704833134)
(0.208009911142627818 -0.0367807254809843151 -0.192952460520927516)
(1.11629974297389545 -0.0256783003117375432 0.1940255201499263)
(0.870606224540119822 -0.0491792060402111222 0.370357599166834417)
(0.625643354635372018 -0.0974815694765761853 0.291487531834296265)
(0.436698372346504216 -0.0408847281789442574 0.22185206968656232)
(1.2919930062741285 -0.0317138118977342703 0.281396072970214461)
(0.991269828942804909 -0.0347549544580505188 0.446390872551724049)
(0.713310774144337967 -0.0730283338691640471 0.391871577056576215)
(0.593010921952451087 -0.0317774196608979556 0.409868714542268531)
(1.34855917638322542 -0.0305442809516418903 0.384475473380536337)
(1.03202094734381045 -0.0153363822804648119 0.469149342594904817)
(0.770913552103625221 -0.0308489704394473777 0.427751569699479028)
(0.678595692822042684 -0.0122883489086241578 0.446914964906909629)
(1.37365368263842846 -0.0190166889437222916 0.425968406901912011)
(1.00515519558619437 0.00750242423900750188 0.471948890506792951)
(0.795669908262989223 0.00883368618053894696 0.436224150339984573)
(0.70130902149664931 0.00672128182522305738 0.450802330469743051)
(1.3557231621570307 -0.00280563673848056644 0.441604357566510175)
(0.901105483864542811 0.0305863675983410604 0.466223939042625601)
(0.786807588564939708 0.054026623423034284 0.439917882402232674)
(0.663848962363162265 0.0257364872847725863 0.446030797012076818)
(1.26290808817072886 0.017114968260612571 0.450034255311825948)
(0.743766845098322249 0.0451214749818378766 0.447257063861151993)
(0.724931780724329955 0.0819588320123701558 0.435314804626659224)
(0.576420015485010762 0.0393322178691056026 0.439089935966140987)
(1.10015040783899898 0.0358854797333535494 0.445670280565247434)
(0.571248026009026133 0.0465592244233294997 0.409041382321181535)
(0.614458213826540756 0.0923865705360108341 0.4158704672164103)
(0.461558747418269022 0.0430935480509242047 0.411739369479695083)
(0.887149274006913569 0.0471676425602740174 0.423996805152500933)
(0.428233410653870661 0.0376295073250611928 0.353672044422535137)
(0.490567181744021752 0.0835862002551396449 0.376495758235337874)
(0.359047413549820782 0.0362480595734095759 0.361208450413406601)
(0.673544325625195284 0.0465099170416583621 0.385367886126609216)
(0.332735240049969294 0.0260280802373799927 0.288506241950574116)
(0.384999317669422525 0.0643706712383047969 0.320589283427840321)
(0.289734536915883134 0.0255055722757006227 0.298239901398627494)
(0.49507061463113311 0.0375736234333911567 0.331483580592675908)
(0.275915566279109126 0.016863117441310839 0.22287425950288603)
(0.310502557441845239 0.0446578418168510488 0.255888437003932268)
(0.249897066254651745 0.0167120204748942187 0.233996520188872126)
(0.369513162018269337 0.0262571105580088338 0.266494544564538527)
(0.24081236701588235 0.0113008156515304256 0.166023612636011342)
(0.262721469046483469 0.0296732284074725551 0.193405360109049129)
(0.22632101277172112 0.011328731444544762 0.177212587653634096)
(0.295759525935537559 0.0166969583391914783 0.201453392348405647)
(0.214507567704929625 0.00834026557622748535 0.122743280705057273)
(0.230212834932190913 0.0205963631046646514 0.142538502803442407)
(0.206932234523369424 0.00846877393414916663 0.132707736957852901)
(0.251918605427304265 0.0108734829659402118 0.147588725793499104)
(0.191998631908884387 0.00656906717090576311 0.0920841636681981185)
(0.204540486655989645 0.0153280389122375446 0.105741928264539861)
(0.188400345480926656 0.00673324293931052906 0.100288141076967416)
(0.21977639781241845 0.00795589780818072023 0.108429758539627968)
(0.172579976890358922 0.00532398234643948962 0.0704679743150219418)
(0.183120310509588047 0.0119484152249876435 0.0800841633395386887)
(0.171337994912182712 0.00548036507553252301 0.0769858793617541615)
(0.19383659741294984 0.00625734131549260213 0.0814597370215043026)
(0.155949257994340451 0.00441364745560277483 0.0547339452135511828)
(0.164997598299404247 0.00966176092860662923 0.0617754344040584505)
(0.156110407948187285 0.00455256243775037546 0.0598910873082669562)
(0.172562638951888586 0.0050660410146159832 0.0625809119656632051)
(0.141585869296228378 0.00374272930463243276 0.0429292300883176992)
(0.149450502714179922 0.00805661550133265209 0.0482402218910925953)
(0.142604853736737591 0.00386491371681878769 0.0470212147665305322)
(0.154869233046871835 0.0041954832394716533 0.0487701111572242038)
(0.129006862422631374 0.00323974526692805478 0.0339054540921669562)
(0.135934729501684975 0.00688672252742010028 0.0379831221831784457)
(0.130568261183729883 0.00334523662416402138 0.0371532362047757025)
(0.139881792098665969 0.00355803396534741783 0.0383464034044815535)
(0.117827811330152105 0.00285485414500264659 0.0269229020555188624)
(0.12400188332264013 0.00601166515554170562 0.0300901227260002638)
(0.119741359850710744 0.00294482639927626981 0.0295037148930498289)
(0.126918497869718205 0.00308510240748897154 0.0303462933065153095)
(0.107759419963996975 0.00255371436503361391 0.0214681610870264029)
(0.113321844676422187 0.00534107088498876267 0.0239496870214504914)
(0.109906836152371679 0.00263065848629289497 0.0235234469636165268)
(0.115498333911597667 0.00272603299462255639 0.0241369820432329844)
(0.098587433421614315 0.00231294996930392696 0.0171739889554330637)
(0.103649931153664443 0.00481434125401201864 0.0191315209192524198)
(0.100890635518495364 0.00237950868176471739 0.0188147429391841772)
(0.105283098070548767 0.00244632329492530535 0.0192726075930212751)
(0.0901520141681985826 0.00211693730251528555 0.0137732557278091618)
(0.0948021307088020015 0.00439085036491078037 0.015325558063602222)
(0.0925567783269745786 0.0021751396108067836 0.0150859561562580024)
(0.0960290605031628858 0.00222319008617964707 0.0154338233297511996)
(0.082331297771775433 0.00195517956440865006 0.0110681434250446444)
(0.0866372007050149745 0.00404391223474396752 0.0123039953264520909)
(0.0847982624536149643 0.00200647183648932238 0.0121202911826691767)
(0.0875559610471334793 0.00204182508516660959 0.0123879351132195874)
(0.0750295480057567299 0.00182003832742912586 0.00890952076838106427)
(0.0790442657156367467 0.00375562330379599187 0.00989632050703672002)
(0.0775294764036937728 0.0018655725243102684 0.00975411672684612166)
(0.0797270122314742147 0.00189204870649393618 0.00996163245620165436)
(0.0681699697021115186 0.00170574820852731237 0.00718319489277020624)
(0.0719351375109390234 0.00351230664031178296 0.00797281628783460573)
(0.0706809319670643338 0.00174618290711820042 0.0078617914274874412)
(0.0724361768432965764 0.00176621830519706354 0.00802380847776673796)
(0.0616896396729354202 0.00160824288576775273 0.00580072488800359529)
(0.0652387973997573117 0.00330450532913718897 0.00643332583204146973)
(0.0641956931332780256 0.00164404156800768597 0.00634576772347787525)
(0.0655997104934275127 0.00165933760811441092 0.00647359685800684773)
(0.0555374541055726062 0.00152466388027033156 0.00469312192121005504)
(0.0588972953222444209 0.0031259182600656874 0.00520003393299004954)
(0.0580267675210421052 0.00155629663878327777 0.00513035453679850165)
(0.0591504468735782746 0.00156803459793493664 0.00523222514023447688)
(0.049670907500910487 0.00145285618939431423 0.00380622472791351373)
(0.052863199263363421 0.00297214039544758989 0.00421204998281725883)
(0.0521350855830963883 0.00148075451519584468 0.00415628489553461749)
(0.0530339835960444914 0.0014897905838796991 0.00423795141537023235)
(0.0440533322198507285 0.00139112871204778873 0.00309731413274959289)
(0.0470967360582201996 0.00283960759630734819 0.00342141829177719514)
(0.0464872570257788414 0.00141559071606956301 0.00337654919965764411)
(0.0472051357862202856 0.00142262255045124504 0.00344247216364676435)
(0.0386524685365724832 0.0013382875452004595 0.00253267449089283631)
(0.0415635415034654454 0.00272556119407848683 0.00279029728480297869)
(0.0410539141772054694 0.001359484566394007 0.00275390675707658239)
(0.0416252814566460266 0.00136506087635192893 0.00280774044523302404)
(0.0334387649084185376 0.00129355986751850008 0.00208572509071938391)
(0.0362328428426103091 0.00262826625265327567 0.00228892331981234284)
(0.0358082224671643842 0.00131164207271825158 0.00225914557880540611)
(0.036260258316526281 0.00131610238364514211 0.00230361761126139522)
(0.0283837304275526038 0.0012563279797241163 0.00173537285293352676)
(0.0310756473635749181 0.00254656516835544784 0.00189383369058209188)
(0.030724214033783049 0.00127147492612576015 0.00186927950528116733)
(0.0310784587243594611 0.00127499754650369727 0.00190628175182163849)
(0.0234595014415080495 0.0012259330285154977 0.00146465257984583854)
(0.0260637225578914146 0.00247927766606577263 0.00158622043741274248)
(0.0257759508134521899 0.0012383160660937476 0.00156581866067086379)
(0.0260497011832200726 0.00124104551515001106 0.00159678886411106962)
(0.0186395573831260979 0.00120168193421957173 0.00125994966876407473)
(0.0211698341529809632 0.00242504455814631118 0.00135082636985853384)
(0.020938043128053356 0.0012114318923053557 0.00133366866834722054)
(0.021145159590674905 0.0012135418658041333 0.00135992308673097122)
(0.0138997774635119305 0.00118151928493584967 0.00111073832142615111)
(0.0163686632325214694 0.00238256658277013382 0.00117555372517299411)
(0.0161867919787318064 0.00119019935774201079 0.00116080511850477977)
(0.0163379831491308226 0.00119187434605992387 0.00118366518564930277)
(0.00922212098061748684 0.00116344472835668076 0.00100938846541562917)
(0.0116383604545548993 0.00234932905320748989 0.00105136741641604519)
(0.0115020524685557381 0.00117130939402617556 0.001038282238284601)
(0.0116050795629047097 0.00117269835277315727 0.00105896977725204516)
(0.00459316957272167242 0.0011514173711643439 0.000950085868716557601)
(0.00695652317366139087 0.00232366295269030272 0.000972008027623450519)
(0.00686912343290120228 0.00115423443290324458 0.000960006753971100516)
(0.00692910511110124069 0.00115547076135902468 0.000979429543206788555)
(0.00230893694654156186 0.0023054133399258896 0.000932088897337440218)
(0.00227967044277030666 0.0011473897684113007 0.000920807498547439275)
(0.00229940749849105253 0.00114867249449833301 0.000939506672642982329)
(0.317264988725069419 -0.150102633239237226 0.190834182786988549)
(0.277461442961894345 -0.177309942494427192 0.0832299406509867945)
(0.0997117245208791469 -0.10450979547908773 -0.150235779113558066)
(0.746465769716126659 -0.0814097753901441706 0.0415195889460264686)
(0.457565398172386728 -0.129187499544126866 0.313001509724038063)
(0.381143940484282462 -0.176402063551705873 0.270598994756150457)
(0.210258404464754745 -0.104274722282779564 0.179569944965735445)
(0.83435178255182274 -0.0980619289502484281 0.162026397845136588)
(0.510403407961592892 -0.0834197232410354428 0.373232274204331027)
(0.390899375154735329 -0.122845122679472424 0.356789397464223057)
(0.276858317046917546 -0.072596894148599711 0.329256145559328361)
(0.849987921107872135 -0.0978788377078450428 0.282460556534474272)
(0.542187171596238415 -0.0284611543824782876 0.394826377444558729)
(0.402737128577280667 -0.0588106968108386349 0.380041613652403631)
(0.334592218995706348 -0.0192099464707136125 0.366830195046153773)
(0.86120681541261257 -0.0580400967363159243 0.342691321468416021)
(0.575858396730198896 0.0259877873648115057 0.404193142235424296)
(0.414909571786169606 -0.00395968901248503966 0.380342483894263617)
(0.376534072948545573 0.0254281288025026107 0.369483724411104553)
(0.870026842475018825 -0.00939929440213159786 0.377567837143304497)
(0.60470760212029262 0.0732661701463349913 0.409008747986266297)
(0.439548176872778251 0.0513288031055692123 0.382644427753904059)
(0.417515812681679754 0.0649470124738893567 0.376058313760771368)
(0.872369917088211433 0.0403607534654613423 0.399515417623138358)
(0.593770908436462519 0.103935724736370402 0.403928207981917586)
(0.453806335686602558 0.0995782063037633641 0.379262198056452504)
(0.437002606585113473 0.0914918841038494385 0.382774485224784689)
(0.841665685249250117 0.0817842155891942701 0.407083125075607621)
(0.536965263817394844 0.114700521569486832 0.383324843130567194)
(0.443079819121708574 0.131750723473946313 0.365491531595441066)
(0.420998576892476439 0.103032838315151212 0.376472479051744302)
(0.764524314779562397 0.111363506331650222 0.398397799365078187)
(0.452039437319385173 0.10542644206543629 0.343412997240642726)
(0.404470897431444543 0.137543246369270428 0.337440745128616881)
(0.376072582821280366 0.0972501192359832428 0.346767492314182413)
(0.647711358164458573 0.122045840347808618 0.369756443706966753)
(0.36729471565376115 0.0836456935134363838 0.287971478481198084)
(0.350563993113567229 0.120776533944065553 0.294203393891266873)
(0.32196343048277476 0.0792886215114180087 0.296675919924223541)
(0.516440735627068714 0.111763093493903981 0.324745208347478609)
(0.300357553376397302 0.0596951524981347639 0.22641953761009595)
(0.299345133123007145 0.0927918102270385431 0.240636840648634387)
(0.27453562752752203 0.0582671022499945748 0.237679952552826979)
(0.400593009959808566 0.0868700312924258755 0.267004636467819079)
(0.253088009520950952 0.040669202162803425 0.169920250276479751)
(0.258790643061461434 0.06528789798853607 0.185945175856021078)
(0.238946675474290771 0.0407551619050976477 0.181336053146865517)
(0.316564123718676316 0.0594645987198783518 0.205281176544143878)
(0.220059686617821409 0.0283680572779281201 0.125537150362925065)
(0.228134319540470282 0.044936533935924991 0.139309239515014172)
(0.212826160674455589 0.0289434048790726678 0.135600727449218833)
(0.261463325086535692 0.0388454432779158434 0.151239899702541092)
(0.195123391041126859 0.0210021611505356448 0.0937419279358802232)
(0.203479282158207597 0.0322228395117972605 0.10433566663181662)
(0.191807469948043319 0.0216338957404931115 0.101999473083486669)
(0.22404544192884851 0.026618445224956367 0.110842556962932687)
(0.174907371587051219 0.0164219461357941916 0.071391623428575246)
(0.182748058173085842 0.0244901270385804344 0.0793665520425759496)
(0.173828022388383158 0.0169805239872565378 0.0779631573439038827)
(0.196420661201449132 0.0197048373215082187 0.08282268406272289)
(0.157935478168511889 0.0133915202141231798 0.0552817110815999255)
(0.165040559401390896 0.0195691009514523777 0.0613536864161652318)
(0.158181363624422727 0.0138607358399926162 0.0604788027453471086)
(0.174647728094904753 0.0154858204784875855 0.0633172737192552737)
(0.143357074927915246 0.0112750205472658821 0.0432941139859532031)
(0.149726382635609612 0.0162435168205835138 0.0479821500584486707)
(0.144430896339888176 0.0116681996649407194 0.0474124501058210829)
(0.15673327695038286 0.0126866934043291333 0.049203805421723576)
(0.130594457227012101 0.00972996996348179065 0.0341677908170117534)
(0.136313953691054507 0.0138701558065227847 0.0378238751273771434)
(0.132205996447635921 0.0100612509858218693 0.0374361357413006482)
(0.141562710794899654 0.0107203197903944451 0.0386362541332727003)
(0.119245108782915332 0.00856379690611688664 0.0271169076919319484)
(0.124411860766303298 0.0121067053674386235 0.0299893230358456685)
(0.121209664626770325 0.00884438817558129073 0.0297145582910819071)
(0.128424485704861119 0.00928351672239635661 0.0305541382736558148)
(0.109021790337768001 0.00765902703089628521 0.0216130468536764875)
(0.113725390476548338 0.0107556540538988558 0.02388310745969301)
(0.111219093100012018 0.00789855329305127682 0.0236817385878743819)
(0.116841507443240372 0.00819967400072994269 0.0242894201028276517)
(0.0997126007570244138 0.00693987211849153834 0.0172830900274215764)
(0.104030319925108652 0.0096933905821737984 0.0190856940625406812)
(0.102062603559466933 0.00714651513661862612 0.0189341500341083102)
(0.106479628433401308 0.00735844611125001033 0.0193858331162314358)
(0.0911579642082873259 0.00635642915966088979 0.0138562976622451511)
(0.0951538037019247496 0.00883908552286501864 0.0152931319585965526)
(0.0936054899231265475 0.00653635462255917118 0.0151768238391948446)
(0.097096808949601765 0.00668884011643978114 0.015519206722006117)
(0.0832342920347662607 0.00587507671207439328 0.0111321724084441562)
(0.0869599408885242398 0.00813939935559789343 0.0122807446618948858)
(0.0857398503085097519 0.00603304280677912416 0.0121903908274118861)
(0.088512099599035679 0.00614482873789094428 0.0124533177746329205)
(0.0758425528950826683 0.00547167836099606269 0.00895961602649025628)
(0.0793394405493298149 0.00755666003012142075 0.00987964764418583323)
(0.0783774483097736951 0.00561158067408249091 0.00980877970114110709)
(0.0805860554659384304 0.00569479662614668161 0.0100127983462279108)
(0.0689033457924931314 0.00512928941499398751 0.00722294722710587703)
(0.0722047485398047417 0.00706297118681378528 0.00796104003848610402)
(0.0714462004040169324 0.00525321713646110036 0.00790461443604585125)
(0.0732099418410438463 0.00531580555517612366 0.0080650411988415268)
(0.0623517204517880022 0.00483672749316897081 0.00583263487702792485)
(0.0654851898193438697 0.00664164585919593126 0.00642515360262565279)
(0.0648872502664141482 0.00494617970569650664 0.00637951135149252523)
(0.066297914355645346 0.0049937000134877476 0.00650747610292298946)
(0.0561347021029230467 0.00458586855673526281 0.00471896199459724032)
(0.0591222193967729931 0.00628102255795024572 0.00519452788562028631)
(0.0586516284123636614 0.00468238061825901677 0.00515730784138598245)
(0.0597806000753316191 0.00471864100766264654 0.005260187485662874)
(0.0502080667776675857 0.00437034660707070598 0.00382724354668094371)
(0.0530676787823954194 0.00597156221364634424 0.00420847885088334196)
(0.0526984304758895059 0.00445522977109317955 0.00417808322929511585)
(0.0536016504622960632 0.00448297700654160143 0.00426101376931742153)
(0.044534084337838474 0.00418523389478068358 0.00311440144383057574)
(0.0472814103936341004 0.00570568695242959847 0.00341915923302289499)
(0.0469930477661497786 0.00425941015920646478 0.00339427707387863131)
(0.0477145505818106566 0.00428079437712596076 0.00346139876671119331)
(0.0390799724964459166 0.00402695244351027395 0.00254654611372248521)
(0.041728966067575389 0.00547781447187594903 0.00278887530585834962)
(0.041505464424174944 0.0040910791709670765 0.00276842074834370618)
(0.0420798678786604707 0.0041077342126655432 0.00282305524166552102)
(0.0338157063055990539 0.00389288630113871284 0.00209703191967505233)
(0.0363795176866002351 0.00528387103296729371 0.00228805492245969877)
(0.0362083575293690729 0.00394758205598676106 0.00227121208182924682)
(0.0366628587174906151 0.00396062028005276373 0.00231581456142360186)
(0.0287122434912905067 0.00378083120290253387 0.00174468127506130217)
(0.0312039119395489187 0.00512048355711693104 0.00189335906542242947)
(0.0310752063833758807 0.00382670951080535957 0.00187947784898717272)
(0.0314313990714869887 0.00383689970586061687 0.00191597897215864139)
(0.0237412516816336017 0.00368877203071193201 0.00147239422742543582)
(0.0261737639150225014 0.00498462154681952613 0.00158600167441791829)
(0.0260795671742965161 0.00372630419384220937 0.00157444555762483091)
(0.0263548641859103622 0.00373430203662945001 0.001604666421983793)
(0.0188759935931767722 0.00361503327417683372 0.00126643042626745864)
(0.0212618413733541463 0.00487384466711122868 0.00135072353888754946)
(0.0211957723713753488 0.00364447475521562179 0.00134083396556338797)
(0.0214041474716410718 0.00365089017507764114 0.00136656359083356773)
(0.014092336752281295 0.00355843422099818771 0.00111618282016288928)
(0.0164430196285433906 0.00478662603279663475 0.0011754541529604241)
(0.0164001084527180298 0.00357993329226196418 0.00116664886085661229)
(0.0165523423040974636 0.00358528516430699174 0.00118941305523562581)
(0.00936516561994708667 0.00351780466574704584 0.00101398697862386568)
(0.0116952375806922207 0.00472241893063926436 0.00105119326885851961)
(0.0116720449011698361 0.00353193675063660784 0.00104308642658015763)
(0.0117759347971318849 0.00353663873397959275 0.00106391455444508924)
(0.00466981098798065642 0.00348790535329497999 0.000954011056244332485)
(0.00699472758118091509 0.00467982570974706871 0.000971722162570314691)
(0.00698413174973460359 0.0034991403574933075 0.000964116939879246042)
(0.00704477623817778911 0.00350351160699215831 0.000983592086427529993)
(0.00232347956651842184 0.00464882231752094654 0.000931654073674355538)
(0.00231851487756574558 0.00347240537742073098 0.00092442553281358599)
(0.00233852214749579552 0.00347674259154338383 0.000942994300423421008)
(0.241942245995218047 -0.194995183132753297 0.162994752620146843)
(0.226544047118043795 -0.217693839230806263 0.0310119724973355361)
(0.0871878027023265112 -0.133811371322977546 -0.100003391638434289)
(0.535533349350817867 -0.131366221179613968 0.0611638053340833876)
(0.308741248318556039 -0.153337299707639874 0.314386882496335285)
(0.240392709958811679 -0.182447624264169495 0.274466108929331432)
(0.143809040425754459 -0.128683227849845316 0.181001646014186335)
(0.628698043295588871 -0.162559700472789587 0.235707162218743882)
(0.297007140934998803 -0.0830440252659697953 0.36359873691229555)
(0.207843335240872007 -0.10360927409576734 0.357674673186174796)
(0.154233632649861147 -0.0706496608807901244 0.304547610477139408)
(0.598131501588252013 -0.130177471550770696 0.331285350179017279)
(0.28099054592232886 -0.0194438152425748939 0.365557720102108463)
(0.194742175141019547 -0.0294429805002256254 0.362993156920389304)
(0.162708152251400617 -0.00946541008479154407 0.32033956000193925)
(0.555532835017055637 -0.0662797438798800737 0.363056576502630179)
(0.276174380516875262 0.0363768610865959699 0.358793769412743435)
(0.196503383649935803 0.0282776643301495684 0.348272283093797874)
(0.17202828424639735 0.0360928284911809644 0.313966903826066623)
(0.528111320152503172 -0.00435635576768178892 0.373628218817808389)
(0.286175280509010532 0.0874805475472995309 0.352897877824090322)
(0.206690352763217872 0.0780212387042919092 0.337927021617868695)
(0.189339288939047501 0.0755704521335498342 0.314773299228090053)
(0.493841978335023746 0.0564233608096777889 0.378166463175403644)
(0.301986410304107333 0.127282650835019467 0.340825521669975928)
(0.225130626002990997 0.118917121836258313 0.327045729789469886)
(0.215763138679640226 0.108333386679128577 0.315362366386008619)
(0.45596601589699215 0.112858628963574431 0.369856930182589638)
(0.312531691354620056 0.147207786409309843 0.319607433593490864)
(0.247287693809433051 0.146633711357648605 0.309159307574420616)
(0.241364625170876146 0.128850987746637197 0.307300237005595334)
(0.427013574662309325 0.151357107607074493 0.347614718308239201)
(0.307069698819658732 0.143539391838769625 0.288231141779240696)
(0.261530319973591163 0.155332876676681941 0.283730755226005993)
(0.254068104445452247 0.129990378089088449 0.286945332108204887)
(0.398278981036988777 0.166426883555459953 0.31706635927829746)
(0.287234088671975474 0.121807750888765776 0.246868756058702982)
(0.261820720778812355 0.143153846843113108 0.249914239667665516)
(0.250830536195205012 0.11432350255686273 0.2529884842829494)
(0.361186399609728648 0.156254567396763105 0.277907512383154531)
(0.26147248776558879 0.0927631049399935403 0.200162478894559681)
(0.25132235345980658 0.116686831589547402 0.209407177704298342)
(0.238046880406217132 0.0901938327632074432 0.209890882622958463)
(0.318918795823686652 0.127346851443514486 0.231912357693409482)
(0.235564340791756033 0.0663474829670988447 0.155334165094555082)
(0.235131122975559853 0.087167272127360737 0.167220452747061488)
(0.221661081566255858 0.0664530279497411169 0.165679854035987895)
(0.279156216406045876 0.0926071630659881656 0.183521468460230736)
(0.211780733133088095 0.0472152257129789948 0.118107755783905727)
(0.216405978813239891 0.0629582923312962672 0.129409123229462353)
(0.204341174184643259 0.0482046489493692387 0.12741962017070721)
(0.245049449904864991 0.0635850717615708827 0.139671562803105054)
(0.190764248068691744 0.0349651631626539672 0.0899602907385124162)
(0.197220473998488799 0.0464298103493547623 0.0993070326853245366)
(0.187225354969913216 0.0360429651713812527 0.0977359696944158085)
(0.216322947010927608 0.0443323616951594515 0.105125177623199062)
(0.172387136866500784 0.0272706200125187662 0.0693286150301660187)
(0.179126925283852906 0.0358373491159593716 0.0766862338592333576)
(0.171160488571691499 0.0282201978787067105 0.0756118977763595851)
(0.192313518681164142 0.0327537218802708557 0.0799218797132017628)
(0.156354059339393142 0.0222267562770262668 0.054054125393014095)
(0.162787338430060768 0.0289000719916358353 0.0597960978487773395)
(0.156526110055434986 0.0230239636674239613 0.059076157573986543)
(0.172225981645628079 0.0256768678900006278 0.0616991284730735723)
(0.142290228950397168 0.0187261548701676134 0.0425119111998724722)
(0.14823316661029029 0.0241248134731815167 0.0470068436179170712)
(0.143328574206925324 0.0193922473816370254 0.0465178013630326431)
(0.155199315123728865 0.021048855896327455 0.0482110118592159742)
(0.129827544957941021 0.0161764772729250939 0.0336454073462110273)
(0.135262200333209126 0.0206770709364675898 0.0371810687762662781)
(0.131418501135042026 0.0167366822025613975 0.0368398968590135586)
(0.140523695619900191 0.0178183423464744958 0.0379866921670992605)
(0.118662534704903622 0.0142513659439037991 0.0267555228036067821)
(0.123630212604482481 0.0180935378312164358 0.0295495978320044796)
(0.120613258300921289 0.0147263823841927988 0.0293039384203525183)
(0.127674625545827286 0.0154553746660099373 0.0301109601182675789)
(0.108557970500821166 0.0127559788420834944 0.0213557546685571413)
(0.11311713115392058 0.0161004955416436356 0.0235730635282987988)
(0.110745114109075629 0.0131622853094777604 0.0233908908235354353)
(0.116269126970795833 0.0136667073720176269 0.0239771607974477233)
(0.0993296336278668007 0.0115661046944202789 0.0170957359937156557)
(0.103539141838735346 0.0145249967759691102 0.018861713346200789)
(0.10167146985857585 0.0119168427708252096 0.0187233232873072995)
(0.106022415950977764 0.0122738521073810138 0.0191602180346181483)
(0.0908338070258401381 0.0105998854934717564 0.0137175789582463133)
(0.0947462107758381689 0.0132531819994682765 0.0151283300770663504)
(0.0932738967925673262 0.0109049568346706056 0.0150213849251939272)
(0.096719144690129169 0.0111624496098269837 0.0153530801607008639)
(0.0829549965073778095 0.00980142386407183326 0.0110282198976365733)
(0.0866150726983851565 0.0122086607395028839 0.0121578109908763131)
(0.085453514053063756 0.0100688941839987087 0.0120742661955638621)
(0.0881927069085612914 0.0102576278421578487 0.0123294325341858756)
(0.0755985965734365245 0.0091305005983916103 0.00888107165618168097)
(0.0790430854621927553 0.0113366153185879611 0.00978699015553704046)
(0.0781267768778229482 0.00936712143460563008 0.00972095081022684819)
(0.0803111236264638373 0.00950741893053443261 0.00991983527448329037)
(0.0686892679360117941 0.00856006650247403272 0.00716324641400585983)
(0.0719478913817798715 0.0105965590980623327 0.00789076679173266599)
(0.0712251468955503453 0.00876920125693192963 0.0078376236589606553)
(0.0729708161559116109 0.00887450760491556231 0.00799504588665371149)
(0.0621636242957945145 0.00807271087895131655 0.00578704661121801946)
(0.0652623065708365091 0.00996551251176197236 0.00637152273091009993)
(0.0646921622246861561 0.00825705262604146777 0.00632817595231046498)
(0.0660892310435878955 0.00833685899474615084 0.00645444031430099808)
(0.0559691178350170959 0.00765498791019791989 0.00468404474190638707)
(0.0589286416385355685 0.00942572479455460951 0.00515346956850258348)
(0.058479355876804022 0.00781731757369886864 0.00511794499764912317)
(0.0595980020761012197 0.00787808174462108386 0.00521977115443173975)
(0.0500619155587034917 0.00729618691453908126 0.00380039453722529324)
(0.0528993273592443178 0.00896234199591138155 0.00417696144842580937)
(0.0525459869601168639 0.00743868432609928396 0.0041478210802458719)
(0.0534413687011842109 0.00748507934205597247 0.00423011586908807365)
(0.0444048991663456849 0.00698823226331515748 0.0030936330950506602)
(0.0471350190017910814 0.00856417215816306955 0.00339484629830369379)
(0.0468579459652784733 0.00711247069365082262 0.0033708881134514191)
(0.0475735187736295098 0.00714805628738264445 0.0034376416449860437)
(0.0389657990197726997 0.00672512430497554121 0.00253038411459555407)
(0.041601972784893651 0.00822302740745588581 0.00277001146172150495)
(0.0413857385162811689 0.00683239027031024015 0.00275029764695027034)
(0.0419556306486744066 0.00685981044530108858 0.00280458241690074214)
(0.0337148002328373914 0.00650212819653524666 0.00208438206820707548)
(0.0362697829677740072 0.00793260764861612386 0.00227334088551330374)
(0.0361023040864198591 0.00659363131069333301 0.00225717778308397827)
(0.0365533489259561584 0.00661481849084500154 0.00230128564698460058)
(0.028622972323135553 0.00631521097927920192 0.00173467946477903865)
(0.0311095325029592772 0.00768761537219613336 0.00188177763660185224)
(0.0309812123769948912 0.00639202226895606469 0.00186854929316304739)