/*--------------------------------*- C++ -*----------------------------------*\
| =========                 |                                                 |
| \\      /  F ield         | OpenFOAM: The Open Source CFD Toolbox           |
|  \\    /   O peration     | Version:  2206                                  |
|   \\  /    A nd           | Website:  www.openfoam.com                      |
|    \\/     M anipulation  |                                                 |
\*---------------------------------------------------------------------------*/
FoamFile
{
    version     2.0;
    format      ascii;
    arch        "LSB;label=32;scalar=64";
    class       volScalarField;
    location    "0.510000000000000231";
    object      p;
}
// * * * * * * * * * * * * * * * * * * * * * * * * * * * * * * * * * * * * * //

dimensions      [1 -1 -2 0 0 0 0];

internalField   nonuniform List<scalar> 
7340
(
-0.112193151363778609
-0.138425901769218873
-0.155807751007838613
-0.166580779993944272
-0.171521913566794248
-0.171778009494005679
-0.169019095567931821
-0.165166149868892997
-0.170932345016146847
-0.215783028557002932
-0.297267418992317123
-0.352949518712948773
-0.518569678357533981
-0.0896666156733927355
-0.989538431690029086
15.1854591587807022
-0.218744759868600092
-0.245128292797796909
-0.263671000659815524
-0.275515745203402052
-0.281367797447915402
-0.282433141723025471
-0.280122782653384084
-0.274993700330740998
-0.278133555530346355
-0.326149430602500789
-0.408733469229108248
-0.465109679363805983
-0.645118526927614067
-0.210401597387606998
-1.15457635993677599
15.9544405343747826
-0.330815575888511848
-0.357228258070155791
-0.376215797150831754
-0.388595414246857729
-0.395116576840200517
-0.396739463473257281
-0.394714890227383153
-0.389796310434705751
-0.393271958490715168
-0.44136624533817792
-0.526841753650862388
-0.58529813518715279
-0.771863529837160445
-0.37396522817655109
-1.51689050233834166
16.1228065563790892
-0.447791311521819502
-0.473616395497055365
-0.492502332512201546
-0.505115217223351287
-0.512027998614699165
-0.514033797266218118
-0.512514368334088255
-0.509148356386538881
-0.51437783835009232
-0.56148056996872997
-0.651504711824685057
-0.713206758391486506
-0.868709723844590109
-0.491839426883104336
-2.13131281126792516
17.7937515607841874
-0.449867139668012506
-0.496663289443730616
-0.536051452607628098
-0.568085661133530095
-0.59312273326956988
-0.611726715958111011
-0.624393968413129885
-0.631566281839199828
-0.633944676845219712
-0.633085409993589865
-0.631603182723786238
-0.638409245463604336
-0.685344165914582693
-0.778916699810583646
-0.840879362642866668
-0.961653787980954466
-0.558789533293291285
-2.41987073092850835
19.7263040540306065
-0.57915994479086641
-0.623194594855583928
-0.660444315767483969
-0.691029972249729285
-0.715243276227653491
-0.733479524994779863
-0.746111814265900231
-0.753501552556824494
-0.756300383405250409
-0.756184182185912546
-0.756243722550692388
-0.764385065162199062
-0.80859160050630452
-0.906262472016618803
-0.960543596018638701
-1.07781786851829064
-0.691066723287474538
-2.26674039058161725
16.7669525337461778
-0.607947874776054276
-0.662250655919922604
-0.710161778642184771
-0.751744515798902002
-0.787086712187831106
-0.816325896450506905
-0.839707561859246443
-0.857536108363340377
-0.870108177485540812
-0.877730006074413316
-0.88101722660169135
-0.88159378725619808
-0.882382561883557681
-0.891117417675566958
-0.932989076423021091
-1.03463966791903994
-1.08005471109718942
-1.20219292652758525
-0.890882840202585236
-2.54244629247759946
11.4328688697624443
-0.0886257983072988864
-0.109870470011732335
-0.121815918621456243
-0.12597798824547124
-0.123384071563070297
-0.113493400665545696
-0.0943988167047034032
-0.083523873485284339
-0.14537803157962137
-0.287579070743643195
-0.369894508796044241
-0.570011269410309884
-0.0917900936526943045
-0.813957776951767187
23.5701461293736543
-0.171960790181357126
-0.200985676803886237
-0.221418965478985541
-0.233523205390962163
-0.238021535445115839
-0.235245639328927281
-0.224061076611102417
-0.200376274977981161
-0.183841913440827565
-0.249477123743794271
-0.393731721815558933
-0.472636422789315613
-0.702441436054810353
-0.237066724231552728
-0.714026414763033301
26.1237230689132502
-0.289792257326777714
-0.317422048031801296
-0.337049211994668863
-0.348963981453274563
-0.353350885434311257
-0.350266193445984531
-0.338400011823135616
-0.314116326970717008
-0.297036534343009473
-0.361664848846336096
-0.502992662134401636
-0.58897095124882981
-0.830430012922214744
-0.398117355723981214
-0.935102368209150825
25.1899800181687397
-0.410581753454255294
-0.436845966508390582
-0.455637925337272209
-0.467114646052498195
-0.471246569283212402
-0.467941440897050809
-0.456344757244676602
-0.43462817016282651
-0.42090552294257666
-0.485125093853136624
-0.624675843434118194
-0.723021859219503238
-0.958532233368108111
-0.557767732193688692
-1.06838007206139451
27.6928305375298578
-0.415696948905877051
-0.462074531497447039
-0.501340474879030218
-0.53343467580194015
-0.558401712190482735
-0.576378882655532943
-0.58739789241948781
-0.591307526742281597
-0.587953273152166167
-0.577084658742937018
-0.558466329830236363
-0.550622492756009718
-0.619866887582540826
-0.763316316912201476
-0.870036331896721471
-1.07205561828999363
-0.688288158083434576
-1.51875792341400029
25.5696005748270068
-0.546704473087322507
-0.590571684467586344
-0.627698915163579008
-0.658110825503494867
-0.681875843406297255
-0.699071187681117756
-0.709650798809788652
-0.713384344556990513
-0.710097548518046517
-0.69983178984188199
-0.683566634481859614
-0.679436414627942575
-0.749154187508010549
-0.90983093858656372
-1.01493721101336187
-1.16465394992392257
-0.773235103261780132
-2.13346803848828159
22.2717422023256404
-0.576439618483832961
-0.630994621844222836
-0.678987932297117736
-0.720526692494327436
-0.755698893661211457
-0.784568221377929476
-0.807207514599789011
-0.823662149161839885
-0.833839068120749261
-0.837454843211317357
-0.834278369880468107
-0.824184101895281795
-0.808374945436119763
-0.805525214641150233
-0.880586548529132429
-1.05361413772935641
-1.15093425314824049
-1.26234909390461247
-0.842526927024608074
-2.15704470769886569
16.0765872465979101
-0.0378326647025808427
-0.0603032477247558152
-0.0731130344168156032
-0.0777088575755551236
-0.0742936644519225364
-0.0591978655259386422
-0.0291677743347353857
-0.00744748870912381733
-0.0793765409046045534
-0.260094454260194397
-0.410818496494592234
-0.557471871284481946
-0.0339052279050955363
-2.46281607427221871
39.1011997927971606
-0.128101489245686651
-0.157319169423762339
-0.178129064022399142
-0.19042782066250652
-0.194253793381575557
-0.189050900447951031
-0.170261445788517651
-0.132995135186789515
-0.102020714329885687
-0.13615075899888307
-0.313086587936520111
-0.467892416201839634
-0.745161879596471399
-0.161744932789140927
-1.23541410936490337
40.6780328661542399
-0.251110497729975179
-0.278500798056309895
-0.298034279222344045
-0.309567236949493507
-0.312527760722881798
-0.305728882119083778
-0.284278192591526313
-0.242755603317492685
-0.205360401456958552
-0.212609731739460628
-0.376798786358484072
-0.549680737329976576
-0.894805169413892765
-0.315610418849043839
-0.74877598679197277
38.0200340100972198
-0.375287070417240187
-0.401126009938980843
-0.419453300181232391
-0.430006298245652285
-0.432061992055068789
-0.424011419972472714
-0.401513144873549388
-0.359074419394681543
-0.31525416529115402
-0.35352726136612489
-0.499827149459738607
-0.686832271227576285
-1.01542411173751912
-0.482601778979521612
-1.14846886358860445
36.5699498739443811
-0.385217234487937432
-0.430563239363424888
-0.468968442635768534
-0.500390411581559391
-0.524735394423249346
-0.541890314812401686
-0.551499014741976712
-0.552707635066584935
-0.543711643327040806
-0.520775204060722308
-0.479838395680909802
-0.440174120087809539
-0.501222713517122997
-0.68673367944877306
-0.851063361619888159
-1.13410259639055178
-0.629641347525325967
-1.11119577526203273
35.5314958682469069
-0.517177126906244844
-0.560331194025311508
-0.596742499700312345
-0.62643482170209519
-0.649354994917996864
-0.665375399123714795
-0.674067424943598059
-0.674478162402307069
-0.664698412627494406
-0.641225023566398322
-0.60125307370619252
-0.567045823333746757
-0.623008878640411545
-0.85572251252765108
-1.01675065730730863
-1.24900326614140988
-0.765657342674666674
-1.32036997433533543
31.5161793791529021
-0.548193755923407799
-0.602571133032928641
-0.650161389059021433
-0.691129776735847079
-0.725598352130712998
-0.753621260670618298
-0.775168916102122463
-0.790094624482164942
-0.797901053725735387
-0.797528855896444844
-0.786892484775403522
-0.762182810781954601
-0.721638939164432003
-0.691385258561787452
-0.74107074918209781
-1.02142493809197665
-1.17803533868999732
-1.35568502840113614
-0.882996033965782523
-1.6148669121320367
25.0511920370383336
0.0358104363832632
0.006548307518822849
-0.015343356988431367
-0.0294450356131139568
-0.0362852243812754605
-0.0348280213554250651
-0.0218041717960313353
0.00230250156175482168
0.0091824589908131582
-0.0339943282382058065
-0.100098109672372537
-0.35694347364122847
-0.584884173493656956
0.383721298068005812
-3.19685305213688409
60.9153456100016797
-0.0926490298747866259
-0.120318412530163066
-0.140494739962156112
-0.153078674887681343
-0.157969700134221069
-0.153978690710761867
-0.136428867274686949
-0.104002267589470732
-0.0813974620291466611
-0.0852468430251280829
-0.0017120907931431617
-0.266460929120663437
-0.911488747600469829
0.185414552434504998
-1.88043768804093148
58.4055682732749801
-0.219208950060370444
-0.245505218507005907
-0.264456898967223797
-0.275981754137520685
-0.279523460670277224
-0.273196107078828243
-0.251682872956149328
-0.212396954385076775
-0.172437306677458935
-0.140929890688430426
0.0191187714137530662
-0.216943609761312217
-1.25384619185162993
-0.158051242760761657
-1.42473349888043543
57.6180814088173747
-0.345291380785646362
-0.370223087619841573
-0.387978599297019056
-0.398363259240693601
-0.400560679267865094
-0.392118021345622347
-0.367676388352347727
-0.324559526407592447
-0.273969831252196094
-0.213465302739729523
-0.196262807452455945
-0.515151590344597565
-1.50313117215480219
-0.432357581386560996
-1.40165456270974254
53.441994457338069
-0.359194460061921683
-0.403592719580392778
-0.440930250963130765
-0.471351082080792905
-0.4948309358274674
-0.511298449870723148
-0.520477923431881928
-0.521338613198622625
-0.510993509589848571
-0.484492735350761761
-0.439617410363673633
-0.385445908577056517
-0.331810309351776134
-0.469032721956930132
-1.02607483478820782
-1.59556401033397655
-0.610120109931031607
-1.51691031102305551
49.2678456277807868
-0.491086049639333
-0.533446243546528143
-0.568944913538428798
-0.597700096750579668
-0.619682974703038569
-0.634812173138378455
-0.642689467109884838
-0.642154326685300036
-0.629949876702032618
-0.601013217111559861
-0.554442471505126377
-0.495386937481458789
-0.428949729586718398
-0.5461206598143864
-1.11662115185429478
-1.57564926847795483
-0.742659873679067717
-1.63370440738350453
44.1726194879985883
-0.523008680475619547
-0.577025700055761703
-0.624046105186736533
-0.664245227581540698
-0.697760393930039857
-0.724733105825865254
-0.745159245387840175
-0.758918790056791082
-0.765432103688434839
-0.76328207090687461
-0.748810275931409475
-0.716664202330460798
-0.668393217473893131
-0.607450361508925951
-0.459143817210614813
-0.534740805203917091
-1.12849343094350463
-1.56501804363161723
-0.85076580016498049
-1.69785854676753445
36.63770195585181
0.0691421622436043659
0.0434302850205727786
0.0237973087478455803
0.0103543734187425684
0.00268278804996913145
0.000386095138535713645
0.00593256408472964125
0.0181025237119967208
0.0150315804846128387
0.0151596095286190558
0.182509912993698897
0.0552085945053280014
-0.855757857582111647
0.995511637636522728
-11.4283411611250187
96.5953377088407592
-0.0628226928605448709
-0.0881017309644445135
-0.106845777976248391
-0.11930950343783131
-0.125611860063878922
-0.125773821607341629
-0.11768317433746045
-0.101700815023826774
-0.101832065865122834
-0.0798460880453757404
0.177039652703924411
0.0118718749852018135
-1.29456231194573412
0.356333034514923597
-11.7996976194834922
80.2040190890388658
-0.192118669580942258
-0.216919038141595077
-0.235068323113758471
-0.246950423443804468
-0.252685059323854766
-0.251749645624619545
-0.241587600654833867
-0.222445474876397764
-0.217300620913426723
-0.172765145154013533
0.10942332366621077
-0.310950078983104561
-2.0922945899091232
-0.150458582850331091
-10.9412562161061473
77.0968952651759309
-0.319445395202180071
-0.343452486669806767
-0.36086886365067028
-0.371981871642664386
-0.376862344678974726
-0.374819403358890302
-0.362458452970432665
-0.341098014252735782
-0.33158387481026641
-0.26368736203837706
-0.0616650109444787375
-1.06066032919568443
-3.06158845490870846
-0.626610016295037653
-10.7808045736421434
74.198520764878765
-0.335551368298457442
-0.379325669860525627
-0.415990124093219338
-0.445709567104292548
-0.468624327679783237
-0.485048114291751986
-0.49515193958138437
-0.498866762618598525
-0.49545821037338289
-0.481215819375089726
-0.459118213635951955
-0.450150897125199068
-0.357180627052349653
-0.13075447860685685
-1.45209544291475012
-3.53996808600950885
-1.12730954664510286
-10.5238283937532451
65.4765178071734226
-0.467127449722252397
-0.50884278534195615
-0.543674026463633275
-0.571797050036696675
-0.593337611389090913
-0.608536174454277212
-0.617450558249032389
-0.619815661598260181
-0.614393420235822552
-0.597929381441367758
-0.5771189703138353
-0.568903989304607949
-0.426642334398162237
0.0239707364065528949
-1.11727592829254796
-3.15610427252826931
-1.39490359650478313
-9.09131448781824503
56.7910818168775791
-0.499753655521957496
-0.553337009997743268
-0.599759942663761203
-0.639216280553333682
-0.671977189846462597
-0.698204648014586482
-0.718113049694674599
-0.731828303375060107
-0.739275022105879698
-0.739854441856634182
-0.731353288996000162
-0.712354871479974117
-0.694259175994150324
-0.675277130982752771
-0.452310691679830956
0.400450531704222179
-0.553618302919129945
-2.61308642475184172
-1.44839309915599612
-6.77916776670550014
49.8222082761431579
0.0910373684145024953
0.0688151073793090706
0.0534045545247059383
0.0442258676032190046
0.0391019870918494217
0.0364541119892538568
0.0354555319780340827
0.0364101802880960612
0.0405589074700913876
0.125114771140137249
0.490378884895636524
0.989894133581858515
4.12272572377055546
11.5890654929714145
6.76727041366541471
144.295577647584651
-0.0502771879651604525
-0.0741242445777432479
-0.0913777341882038296
-0.102861756502482971
-0.110241669313573265
-0.114236182087834592
-0.114603029640716558
-0.115174964369757715
-0.119471830465761819
-0.0380597770907888933
0.318727927215898266
0.72093007731274561
3.46900759268422121
7.46343486280299828
-3.97234843793074788
125.644483343468323
-0.184747282765058252
-0.209935480065761348
-0.228907274126086246
-0.242582956497370272
-0.251962205655790861
-0.25700954140676302
-0.25790027806046889
-0.260262577020876185
-0.270332861585591555
-0.196713351013491966
0.131684491552420457
0.489500169822293607
2.63024409571818296
6.51157020739156778
-6.31029851501289585
114.124558146251843
-0.31359445450949841
-0.338892253590433734
-0.35839910611813286
-0.373022549935201564
-0.383236869711121475
-0.388744597188366514
-0.389507855481254772
-0.393044463795714893
-0.403951032419917144
-0.3337376018980176
-0.0260392748887698922
0.389833129289252511
2.0195698921577474
6.50748221912808233
-5.98412156456890898
101.756436769489881
-0.32551113285049893
-0.369967943582702574
-0.407534766508705681
-0.438387004083335974
-0.462945647049884723
-0.482097904391419751
-0.496764603613479183
-0.507160352367314271
-0.512386476437528549
-0.51357744262408489
-0.518256179416314522
-0.531318264245092209
-0.467663105021332681
-0.135774519738678379
0.4830772696497867
1.76263409473386545
5.13123528431065523
-9.03014744288719839
85.4851475800398362
-0.453738190689819465
-0.496138738752265329
-0.531774820378053681
-0.560904357186022828
-0.58405658849878539
-0.602089123227233181
-0.615979887065615461
-0.625684429807667142
-0.630452162622588741
-0.632767066462317729
-0.641014756746004721
-0.658966897507254012
-0.596623984469876856
-0.128177331572495223
0.840995343403925233
1.53459178201897117
0.917977249151135766
-14.3308342075464736
70.2994121063837838
-0.482252779489922956
-0.536138370851923396
-0.582804705815022306
-0.622641545812470554
-0.655921777632799241
-0.682800045759696106
-0.703884130693347876
-0.719946548994668367
-0.731929379800407398
-0.739954847571307139
-0.743914392862806695
-0.748921181520684875
-0.765631764600771536
-0.785970433152143322
-0.688692826532454561
0.145892415363120698
1.7395359794875489
1.24298715219808287
-3.44697219866608862
-13.9697576554193148
62.4816168274994652
0.0328087637994030068
0.020974447742768465
0.0186467613660989961
0.0259075434357516343
0.0291877565921003779
0.0215095252193746589
-0.00165003417836917521
-0.026237156972225506
-0.0402008595091012388
-0.0388123022999309342
0.391039019323484283
2.07558788726062193
6.99218605312183072
22.3778200626472596
30.3847250723193838
183.010692520982673
-0.132937182616487348
-0.155856390665346289
-0.171015219365424631
-0.181726711708077637
-0.194696923973635361
-0.211528321020122423
-0.232457370590767542
-0.257889469756988454
-0.275876612405233423
-0.264667053186332435
0.220914695314828879
1.76785486464974317
6.82315174959610182
22.2777941218318887
25.5847053075925146
164.388946510817789
-0.254381330676186845
-0.283118612104326983
-0.306250598016840181
-0.326689879336992561
-0.348454369879380277
-0.371705626926449817
-0.395646670530907851
-0.417836658047438636
-0.423623810028534109
-0.374115472986697561
0.115246854218869821
1.4403404236185211
6.38653732052914336
22.4947748892105253
27.3724028313040719
147.968484512498151
-0.360197161595539717
-0.389573213202442536
-0.414214347807621897
-0.436673068220339244
-0.459782936882308979
-0.484398059874631803
-0.506745315856607981
-0.522580361566937546
-0.511533256787127577
-0.421578638739159128
0.0569215260847171223
1.1516755148006057
5.94195156170807426
23.9362460128632506
31.439463005683649
127.841377591699995
-0.340861565708746594
-0.388488138216427359
-0.429121811422731314
-0.463214737472106952
-0.491287146466509839
-0.515171353571050039
-0.537875542947063856
-0.561343306162814804
-0.584303795087285804
-0.604267089399880275
-0.611946097447299886
-0.593583179601510524
-0.481313693867344572
-0.0589151302870067894
1.05520071603178867
5.86170283365458644
24.9154195366857323
29.2730205267365591
107.523531343113575
-0.454185604858321268
-0.498602778579604555
-0.53608235780048652
-0.567109680476539646
-0.592758631717810847
-0.614930217926077605
-0.636210215588867145
-0.657923551737371159
-0.678902567987996086
-0.697063144116620181
-0.702144099094084373
-0.680847537313861162
-0.547541078992089147
-0.215154644537104645
1.17835581479153362
6.17395659445507228
23.188986836080403
21.6997370740580777
93.0834971747125905
-0.470635970310977036
-0.525762093884772463
-0.573537572315587996
-0.61426115805301329
-0.648134066147434851
-0.675774425969190018
-0.69829867271750512
-0.717623019917554616
-0.735987927752582705
-0.754116129122684553
-0.77202655367311479
-0.787953077169174287
-0.798021131058872735
-0.789289154373730595
-0.648344528429174005
-0.18880483181628005
1.57964177654180116
6.44099220894818103
15.4245042777477295
13.6411632400170788
84.1448613221301684
0.464473194359964037
0.459231941805530397
0.463708671270854023
0.481191460355527845
0.48309573915020998
0.444737137052818365
0.368953856639532063
0.331610119729894404
0.444290573525012222
0.907011609497390126
2.53128541117649153
6.0252121608926128
13.8283972959873118
26.1204638760103087
61.6055588409185191
202.590380353530037
0.183561209019481364
0.168069491623672906
0.161251752818257987
0.155045411875598393
0.128325307610417827
0.0825063633778730932
0.0525442153287660751
0.118047224372160864
0.242043550365434346
0.784385020244591225
2.33303920449098534
5.61143415522332312
11.5495074240881195
23.7338528844264474
50.4000138869535306
184.416338787643781
-0.0176506433473999635
-0.0407259397004797741
-0.0591082930184776423
-0.0729590917621867341
-0.0990147281555464609
-0.127808947503136316
-0.0993264395216113538
-0.0600329479223373763
0.0999725864790844687
0.666189892015035978
2.07961132872247045
5.1525556174177618
9.54253243504891202
22.6121358284445293
44.9804206389431869
163.55832180524078
-0.170573034749209373
-0.195636618037065446
-0.215283922414081452
-0.234306799050057357
-0.254491810192464474
-0.259885042256068122
-0.243082160510086798
-0.185753156392252761
0.00395373393663955852
0.539410038562362359
1.85457005641609651
4.46406179972617956
8.20053849811557534
22.9901905630345098
45.859139509750932
138.304929879509643
-0.217128986865524398
-0.256167269211111881
-0.28886628700440764
-0.316489191578190221
-0.339207964739633994
-0.358590319344158193
-0.379571025621165958
-0.402045642670321168
-0.410210180848562977
-0.394827329591797227
-0.319261155966712451
-0.133666279092046203
0.417318350177815489
1.70441206303675319
3.70633241926884871
8.06415875310286623
25.8457531565216883
51.2490555012631432
115.200692882174366
-0.360057884323353061
-0.398733948410897598
-0.430467398534659651
-0.456230030441207024
-0.477699003331722549
-0.496490497228445626
-0.516967429335210893
-0.536656501926829899
-0.55629990220330594
-0.551506361806893164
-0.490506524668789634
-0.290144097410193424
0.257380945362589042
1.57017556500623989
3.23780305063940421
8.37158861511194807
28.160124190028025
53.7793938507181224
102.069433856671537
-0.412518867911312981
-0.462522685572784642
-0.505563592509281845
-0.541394268607418683
-0.570222492390362712
-0.592690496388618593
-0.610672156538518696
-0.625954321646254863
-0.642133740777667272
-0.660301121878415165
-0.679710638445121917
-0.691450507560048111
-0.645490754014193868
-0.433547342943487291
0.08255293411990694
1.35197616073586246
3.43659227613184903
10.00142477029177
27.9407089393606327
51.0834520266943741
89.9905790185303829
0.123007314994829864
-0.101080244428718435
-0.220117995031275715
-0.283727552972371733
-0.322354074899079857
-0.346239057149817842
-0.360819468980017044
-0.371539068184020715
-0.377544518723559541
-0.388550463540070168
-0.38002302631391538
-0.44637472347967988
-0.196680998846587185
-0.937659684165694784
16.5670823018664919
-0.0130279197681939518
-0.237191912713335062
-0.355994613055765408
-0.418972655728181098
-0.449192009615054677
-0.460451736420741775
-0.470298156435869585
-0.479303244975094689
-0.484705514889599676
-0.492156422725880671
-0.507870635592995834
-0.493019751617578383
-0.610341121718722457
-0.412401819467192898
-1.29475802032770915
17.6445893720092499
-0.364430881466257794
-0.47981802040294963
-0.542910980171103619
-0.574737392852099127
-0.581224281510893892
-0.582410787791520557
-0.586087498362733217
-0.592498404410201851
-0.601279143152364526
-0.610464738490202552
-0.623502144091013566
-0.601724388858765002
-0.755040828982422085
-0.545440558270522957
-1.02026195790148932
20.6620337446926783
-0.602706306959846394
-0.659763708202051102
-0.692835621141752456
-0.700392586199094613
-0.698495990234149322
-0.697732778839140089
-0.703048525419252446
-0.7107844465644656
-0.719563429988580361
-0.729390092888046238
-0.741183813240579359
-0.713023543340830623
-0.873897777324240899
-0.633005488141304529
-0.682616254118414645
20.3154418862271768
-0.176339254458760419
-0.561849152961041098
-0.740561062686584504
-0.788391459247219095
-0.808067956346084526
-0.813275655087478677
-0.811898715655691716
-0.811444921516935258
-0.815261853340862097
-0.822222956987692766
-0.830879517202945062
-0.839859738967237535
-0.849537825829163595
-0.86301580248420795
-0.830977203471258252
-0.980033792332483444
-0.721080920891287169
-0.616742320600316418
17.0485738651508427
-0.454035781169394359
-0.794884554611684724
-0.934503759848589244
-0.934280090649030059
-0.923719092552328758
-0.922100056526418355
-0.924121812330707115
-0.928521316231507243
-0.934995657710311567
-0.943375674630135497
-0.952882943638493463
-0.962293313144631624
-0.971599038911494239
-0.98801947063777773
-0.955111206006571956
-1.06720194408872704
-0.858565027824980787
-1.44507915053792146
9.05720614130609647
-0.963646442986764162
-0.663920107030267381
-0.694704957576805726
-0.960443768445151225
-1.0518082434650291
-1.0401885578952641
-1.03248552646424097
-1.03519793382982783
-1.04129296774001134
-1.04850425232496458
-1.05699452928987769
-1.06663201196376334
-1.07700108648214132
-1.08701533329738798
-1.09603358641829307
-1.11465937885463795
-1.08066598695552596
-1.17786928722444495
-1.02233821515194978
-2.01863239723257948
4.5110796092397436
-0.180361047981617117
-0.262719780932064939
-0.303341798000755891
-0.326509973654417807
-0.33948507856052923
-0.348532771373363359
-0.357904073938020928
-0.366412022304161034
-0.373855182688390686
-0.388529204534324379
-0.369458135528213716
-0.443279932701858281
-0.121155576604244697
-0.931133554545905184
10.9615300192968448
-0.339806573897631914
-0.396989883061998228
-0.428102197164837439
-0.444635343333646293
-0.452669712400501911
-0.458899318989320237
-0.464526091604810509
-0.472085286003622873
-0.480498280001925293
-0.488544888849821834
-0.507910360113773773
-0.483681548785845572
-0.607588528763758906
-0.328235397660949557
-0.959461771233328875
8.91636536859289208
-0.529493359299969324
-0.545759643444859388
-0.556204515214608675
-0.564482039549945691
-0.568918526006823799
-0.572994329188532769
-0.579358254275788243
-0.587804255516857443
-0.597174532015552817
-0.606090105568350968
-0.624356937969066439
-0.595591064456690078
-0.749781589465311593
-0.484873679991356221
-0.878067941139489605
7.41936766779929258
-0.662697244239048189
-0.66682097307781385
-0.67264789465926178
-0.677939319336856472
-0.68329785372931906
-0.689132699969591145
-0.696929268560812276
-0.705998582913368256
-0.71553264040711384
-0.725273073124272583
-0.741989007466277495
-0.708736915432428005
-0.873167675628609641
-0.603088205341233197
-0.767162745787370426
4.73197989403274732
-0.845839548771203709
-0.798050579324319331
-0.783252151303505562
-0.779632871560658636
-0.781061360287555129
-0.786514011667779345
-0.793296503955929766
-0.800293417801065776
-0.807746901464349798
-0.816489887360499544
-0.826263527527533514
-0.835999687890827903
-0.8457915682057211
-0.86370523967756696
-0.827463291157176206
-0.991050194022440878
-0.727407742542411806
-1.06369604537441376
-1.42695460890428194
-0.971876502970004275
-0.912111247822397719
-0.89766621756516618
-0.893547502280475081
-0.895956925893854894
-0.902872701487957952
-0.911193112143020345
-0.919538114365171744
-0.928387387890242
-0.938107334896854939
-0.9485962911613397
-0.958718006333908246
-0.968175369141106912
-0.988695797437614265
-0.950919244637958183
-1.10544167839542196
-0.857467081053482016
-1.3825051786358773
-3.72661303140678513
-1.05180623559604181
-1.13124438465343147
-1.05609116080357279
-1.01732858417390215
-1.00937189654274562
-1.00819889664041096
-1.01306058406345745
-1.02172474737291452
-1.0312437488417352
-1.04098830322974956
-1.05108353753252892
-1.06173834426948765
-1.07293404676081217
-1.083604386420145
-1.09277957684134286
-1.1159053585377201
-1.07876615298261402
-1.22263977645859589
-0.981079888246734977
-1.22866976037627396
1.15710082995670405
-0.176883828230556706
-0.234621056838921427
-0.266774152845569046
-0.288017433617335117
-0.304702466641250558
-0.318253448692888297
-0.330590378399918894
-0.342104789220787464
-0.354630638962622258
-0.367112209166480907
-0.386040473206194834
-0.369681393035322103
-0.44259298127097213
-0.104517827553223475
-0.75897785105115112
9.90686172150833499
-0.347586262435776061
-0.375228218159200266
-0.397280773405092158
-0.413213247090513325
-0.4264125184137183
-0.437570211152917943
-0.448428992160860407
-0.459203096366679775
-0.471078991462028474
-0.482855761233575986
-0.506731911455223449
-0.485973850914290129
-0.60785817581587509
-0.320673894523703984
-0.876365271884630204
7.16084750877013221
-0.477937382872218985
-0.500664202798407176
-0.519841186213937045
-0.534306763267005325
-0.545712493870478488
-0.55567882168470617
-0.565821871340482563
-0.576797247665402968
-0.588434301207943822
-0.600599601303460795
-0.62442115328298986
-0.598502827169926976
-0.75206678806076166
-0.502477015931982796
-0.937959802582906121
5.32978986311331937
-0.604023547745836997
-0.625068600465182422
-0.641060184781353515
-0.653682695986929407
-0.664404145432974436
-0.674444281941933399
-0.684762120887274173
-0.695874908729688824
-0.707374282897477724
-0.720077339341632983
-0.741004390041422822
-0.709563260741406743
-0.878948412331887807
-0.636029728445260845
-0.975661746432724186
3.38969158212194088
-0.685103170741407141
-0.686001830926955325
-0.706500058420664323
-0.729432716134017833
-0.74715315696532747
-0.761176539794847895
-0.773262474900526908
-0.784165935190137886
-0.794639422934780959
-0.805409675681579396
-0.816824202178925041
-0.828232990504026212
-0.840633752353925234
-0.861099348315564894
-0.826036866157268235
-0.996048827035553308
-0.752675002920822789
-0.994216656197206561
0.662934216735720838
-0.807849048754670007
-0.809923470494149478
-0.832224991510898793
-0.852692569993062754
-0.868291842020578963
-0.88180826019778169
-0.894077134708882171
-0.905498325954635863
-0.916572567628819002
-0.92787128051059542
-0.939696412642629819
-0.951248597351138647
-0.962954482323096661
-0.985495637039364825
-0.949168979611072383
-1.11366167757622647
-0.878389838184010174
-1.2089031476002301
-2.50341467776593163
-0.945878729436034793
-0.947760959763132904
-0.931010690404691532
-0.936280493485088794
-0.957467574302353075
-0.975414917512751001
-0.990224351869423702
-1.00374355478847721
-1.01646668950103436
-1.02851951255952212
-1.04027259280471696
-1.05215485693589628
-1.06446075308512667
-1.07637981965921448
-1.08738512140576837
-1.11290372160977968
-1.07823511513192516
-1.23123493566185971
-1.01207902584674647