/*--------------------------------*- C++ -*----------------------------------*\
| =========                 |                                                 |
| \\      /  F ield         | OpenFOAM: The Open Source CFD Toolbox           |
|  \\    /   O peration     | Version:  2206                                  |
|   \\  /    A nd           | Website:  www.openfoam.com                      |
|    \\/     M anipulation  |                                                 |
\*---------------------------------------------------------------------------*/
FoamFile
{
    version     2.0;
    format      ascii;
    arch        "LSB;label=32;scalar=64";
    class       volVectorField;
    location    "0.510000000000000231";
    object      U;
}
// * * * * * * * * * * * * * * * * * * * * * * * * * * * * * * * * * * * * * //

dimensions      [0 1 -1 0 0 0 0];

internalField   nonuniform List<vector> 
7340
(
(0.0987442823523599078 0.117190172369403336 -0.195380029274772438)
(0.0289701266092421104 0.110813143247416507 -0.238922857967239805)
(-0.031090370917502469 0.108454431654801661 -0.264293352748673771)
(-0.0753793977450868402 0.108385165735828529 -0.276399174651058233)
(-0.108653151530850436 0.109758087044258601 -0.290245526219065964)
(-0.136973384604410608 0.112007144811840376 -0.308241659742346963)
(-0.161867180583264852 0.1107827543566208 -0.335813593369418961)
(-0.175164326696377604 0.0949502595613580108 -0.377405214454039906)
(-0.161286738381304667 0.0640835732910698952 -0.430819165079818545)
(-0.116870758829529492 0.0477777278637163821 -0.459286898454683457)
(-0.0381307660003967971 0.0684650369433284084 -0.403609870696912953)
(-0.0110068135901574826 0.127380711940197261 -0.257887060471165663)
(-0.474512463853638655 0.42602258263966003 0.0142390303551476541)
(0.680914160060938189 0.658465039938401997 0.428879169870964472)
(-0.884433796289386343 1.21118306001346543 0.759225057000209924)
(0.91156082074708189 2.35236854215707325 0.857298931661123698)
(-0.0274975843940641861 0.137310879748416659 -0.252418850823641405)
(-0.062412996802966067 0.12984822150208658 -0.264471542652729763)
(-0.0908282360352544033 0.125210278708961203 -0.273074418463751634)
(-0.114574428487707228 0.12274170395317785 -0.281565676298088818)
(-0.136047982279920793 0.122469098484225755 -0.291409852292635385)
(-0.156398727108081059 0.123172238733541023 -0.306781854152839484)
(-0.175614428932402089 0.12010393579500242 -0.333839820930508124)
(-0.189384029729785935 0.103320897761721514 -0.382436621816630073)
(-0.182735951640175587 0.0707379463690950422 -0.449904990704640406)
(-0.146292372968930828 0.0574796878213362644 -0.487730858221792518)
(-0.0655307774481311833 0.0981946468763668923 -0.427101206023374647)
(-0.0263743289706667855 0.148536902576357321 -0.262437216746811031)
(-0.484256169258130142 0.368308997366994295 0.0275280050235286976)
(0.71606528072524156 0.663227521427474764 0.423649639807161249)
(-0.867294184255147593 1.19620030110219111 0.74006282357110853)
(0.906722300146370341 2.31488866156434181 0.844893188848428345)
(-0.0598527191395282834 0.144849769339050471 -0.252728494177514751)
(-0.0821977996333474598 0.138117810924464929 -0.258205279037479807)
(-0.101193517415510539 0.133302537331226739 -0.263252118551147607)
(-0.119128818389756641 0.130743773177793482 -0.270588002989195942)
(-0.13618829034527466 0.130298792735337732 -0.280814001371414212)
(-0.152817440095217305 0.130969251064456088 -0.297015600183284656)
(-0.171020394697606659 0.129563648565919259 -0.326117637559338369)
(-0.186953346433798101 0.116933773585714051 -0.379951534625998788)
(-0.184816536097681644 0.0883324666362476502 -0.453684181787878726)
(-0.155275100765909946 0.0810044698650243394 -0.499080664624727111)
(-0.0740617285390133134 0.131142350339340408 -0.442770797723589737)
(-0.00496699866032603021 0.17312602129447946 -0.266425029163527616)
(-0.429730452278998476 0.324238823280308897 0.0674300094386875298)
(0.690502228729059753 0.683586459455954421 0.442217799242692389)
(-0.846793349895471281 1.19793005535700092 0.715723106807505616)
(0.901157182759166453 2.27662369186560465 0.82914815399030628)
(-0.0624638300846100253 0.149335031181912159 -0.237760673637445102)
(-0.0809224942842808465 0.143525022238492478 -0.243014628130930721)
(-0.0983370350196341586 0.139387270049790846 -0.249185073093015713)
(-0.115074961647046961 0.137270127229396882 -0.257818325252479941)
(-0.130827813339414317 0.137019564449203102 -0.270024240206422461)
(-0.146161908025169152 0.138445572035548248 -0.288322040407405833)
(-0.162810118748729082 0.139811025543710415 -0.319468758680616916)
(-0.175799787263914847 0.132589190797443274 -0.373974935354028371)
(-0.170463586263495281 0.108969656126188558 -0.445914961540955945)
(-0.141447341947843197 0.0998965806557020192 -0.486041100100392309)
(-0.0641737373683246987 0.160890724894591858 -0.435644786600725253)
(0.0238341875389905186 0.197531502205559928 -0.260401075859232112)
(-0.317436849619961325 0.328408105367811398 0.126133481732799813)
(0.416235388866177058 0.7538266740547791 0.509905902013403467)
(-0.839174977911680275 1.17806985786191531 0.678142728058557465)
(0.89454990120986333 2.23469152266864768 0.813540797036143681)
(-0.00364755160464189099 0.170551327915152512 -0.197938865865009306)
(-0.0223604016845288418 0.16530728181368598 -0.207672349331267325)
(-0.0413051141005399969 0.159155223651228389 -0.21574484407603664)
(-0.0598676302676344405 0.153424006438200089 -0.222471618674901561)
(-0.0779090544729412332 0.148682181762386179 -0.229124413723435338)
(-0.0953180448939438679 0.145426966759204246 -0.237155538271953487)
(-0.111791573656107202 0.143824169989329564 -0.247690792647123015)
(-0.127022119782846749 0.143989638321351587 -0.262030738061381108)
(-0.141304827804189792 0.146184368895975442 -0.282529905692565031)
(-0.154941299099891544 0.149587739879163545 -0.315206185843669329)
(-0.161693238459548222 0.146527666259309075 -0.368533138759399415)
(-0.146770089020072214 0.127664743084565935 -0.434342570954591833)
(-0.110682870863804197 0.118400432077270037 -0.462998378609433381)
(-0.0450698063572824645 0.182978997929140297 -0.409000239114114872)
(0.0677148581123793308 0.213470077204311631 -0.247726393947993395)
(-0.252440589230365775 0.392899785904362753 0.164152128746072989)
(0.181306637096441431 0.791765215393517852 0.52877808165030693)
(-0.837857778143960674 1.10119298146552014 0.647848392763332503)
(0.88511617431252021 2.19124712394633292 0.800062504595080437)
(-0.0027555290139403138 0.173075792485557045 -0.186816380400762289)
(-0.0214812278192087584 0.168369584672647871 -0.195314885820757678)
(-0.0403684841599167288 0.163204675812860744 -0.20304644419596346)
(-0.0589860510476444416 0.158480734209308638 -0.210403011755005309)
(-0.0770540362522931371 0.154699828212512047 -0.218356279058084107)
(-0.0943160067024122611 0.152180617985731376 -0.227952426620861848)
(-0.110409927082904785 0.151079497783249861 -0.240230938981364162)
(-0.125044344310717065 0.151679876262837077 -0.256526676210258875)
(-0.138023649336150994 0.154417108043802348 -0.279127284857176861)
(-0.148155225990136669 0.158450392199016105 -0.313064405509767107)
(-0.147801806776856642 0.157748458343827169 -0.364452490906078896)
(-0.121367491604632616 0.143279797816158933 -0.424344423788313996)
(-0.0736779049962364707 0.13522550113368087 -0.44794023113965542)
(-0.0265939020006407331 0.193559475429259858 -0.381506476599103139)
(0.123447123009387774 0.225523228210173676 -0.227457365614345014)
(-0.273779301605209802 0.431938046616354543 0.118409468697714321)
(0.254975839573818308 0.827505639172959051 0.499545499877021237)
(-0.833340732797825168 0.981477075991124881 0.644001352557249329)
(0.873682298154796921 2.14833100376816155 0.787775908591659912)
(0.0333464292378414864 0.182742495060219695 -0.164178305268517732)
(0.0150652872522320999 0.180446732707829044 -0.170400813609569657)
(-0.00342599399702402108 0.17703730414242197 -0.177906483366640611)
(-0.0222926323910093149 0.172831894138726433 -0.185551202047013558)
(-0.0412087501658114641 0.168525881628860313 -0.193097849193468674)
(-0.0597672595632097806 0.164676643250068755 -0.200952473430586198)
(-0.077620219179461325 0.161661059179940642 -0.209865023113655041)
(-0.0944501579537260633 0.159744671952280648 -0.220717532875644828)
(-0.109963731121985667 0.159154773431929769 -0.234530733671792502)
(-0.123851984738902174 0.160274712941297026 -0.252657292519097354)
(-0.135569695043034177 0.163480351305107685 -0.277384208130376508)
(-0.143167094696505098 0.167524978691027698 -0.313316748800520073)
(-0.138504824827971801 0.166826863034135603 -0.366066207732014814)
(-0.105862093485535658 0.155967893590195361 -0.429162544896492804)
(-0.0467972009767004191 0.150598302268038553 -0.459275857368168006)
(-0.0185695744222346901 0.199538484001682365 -0.380377559918351371)
(0.18266541023619165 0.251529078388764704 -0.210816950170436918)
(-0.329721453866130498 0.411931528790614343 0.0202684433827270138)
(0.452587773142094085 0.840775235671941235 0.446615771423142405)
(-0.825155174488857113 0.922107524917946786 0.66389413453537538)
(0.864010122289007754 2.11166848446893907 0.781010521548573977)
(-0.0179103636848961002 0.168206889046503688 -0.236545079349381793)
(-0.0646389089965581781 0.158921006528592257 -0.258470340251541975)
(-0.103788300407388664 0.151778369266408808 -0.272072656241056254)
(-0.137333818030346999 0.146645110088285291 -0.286016214108574918)
(-0.169440019222736882 0.140377954946876798 -0.302026721493821093)
(-0.202638094047607298 0.125056936850664602 -0.322657593650291619)
(-0.231323398148085779 0.0818083064517116515 -0.365489478986501304)
(-0.246337188388031203 0.0122565066522515795 -0.450492039346615525)
(-0.23497193066004729 -0.0129109979645561992 -0.538875519897878408)
(-0.135380197960281778 0.0699836383279699159 -0.49617744505002076)
(-0.025483123166082533 0.17098296721798098 -0.260110707397584351)
(-0.445408661739055189 0.416910532704829084 -0.00151224298626362851)
(0.7014645423229251 0.566822579088119838 0.336082204977316723)
(-0.914459562359689615 1.17160451571942814 0.847819967975757982)
(0.952209829456415413 2.23230712519796892 0.89270052864218119)
(-0.0542063840342262432 0.181703529235146988 -0.236695428445637734)
(-0.0804284006590787887 0.171109487905514585 -0.251745027879758942)
(-0.105120227807429648 0.161693252288619554 -0.262171349116832708)
(-0.130125016484502393 0.15434227314870938 -0.270710918820277036)
(-0.153464041477904239 0.148350159082684063 -0.279939727884282952)
(-0.178686737647725163 0.141140972676701171 -0.292852004668662791)
(-0.211310218691865337 0.125859292373325049 -0.316201639579590743)
(-0.254424340367418012 0.085220203674780351 -0.3747073884842681)
(-0.305042960841509336 0.0177325733250010831 -0.48862569154323332)
(-0.317762606776050394 -0.00579843615112795446 -0.594611475844348369)
(-0.205948944926990479 0.104306586969122539 -0.547914304373700034)
(-0.0638537538758967849 0.206041769991101353 -0.285845986957009357)
(-0.483677428615125748 0.344254910994089725 0.0347305458100699779)
(0.78069731754610161 0.507489063738319812 0.252175609976885318)
(-0.890094438409339661 1.1759983974235757 0.831083364183679119)
(0.940868410424969159 2.20128153296683537 0.880855043289857309)
(-0.0708259014997263958 0.177351678868381851 -0.232493098197281534)
(-0.0900868742042774673 0.168613649049339315 -0.241560746604443877)
(-0.109477408357132072 0.160589094214017208 -0.249489389653631988)
(-0.129588057773291826 0.154111743913404681 -0.257741901901260451)
(-0.150250927580345056 0.148493098390231365 -0.267975716239156725)
(-0.174422710306820827 0.142462261194631401 -0.282546842440643153)
(-0.209112375140546369 0.131991054478346442 -0.310928902404791874)
(-0.259292119443688573 0.101404589258683744 -0.377364690296286054)
(-0.323569535671512865 0.0382412571595608375 -0.499706312870279001)
(-0.351915348559690311 0.0192708322048944919 -0.61578322061114521)
(-0.240759573798860566 0.135518623212326217 -0.576068502796948767)
(-0.0806014029974033014 0.235217501292063258 -0.302869579197635352)
(-0.467261460495604519 0.263711230441534494 0.066698682557641914)
(0.761855703417855246 0.497165929807428075 0.222983029503698388)
(-0.873038522208957835 1.20346465791326684 0.8121338768671168)
(0.928443189547469849 2.16717558843169789 0.868294005870565599)
(-0.0690586816523316577 0.174219610438375055 -0.219179202962559522)
(-0.0876103051629448237 0.167044880426617331 -0.22766431355394981)
(-0.106672263629474601 0.160414235420670709 -0.236380879409623046)
(-0.126257123926943299 0.154723828171003858 -0.246432595029456858)
(-0.146756397844078235 0.149758655023303433 -0.259101917788853608)
(-0.170798147327350464 0.145495193182314825 -0.2768260622274204)
(-0.203974905101254878 0.140553069215980209 -0.308787917874833062)
(-0.248409001483987896 0.119927234671120181 -0.376632502290529914)
(-0.298932861935133021 0.0622616414942865348 -0.494385876068134944)
(-0.331163712862829585 0.0388117320210418781 -0.600161836381863489)
(-0.228443819581961943 0.157006647757111539 -0.557896009401917747)
(-0.0752676509970338498 0.254100698763530475 -0.290411123953503769)
(-0.384217993872118357 0.216274645739532312 0.0775635373598559663)
(0.716691005030428041 0.527502373637210753 0.275372127783479637)
(-0.823732294080507188 1.25885760731362217 0.779951304090993336)
(0.914233377211020048 2.13108576949609718 0.855474717160707998)
(-0.0110664464469759499 0.185512005079515541 -0.179161576966932384)
(-0.0297237350940089615 0.183537697635791697 -0.188983609679069936)
(-0.0483223797127359037 0.179268886706730718 -0.198629094458461108)
(-0.0671220776245842338 0.173611911889779008 -0.207726332074732262)
(-0.0862195747399383677 0.167621352369580812 -0.216904064820140824)
(-0.105684016184937682 0.162010049916572724 -0.227029279080384783)
(-0.125465811549059947 0.156987953355045173 -0.239085524163324181)
(-0.145970304725796557 0.152702361372569706 -0.254242181858913285)
(-0.169127715638675263 0.149776564487126645 -0.27505210937009239)
(-0.197838779839008605 0.147313621468426609 -0.309834649726729305)
(-0.230006776138919872 0.132660811552816976 -0.378133734079802442)
(-0.259596668569328726 0.0851313766089816099 -0.491357995186818997)
(-0.277738389331705859 0.0626907913447602438 -0.578707799251476529)
(-0.188348529797342124 0.175533631553319303 -0.514720918234450209)
(-0.0248565460660489929 0.264083607612529581 -0.256309278160637977)
(-0.364737664975859188 0.207499647646026297 0.104813902962889491)
(0.527101147181727958 0.610327919154504461 0.38519720193763668)
(-0.831098999607151612 1.24716596560919002 0.749486121299384744)
(0.898623982365181262 2.09486140592736403 0.842188293254083842)
(-0.0103686881219334226 0.186990667442254344 -0.17271439117168344)
(-0.0293821228004587272 0.184488167962130079 -0.181245727554804004)
(-0.0484106389476782611 0.180456968623682074 -0.190140135370862495)
(-0.0676350459993366043 0.175545448904887519 -0.199333368663877658)
(-0.0870901706360968225 0.170426558573779696 -0.209296623762300904)
(-0.106691056859886488 0.165545884224382933 -0.220755131714436365)
(-0.1264470726690268 0.161102245582750464 -0.23464604151902041)
(-0.146717055244201144 0.157304087087338784 -0.252218604876845387)
(-0.168698763439871224 0.154629134554676057 -0.276132091939686908)
(-0.192777278145342068 0.152498432916242571 -0.313509265204241272)
(-0.21179857881501396 0.139581795176145329 -0.379185228681732156)
(-0.216191086005721927 0.103440426773936334 -0.482462309219037377)
(-0.211564500881516848 0.0937701744424870864 -0.570860999499622324)
(-0.142527445235014011 0.184014568834757197 -0.491232462045385232)
(0.0515156852837029069 0.26867876575519245 -0.232500373774198799)
(-0.238301594779078085 0.265543205736847754 0.125749392570159213)
(0.163416307259452637 0.710493405109289045 0.486709948942185777)
(-0.825667264729859518 1.20787005398943781 0.716723366245883176)
(0.884883477176438005 2.05952944578927966 0.828877508217875758)
(0.0291164121366527806 0.193244696125651316 -0.155405860004183549)
(0.00880613220442099873 0.192095014717017787 -0.160377238526183852)
(-0.0108713542579050859 0.190271188109436246 -0.167068372283857874)
(-0.0303605914260086165 0.187444107296280943 -0.17487559349651649)
(-0.0498346029314610181 0.183684900754209485 -0.183446640124472427)
(-0.069358096445177278 0.179365731373245407 -0.192866101649096316)
(-0.0889024567034947255 0.174897684897801248 -0.203584472978960929)
(-0.108400024275051285 0.170603698188687869 -0.21630107970549417)
(-0.127945605373050275 0.166707633800634414 -0.231983246404623922)
(-0.14793540990582757 0.163463345307574753 -0.252029050553164158)
(-0.169452777102614915 0.16087344677728474 -0.279284188481541962)
(-0.192530600268790597 0.156340949451171968 -0.320766212578699861)
(-0.209660269450728992 0.140935122094890758 -0.391706669614362346)
(-0.209196240948194362 0.110457595509884141 -0.506414956580842235)
(-0.194314155241857134 0.112710177463728967 -0.615538185540306815)
(-0.12958153507215342 0.203212350704149947 -0.531068292156526067)
(0.102554552629653226 0.275353176075472772 -0.230938818786765476)
(-0.247058362994128811 0.30428401867652366 0.111057415096280684)
(0.299169070107789259 0.760577625103738164 0.492306878192500685)
(-0.81659971180935842 1.07831051688871082 0.691336776277594378)
(0.867758435718817944 2.02607396272921969 0.815335045547766812)
(-0.0709790045694179 0.203603565721209467 -0.217403435485337804)
(-0.0987454879166498323 0.19345805709555311 -0.234494731965661035)
(-0.127003722822396165 0.182346611129919206 -0.249560644370981716)
(-0.155071202743007841 0.171109576144640479 -0.258748584424781769)
(-0.188875524181584792 0.156572043131479877 -0.266188790137025733)
(-0.223937833260839103 0.128177813140167546 -0.272804433925623369)
(-0.267886026466569449 0.0676796101906348702 -0.304396632591599381)
(-0.348713584553421052 -0.0119800218453018914 -0.424386470216379208)
(-0.442784567217548497 -0.0207805349131157252 -0.600682860947274744)
(-0.414937084855116489 0.170805892689116057 -0.63276195211338071)
(-0.33954132676638793 0.425529662329630409 -0.392781254275585023)
(-0.311433117493856049 0.577217443335074742 0.120553369137677835)
(0.371871673995467833 0.672107030433251484 0.501525862443106041)
(-0.921911349849202644 1.23389057855155304 0.885880461342743342)
(0.967940685627035058 2.11676308471620045 0.905635298575646175)
(-0.0772634045712012885 0.20259194908584241 -0.209359387483829901)
(-0.0954756119802068065 0.194645642049209727 -0.22315445037730286)
(-0.11781177119439179 0.184924212718633074 -0.23332520274214319)
(-0.139021642678138768 0.174641985984513359 -0.242208377324510254)
(-0.162084488183169728 0.163531081103955811 -0.249095530594634268)
(-0.191335563158609279 0.148765404081887959 -0.255060952816277997)
(-0.230613869452630293 0.122601524397642159 -0.264467993370903653)
(-0.302176427930621716 0.0732267766124897884 -0.314882985926514203)
(-0.449344180533755466 0.00600633227524587782 -0.472851785918758927)
(-0.574349819247736093 0.0209867379351586225 -0.654285553052137203)
(-0.526280865937792663 0.202785608959579811 -0.683638925602269465)
(-0.388603631476263756 0.439809895843364163 -0.435448828498840257)
(-0.356631502887432783 0.566469503468320812 0.12447606214314777)
(0.590141710455915347 0.579366796419716668 0.352620887755627332)
(-0.906234508456462473 1.21115100502082118 0.871796014778176698)
(0.958731877320862957 2.08457705021870465 0.894824038407376676)
(-0.0787856158978785109 0.192531888605676965 -0.202038675526096972)
(-0.097082290140143454 0.185195147454736336 -0.212731503485104834)
(-0.117152042607359147 0.176556915105297557 -0.221992661876927649)
(-0.137870775775344068 0.167372278088898568 -0.230822251643711507)
(-0.161178204658917579 0.157079738975565181 -0.239233084805930141)
(-0.190716779118192126 0.143700284008875023 -0.247335269769163119)
(-0.234759138090244096 0.124174456207198927 -0.26160857551183847)
(-0.320173766708770347 0.0916873573988524759 -0.318274828498679385)
(-0.482199877267737942 0.0441854364106802899 -0.476101051293407074)
(-0.628645800060201654 0.0324936017896855223 -0.665772947882041)
(-0.587243701433480814 0.215839863358843032 -0.699316750410588495)
(-0.406334963107329361 0.438672618174651086 -0.453780798295116528)
(-0.388291967133571836 0.488764531750635167 0.127194970141612296)
(0.776223852225929822 0.507582541999343384 0.210345772018022403)
(-0.870651267413580454 1.22645630425906726 0.844327878547484589)
(0.946992976620714244 2.05179680738971459 0.882648744921819661)
(-0.0767100627925086376 0.186231023269253448 -0.193613799481028803)
(-0.0960889717754975226 0.179510231766746686 -0.203557897323844605)
(-0.1164743640813522 0.171622143428286661 -0.21342228492848031)
(-0.138159066939763264 0.162963019104291923 -0.223642570386365591)
(-0.162332611626867213 0.153168327462932879 -0.234334902939933087)
(-0.192416809226630015 0.141506036703659355 -0.245587471234163496)
(-0.237390357104821259 0.128431234295660529 -0.263095059960714028)
(-0.315362298245669248 0.108978313548663192 -0.317906384491286387)
(-0.452653978073500773 0.0725937987181787259 -0.468246494921735701)
(-0.596917701557918789 0.0550598134185208421 -0.657224496700242855)
(-0.568732219767583702 0.210104352724918286 -0.675678674033351689)
(-0.389095823820930553 0.416797894893379817 -0.411405399232712243)
(-0.382470451813246903 0.399477014738933711 0.150994284102030668)
(0.708329980275213322 0.4501669850303886 0.145691654384247554)
(-0.873168091577283478 1.26475917519262882 0.821093098285397005)
(0.931831027445046978 2.01895770284169851 0.872069516010201662)
(-0.0182855753386635261 0.191425977622157573 -0.161792493472976751)
(-0.0379413967476941311 0.191357249134228496 -0.169466165317299577)
(-0.0571780698910958618 0.1887902298022682 -0.178372426124790456)
(-0.0767675080846058899 0.183935199409769157 -0.187969827924791277)
(-0.0970781376712457483 0.177507273765691753 -0.198034993856038066)
(-0.118292998691601259 0.169993368474653295 -0.208810236065206711)
(-0.140808425526805781 0.161584741454645409 -0.220633364640301338)
(-0.165454553705762841 0.151995420232517553 -0.233657988194886479)
(-0.195210645525286747 0.141144190898690319 -0.247940894525231936)
(-0.23668381093053048 0.13012985618306247 -0.268019548842030775)
(-0.300971337104557146 0.116079966084349548 -0.323550671223278352)
(-0.410220301984637548 0.0886245374506261646 -0.477083275237918658)
(-0.528469136836646758 0.09800953929599307 -0.64897487226783046)
(-0.508632688772225228 0.218576057672815238 -0.637765519276809689)
(-0.325930958241341162 0.387034330282284678 -0.300547894170413943)
(-0.378459495011014613 0.309778841574614439 0.20337198260579975)
(0.78866580968090072 0.424627615905975364 0.178544416415276186)
(-0.811573991315975851 1.32415764457668894 0.792490875871853517)
(0.917464961395096479 1.98611014822820797 0.860634605810186359)
(-0.0176857645181513409 0.19437171427469202 -0.158986328728163068)
(-0.0380130385422028025 0.192916278516411299 -0.166186304549286123)
(-0.0580842919609687591 0.189703748383506343 -0.174666701120881035)
(-0.0784270222388767924 0.184802822404304734 -0.184170774522194991)
(-0.0993865323755660779 0.178565499000759631 -0.194706249101999906)
(-0.121176436483907746 0.171286976701290228 -0.206543528596810522)
(-0.144185618518980929 0.162980053465725222 -0.220067205479869715)
(-0.169273974597548199 0.153204662196962549 -0.235534742877166692)
(-0.19876416409814171 0.141486274483548918 -0.253075882911543704)
(-0.236995570876582157 0.128204457936289706 -0.276130631079212374)
(-0.289055693929762436 0.114489311088074433 -0.328900184348975)
(-0.367920107789487028 0.0986885950631278541 -0.46824073569299951)
(-0.446951924829296687 0.117318615753372768 -0.65436846759337175)
(-0.424480120544478812 0.242097708280267387 -0.627689881143371431)
(-0.260465848774416919 0.361181573888509411 -0.257675233483280197)
(-0.308158911737495267 0.240424521977645772 0.225132564815759328)
(0.555483385008781139 0.486083794686217208 0.265938444182614198)
(-0.831754865522766895 1.3247615079578916 0.767722701942708641)
(0.898350801784762454 1.95722815809859729 0.847940763038757206)
(0.0254626941122516465 0.201608601972165846 -0.146097870041384581)
(0.00330895105402560091 0.200337362735595853 -0.150090558837208787)
(-0.0180491741755823415 0.198853418024417555 -0.155725963266547612)
(-0.038949559110068685 0.196488214752532614 -0.162848566206547557)
(-0.0597168457908139744 0.192855175255261191 -0.171331922485855215)
(-0.0806804128654435987 0.187909716606659255 -0.181113376478461791)
(-0.102120064870166699 0.181807226954413897 -0.192366852687230194)
(-0.124289669341230327 0.174695715828121378 -0.20545841283168001)
(-0.147661164895182634 0.16647272050615089 -0.220903547357105601)
(-0.173403160107703347 0.156555393283516059 -0.239053235532573488)
(-0.204566694634320173 0.143790920716422604 -0.260121839485116024)
(-0.247869319152639517 0.126811020510495115 -0.288401750003812851)
(-0.311045026916143941 0.1046244521545793 -0.351633862261776342)
(-0.395765092422454334 0.0827130215765357196 -0.5116532416162487)
(-0.440524620956976531 0.12504326826983439 -0.712590903244256224)
(-0.402618818267972245 0.291840039189774414 -0.715781250902600696)
(-0.222665149726691408 0.376707816896816705 -0.297501071106101356)
(-0.28474189018311663 0.223401533534655167 0.229354154101362562)
(0.468969904303115026 0.607852225627791398 0.387295268532671544)
(-0.798225245986900367 1.25353598831695634 0.720071320094085476)
(0.885433332826368713 1.93339312295309651 0.833542976968534521)
(-0.0849025601262345664 0.212836208126517934 -0.172734528459016046)
(-0.098535721406743465 0.210282236951069013 -0.186601587897967297)
(-0.114869039491686226 0.20194271473202885 -0.200161227137087755)
(-0.135714772723616151 0.189771573743639288 -0.213271457131823744)
(-0.159728134628803281 0.175205676973047925 -0.217561326603168348)
(-0.184397566434148591 0.156711889318971814 -0.216798404353743257)
(-0.211779686429744041 0.124813085387008596 -0.209744317297828081)
(-0.252266789099233779 0.0741943262311096086 -0.215621755999849229)
(-0.37997361254914902 0.0400622279852493532 -0.337295040043459449)
(-0.614607920975886679 0.112769704110351199 -0.597591680195721953)
(-0.741606470317801136 0.386448094277436482 -0.72751937596248073)
(-0.774155214040041617 0.747478838627094411 -0.662171521467474933)
(-0.515069096812643679 0.850522217901264366 -0.281392973084988396)
(0.179117347189189813 0.728375550829556295 0.495390329333513124)
(-0.907860358971795733 1.41758842430127752 1.02268883733702998)
(0.936722221283781575 2.03744399801843201 0.884287524128849811)
(-0.0871721299395720739 0.202428235435286541 -0.172938610590340297)
(-0.103415523042111962 0.197837729348944807 -0.183626663494286801)
(-0.120513214187580209 0.189460311192099079 -0.193790004972417274)
(-0.139828238802889859 0.178312485414403754 -0.202698342521011515)
(-0.162278401762689678 0.164539489598554522 -0.206829544895940326)
(-0.187932197312613847 0.146152162346610964 -0.205608731182112286)
(-0.218972925729475826 0.116981923118184755 -0.196430517483422745)
(-0.282032456651385988 0.0814355159880372353 -0.213241866517043938)
(-0.462150815635220591 0.0872344137063756075 -0.36320106474680014)
(-0.736679167250970268 0.191128961992632296 -0.636769767528213348)
(-0.833113158513269614 0.422492639582741969 -0.737203954865022437)
(-0.799343610134962912 0.73780252031663085 -0.67931839142295003)
(-0.49590644572168957 0.845511425009951689 -0.294128268117267888)
(0.39221122580634743 0.699050470797537682 0.464607349525203439)
(-0.898234414314319385 1.39172002559102359 1.05493285303118234)
(0.930935864885408693 1.99945672857646173 0.875484983427868846)
(-0.0860133981953984106 0.191292480007760779 -0.168182920014014498)
(-0.104091985843333637 0.185811601702436408 -0.177305052692291437)
(-0.122904203914531038 0.177571688075992939 -0.186084253486550305)
(-0.143153089680240625 0.167179388638414389 -0.193812083286485359)
(-0.16590093186469862 0.154044422846116746 -0.199108014785085913)
(-0.193049311973367055 0.135844993532108549 -0.198773175249104095)
(-0.229130195119949115 0.111051060325155368 -0.190758690954086541)
(-0.30634315591742084 0.0927756962974516375 -0.210821189192247516)
(-0.501300755972332812 0.126483151261174848 -0.359709772402494909)
(-0.768516912468465208 0.243846881877988308 -0.626375272379399495)
(-0.853236072964593251 0.433964750984768 -0.737862412307199622)
(-0.777187655372414632 0.686826129049547096 -0.674507511818307925)
(-0.463111632097719217 0.80997970338269476 -0.3271858776327351)
(0.528387034658020283 0.685159746459697017 0.314304359196343197)
(-0.874742379923462821 1.39435684799140946 1.06664390610864701)
(0.923504069699741414 1.96027429665829289 0.866200408791026)
(-0.0858882848448675185 0.184690564474401492 -0.166036101630647359)
(-0.105828349511301698 0.178384145933394911 -0.174525405954200297)
(-0.126362201293986343 0.16971110141882445 -0.183058318933243397)
(-0.148073036117836926 0.159075077274060284 -0.191279111943757657)
(-0.171754910156148077 0.145630456860748214 -0.197994310439415927)
(-0.199207814990698007 0.127615565175862505 -0.199339017398841301)
(-0.237313650870105253 0.10693373841864566 -0.191832491095566465)
(-0.315897308201774862 0.101948538176026615 -0.204877334904301739)
(-0.495808494473596983 0.155658689939528055 -0.340969188618760966)
(-0.724545370281652001 0.273283761054565366 -0.603901513153836111)
(-0.813556491116666725 0.428758821623601627 -0.735581422298197674)
(-0.73769275077263663 0.624034965682104925 -0.64857961845133616)
(-0.414396017899791413 0.749216696222524847 -0.325446890976753445)
(0.601871458868445064 0.648837332756892482 0.14584876656157536)
(-0.856421643767683372 1.42168422661614979 1.08535959136379945)
(0.911972096395995968 1.92119092337096031 0.855732377548701573)
(-0.0239766845678910656 0.190817898826097787 -0.147580380690687962)
(-0.0455755184486542758 0.19020550296216221 -0.152333951574263993)
(-0.0664152878396752494 0.187870976589755156 -0.158710914088024541)
(-0.0871470956397080859 0.183125166073431517 -0.166407765058711216)
(-0.108421246802389432 0.175943542051187091 -0.174930036244431486)