/*--------------------------------*- C++ -*----------------------------------*\
| =========                 |                                                 |
| \\      /  F ield         | OpenFOAM: The Open Source CFD Toolbox           |
|  \\    /   O peration     | Version:  2206                                  |
|   \\  /    A nd           | Website:  www.openfoam.com                      |
|    \\/     M anipulation  |                                                 |
\*---------------------------------------------------------------------------*/
FoamFile
{
    version     2.0;
    format      ascii;
    arch        "LSB;label=32;scalar=64";
    class       surfaceVectorField;
    location    "0.510000000000000231";
    object      Uf;
}
// * * * * * * * * * * * * * * * * * * * * * * * * * * * * * * * * * * * * * //

dimensions      [0 1 -1 0 0 0 0];

internalField   nonuniform List<vector> 
20856
(
(0.0629289605299489102 0.114001657808409956 -0.217151443621005913)
(0.0356233489791479979 0.125732814068362397 -0.223899440049206866)
(0.114582815833257565 0.0824114033427723186 -0.190700952408445784)
(-0.00162538976008692253 0.109633787451109077 -0.251608105357956802)
(-0.0167214350968618169 0.119764089238968141 -0.251697200309984714)
(0.00552988146217305455 0.139510016146960042 -0.241771904766505202)
(0.0414185512177332599 0.0807633352582844688 -0.234328289319328253)
(-0.0535620518995024511 0.108419798695315095 -0.270346263699865974)
(-0.0609593034763783737 0.116641830906195315 -0.268683885606212702)
(-0.0478646399570303166 0.133687719091696966 -0.264523447901315323)
(-0.0175962568002339878 0.0827163297815013548 -0.257429256570398723)
(-0.0922332406249024156 0.109071626390043558 -0.283322350435062098)
(-0.0949769131163969854 0.115339232288958163 -0.278982425474573525)
(-0.0895838490762377732 0.130081767501118689 -0.277089350490745956)
(-0.0601185626673190754 0.0863548356618516616 -0.268219636964465769)
(-0.123187154121990869 0.110882615928049474 -0.299243592980706408)
(-0.122350566905385635 0.115928501356163643 -0.290827689255850674)
(-0.122993484780598752 0.128201598566272001 -0.290949123264041487)
(-0.0914269991517429048 0.0910966214927175638 -0.281072247311332735)
(-0.149848202152383703 0.111394949584230588 -0.322027626555882851)
(-0.146686055856245778 0.117642836812400717 -0.307511756947593251)
(-0.153206701913573717 0.126192549879358545 -0.307977791529729372)
(-0.11664678251763333 0.0970106341232886138 -0.298809042802945013)
(-0.170416154691603372 0.102866506958989426 -0.356609403911729461)
(-0.168740804757833457 0.115543419305379591 -0.334826707149963543)
(-0.182252637315436034 0.117919845603642701 -0.332364722968386095)
(-0.137799839974296512 0.100210359267963844 -0.325103322606306755)
(-0.173306113271206236 0.0795169164262140848 -0.404112189766928975)
(-0.182274178213081783 0.098840587683932557 -0.379920918135335017)
(-0.203243862422231664 0.088379283006534845 -0.376028989869496733)
(-0.147356751191352331 0.0933258426920178658 -0.362311670592281532)
(-0.137779476851194321 0.0559306505773931387 -0.445053031767250973)
(-0.172011345010740113 0.0667114757895148208 -0.440362077892229475)
(-0.203811963384667949 0.0381700399716607408 -0.447325399015882474)
(-0.133579240217314654 0.0761735044271316247 -0.40559042331224443)
(-0.068007348631090439 0.0581213824035222149 -0.431448384575798705)
(-0.131581565899230091 0.0530343247769960308 -0.473508878338237904)
(-0.175921344744788377 0.0174333649495800845 -0.50272851182400291)
(-0.0951510484886031044 0.0679898777735026827 -0.425300253120765359)
(-0.0601150698152553148 0.0979228744417630914 -0.330748465584038642)
(-0.0518307717242639937 0.083034788898743217 -0.415355538360143828)
(-0.0867554819803391664 0.0692243376356491691 -0.443345819829346122)
(-0.0327850970595904775 0.0770905391589180172 -0.385801836524399921)
(-0.133911627784517845 0.276701647289928632 -0.121824015058009022)
(-0.0186905712804121132 0.137334866388111487 -0.260162138608988347)
(-0.0182449683781200113 0.149181839579089121 -0.255003839592008175)
(-0.0248579816917356214 0.137527936914252441 -0.281801191589678368)
(-0.0529822554450848082 0.542243811289030986 0.221559100113056073)
(-0.479384316555884427 0.398819547434434374 0.0208835176893381741)
(-0.459960562796346895 0.421466557672244557 0.0181908395053610242)
(-0.405030710709880504 0.458280357683942985 0.0147984466594909981)
(0.00982966200242507693 0.934824049975939597 0.594052113435589724)
(0.698489720393089875 0.658994591531297136 0.42626440483906286)
(0.691189351191931589 0.612643809513261028 0.391525667321602322)
(0.584923628752663127 0.728989107000208136 0.486708358802995955)
(-0.0216338133560703277 1.78177580108526445 0.808261994330666256)
(-0.875863990272267023 1.19777187959585385 0.749643940285659283)
(-0.899446679324537923 1.1913937878664469 0.80078584676879383)
(-0.87169420655523866 1.24920548545783561 0.731434199864954615)
(0.909141560446726116 2.33204022420452173 0.851096060254776021)
(0.931885325101748596 2.29233783367752153 0.875503611316974961)
(0.903221794454448501 2.3948157284852436 0.829720459927675513)
(-0.0454367115825537946 0.13357955062525162 -0.258445196738185556)
(-0.0436751517667962677 0.141401666496455636 -0.252573672500578106)
(-0.0408519842141451817 0.159507204491781768 -0.247705561077275649)
(-0.0179284647245704191 0.110273307382240157 -0.253651230139814332)
(-0.0769297806383666405 0.127529250105523878 -0.268772980558240726)
(-0.0723053982181567356 0.134512898612256765 -0.261338410845104785)
(-0.0714206987310224001 0.150478854703800513 -0.260790212995980986)
(-0.054490671635861479 0.106328014865788717 -0.262781680501861292)
(-0.102916513138089818 0.123975991331069485 -0.277320047380920365)
(-0.0960108767253824713 0.129739080679574126 -0.268163268507449648)
(-0.0979742319213420532 0.143451765498790434 -0.269913585563626546)
(-0.0828335274875502958 0.104986741138032275 -0.269700480017003141)
(-0.125541044686325515 0.122605401218701809 -0.286487764295361991)
(-0.116851623438731927 0.12714667724215642 -0.27607683964364238)
(-0.122349722486104803 0.138541988550943601 -0.278340611245816882)
(-0.105704685299641776 0.10569055332070261 -0.277344057506848374)
(-0.146513300434467253 0.122820668608883382 -0.299095853222737185)
(-0.136118136312597726 0.126786249207913454 -0.286111926832024799)
(-0.144756011878912544 0.135409628783454972 -0.287877060752931513)
(-0.125304328307077162 0.108365786142281748 -0.287128130221237732)
(-0.166144177332691795 0.121638087264271749 -0.320310837541673554)
(-0.154608083601649182 0.127429106206822823 -0.301898727168062098)
(-0.167542732377903125 0.132156605705121111 -0.302188828613599969)
(-0.142505153592273115 0.112130003628851727 -0.302242365299011329)
(-0.184374130833279165 0.111712416778362036 -0.358138221373568877)
(-0.173317411815004402 0.12504173486437023 -0.329978729244923275)
(-0.193462323812133713 0.122981614084163735 -0.327890779808306831)
(-0.156816865338204936 0.113199129963000994 -0.327118941663494089)
(-0.192043700316037652 0.0870294220654086736 -0.416170806260634629)
(-0.188168688081792018 0.110373828628225604 -0.381194078221314403)
(-0.221904185048601904 0.0942705507182509395 -0.383249683343305336)
(-0.163560464699178593 0.104754086254144951 -0.367846839275924431)
(-0.16193867108338475 0.0641088170952158753 -0.468817924463215963)
(-0.183776243868928602 0.0798862726359278325 -0.451794586246259566)
(-0.243889456240842517 0.0442352598470480349 -0.475941649525148947)
(-0.15077063272566274 0.0859087116652864496 -0.419481091797779149)
(-0.0968129389746305996 0.0778371673488517657 -0.457416032122583305)
(-0.150783736867420387 0.0690697940396823862 -0.493405761423259814)
(-0.232027489872490611 0.0258406258351041515 -0.540654291751518801)
(-0.11586766338469065 0.0792673689646956892 -0.443452619616980237)
(-0.080495851344116201 0.123365774726362107 -0.344769211385092866)
(-0.0697962529935722137 0.115085857962772167 -0.434936001873482136)
(-0.135739861187560762 0.101250616922744716 -0.47739816329572704)
(-0.0539120467840600373 0.105404064096154007 -0.396975526220370023)
(-0.138908674995781883 0.258422949971679805 -0.117454605861637543)
(-0.0156706638154963836 0.162936131339321499 -0.264431122955169351)
(-0.0451140414232817366 0.177289336283729282 -0.26856299395305866)
(-0.0421683720097097425 0.153895953338349462 -0.275771598193943923)
(-0.0458443727281030999 0.51576825939723836 0.225588822415350221)
(-0.456993310768564198 0.349336509626765601 0.0474790072311082056)
(-0.483966798936627973 0.356281954180542038 0.0366012203940409148)
(-0.422607860610531405 0.413304879949404569 0.0306998361100783747)
(0.0449438599833027197 0.929713911264840043 0.581856231689139136)
(0.703283754727150656 0.684151017728428235 0.432933719524926819)
(0.748381299135671529 0.585358292582897288 0.34732293742625564)
(0.615673263488208944 0.747037252704743859 0.488423228223707206)
(-0.024300750056564159 1.75554448133326657 0.792478006209768493)
(-0.857043767075309493 1.19713282756689132 0.727892965189307128)
(-0.878694311332243627 1.18609934926288352 0.78300554345657758)
(-0.863433204804836762 1.21189652912247547 0.71248230014870817)
(0.903939741452768342 2.29552923023147848 0.837020671419367202)
(0.923795355285669695 2.25808509726558881 0.863578134786676554)
(0.900140590338075142 2.35454649928687498 0.814856864172255002)
(-0.0713309485444510727 0.14148379013175777 -0.255466886607497223)
(-0.0611582746120691578 0.147825254008385337 -0.245244583907479885)
(-0.0653393103196273362 0.161100724103716147 -0.244628579253113931)
(-0.0544745125206861636 0.124213681418214622 -0.254750026640525928)
(-0.091931822167683086 0.135710174127845806 -0.260728698794313707)
(-0.0815601469588141531 0.141398399354652843 -0.250609953584205236)
(-0.0861423369188124843 0.153365729986902177 -0.2517815460009592)
(-0.0772582315730977881 0.119807799436082885 -0.258607955918409183)
(-0.110358728399297737 0.132023155254510111 -0.26692006077017183)
(-0.099765276217572349 0.136775525898184674 -0.256218595822081674)
(-0.105335462886321313 0.146945815772622002 -0.258168573303353244)
(-0.096321510048230044 0.117391240993284726 -0.262518300278456795)
(-0.127865147107758093 0.130521282956565593 -0.275701002180305188)
(-0.117101890018401794 0.134361654081448817 -0.264203164120837941)
(-0.124358438081524206 0.142427758545599026 -0.265949141634830244)
(-0.11325719503619322 0.117302108521963558 -0.269020803978328837)
(-0.144761161221590218 0.130634021899896924 -0.288914800777349434)
(-0.133508051842344488 0.133944672903671486 -0.275419120788918337)
(-0.143219608962809886 0.13939594556278459 -0.276277420465120049)
(-0.128367701658814559 0.119301543426639206 -0.27885246581979023)
(-0.162077273498905966 0.130266449815187674 -0.311566618871311263)
(-0.149489674060193201 0.134902987884670283 -0.292668820295345244)
(-0.163620075201019066 0.136715756129543731 -0.291898203126623179)
(-0.141756483247899523 0.122456205643600408 -0.294262496838850085)
(-0.180818989308764916 0.123248711075816808 -0.353034586092667857)
(-0.166915256723167871 0.134885316393659416 -0.322793198119977642)
(-0.190066384919076486 0.130777351522132851 -0.321091526068268074)
(-0.154078319026870858 0.124211611798113811 -0.320140291388311349)
(-0.191704364304692954 0.102633120110980983 -0.416817858206938452)
(-0.181376566848856474 0.125133851271764018 -0.376963234990013607)
(-0.223122732938743518 0.109169181422198849 -0.382713634285081261)
(-0.161138792673833353 0.118515625488497048 -0.364072235843451886)
(-0.168152749271909541 0.0846684682506360364 -0.47638242320630253)
(-0.177640061180588449 0.0991949493111605046 -0.449799571664417308)
(-0.254193035884597629 0.0632868618979040981 -0.482126962454210606)
(-0.150425792511756529 0.102644794499717446 -0.419954155559409292)
(-0.104821963766929704 0.106073410102182381 -0.470925731174158424)
(-0.148361221356876544 0.0905401824948820211 -0.492560882362559682)
(-0.253595224662800434 0.0501376510349593116 -0.554547033961170333)
(-0.119415186268019363 0.100938106232201563 -0.448273689966810385)
(-0.0707358851230782404 0.152134185816910295 -0.354597913443557122)
(-0.0691177329536690199 0.146819858938839559 -0.439207792162157495)
(-0.157410651168937099 0.133330486775833312 -0.499041565561276323)
(-0.0578856098663054347 0.137435412004921237 -0.401484403982007521)
(-0.106854636029518335 0.248682422287396149 -0.0994975098624190646)
(0.00943359443933224767 0.187716109438220924 -0.263413052511379864)
(-0.0427842008288647074 0.204171761293271387 -0.280178003988386992)
(-0.017694892611089235 0.172966615241255062 -0.266736613205488082)
(-0.0391309320792773141 0.50391264136813485 0.254823904340693297)
(-0.373583650949479651 0.319453955897851416 0.096781745585743803)
(-0.448495956387301498 0.293975026860921751 0.0704128773382359102)
(-0.375702506902588829 0.386698633026603789 0.0783675037608058261)
(0.0582219317050214069 0.940758257406477671 0.578970453025098974)
(0.553368808797618073 0.716852946369665678 0.476061850628048011)
(0.726178966073457666 0.590376194631690998 0.340502618956245007)
(0.579151574394645707 0.777500077734738171 0.503255443602515617)
(-0.0263889992620655184 1.73727687361131422 0.772435630398906947)
(-0.842984163903575778 1.19935133496432034 0.69693291743303154)
(-0.859915936052214613 1.20069735663513399 0.762848398011950812)
(-0.857351673404178061 1.17237306485067028 0.682673766463807286)
(0.897853541984514836 2.25511552039720442 0.821344475513224981)
(0.914800186153318151 2.22189964014865105 0.850006700389241199)
(0.897159824779019011 2.3158637176036776 0.795568184830075742)
(-0.0719352982967749188 0.146430026710202277 -0.240387650884187953)
(-0.0611657301761222363 0.15165114175773764 -0.230116146156173373)
(-0.0657612558684708415 0.161777320810143621 -0.229950301027435217)
(-0.0593549778581557858 0.133079072775336038 -0.2411600329617552)
(-0.0898426758754426596 0.141456146144141676 -0.246099850611973203)
(-0.0794157743786110398 0.146314408266677715 -0.236069520927183002)
(-0.084266399723612842 0.155284951332554932 -0.236800232222386359)
(-0.0777616232076722286 0.128904831272074111 -0.244873734338994897)
(-0.106878664612034685 0.13832869863959385 -0.253501699172747896)
(-0.0968275399567890133 0.14258999662622418 -0.243170305682484628)
(-0.102504649324554387 0.149900752735230791 -0.244224114539661058)
(-0.094550623586034499 0.126610329124282661 -0.249628710352196581)
(-0.123141577892084297 0.137144845839300006 -0.263921282729451145)
(-0.113433267651577088 0.140698958374546601 -0.252754558949801478)
(-0.120666042786995123 0.145996977700200342 -0.253617385949025831)
(-0.109938942056754987 0.126473019014898325 -0.257202976225568369)
(-0.138792505497384755 0.137732568242375675 -0.279173140306914203)
(-0.128924966561130533 0.140625063789393684 -0.266027489133901784)
(-0.138792105591746262 0.143389109736253267 -0.266212174027978532)
(-0.123544139127666208 0.128240841492520741 -0.268499936563800556)
(-0.154795820588093797 0.139128298789629318 -0.303895399544011124)
(-0.143733367914679472 0.142410233293696037 -0.28542597304998546)
(-0.158480027676259794 0.141970382608931522 -0.284441055367759099)
(-0.13542712499676432 0.131585273814712828 -0.285426161263537981)
(-0.170947136974883007 0.136200108170576845 -0.346721847017322671)
(-0.158875708924310299 0.144801702252565168 -0.317337472262143094)
(-0.183392511924991924 0.140182047379845298 -0.316327118088985726)
(-0.146264283052451982 0.135126752049831378 -0.312639211606399847)
(-0.178531131155709982 0.120779423461815916 -0.409944948447492186)
(-0.168746512861731562 0.139670633487753021 -0.371254037056713893)
(-0.212104394373951538 0.1262582127342817 -0.378341758156684749)
(-0.151296428039775915 0.133484763955403041 -0.356846673992670338)
(-0.155609804029844256 0.104433118390945212 -0.46597803082067446)
(-0.158616837641783692 0.118659842472459878 -0.440128766247773862)
(-0.23469822409931429 0.0856156488102374907 -0.473194383321603573)
(-0.138411125800501744 0.121521749639628612 -0.411342201827843756)
(-0.0910471728897003924 0.130393652775147056 -0.460842943350558309)
(-0.12606510640582369 0.110177448720401625 -0.474519739354912873)
(-0.23630552740533628 0.0693541563383719833 -0.541402207612921127)
(-0.107293376362299381 0.12015929411570031 -0.437563107426926223)
(-0.0451037014188748406 0.179211113550076045 -0.348022931229977905)
(-0.0546217718628035573 0.172376563634611429 -0.422322512857420007)
(-0.14630877847514337 0.158948686325851712 -0.488948796566268606)
(-0.0491122332127114647 0.16660685306577927 -0.39188993977019998)
(-0.0608362604603862323 0.262969803786682055 -0.0671337970632178704)
(0.0457745228256848796 0.205372330948487253 -0.254063734903612781)
(-0.0257167317290216725 0.225816100484545201 -0.272588832472754228)
(0.0136860698669139698 0.190688703291999329 -0.25301321181290054)
(-0.106871434937127363 0.541117389711297081 0.318019691873103305)
(-0.284938719425163578 0.356181720762362264 0.145142805239436401)
(-0.350827421746039925 0.272341375553671716 0.112935223930418424)
(-0.287353536447376934 0.418096501300314061 0.140349965592792725)
(-0.0718462797976755496 0.965948265958344154 0.594024315035979078)
(0.298771012981308981 0.765816103008627902 0.519341991831855254)
(0.566463196948302494 0.640664523845994927 0.40431180125383509)
(0.269533856665360783 0.827496919615337778 0.537259330822831838)
(-0.0317224665387308702 1.70638069026529804 0.745841762547353015)
(-0.83851637802782053 1.14179348517904833 0.662995560410944984)
(-0.831453635996093787 1.21846373258776874 0.725293376520700583)
(-0.848995004311632218 1.11724931869427291 0.650300925302130572)
(0.889833037761191825 2.21107724855762733 0.806801650815612059)
(0.904391639210441745 2.18288864608237221 0.834941603720054992)
(0.894501851546809057 2.27973393431813243 0.778587258615383471)
(-0.0129744061816528793 0.16792930486441926 -0.202805607598138316)
(-0.00320154030929110326 0.17184366383306629 -0.192377623132885811)
(-0.00735699902580890745 0.178031666497334012 -0.189252239621812729)
(0.000325832801318604102 0.157989545706603229 -0.205425137480109821)
(-0.0318889116947667917 0.162231252732457143 -0.211708596703652052)
(-0.0219208147518688001 0.166873637770887928 -0.201493617576012501)
(-0.0260420683892688964 0.174422489724738838 -0.199220517034986444)
(-0.0190305269331308702 0.151530731241065836 -0.214212556053212655)
(-0.050741090443651389 0.156289615044714225 -0.219108231375469142)
(-0.0408367991302283628 0.161260972651779688 -0.209395644136000064)
(-0.0448137469066379537 0.169212055178979554 -0.208234855078673897)
(-0.0385134983158559666 0.145283712774055218 -0.220608573364157845)
(-0.0690850338765355287 0.151053094100293162 -0.225798016199168422)
(-0.0594268406576394445 0.1560572459977001 -0.216437315214953435)
(-0.0634948539461093336 0.163517959163989535 -0.216215269348045608)
(-0.0572008183763142372 0.140238546903592276 -0.225746485839135647)
(-0.0867999580712231628 0.147054574260795212 -0.233139975997694426)
(-0.0774815453626171852 0.151794572486502244 -0.223740346390759709)
(-0.0820643146064397866 0.158151767065983467 -0.224146974675588639)
(-0.0748398431009648368 0.136702080546531296 -0.23090255953064151)
(-0.103714813385920993 0.144625568374266877 -0.242423165459538403)
(-0.0948170257981780645 0.148896718560305896 -0.232553982446407626)
(-0.100501030539440775 0.153718508337888499 -0.233249468745467925)
(-0.0912763569839305233 0.134916573577171128 -0.237550390593144839)
(-0.11959491780651621 0.143906904155340576 -0.254860765354252006)
(-0.111100750369505993 0.147526582053958244 -0.243960865814243616)
(-0.11862869260258356 0.150406061672187341 -0.244632355044528293)
(-0.106187916627171572 0.134966620702259427 -0.246856425933128315)
(-0.134506658095183917 0.145087003608663501 -0.272280321876973042)
(-0.126033232046781907 0.147890983942945531 -0.259278707135820019)
(-0.136496212254321653 0.148345999846960647 -0.259552919275575888)
(-0.119126068104725313 0.136826250168404273 -0.259931608024456418)
(-0.148586957040932582 0.147886054387569521 -0.298868045768117319)
(-0.139664238570170407 0.150356833999486544 -0.280828595274870974)
(-0.155216271721432542 0.147980466691551044 -0.280393073649516322)
(-0.12997847033926091 0.140589288966392223 -0.278576363877683864)
(-0.159702861999831858 0.148057703069236324 -0.341869662301534372)
(-0.151548262545014106 0.154093438228120744 -0.314135295676718218)
(-0.176390039469450033 0.148450680673795077 -0.314302961346105914)
(-0.138535610079484728 0.145691330445656686 -0.306829467176532533)
(-0.159392528564583191 0.137096204671937755 -0.401437854856994458)
(-0.15474752261820246 0.152383732609396361 -0.366492814832739155)
(-0.195850007299234158 0.139594238906063012 -0.375542491194888528)
(-0.139343273571740173 0.147306143821435531 -0.349802672918941293)
(-0.129827659090497538 0.123032587580918035 -0.448670474782012496)
(-0.134068790312352443 0.13593675616588502 -0.429343497371452942)
(-0.203183378794700609 0.106398059846773724 -0.464070071875278711)
(-0.120041083406192989 0.138922054677557805 -0.399949545774061388)
(-0.0633805131548322159 0.150689715003205743 -0.435999308861773627)
(-0.0921803879300202578 0.126224459137050382 -0.455469304874544345)
(-0.19421063009775491 0.0905456117110151754 -0.517530580228510062)
(-0.0835133577880271816 0.13728895755022999 -0.418986389437937756)
(-0.00908832629699393366 0.198224537566725478 -0.328363316531054883)
(-0.0358318541789616196 0.188145159682404639 -0.395253357856609033)
(-0.116709168077312297 0.1792563147412298 -0.456669125853824576)
(-0.0361383366143684659 0.189584019046658725 -0.370842693726838868)
(-0.0207295393533367678 0.303184931554338954 -0.0417871326009620347)
(0.0955809905608834831 0.216128996548604679 -0.237591879781169218)
(0.0214291560231650614 0.238776842408420675 -0.248526473636642153)
(0.0582082634683978237 0.204591318711657533 -0.238659760453694442)
(-0.158858276634926521 0.592332500648942051 0.34646510519819157)
(-0.263109945417787872 0.414875417269251368 0.141280798721893447)
(-0.308589127103112537 0.30019971677519447 0.150390136293479942)
(-0.276562878126129064 0.461844885547690265 0.129646864466893413)
(-0.204554703352108541 0.946479098429519272 0.588313237206819717)
(0.218141238335130105 0.811647104780666706 0.514161790763663973)
(0.354203892139084653 0.701046567274011156 0.471099255486391921)
(0.237122732502894173 0.85849529772001576 0.517065721435547965)
(-0.0372932385721040927 1.64622005270592608 0.723955448679206248)
(-0.835599255470892865 1.03155145539511883 0.645924872660290861)
(-0.834478388875556143 1.17417947353735519 0.695422374337549054)
(-0.85154204822101931 1.02712770010893206 0.6421995081039229)
(0.879399236233658566 2.16871666068699209 0.793919206593370119)
(0.891870078338850791 2.14305426493684825 0.820824502421602431)
(0.890451197076337797 2.24363626225658619 0.77339651769793194)
(-0.0121536810371625035 0.170722688579102527 -0.191065633110759858)
(-0.00309076150548216917 0.175036983092413612 -0.182361431883701436)
(-0.00656210856793687253 0.180033229963905694 -0.180310844967355083)
(0.000859600490147116331 0.162668904874586906 -0.192449317780005125)
(-0.0310117340378023819 0.165787130242754321 -0.199180665008360541)
(-0.0218869301051090384 0.170626300423912025 -0.190433043933885604)
(-0.0254316753098337393 0.176428876317388961 -0.188952464142338461)
(-0.0182523239682885335 0.156988812978826081 -0.20030441828549353)
(-0.0498257223820421091 0.160842705011084747 -0.206724727975484329)
(-0.0407886171628640964 0.165929839673544882 -0.198072146694716067)
(-0.0443895615537975019 0.171830822218271423 -0.197367505427001405)
(-0.0374141634782065857 0.151679394714419297 -0.206844505282969687)
(-0.0681922018404836905 0.156590281210910315 -0.214379645406544778)
(-0.0593766553054271076 0.16165893141961013 -0.205677742592795781)
(-0.063310548523490523 0.167013091557098092 -0.205701754682766552)
(-0.0559222136178180035 0.147448124859552054 -0.212869921798395922)
(-0.0858541540048914503 0.153440223099121698 -0.223154352839473075)
(-0.0773371277158772241 0.158250527839907867 -0.214110651085869602)
(-0.0820721034441949659 0.162563193393145872 -0.214698039014095649)
(-0.0733999720005674011 0.144600250520549645 -0.219451969047555345)
(-0.102518313657882054 0.151630057884490604 -0.234091682801113227)
(-0.0943830823280691622 0.156012009863895434 -0.224334979748253338)
(-0.100503531781149374 0.158863251105057141 -0.225276496728574416)
(-0.0895547242874174948 0.143303951757077191 -0.2277116228484726)
(-0.117922174536180063 0.151379687023043469 -0.248378807595811602)
(-0.110186829102445233 0.155140705773681886 -0.237380836326578332)
(-0.118428499875965779 0.156090871683000149 -0.23846070107110981)
(-0.103981572783097637 0.143628838204025638 -0.23863706514609534)
(-0.131903253817180405 0.153048492153319698 -0.267826980533717784)
(-0.124448164524809626 0.155970521464240619 -0.254591984364678114)
(-0.135880699777459091 0.15449198167508793 -0.255561741783135288)
(-0.116259925198257313 0.145728116790172502 -0.253383202833348642)
(-0.14365719968726598 0.156433750121409199 -0.296095845183471817)
(-0.1367966721895926 0.158896911288988363 -0.278255746493776712)
(-0.153361206388011068 0.154523121299239202 -0.27898439545957654)
(-0.125946350473097074 0.149909303911081204 -0.273655497195535224)
(-0.149188854440702179 0.158099425271421623 -0.338758448207923224)
(-0.145661160343320883 0.16286773954587605 -0.31319057715514359)
(-0.17046625206773941 0.155474412557629338 -0.314737725026278836)
(-0.131782677154205691 0.155696469902423945 -0.302717516574123768)
(-0.139093374746317278 0.15051412807999312 -0.394398457347196196)
(-0.143153315802414249 0.162027774993067974 -0.365259349319046855)
(-0.179800192795935398 0.148665126759986221 -0.373403577532053166)
(-0.12760515633081268 0.159220055021215862 -0.344016659298952865)
(-0.100974485891143329 0.13925264947491986 -0.436142327463984791)
(-0.113614792545084123 0.148746276226599222 -0.4267534843424034)
(-0.168779288805177452 0.123360112295047564 -0.453597690678993803)
(-0.100602265652547998 0.153803119759418655 -0.389854327831073655)
(-0.0318226715559845677 0.164392488281471516 -0.414723353869378697)
(-0.0602375529864684137 0.140815668719905002 -0.453608044253911713)
(-0.142621202938876479 0.11449783778808402 -0.503416527573591677)
(-0.0548445398975921788 0.152077148947937724 -0.405081509996047584)
(0.0309073628950826094 0.209541351819717225 -0.304481921106723397)
(-0.0225817382114377047 0.195815898158762214 -0.380942018258727255)
(-0.0845606736178273199 0.188787022132008514 -0.428279235347144072)
(-0.0259199711433562678 0.204694989055994786 -0.35021045750068297)
(-0.0104800119344905102 0.328730637413260918 -0.0545239484583168732)
(0.153056266622789705 0.235071297460954537 -0.219137157892390966)
(0.0874814041465453579 0.247100996982683035 -0.221640470560022118)
(0.110069748467204867 0.222183525449483249 -0.225142126463374892)
(-0.111878711839090081 0.62972184289465849 0.308977484287371151)
(-0.301750377735670205 0.426772693718949214 0.0693389560402205563)
(-0.256040448192143943 0.348740626176601232 0.130009870123035443)
(-0.319476895488863488 0.468839292293343701 0.0524048622855971882)
(-0.186052981781635624 0.904491357582044242 0.571773426217136116)
(0.353781806357956197 0.835564364273031046 0.473080635650081849)
(0.209196073416635431 0.768999522141123992 0.497916468701500081)
(0.363221365400357987 0.876511174761548162 0.471576260843280026)
(-0.039557026795529221 1.56490403987963855 0.715888630574453733)
(-0.82924795364334114 0.945333634570090675 0.653947743546312243)
(-0.829503998763842287 1.09467356499028168 0.680213269753635275)
(-0.843030790743184655 0.962973197186593799 0.65427413046200289)
(0.868846210221902338 2.13047878979036431 0.784393215070116945)
(0.879282887665617463 2.1039302247787206 0.806901803587248168)
(0.884585683767836861 2.19932827465171243 0.769982866161563195)
(0.0241729998561978875 0.18159461388402437 -0.167289559439043667)
(0.0312314206872471301 0.18799359559293552 -0.160032825715368004)
(0.0357433771144344339 0.176334174216354278 -0.1674649799282181)
(0.0328061325957670347 0.185704129105374233 -0.161317622422712192)
(0.00579866705429628922 0.178742018425125548 -0.174153648488105078)
(0.0119357097283265528 0.186270873712423402 -0.165707299685908943)
(0.0184331497976089817 0.172790481592300926 -0.174365990907654006)
(0.0144166389388284376 0.183193297712156616 -0.167165622918415108)
(-0.0129274937797887474 0.174934599140574187 -0.181728842706827126)
(-0.0071486741274645535 0.183654246125929121 -0.172888492669210664)
(8.89868268525100767e-05 0.168134115441051668 -0.182058290742273338)
(-0.00416482935771312398 0.179815746591700409 -0.17426694800558587)
(-0.0318533692539540239 0.170678887883793373 -0.189324525620241102)
(-0.0263266119085089657 0.180138000717503688 -0.18070588247979244)
(-0.0189579878333427133 0.163175571272868053 -0.189208401021280115)
(-0.0230379882497209476 0.175839721942562865 -0.181652040445004409)
(-0.0506311822882302282 0.166601262439464548 -0.197025161312027408)
(-0.0455216765486362585 0.176105391191534927 -0.18884200566350845)
(-0.0379330212153565841 0.158729014421983394 -0.195810099689811029)
(-0.0418768413933128872 0.171838309497251651 -0.189158220896215062)
(-0.0688544803534135025 0.163168851215004684 -0.205408748272120689)
(-0.0645626780041935466 0.172021187311657109 -0.197533693526392162)
(-0.0562031204110850918 0.155250945884944092 -0.202495623218396648)
(-0.0602921761421238434 0.168293813363672273 -0.197193307773378373)
(-0.0861960785192040085 0.160702865566110659 -0.215291277994649838)
(-0.0832613379414780114 0.168279372038870945 -0.207395656240587145)
(-0.0733345078859662935 0.153001292122113303 -0.210127439976980246)
(-0.0779415164618107587 0.165558219508796262 -0.206473842007596275)
(-0.102363241408044384 0.159449722692105222 -0.22762413327371861)
(-0.101425091114388702 0.165174185070484286 -0.219240854387659972)
(-0.0889654874531723427 0.152139921405405359 -0.219632039350989544)
(-0.0945056841418995819 0.16390159057912182 -0.217853990705233397)
(-0.117109219212608362 0.159714743186613412 -0.243594013095445094)
(-0.11895466824751795 0.162931203616282078 -0.234086382415081506)