/*--------------------------------*- C++ -*----------------------------------*\
| =========                 |                                                 |
| \\      /  F ield         | OpenFOAM: The Open Source CFD Toolbox           |
|  \\    /   O peration     | Version:  2206                                  |
|   \\  /    A nd           | Website:  www.openfoam.com                      |
|    \\/     M anipulation  |                                                 |
\*---------------------------------------------------------------------------*/
FoamFile
{
    version     2.0;
    format      ascii;
    arch        "LSB;label=32;scalar=64";
    class       volScalarField;
    location    "0.0899999999999999967";
    object      alpha.water;
}
// * * * * * * * * * * * * * * * * * * * * * * * * * * * * * * * * * * * * * //

dimensions      [0 0 0 0 0 0 0];

internalField   nonuniform List<scalar> 
7340
(
1.96492096997443502e-11
3.36867416881267853e-12
4.97968257189809402e-13
6.5761218926893638e-14
7.79228232262432887e-15
8.26402643542623649e-16
7.80500535285726321e-17
6.51656347910733223e-18
4.76035566792275367e-19
3.00021772326549524e-20
1.60045647828712207e-21
7.03161829798282715e-23
2.44228148538538739e-24
6.27748883224446078e-26
1.04609175443972675e-27
2.10263234235849675e-29
8.80561471550942158e-12
1.47710556144638558e-12
2.19342944753610033e-13
2.9207618473741653e-14
3.49074043097661091e-15
3.73369367627474899e-16
3.55665448077496214e-17
2.99563106458671546e-18
2.20819789611081781e-19
1.40501101223802208e-20
7.57159804772488072e-22
3.36367610952022384e-23
1.18286278696081966e-24
3.08425895135283868e-26
5.23883671398002993e-28
9.73100057683087989e-30
3.77336308931556709e-12
6.31523059588260701e-13
9.44094968617417836e-14
1.26728903058050963e-14
1.52690480482869525e-15
1.6464466518393936e-16
1.5812465521853495e-17
1.34295489088292795e-18
9.98497969996875769e-20
6.41078885579765123e-21
3.48815218611923982e-22
1.56582021761799768e-23
5.57016138933845312e-25
1.47163691420676201e-26
2.54286470580177861e-28
4.38851165973250411e-30
1.57327790742564392e-12
2.64298522329053392e-13
3.97912263641974091e-14
5.38181320141025689e-15
6.53354136938261715e-16
7.0989230433284341e-17
6.87078915185580403e-18
5.88189007842788535e-19
4.40946100031144956e-20
2.85566778229911719e-21
1.56806265907087593e-22
7.10835059680127393e-24
2.55607543178429271e-25
6.83604714428530834e-27
1.199716633448111e-28
1.93322986289690548e-30
6.17650369730002511e-11
1.5803614359840364e-11
3.39848585648800004e-12
6.4271219297678035e-13
1.08547700225229418e-13
1.64531404304116746e-14
2.24086888214268098e-15
2.7395456049304429e-16
2.99786165805035486e-17
2.9227073335469286e-18
2.52094532553547929e-19
1.90483542544362199e-20
1.24391855810255191e-21
6.89069858932066268e-23
3.15306280315966825e-24
1.14539278386239894e-25
3.09832230257527695e-27
5.51554618956555613e-29
8.33537075030045847e-31
2.60992528545290068e-11
6.39721243416657094e-12
1.36483309309658742e-12
2.58719785008034506e-13
4.39208408664069837e-14
6.69725636395219092e-15
9.1784786448764027e-16
1.12928662758587236e-16
1.24390403760785454e-17
1.22096776376710754e-18
1.06059822440441738e-19
8.07383629442051116e-21
5.31432133441177153e-22
2.96876380068870341e-23
1.37077778628615801e-24
5.02872265761771415e-26
1.37522772535812605e-27
2.48138263747672314e-29
3.52090257431628871e-31
1.02067897546104702e-10
3.46312357769057217e-11
9.67113932553859307e-12
2.33486780223334087e-12
4.98309842100334413e-13
9.49254634708703757e-14
1.62147670795774872e-14
2.488637243089445e-15
3.43276628938896239e-16
4.25031953847835756e-17
4.71059719026972369e-18
4.65153181955206061e-19
4.06427278956018901e-20
3.11168696246641496e-21
2.05963830562840469e-22
1.15686866886558411e-23
5.37002810431456377e-25
1.98016241726245475e-26
5.44209475183743313e-28
9.88558956850447257e-30
1.21070854641912137e-31
8.47073581051470788e-13
1.21949607865948016e-13
1.57770741937867925e-14
1.83421242465444879e-15
1.91017261853400886e-16
1.7728431414002573e-17
1.45555792059758006e-18
1.04628347403722707e-19
6.49284306336681197e-21
3.41226507472432493e-22
1.47766029102714715e-23
5.06063038920023577e-25
1.28304205200341945e-26
2.11810417245827118e-28
3.35293158469798865e-30
2.28176395520650744e-12
3.69792429374189512e-13
5.36876047033933973e-14
7.0081737948867004e-15
8.21948384145521812e-16
8.63455134191660784e-17
8.08422032568110912e-18
6.69683742088186406e-19
4.85822410182388281e-20
3.04397001309455615e-21
1.61623993071251915e-22
7.07762235911740087e-24
2.45429173050859373e-25
6.3126184825907439e-27
1.06182336197703378e-28
1.55532322752910411e-30
9.67817703593918912e-13
1.57840992734914871e-13
2.31056439853507589e-14
3.04160038330348589e-15
3.59709978618664308e-16
3.81020300211749221e-17
3.59728018974742664e-18
3.005299486803395e-19
2.19931224974943874e-20
1.39065263147806948e-21
7.45590490648203613e-23
3.29941348657464471e-24
1.15747010963379626e-25
3.01667216177026749e-27
5.16026628219654184e-29
7.03062570489721473e-31
4.02018458431994065e-13
6.60218717873449196e-14
9.73971460237008744e-15
1.29219496231851909e-15
1.54012836931860916e-16
1.64419163055414119e-17
1.56467546024513018e-18
1.31782682149323093e-19
9.72521653726377405e-21
6.20347326655916946e-22
3.35680406222008291e-23
1.50022051755775517e-24
5.32030045426783417e-26
1.40368628867451192e-27
2.43801020646325221e-29
3.10452225957674947e-31
1.8106354605975758e-11
4.28909000570477817e-12
8.88972747617732932e-13
1.63993174526159634e-13
2.71118471209079626e-14
4.02832544993749673e-15
5.38314360614364152e-16
6.46251915633303426e-17
6.94987371609723928e-18
6.66337586453817843e-19
5.65560107939716643e-20
4.20744758792820686e-21
2.70660167557491313e-22
1.47765022950393224e-23
6.66640975728327733e-25
2.38840197605664673e-26
6.37365712668296772e-28
1.12258263589631581e-29
1.34176167265353561e-31
7.30857072547059291e-12
1.71468778300548766e-12
3.55903523871320125e-13
6.59673918515035844e-14
1.09699528879358967e-14
1.64025469682555915e-15
2.20616218675030963e-16
2.66608788787029652e-17
2.88663262106519741e-18
2.78702166206467481e-19
2.38275752072939466e-20
1.78622818381195631e-21
1.15836818648582296e-22
6.3782744045593881e-24
2.90386842761856606e-25
1.05068010345733667e-26
2.83455870885190801e-28
5.05827374416378294e-30
5.68103458127706461e-32
3.24701730306844604e-11
9.9930742864342622e-12
2.65781222398783994e-12
6.22742777001732267e-13
1.29799861371180721e-13
2.42027500559878793e-14
4.0512626830920332e-15
6.09840597897148035e-16
8.25721750564976082e-17
1.0043766037842311e-17
1.09437617495254956e-18
1.06316310453874701e-19
9.14459463263825144e-21
6.89593752827186293e-22
4.49796120527774078e-23
2.49064218292607966e-24
1.14008304873984763e-25
4.1464978136172289e-27
1.12416419106787588e-28
2.01534045390955412e-30
2.32366027499557268e-32
1.71273974523842077e-13
2.41576554124241244e-14
3.06709202185730115e-15
3.50196973955268168e-16
3.58431056198632356e-17
3.27152817354440491e-18
2.64306611154052543e-19
1.87059885301981657e-20
1.14359651152691901e-21
5.92384948510645291e-23
2.52939458957671636e-24
8.54347286134295547e-26
2.13669827423569034e-27
3.49047039126209183e-29
4.39102018805080657e-31
4.72579164779164016e-13
7.48331362852062722e-14
1.06516721115887952e-14
1.36469676609095899e-15
1.57213602360127602e-16
1.62334120417707047e-17
1.49488429988024687e-18
1.21867041303343805e-19
8.70551528744619983e-21
5.37411394389157269e-22
2.81273819270257751e-23
1.21455050959294632e-24
4.15393592596979963e-26
1.05397201912617441e-27
1.7538441413622403e-29
2.04281673525134756e-31
2.00295179753626243e-13
3.19798373713330699e-14
4.591327007024715e-15
5.933102662630394e-16
6.89299731971169222e-17
7.17770413018214174e-18
6.66597867849660329e-19
5.48120179673990759e-20
3.95023274319402039e-21
2.46117978133497307e-22
1.30080781895553161e-23
5.67648607934493109e-25
1.96417407179912434e-26
5.05014571040645885e-28
8.54430235729184232e-30
9.26108331662559835e-32
8.32437222853747295e-14
1.33946013310723808e-14
1.93847864268027182e-15
2.52504401486047306e-16
2.95691289317844309e-17
3.10369105818568748e-18
2.90578990846819438e-19
2.40910879641620869e-20
1.75103585839535614e-21
1.10066537777674379e-22
5.8716464901213259e-24
2.5878557121977811e-25
9.0524598473026813e-27
2.3562316856206434e-28
4.0468246931109412e-30
4.11274812621323259e-32
4.08691796794150159e-12
9.31677332863737285e-13
1.88262239621770704e-13
3.39916730956002078e-14
5.5085307547231937e-15
8.0306216095716387e-16
1.05377420570964058e-16
1.24313619825345472e-17
1.31462765793950871e-18
1.24023140528291781e-19
1.03637243641038694e-20
7.59475262201747742e-22
4.81487166712335098e-23
2.59160420130220915e-24
1.15306180050447618e-25
4.07493069213596005e-27
1.07280329323580933e-28
1.8680396953872807e-30
1.79594285411738781e-32
1.62861294434554858e-12
3.71541228149142983e-13
7.53950151882136993e-14
1.36887710511424268e-14
2.23207487778851632e-15
3.2752231370758519e-16
4.32636276285773506e-17
5.1384688574462714e-18
5.47176057280005893e-19
5.19909800858782172e-20
4.37690722308283994e-21
3.23256903101599324e-22
2.06621317947895487e-23
1.12176871372113867e-24
5.03683296082171623e-26
1.79764090278657181e-27
4.78432934519624182e-29
8.43862732479053654e-31
7.68233423494030283e-33
7.77458820172135323e-12
2.28308238460372096e-12
5.8940040557793264e-13
1.34879208569812097e-13
2.75199320909058934e-14
5.02865463704614912e-15
8.25544351302579655e-16
1.21971027435429393e-16
1.62214823507971807e-17
1.93950137361878031e-18
2.07874501397211879e-19
1.98771519724312216e-20
1.68379931552348959e-21
1.25117264320868331e-22
8.04507010428608281e-24
4.3929704597263952e-25
1.98335988733211713e-26
7.1154537572239677e-28
1.90294091307956829e-29
3.37086572022905505e-31
3.18824521765713996e-33
1.81041692499306799e-13
2.78565937316837923e-14
3.85833929888901842e-15
4.81444491894721986e-16
5.40585174342130982e-17
5.44445574666463776e-18
4.89269358768997069e-19
3.89391159421780052e-20
2.71627046809587635e-21
1.63758378514806925e-22
8.36856744279911307e-24
3.52609052096831103e-25
1.17543630741827575e-26
2.90147667390459906e-28
4.68899710023330426e-30
4.66064622200885798e-32
7.85942852622730154e-14
1.22068255896811184e-14
1.70638399919474499e-15
2.14861409256353049e-16
2.43417193317530367e-17
2.47338644966560743e-18
2.2426786426680149e-19
1.80117200288061184e-20
1.26825221567666817e-21
7.72111028183693351e-23
3.98690541014113396e-24
1.69889466468332277e-25
5.73476081184564527e-27
1.43621165092015361e-28
2.36387678590939548e-30
2.19191844493011443e-32
3.3393230441643553e-14
5.23156806296113168e-15
7.37675995304029181e-16
9.3687690619845185e-17
1.07046214152985428e-17
1.0969837149226422e-18
1.00319836407139595e-19
8.12717655708804878e-21
5.77373224002218176e-22
3.5478044441289803e-23
1.85002942099669476e-24
7.9671670430351066e-26
2.72098615510124182e-27
6.90567740474319856e-29
1.15548439006402778e-30
1.00448317009272757e-32
1.39145102427921066e-14
2.19725914031724898e-15
3.12326330042063354e-16
3.99870643328347151e-17
4.60563329811261729e-18
4.7579394614104097e-19
4.38683598973068364e-20
3.58362083850914314e-21
2.56779856373842239e-22
1.59193204975113299e-23
8.37904101481286087e-25
3.64459801766212713e-26
1.25839232362803574e-27
3.23326113066464889e-29
5.49016207308339763e-31
4.60927274348303669e-33
7.31267745558542444e-13
1.6260966396411979e-13
3.21727049591132658e-14
5.69630983272255511e-15
9.06032220986964238e-16
1.29742923284606559e-16
1.67348501145556581e-17
1.94193768292269511e-18
2.02139635349574689e-19
1.87821196655569808e-20
1.5466216895637421e-21
1.11743385965931323e-22
6.98749955758678043e-24
3.71095180394576347e-25
1.62949919620127663e-26
5.68422268289444271e-28
1.47725013819264937e-29
2.54162720266974868e-31
2.15602852342996375e-33
2.91019412449852297e-13
6.49342794211930829e-14
1.29121419090678122e-14
2.29951445109399088e-15
3.68069005799171431e-16
5.30557302207834053e-17
6.88967500071259051e-18
8.05003332147920206e-19
8.43856028757852943e-20
7.89787079938353077e-21
6.55278024204639083e-22
4.77190973475115305e-23
3.00873953290245038e-24
1.61181730090470057e-25
7.14275958812626789e-27
2.51629300520368318e-28
6.61082705973675473e-30
1.1514537102419016e-31
9.93132611533395957e-34
1.46151699136444494e-12
4.17411211460144132e-13
1.05323647728712513e-13
2.36063973307011049e-14
4.72211635242789394e-15
8.46561567360124123e-16
1.36446886852122907e-16
1.98063740668331772e-17
2.58985149758535934e-18
3.04659151732980686e-19
3.21479984454353519e-20
3.02831656976983264e-21
2.52855770420855118e-22
1.85288941477959504e-23
1.17540925314042014e-24
6.33390434151026263e-26
2.82254227204231625e-27
9.9952500784877287e-29
2.63858378370325521e-30
4.61621892715449109e-32
3.99600483163641187e-34
2.37045984397583511e-14
3.58487496352316966e-15
4.88467600343813356e-16
6.00037777650123967e-17
6.63673474832287929e-18
6.58802682732273707e-19
5.83838728581247038e-20
4.58443002499988883e-21
3.15669323223728551e-22
1.87937470906778532e-23
9.48755460505584879e-25
3.94973821194571408e-26
1.30096230560543618e-27
3.1728261799578082e-29
5.07475779937220216e-31
3.9759857891372938e-33
1.03322390129059469e-14
1.57723936432301721e-15
2.16894997494399356e-16
2.68850627576750416e-17
3.00017726148127071e-18
3.00466671766438922e-19
2.68669831950304225e-20
2.1289603381565551e-21
1.47974253700312975e-22
8.8964735780220045e-24
4.53809022059445435e-25
1.91066008143833922e-26
6.37293347273399819e-28
1.57700824524459196e-29
2.56725400559440205e-31
2.04162952023470216e-33
4.4071082688180184e-15
6.78624094491097964e-16
9.41316468556219893e-17
1.17684138015160872e-17
1.32448048778987248e-18
1.33778386095623517e-19
1.20649667965621459e-20
9.64382022138115962e-22
6.76306026351385858e-23
4.10401821485544456e-24
2.11412700242111044e-25
8.99586686609805804e-27
3.03589548719689845e-28
7.61348675605438765e-30
1.25921072679416351e-31
1.02379212325515373e-33
1.84332385178678912e-15
2.86109540281166014e-16
4.00058265628469832e-17
5.04189952680251026e-18
5.72019136609639291e-19
5.82455296647506188e-20
5.29616516519434719e-21
4.26890345279182423e-22
3.01955485953176659e-23
1.84873602382597644e-24
9.61284091506461205e-26
4.13143886105468514e-27
1.4096186494696792e-28
3.57898632993135661e-30
6.00491085244199687e-32
4.96596812008176725e-34
1.02955356348750812e-13
2.24326807153781418e-14
4.35521328456187318e-15
7.5735841540262113e-16
1.1840869844562349e-16
1.66795215465732162e-17
2.1178173936363106e-18
2.42082508051729414e-19
2.48381292998803761e-20
2.2761434441912705e-21
1.849468282285193e-22
1.31913914189766353e-23
8.14643773206075044e-25
4.27405964069758973e-26
1.85440834955759204e-27
6.39236315658644629e-29
1.64167947881245525e-30
2.79092985117793362e-32
2.34458639172891551e-34
4.10696243354433597e-14
8.98515645287937159e-15
1.75368218534048196e-15
3.06783154864575116e-16
4.8270793634879271e-17
6.84485463236368575e-18
8.75016739439422258e-19
1.00715576335776895e-19
1.04070257981606972e-20
9.60681278132336331e-22
7.86555688724384891e-23
5.65492879418498009e-24
3.52139449266697113e-25
1.86364989104487838e-26
8.16040898177540346e-28
2.84081389792388311e-29
7.37525792752929096e-31
1.26934033404991251e-32
1.08187731397047258e-34
2.15419174529846255e-13
6.0196959425234963e-14
1.48869591856759948e-14
3.27372274746151796e-15
6.42977134567428192e-16
1.13252702505436926e-16
1.79464900521362435e-17
2.56301387260116347e-18
3.2995369324617358e-19
3.82398321177143224e-20
3.97790696552871931e-21
3.69618807865366585e-22
3.04583343896322395e-23
2.20375409273422566e-24
1.38084409000257025e-25
7.35159687182921055e-27
3.23717795330802553e-28
1.13280066116898873e-29
2.95496660644066197e-31
5.10808050827065769e-33
4.36798759354898744e-35
2.35145420180175004e-15
3.50368512778798662e-16
4.70705979094696391e-17
5.70454768554910739e-18
6.228279130822586e-19
6.10633753989293157e-20
5.34746374184045667e-21
4.15108436046848466e-22
2.82688951481294424e-23
1.66511967245296586e-24
8.31855873864528818e-26
3.42742008438635224e-27
1.11725246160946115e-28
2.69614365443986141e-30
4.26567321142682038e-32
3.28651148697767804e-34
1.03021737406442564e-15
1.54917341785282846e-16
2.10017759433766655e-17
2.5679995741833228e-18
2.8285346296818304e-19
2.79765635488356978e-20
2.47186661697364616e-21
1.93632842567778065e-22
1.33102657154274205e-23
7.91709654424323287e-25
3.99648477159673763e-26
1.66531463159688667e-27
5.49737916283155402e-29
1.34615802798805643e-30
2.16792768072178027e-32
1.70903943012739899e-34
4.41571361480933898e-16
6.69713608147549275e-17
9.15703718738829542e-18
1.12921813368864299e-18
1.25432092282285505e-19
1.25115320372592995e-20
1.11491417217371608e-21
8.80963756389297798e-23
6.10987276122101466e-24
3.66806343477770316e-25
1.86986001298787333e-26
7.87460795716227755e-28
2.63019130495395081e-29
6.5276549156652306e-31
1.06818619559148675e-32
8.59061074543131522e-35
1.85546982017313765e-16
2.8364025020486443e-17
3.90915164051333863e-18
4.85920741355362364e-19
5.44087746214395441e-20
5.47104297026530015e-21
4.9152980992942125e-22
3.91643315006064309e-23
2.73961263662569822e-24
1.65939868799018128e-25
8.53830041742275326e-27
3.63185254410588307e-28
1.22644983365137298e-29
3.08174207770140064e-31
5.11615524639376801e-33
4.18632424956920906e-35
1.09521527885856471e-14
2.34404977359192779e-15
4.47459600490290119e-16
7.65711432759060428e-17
1.17900595755194239e-17
1.63685188709133556e-18
2.04978201716642801e-19
2.31239253865284201e-20
2.34293909342817401e-21
2.12139418799835692e-22
1.70394505018472648e-23
1.20190082221490869e-24
7.34289742470105433e-26
3.8121889597707014e-27
1.63696813052712015e-28
5.58494000491752655e-30
1.41952652891309814e-31
2.38795618954896342e-33
1.98478483941931095e-35
4.38594427637889696e-15
9.42699199536959613e-16
1.80922630894715743e-16
3.11467593127909492e-17
4.82650108822086726e-18
6.74519031903212608e-19
8.50419293392562589e-20
9.66024657237875067e-21
9.85733979900544829e-22
8.99070267997904684e-23
7.27671649783171952e-24
5.17375542371929987e-25
3.18723176852490887e-26
1.669132561667022e-27
7.2331976169942392e-29
2.49215824907518383e-30
6.40333380114624323e-32
1.09053226950783391e-33
9.19546966573945448e-36
2.39292113150976731e-14
6.56005336156994123e-15
1.59318766407019547e-15
3.44364824886398022e-16
6.6527575958215227e-17
1.15341297125877938e-17
1.80032121035645541e-18
2.53429158309291594e-19
3.21801327881816926e-20
3.68095650921811108e-21
3.78156809206411411e-22
3.4720302721203225e-23
2.82852539477457207e-24
2.02405517781942981e-25
1.25473261890639736e-26
6.61047099169072579e-28
2.88079568382577635e-29
9.97710525403904732e-31
2.57562930112336449e-32
4.40560354251402589e-34
3.72718570412599206e-36
1.60932510801062439e-16
2.36948800800839226e-17
3.14748462786234482e-18
3.77346614913778415e-19
4.07755569446628952e-20
3.95853547835293874e-21
3.4341528029488577e-22
2.64197988939636002e-23
1.78373165980141631e-24
1.04192217388578521e-25
5.16257898668695242e-27
2.10967304789447551e-28
6.81980014317492321e-30
1.63159848294959184e-31
2.55739882506273701e-33
2.156629785840679e-35
7.09295963902991088e-17
1.05364218108866222e-17
1.41197702765301823e-18
1.7075760251080048e-19
1.86117082942761334e-20
1.82257187614693475e-21
1.59510110016238586e-22
1.23823202434956577e-23
8.43789136796559909e-25
4.9769240980504337e-26
2.49166342885442916e-27
1.0297601651171072e-28
3.37119685521159579e-30
8.18491446689718837e-32
1.30620823503469561e-33
1.09823989412190996e-35
3.05736532051679017e-17
4.57953893541196909e-18
6.18835204205898821e-19
7.54638281932224362e-20
8.29377566722887884e-21
8.18978936332447285e-22
7.22833162821717472e-23
5.65956565732898439e-24
3.89094194250171966e-25
2.31625115104377134e-26
1.17100900263710746e-27
4.891093665242256e-29
1.62018532023731811e-30
3.98708510986337452e-32
6.46667715676159736e-34
5.42119097527901437e-36
1.29152637399740999e-17
1.94949336831018938e-18
2.65490936449623372e-19
3.2629955891648308e-20
3.6146098360582154e-21
3.59788110426341947e-22
3.20132778142818048e-23
2.52738048369186313e-24
1.75242196085462161e-25
1.05245151570933943e-26
5.37041751736308737e-28
2.26559846460107611e-29
7.58763818863476088e-31
1.89054624862931709e-32
3.11114526203020117e-34
2.60008597352753555e-36
7.99950027773430142e-16
1.6862193376809811e-16
3.17294333120954015e-17
5.3565463280786653e-18
8.14295447874814152e-19
1.11693654112921657e-19
1.38282599682747423e-20
1.5432369988524089e-21
1.54771514680183995e-22
1.38781877872375616e-23
1.10444593704429428e-24
7.72151777176969926e-26
4.67712141764980831e-27
2.40796681957523064e-28
1.02546721263377926e-29
3.4697535886430177e-31
8.74509979550612365e-33
1.4583679024897653e-34
1.21545846270454454e-36
3.21942778066990378e-16
6.81464583101472615e-17
1.28913026491551326e-17
2.18925800647579814e-18
3.34903417053841945e-19
4.62373789283247795e-20
5.76290559550518038e-21
6.47562831685040537e-22
6.54018834460497373e-23
5.9072688047335428e-24
4.73683556356457378e-25
3.33798526278308195e-26
2.03867327399697349e-27
1.05868833051509069e-28
4.54982612634614811e-30
1.55462970148457095e-31
3.96093075524875683e-33
6.68758674546628426e-35
5.57896385369999612e-37
1.81834070931753252e-15
4.90333233532113691e-16
1.17225831915140689e-16
2.49639165810170678e-17
4.7550180590173369e-18
8.1338777750647125e-19
1.25351614923949374e-19
1.74341534253273625e-20
2.18867859704253402e-21
2.47669095604971371e-22
2.51852678029987724e-23
2.29004531301053281e-24
1.84841575109293005e-25
1.31099110981781789e-26
8.05724035365742857e-28
4.20923315573551382e-29
1.81909170305221712e-30
6.24762075408870942e-32
1.59924979888037072e-33
2.71186281253127838e-35
2.27258002867623408e-37
5.8420094851631582e-18
8.53049636507037612e-19
1.1242942044546818e-19
1.33780930957394276e-20
1.43521529465068066e-21
1.3836927310384818e-22
1.19241573350324326e-23
9.11498398081547784e-25
6.11631730002324223e-26
3.55156893817000237e-27
1.74950223604265243e-28
7.1072839868612719e-30
2.28357694894989146e-31
5.42813119790583618e-33
8.03410732704235961e-35
5.06194159344759951e-36
2.59207085257549673e-18
3.81713830262718031e-19
5.07346499089173938e-20
6.08758697724780492e-21
6.58554427791479013e-22
6.40289466188880686e-23
5.56542720522952994e-24
4.29202793264147433e-25
2.90652180164805204e-26
1.70404076859545833e-27
8.48078678030717654e-29
3.48420334347174003e-30
1.13372900217477961e-31
2.73506180436422567e-33
4.15224052880351751e-35
2.30738918494093158e-36
1.12434780829678185e-18
1.66892675911855589e-19
2.23598650792690256e-20
2.70453645570352166e-21
2.94945959357268585e-22
2.89109721544842313e-23
2.53382651823230373e-24
1.97067611982245205e-25
1.34621919582183868e-26
7.9648973073991678e-28
4.00262578020436468e-29
1.66183510578708582e-30
5.47143292161270407e-32
1.33796140581701546e-33
2.07701526299457738e-35
1.02801216153014024e-36
4.77773065649208739e-19
7.14421675042220554e-20
9.64329961676611473e-21
1.17528871042740338e-21
1.29163938104982546e-22
1.27601831272874439e-23
1.12727770786099477e-24
8.83919205619930219e-26
6.08917677382167836e-27
3.63418853444727544e-28
1.84316549821025116e-29
7.72876868981959834e-31
2.5726315283246725e-32
6.3696637128324978e-34
1.00842659642156392e-35
4.48305382918644159e-37
3.07643644982177095e-17
6.40817595592980837e-18
1.19252053225125463e-18
1.99249752161245189e-19
2.99973250186229846e-20
4.07715692588339355e-21
5.0044951872504036e-22
5.53998356353176894e-23
5.51368515534996975e-24
4.90827663741233639e-25
3.8791773371723112e-26
2.69421106329430083e-27
1.62162112591735713e-28
8.29727689271956265e-30
3.51198903890940292e-31
1.18103352057082052e-32
2.95793940473373541e-34
4.76923318054657458e-36
1.91604414079342195e-37
1.24544357749308639e-17
2.60447507252303539e-18
4.87148187213533678e-19
8.18589201442006901e-20
1.23984072833310295e-20
1.6958037464723561e-21
2.09515497434535975e-22
2.33497500194690168e-23
2.34002296530389073e-24
2.09809062467071874e-25
1.67065972644144286e-26
1.16943853288468916e-27
7.09642761904294129e-29
3.6621440057195477e-30
1.56414851597024326e-31
5.3115867641166251e-33
1.34478309500014511e-34
2.21398347250739723e-36
6.63584091477666348e-38
7.23464947669368976e-17
1.92568683010270825e-17
4.54645726191087071e-18
9.56857139676147416e-19
1.80247995134746424e-19
3.05122239688397468e-20
4.6561331570077383e-21
6.41610410097322172e-22
7.985023582753981e-23
8.96226255023483555e-24
9.04368741436498405e-25
8.16336812847041378e-26
6.54327162696891851e-27
4.60977859693802349e-28
2.81476001323646488e-29
1.46116084696491214e-30
6.27520208665909864e-32
2.14175118433069965e-33
5.44758055834426492e-35
9.13383200591900773e-37
1.25737245777183169e-38
1.47740288982642937e-10
4.22760461179626119e-11
8.93959514749941768e-12
1.22154141071670712e-12
1.43509891865487862e-13
1.49003637231722897e-14
1.35934623700898988e-15
1.0786265163523032e-16
7.34242286470232735e-18
4.20777269450048544e-19
1.9761141830233687e-20
7.30128633385067489e-22
1.9856565273877919e-23
3.30148068906876199e-25
2.49148322391129135e-26
3.70571649424856514e-10
9.76794384413161509e-11
2.57316404199181099e-11
4.45243642665510027e-12
5.96923224150061408e-13
7.04774346199361506e-14
7.35949855193473821e-15
6.75455462117888264e-16
5.39502122000727162e-17
3.69956318577030393e-18
2.13795325197389837e-19
1.01386187126858107e-20
3.78948234238341306e-22
1.04534336641541318e-23
1.78782261635281497e-25
1.17369446782082778e-26
1.97064446233658345e-10
6.09413786269122172e-11
1.36295338845989227e-11
2.11327906827303115e-12
2.82975797072934788e-13
3.35630646885382091e-14
3.52292853972781153e-15
3.25153395475278093e-16
2.61322894788060921e-17
1.80448212339631547e-18
1.05104536616183698e-19
5.02957719331891067e-21
1.89993889554073029e-22
5.30875819479736025e-24
9.30176811651622553e-26
5.37604418893253822e-27
1.20336018348431981e-10
3.42218722134379504e-11
6.38909291190125397e-12
9.72584179713514105e-13
1.30446431117521905e-13
1.55359175030109423e-14
1.63831365570178104e-15
1.51992166097092069e-16
1.22868111151382712e-17
8.54053178944382645e-19
5.01194850855557346e-20
2.41887397264672486e-21
9.22768024957967857e-23
2.60873996036475162e-24
4.66836394562636038e-26
2.39926327357277899e-27
2.63292859281066754e-09
7.20999378323947743e-10
2.18139100527045475e-10
7.15065240217865193e-11
1.65093603986764743e-11
2.87843650337646927e-12
4.35932192036322287e-13
5.86102348888203336e-14
7.00597798673571238e-15
7.41863602685327616e-16
6.91467781939100448e-17
5.61992568060359627e-18
3.9309152367028584e-19
2.32345672861682719e-20
1.13054278624069776e-21
4.35328810810661678e-23
1.24419678002940841e-24
2.27035920846390603e-26
1.04472789606044533e-27
1.20440462012478806e-09
3.45543991598387534e-10
1.2553100959831376e-10
3.65712320143691513e-11
7.38142240417594381e-12
1.26374100740950891e-12
1.91217271142211234e-13
2.57678958103681255e-14
3.08972340956565892e-15
3.28350463989225783e-16
3.07323551421824995e-17
2.5101130016725323e-18
1.76596247833519084e-19
1.05090353980936064e-20
5.15346572503545598e-22
2.00226427081431607e-23
5.7825569640589005e-25
1.07948245558669536e-26
3.65914296116632641e-28
3.07808753081282451e-09
1.1740302312607946e-09
4.32311345683792807e-10
1.80474907771994657e-10
6.47155339823708337e-11
1.52742788416926275e-11
2.96878728559161109e-12
5.0559930409556204e-13
7.66126896064314849e-14
1.03514145103121261e-14
1.2446858638602637e-15
1.32652845885125874e-16
1.24526603048340818e-17
1.02034629082476058e-18
7.20370552964450646e-20
4.30307368374314307e-21
2.11862111285963119e-22
8.26587127430161253e-24
2.39738374650151731e-25
4.56810204495270084e-27
7.02400535896901153e-29
1.48836349551574404e-10
4.35234903469954819e-11
9.26046066957574444e-12
1.27700971072383346e-12
1.52318400773246974e-13
1.60349338566154591e-14
1.48247733834614411e-15
1.19188395698169968e-16
8.22029652176008275e-18
4.77333360382069844e-19
2.27195873020365022e-20
8.51134000086730917e-22
2.34909311949673288e-23
4.0012019729946175e-25
2.71478691939624268e-26
3.43481614309822929e-10
9.60572546882569409e-11
2.53152526780453881e-11
4.32983134092611293e-12
5.89914648959988114e-13
7.06993803703917426e-14
7.48750022227682479e-15
6.96727937469437911e-16
5.64119403660194638e-17
3.92092890736375668e-18
2.2966652977373814e-19
1.10407397937037747e-20
4.18464682496271965e-22
1.17137751345037534e-23
2.04790319084439695e-25
1.22501532414538038e-26
1.89029474709071951e-10
5.80823109207206102e-11
1.2448796853455752e-11
1.95565001759845217e-12
2.66111725587829309e-13
3.20462312670402237e-14
3.41247173249977685e-15
3.19381215700286472e-16
2.60227896799434847e-17
1.82153256657890342e-18
1.07549820712097132e-19
5.21795153523031541e-21
1.99894571926897041e-22
5.66727721156199638e-24
1.01340442135307387e-25
5.39864822494722198e-27
1.09920699635589365e-10
3.02663490725061951e-11
5.56355984548362262e-12
8.60529597464376323e-13
1.17334500510525952e-13
1.41930197067157761e-14
1.51893572685686021e-15
1.42934767183153097e-16
1.17165888432576897e-17
8.25699936014492964e-19
4.91237666345438834e-20
2.40365380500042017e-21
9.29829321037067474e-23
2.66673321023308277e-24
4.86369531315123183e-26
2.32735732126317559e-27
1.94124484197169445e-09
5.59048593257516944e-10
1.87514375384072656e-10
6.1263780109091928e-11
1.36129090911466708e-11
2.4040226944503617e-12
3.70472121522345297e-13
5.06533491032680523e-14
6.15134783883778824e-15
6.61238879757086433e-16
6.25315821867328091e-17
5.15462754143036919e-18
3.65602858363071417e-19
2.19105239241492397e-20
1.0809392268506182e-21
4.22063321577647468e-23
1.22360286367793592e-24
2.27315302014552518e-26
9.82800323130488754e-28
8.78300947831226577e-10
2.9012178346469981e-10
1.06570658426114524e-10
2.87768045172946439e-11
5.83889397386087036e-12
1.01722766641689969e-12
1.56728511858369852e-13
2.14835351693091311e-14
2.61769229908457477e-15
2.82474298342224829e-16
2.6830638034654465e-17
2.22301525925671756e-18
1.58611014307514329e-19
9.57094633649692301e-21
4.7589618571317333e-22
1.87493651213706163e-23
5.49236036111969185e-25
1.0425432628498058e-26
3.36343308629511675e-28
1.94574688684142099e-09
7.67835790541398055e-10
3.5235084818369138e-10
1.50875255285209841e-10
4.87692888816724595e-11
1.14357622107563701e-11
2.25902051014857239e-12
3.92243688840000847e-13
6.05467326361695434e-14
8.32326279114463774e-15
1.01724582355376422e-15
1.10109512729497157e-16