/*--------------------------------*- C++ -*----------------------------------*\
| =========                 |                                                 |
| \\      /  F ield         | OpenFOAM: The Open Source CFD Toolbox           |
|  \\    /   O peration     | Version:  2206                                  |
|   \\  /    A nd           | Website:  www.openfoam.com                      |
|    \\/     M anipulation  |                                                 |
\*---------------------------------------------------------------------------*/
FoamFile
{
    version     2.0;
    format      ascii;
    arch        "LSB;label=32;scalar=64";
    class       volVectorField;
    location    "0.0899999999999999967";
    object      U;
}
// * * * * * * * * * * * * * * * * * * * * * * * * * * * * * * * * * * * * * //

dimensions      [0 1 -1 0 0 0 0];

internalField   nonuniform List<vector> 
7340
(
(0.13648287395278122 0.0773341394168029772 0.039677456989083211)
(0.125905092529840001 0.0700428160878847905 0.0323109439274107818)
(0.115454116944833762 0.0639601083502558398 0.0262799619649216262)
(0.105241478940272262 0.0588958496178949437 0.0213750509009891405)
(0.0953648144739636106 0.0546941745020574077 0.0173899109723909054)
(0.0858248397377772976 0.0511934689827289666 0.0141581666991788778)
(0.0766156915736253552 0.0482725511741575533 0.0115522122184348944)
(0.0677363073550089068 0.0458371468478612765 0.00946089891137554331)
(0.0591473931322574337 0.0438053398427968518 0.00778504161757804895)
(0.0507913186961202814 0.0421168286013124185 0.006446190484511451)
(0.0426285878757598699 0.0407349187312221125 0.00538769040275970806)
(0.0346365557644205957 0.0396347420918151394 0.00456773446836795591)
(0.0267903162503193085 0.0387932978220679597 0.0039533126044949754)
(0.0190549828038087538 0.0381885069281292094 0.00351798796384219375)
(0.0113908062781325533 0.037802772308490204 0.00324161063325385194)
(0.00378982426384081921 0.0375414813786509038 0.00310686338411697138)
(0.132549470065281894 0.0831598627672031077 0.0377802312280863251)
(0.122642771295100858 0.0756973921198290794 0.0308880449130694498)
(0.112735368699617408 0.0693882080607310242 0.0252195289197918379)
(0.102987940779879536 0.0641106485178153801 0.0205785977184957045)
(0.0934953002460124916 0.059698024883069474 0.0167878517141960143)
(0.0842710858291570719 0.055996002123252217 0.0137029724063654698)
(0.0753298114900940313 0.0528942902026235118 0.0112078317805832141)
(0.0666761960832250589 0.0502889302916985498 0.00919822298134934796)
(0.058274739292849112 0.0480914861816945788 0.00758211981472756581)
(0.0500769667740744093 0.0462521952962363578 0.00628761051427734023)
(0.0420523376799514931 0.0447482270956478315 0.00526227473924615816)
(0.0341834658251735021 0.0435581719778446036 0.00446660720716700581)
(0.0264486127316734924 0.0426531805007475673 0.0038691426551815903)
(0.0188158062865625315 0.0420042434108506141 0.00344486401086293529)
(0.011248529250020279 0.0415908293218352765 0.0031749003362054962)
(0.00374232385141708059 0.041305706079349136 0.00304276739030865219)
(0.1285736887518103 0.0885371161989408073 0.0358898548411076962)
(0.119285492811100832 0.0809749664432576344 0.0294657224045565061)
(0.109918885542772682 0.0745315525797961287 0.0241431545274037596)
(0.100633126021430666 0.0690980042983834891 0.0197599230485218415)
(0.0915226340184184667 0.0645092507287883671 0.0161654898439260071)
(0.0826233142799587261 0.0606331861530607502 0.0132300737394883648)
(0.0739589484865402769 0.0573687709362933757 0.0108461738330483184)
(0.0655356555199961555 0.0546131850730120355 0.00891884888426966449)
(0.0573275716040357874 0.0522827450667326943 0.00736526484085408498)
(0.0492986352830225225 0.050331738323844008 0.00611935821467217596)
(0.0414250582239359261 0.0487363244144647101 0.00513124902293584338)
(0.033691645759453305 0.0474718459873245124 0.00436268030935947886)
(0.026078630066201796 0.0465075377029734033 0.00378352476868023483)
(0.0185573476033532442 0.0458142126689691995 0.00337049621987388966)
(0.0110933365285259388 0.0453722091688171167 0.00310660657282680989)
(0.00368967784211024974 0.0450612817052128481 0.00297741770379450618)
(0.124591086302281565 0.093516400125866303 0.0340375932017867797)
(0.115889380253487093 0.085933181601750383 0.0280486208452954341)
(0.107037607872808832 0.0794161837784193858 0.0230577317783456706)
(0.098196780689084634 0.0738630980175251223 0.0189278279495662741)
(0.0894646504383482394 0.0691347559357020636 0.0155273226208452672)
(0.0808924610152269852 0.0651146465862812995 0.0127405643448483992)
(0.0725108952622994241 0.0617075230190211529 0.0104698157102868436)
(0.0643284649645428364 0.0588216334060540774 0.00862847303293349036)
(0.0563257892728401058 0.0563819778596733115 0.00714062671434218324)
(0.0484752393455296499 0.054341524126674777 0.00594488666520727894)
(0.0407594826905859145 0.0526703524109254709 0.00499428642415480385)
(0.0331676344600324371 0.0513403783088948323 0.00425271549129475988)
(0.025683359978160427 0.0503214823637758019 0.00369199155096607435)
(0.0182813546198491092 0.04958659511122257 0.00329069724109262111)
(0.0109286984857833898 0.049117811323646926 0.00303347618608892228)
(0.00363425087065323733 0.0487831751401244171 0.00290756954406681725)
(0.141428400991832681 0.127645582737339475 0.0555215506083608507)
(0.135437959958048748 0.116678575117296526 0.0465794761972413429)
(0.128379710872910224 0.106852577066772383 0.0388350355343544604)
(0.120628822109803802 0.0981893444289372863 0.0322275112263900806)
(0.112468549014299785 0.0906072881245761075 0.0266471525044944257)
(0.104107255820182376 0.0840473133017473756 0.0219754224884625912)
(0.0956980702517334358 0.0784098244919501364 0.0180918559729376649)
(0.087340075981930887 0.0735752442365703307 0.0148816372168825376)
(0.0790949691910305952 0.0694403812872706055 0.0122421575295138703)
(0.0709982023670622797 0.0659164557394713857 0.0100846223237320738)
(0.0630605634444703911 0.0629192270541231308 0.00832991368896608686)
(0.0552689770318050624 0.0603794762830688683 0.00690858156799265075)
(0.0476041668240602539 0.0582519937323202688 0.00576385741596667153)
(0.0400548686022164299 0.0565066211601878005 0.00485165734623138958)
(0.0326135383269150897 0.0551150522738108051 0.00413788114552915594)
(0.0252663054629385132 0.0540473196756970919 0.00359618203752317973)
(0.017990861538431744 0.0532764203097007422 0.00320701826734451833)
(0.0107566998828593462 0.0527841758208913714 0.00295673231359970838)
(0.00357744149506491809 0.0524274406366070644 0.00283435109236231022)
(0.135904997718340886 0.131185361484553453 0.0519744839700000336)
(0.130425699221626085 0.120641414828600885 0.0437388388102327649)
(0.123909056437203791 0.111065991571386469 0.0365905783350814889)
(0.116691104338754639 0.102515666494778418 0.0304666970508466854)
(0.109038600090499635 0.0949831775576414072 0.0252730478839881326)
(0.1011472490574397 0.088421408435766527 0.0209051566046295142)
(0.0931544906399120048 0.0827346283671327315 0.0172587845600718423)
(0.0851638278076583405 0.0778241664271498712 0.014234049423640923)
(0.0772434803708953871 0.0736004125439360807 0.0117393824009152346)
(0.0694313291567888596 0.0699823466903402164 0.00969390672545238433)
(0.0617402599014827067 0.066893110923521848 0.00802547129951500064)
(0.0541637292076326063 0.064269078692923573 0.00667084490479243238)
(0.0466907511003072651 0.0620671196030702296 0.00557772344431954267)
(0.0393155050691084834 0.0602572271398739978 0.0047046860238642782)
(0.0320327292768364177 0.0588114050190977761 0.00401939285116381835)
(0.0248299959763424762 0.0577004100389002239 0.00349717753698690955)
(0.0176873710573525918 0.0568975561518076378 0.00312038649538737408)
(0.0105776946355008224 0.0563845524770976159 0.00287721165616146562)
(0.00350899773285644851 0.0560189714192755525 0.00275840676196413819)
(0.137033733549818876 0.156694385870258579 0.0668659508653132173)
(0.134531105500696524 0.145365852779285015 0.0572298988132251968)
(0.130681248739787703 0.134515958209711184 0.0486323699296994441)
(0.125629925404970644 0.12436291881057894 0.041039392694238605)
(0.119579375680369304 0.115041091119188268 0.0344399748019623836)
(0.112846369284565123 0.106641897628548851 0.0287655209710705809)
(0.105665944861018546 0.0991966729581501144 0.0239327745465155034)
(0.0982086863609695215 0.092653085985110184 0.0198519650221377839)
(0.0906082001445523283 0.0869360196702997912 0.0164331647255373768)
(0.0829701240376726629 0.0819663636571144882 0.0135883459429983235)
(0.0753645850237207593 0.0776660024844477437 0.0112352758482309016)
(0.0678304694430609395 0.0739620925271936153 0.00930023570558877535)
(0.0603826755650195765 0.0707862664388542451 0.0077174798674179753)
(0.0530208924798676595 0.0680816008996019129 0.0064295033781912956)
(0.0457418814356484738 0.0658075893400490997 0.00538816550136093052)
(0.0385447718029809094 0.0639344968217354787 0.00455456758178977416)
(0.0314259702001365299 0.0624348462159658238 0.00389805025241355286)
(0.0243736860482355426 0.0612805667481598343 0.00339558467569062161)
(0.0173698987553859985 0.0604456104774525882 0.00303141903386302614)
(0.0103962230784766275 0.0599106974971260475 0.00279569318706299978)
(0.00344750193540397081 0.0594747870474121726 0.00268116805740639848)
(0.119283217244894879 0.067310990886354588 0.0306777533577574403)
(0.110029246574812181 0.0619259477780919471 0.0249976005032392888)
(0.100820639552961167 0.0573756901854080431 0.0203591256161408871)
(0.0917701599463702361 0.0535521719841340615 0.0165825721998395861)
(0.0829159423187013356 0.0503335036683305037 0.0135141033614316758)
(0.0742784363811943571 0.0476227346655015982 0.0110380032555215321)
(0.0658670422000871281 0.0453408707089517984 0.00905106607046054362)
(0.057654606074535486 0.0434204702222501931 0.00745703550509620866)
(0.049604451625144888 0.0418153935894041498 0.00617992523307262995)
(0.041697616297681761 0.0404985492174812708 0.00516743158423728019)
(0.0339246290874471099 0.0394492590618033337 0.00438234313199376089)
(0.026267993137361785 0.0386458258961430018 0.00379448926399822504)
(0.0186986933356684711 0.0380670666641630268 0.00337843659209305456)
(0.0111831538058864421 0.0376967839105052382 0.00311450695133414206)
(0.00372110474644402663 0.0374417733827927396 0.00298459551310585429)
(0.125055722480772014 0.0794815275468849086 0.0358167482520538663)
(0.116425357421590048 0.0729219126650699767 0.0293521881779056568)
(0.107618443243558945 0.067306664196701213 0.024001498276876615)
(0.098791920764775526 0.0625418888601990824 0.0196091401668707713)
(0.090068269881706936 0.0585147141729365217 0.0160144504475395882)
(0.0814890259599417022 0.055103451721705797 0.0130837168305954609)
(0.0730878665932453569 0.0522151695738552607 0.0107120539017445653)
(0.0648771302840720765 0.0497623653699496293 0.00880226699235773027)
(0.0568332121002078222 0.0476771379054157091 0.0072647008999773121)
(0.0489278930475234991 0.0459263424153251582 0.00602971363180077914)
(0.0411495309032781642 0.0444944598200215369 0.00504903922700169691)
(0.0334924201355934481 0.0433610671419964872 0.00428749571008851631)
(0.0259413173239155595 0.0424971935733878259 0.00371621907611094935)
(0.0184696184734680323 0.0418751728322453651 0.0033110370257768279)
(0.0110468001177441242 0.0414770750672531704 0.00305345403699341152)
(0.0036755566078812453 0.0411984375861155355 0.00292630240222154338)
(0.12159782041545511 0.0848978925397781276 0.0340599204600596644)
(0.113467963707352751 0.0782100321595853576 0.0280177190791621941)
(0.105097534253964106 0.0724262396949395815 0.0229897588040172338)
(0.0966608322579945445 0.0674956121910190998 0.0188387174119810097)
(0.088267205223633835 0.0632920925605098689 0.0154278811755742817)
(0.0799715874664499171 0.059709272394901626 0.012638078612507795)
(0.0718134028905057786 0.0566608259779582332 0.0103713927152263123)
(0.063806790860342924 0.0540606074943048576 0.00853829443009212347)
(0.0559380464510760636 0.0518458918860852519 0.00705817773343252186)
(0.0481892490378916447 0.0499868511173685373 0.00586786562704393749)
(0.0405527570567526044 0.0484661837853886529 0.00492191577440385421)
(0.0330233421322225565 0.0472600172302136481 0.0041861241833852595)
(0.0255872108198181326 0.0463376013277310081 0.0036325038652381585)
(0.018221162710030419 0.0456713243815498465 0.00323825600162851038)
(0.0108969199309798016 0.0452443788687316717 0.00298653260253176588)
(0.00362447922225990525 0.04493932622711376 0.00286161428887585917)
(0.118101967404986533 0.0899564738747116177 0.03233406818912124)
(0.110443822892325405 0.0831865367777006315 0.0266899296330204011)
(0.102502790241202041 0.077304345512452563 0.0219701852250421478)
(0.0944459235110955975 0.0722437756857701036 0.0180554403309887597)
(0.0863800008227498528 0.0678945747660603671 0.0148264358559209424)
(0.0783717705076498461 0.0641647977346002235 0.0121767970113722881)
(0.0704641301950259258 0.0609746889209795903 0.0100164889546266039)
(0.0626731466363007056 0.0582487755091979642 0.00826332536168927767)
(0.05499130496011298 0.0559303029056733569 0.00684389656613502116)
(0.0474075139173268933 0.0539856450064943802 0.00570022255488330555)
(0.0399186257491298824 0.0523908134206423348 0.00478974057972983338)
(0.0325223724816426779 0.0511192622569830793 0.00407986195298086669)
(0.0252078375896929163 0.0501419041315201916 0.00354396526979161965)
(0.0179551029667219496 0.0494338540355961156 0.00316078660662320703)
(0.0107374687707690892 0.0489801395447512569 0.00291507342928252946)
(0.00357059522364009015 0.0486517527256693089 0.00279270927000592473)
(0.13200226073557883 0.12052483961759812 0.0524492152553890506)
(0.127206431234372086 0.11101483808008912 0.0441063362967041919)
(0.121291152681400033 0.102392851474662122 0.0368543428397841849)
(0.11459404434764317 0.094703118405619513 0.030640914440170329)
(0.107380335519037168 0.0878963306476222422 0.0253746114574907103)
(0.0998521818506014902 0.081948950578645513 0.0209524449122401868)
(0.092164497388312519 0.0767889992083724271 0.0172683153783295615)
(0.0844242320361863335 0.0723250308574467649 0.0142181824365582906)
(0.0767044480914309823 0.0684757152551476733 0.0117071726029065043)
(0.0690501560841139811 0.0651671942789633085 0.00965281357756308037)
(0.0614796437997338421 0.0623311229897269073 0.0079800258682030719)
(0.0539911874753287307 0.0599152019949992717 0.0066223328241796376)
(0.0465800445524227197 0.0578861754878619988 0.00552665850428563955)
(0.0392470261116354135 0.05621893095509755 0.00465293159606365754)
(0.0319921205939762768 0.0548864997008904898 0.00396984244392632139)
(0.0248067627273389664 0.0538602351478565319 0.00345203952424895204)
(0.0176742553343232321 0.0531157884326907415 0.00307993609718255467)
(0.0105703718182198203 0.0526382948311119592 0.00284010848819124181)
(0.0035152381299333635 0.0522875338704872281 0.00272016698609703692)
(0.127237712683268805 0.124474969594079665 0.0491525806801710041)
(0.122834226822549838 0.115241280780354741 0.0414622994820379176)
(0.117348029128054712 0.106771814249690802 0.0347568255346017291)
(0.111083211641246238 0.0991306255905250039 0.0289894099421809485)
(0.104291143434748795 0.0923313907395196115 0.024083149612538185)
(0.0971607913415580837 0.0863519922793635764 0.0199452967166463685)
(0.0898320546705594497 0.0811240859242105539 0.0164840290261250577)
(0.0824134294970878811 0.0765731035211899558 0.0136084029688087471)
(0.0749811150027943907 0.0726281910678904102 0.0112333968117614702)
(0.0675810740846143065 0.0692225794137251438 0.00928355781588145398)
(0.0602339158207012282 0.0662945773199014876 0.00769073291704938482)
(0.0529436766577428899 0.0637959319453565848 0.00639516932965402719)
(0.0457115925047149596 0.0616940340351011737 0.00534836331258637006)
(0.0385417568434451296 0.0599632163439360252 0.00451232347483989868)
(0.0314356093448348167 0.0585767261960798355 0.00385666901537525279)
(0.0243862989935798823 0.0575068562527621327 0.0033571703002773564)
(0.017380013101990506 0.0567299168828839656 0.00299600782468071366)
(0.0103959468104987268 0.0562312767078816111 0.00276182338878516254)
(0.00344817170982367758 0.0558714096491046558 0.00264409508869696509)
(0.126991897775862728 0.147527175186075749 0.0629499529762738153)
(0.125535276143770719 0.137715623669292159 0.0540338655884496921)
(0.122689616916142816 0.128213755259521944 0.0460387367412308512)
(0.118617025021621247 0.119246985087750682 0.0389420714510679)
(0.113502271249012215 0.110937854804374791 0.0327430058256466747)
(0.107633780629718984 0.103381310377899188 0.0273932395779787133)
(0.101236753061373821 0.0966207981651627801 0.0228236213341514796)
(0.0944769967198604566 0.0906277013585469332 0.018955058438914256)
(0.0874885592940733842 0.0853489073894837247 0.0157077620077785592)
(0.0803798480166187379 0.0807248965430319154 0.0130011587114259967)
(0.0732270284924000925 0.0766943185920535703 0.010758688468754888)
(0.0660763109310003732 0.0731982532080154569 0.00891147491727535893)
(0.058950507514488576 0.070182498633964252 0.00739794271327729944)
(0.0518589288273672913 0.0676035350350418784 0.00616457037792386003)
(0.0448082506125011271 0.0654298651803521397 0.00516701014867759247)
(0.0378055145887404159 0.0636357236434766105 0.0043690851227532702)
(0.030853222995044019 0.0621951629921956295 0.00374117308656229594)
(0.0239456608615301741 0.0610819141909083735 0.00326008794135534529)
(0.0170715838095137212 0.0602729510508301855 0.00290982033355681804)
(0.0102189408928293392 0.0597525270659144611 0.00268120672010836204)
(0.00338798719217166689 0.0593218506165185608 0.00256661213839082117)
(0.113202070456771386 0.0648522474539270644 0.0278893769742043773)
(0.10502424194770639 0.0600711860884641374 0.0227782130670527994)
(0.0967321505557547229 0.0559843515421110313 0.0185864590158031848)
(0.0884391137417900042 0.0525050407539305111 0.0151644874143497064)
(0.0802129158994916158 0.0495428867424735214 0.0123767028862681594)
(0.0720996178997920789 0.0470221337813902171 0.0101217311274000663)
(0.0641171831296271089 0.0448781400131047434 0.00830745898092639067)
(0.0562520249029986319 0.0430593920835899077 0.00684830407547763406)
(0.0484880698527051096 0.0415330592696913428 0.00567805540112798976)
(0.0408227128639447948 0.0402785886291035997 0.00475069403747924689)
(0.0332557450263155086 0.0392770955062520175 0.00403187006921912078)
(0.025776220561776763 0.0385078044241135217 0.00349305209847164486)
(0.0183620681622392729 0.0379513883585531273 0.00311085407933644163)
(0.0109868832234419761 0.0375941231419411673 0.00286802729225341634)
(0.0036563838713019989 0.0373446783854838593 0.00274949417754515989)
(0.118191472717915497 0.076174191715243228 0.0325215319329003535)
(0.110700482506870299 0.0704010089798530053 0.026719225575593572)
(0.102884404500934334 0.0654028732678204744 0.0218885867759261027)
(0.0949076646879514207 0.0611062519256889564 0.0179133602762679908)
(0.0868896359937934709 0.0574283205626621232 0.0146524600437798573)
(0.0789017258109700886 0.0542803059695049078 0.011987196096756015)
(0.0709957581966263601 0.05158409803845454 0.00982536880548905145)
(0.0631908973578407807 0.0492689672470161821 0.00807977032477559011)
(0.0554776191674259955 0.0472882982186212247 0.00667112568727864022)
(0.0478468202650262561 0.045622631318338637 0.00553900385856760918)
(0.0403010748249237882 0.0442597204697337543 0.00464063171047131295)
(0.0328427893186067077 0.0431784192677377304 0.0039431430145005289)
(0.0254629558270237227 0.0423504315141754462 0.0034191386043303058)
(0.0181417511358764674 0.041750963411571404 0.00304651898133382996)
(0.0108555198594828105 0.0413656012522375036 0.00280925662349813549)
(0.00361243501485144884 0.0410926547019933586 0.00269313280938600092)
(0.115189669542440282 0.0815896308540833143 0.0309711778502746934)
(0.108094973413210144 0.0756699527899513669 0.0255279265061836708)
(0.10063568413997391 0.0704982992260951152 0.0209821141796283847)
(0.0929806339356096107 0.0660272525749330402 0.0172215828224341477)
(0.0852440817709117921 0.0621723476226985899 0.0141236485043180551)
(0.0775021148276758415 0.0588543758158360519 0.011583519964071122)
(0.0698083936854436704 0.0559998756818515311 0.00951473920056263717)
(0.0621854778427113064 0.0535415104095153943 0.00783767980962540509)
(0.0546325279269343628 0.0514371832834031248 0.00648154115991862907)
(0.0471471621454797249 0.0496683344772645141 0.00539092170280810502)
(0.0397336592039706782 0.048219734348386431 0.00452465465476375138)
(0.0323945593115026256 0.0470671386291154764 0.00385047102169271648)
(0.0251226619442515287 0.0461812401374946807 0.00334204901946626946)
(0.0179017126974797373 0.0455377887179858679 0.00297892247798700388)
(0.0107102104815958877 0.0451236767864681698 0.00274676297660122592)
(0.00356283158897955244 0.0448246174267285455 0.00263287227189422249)
(0.112127568165517569 0.0866908330924695686 0.0294311827457766108)
(0.105412575952916268 0.0806648717729174375 0.0243390421628547488)
(0.0983038641005754554 0.0753693222383809147 0.0200685327683364639)
(0.0909662311549025993 0.0707563286519604651 0.0165173456873114535)
(0.0835115247740261246 0.0667504790292192257 0.0135807613278437142)
(0.076020942464359656 0.0632832468422023786 0.0111652340355829788)
(0.0685491122033783096 0.0602898442760737077 0.00919118666162120797)
(0.0611203158877808989 0.0577118528112549878 0.0075860017195993612)
(0.0537383903308839422 0.0555088511987941666 0.00628523817800306223)
(0.0464055643603523138 0.0536565401201929554 0.00523750347674750878)
(0.0391292676106645212 0.0521339215728855235 0.00440367403558374927)
(0.031914636105820203 0.0509156919144855211 0.00375285449309095253)
(0.0247573333728362092 0.0499750767920048855 0.00326019052712387802)
(0.0176443146979317206 0.0492905872946575382 0.00290686422232522106)
(0.0105555485944248805 0.0488505435235338376 0.00268010730851349788)
(0.00351054974830878209 0.0485287586676312194 0.00256874645279143825)
(0.123411423569457307 0.114070282233612014 0.0474560605894479848)
(0.119670298554961876 0.105861794729010195 0.0400141063518572593)
(0.114775702774280952 0.098319366156664853 0.0335121035380863269)
(0.109030315141462067 0.0915059239322940088 0.0279186118280130846)
(0.10267485516722466 0.0854087878510137177 0.0231617686162100614)
(0.0959074150570381478 0.080022241595549104 0.0191551393506134218)
(0.0888817358883610964 0.0752967578983963076 0.0158085342973617975)
(0.0817087146638312001 0.0711689405586657664 0.0130309979262616775)
(0.0744717562887461798 0.0675786278559835502 0.0107389121052393309)
(0.0672255944673179062 0.0644669230339940807 0.00885958648964075592)
(0.0599962766757729873 0.0617809051678020749 0.00732696031338399452)
(0.0527920566985869213 0.0594825445504037209 0.00608251453669714399)
(0.0456194225726708272 0.0575470989439131123 0.0050786755945485193)
(0.0384883908540499045 0.0559526869921150721 0.00427821012623172577)
(0.0314060323261157251 0.0546740026492569531 0.00365143239116396193)
(0.0243705201933611497 0.0536849010550959765 0.00317488801761782978)
(0.017372113051812299 0.0529644190840819762 0.00283147326235944942)
(0.0103931787242091036 0.0525008928090492238 0.00261010988244647201)
(0.00345678589701990235 0.0521567034641045729 0.00250125660467240447)
(0.119328156988299003 0.11835498857252047 0.0445269905919905493)
(0.115874531794316421 0.110301168735753297 0.0376599719220762977)
(0.111309386328920873 0.10283489916318285 0.0316386166350992037)
(0.105907470738888426 0.0960215556405305398 0.0264401523642588919)
(0.0998965131427386188 0.0898937492693113738 0.0220030951424118673)
(0.093460874910096331 0.0844478476139342987 0.0182494287111535786)
(0.0867411584447528444 0.0796383041237764266 0.015101271552722461)
(0.0798480599323123097 0.0754140837920259516 0.0124792191191812618)
(0.0728651000558889761 0.0717231428673284627 0.0103085036387317135)
(0.0658464683312528498 0.0685127892624604884 0.00852289244590715388)
(0.0588201988172801851 0.0657353016843395949 0.00706259674704103231)
(0.0517989737282101848 0.0633550753858491966 0.00587478961340056997)
(0.0447931434511005394 0.0613472974879225239 0.00491550153752630479)
(0.0378145901728639544 0.0596896029802387318 0.00414913397731362689)
(0.0308715775702464515 0.0583570670970340391 0.00354695387095629693)
(0.0239643420633186381 0.0573244538058535688 0.00308676060471000865)
(0.0170863095000828129 0.0565713817453385587 0.00275319578775369903)
(0.0102232370323540999 0.0560864684878563183 0.00253704463369044042)
(0.00339122779054189596 0.055732582100230979 0.00243049489807388181)
(0.117883075829185641 0.139175166249577847 0.0567686352374812131)
(0.11734852838515826 0.130722037211661979 0.0488553165318112576)
(0.115393193144266937 0.122440940593541853 0.0417448927931766134)
(0.112183744352927162 0.114547225069508665 0.0354045399456674459)
(0.107906454011542058 0.10716584887978578 0.0298336590066823545)
(0.102820284524204317 0.100382806222563528 0.0250077300450998533)
(0.097133781242334738 0.0942508444009640123 0.0208711880710239599)
(0.0910098882536199277 0.0887619317864961899 0.0173579981333287781)
(0.0845822260479924398 0.083882770226045289 0.0144007539931161801)
(0.0779600342413225844 0.0795736568185489712 0.0119294750515437798)
(0.0712248892725579064 0.0757899348633746944 0.00987716438248762915)
(0.0644302121417361512 0.0724857336212523379 0.0081836700665590522)
(0.057605902391441248 0.069619283925609371 0.00679510958257616669)
(0.0507686304459852855 0.0671581285113123788 0.00566391444457134147)
(0.0439321938443836962 0.0650779850241711283 0.00474942813385773911)
(0.0371100573216325003 0.0633565863275638019 0.00401751170806235319)
(0.0303113280274601438 0.0619699635279525735 0.00344022500615061982)
(0.0235378498974799129 0.0608941146714714956 0.00299650140723046673)
(0.0167860586776827428 0.0601090093193520497 0.00267272291298705769)
(0.0100503845608606451 0.059602029363017936 0.002461657082077808)
(0.00333233176401364142 0.0591765315725054919 0.00235835200688679514)
(0.114685728135440604 0.0675930843810308712 0.0294093271595545942)
(0.107863859904902118 0.0627080176395553718 0.0241391609302620339)
(0.100619924170863378 0.0584495842250434688 0.0197584584539492597)
(0.0931179875086605019 0.05476231163797423 0.0161514369325188485)
(0.0854838270282654855 0.0515813821600318717 0.0131964776300500415)
(0.0778082994362884056 0.0488424359816436171 0.0107833963648472936)
(0.0701568575137187511 0.0464877638778088617 0.00882776230343209484)
(0.0625543105178657938 0.0444654606953133608 0.00725162563148076724)
(0.0549983216738592767 0.0427373956355480977 0.00598264482536132926)
(0.0474896103621106208 0.0412813897218237066 0.00496443934676772409)
(0.0400392991840317694 0.0400822409917208772 0.00415713924682188478)
(0.0326557081201349284 0.0391229485429153909 0.00353077297946012125)
(0.0253342416761818748 0.0383839563077373117 0.00306069423233359733)
(0.0180591006286162994 0.0378476767360529792 0.00272693445161911133)
(0.0108101215059148055 0.0375023526703672991 0.00251477175780121572)
(0.00359822163637934719 0.037258081975708679 0.00241146878561555129)
(0.112175325793607658 0.0733045986532355059 0.0281077185982855568)
(0.105671308336664535 0.0682111491770679423 0.0231452076808146487)
(0.0987124327542068941 0.0637363777573988488 0.0189998644598068228)
(0.0914697391705499296 0.0598420310336924902 0.01557453156875554)
(0.0840672054675357244 0.0564675337721474574 0.0127558383892105998)
(0.0765985647994153196 0.0535493338615940784 0.0104470019848306589)
(0.0691294714224998663 0.0510220315627069737 0.00857080346971470647)
(0.0616845457812383938 0.0488294753903589784 0.0070534893740643867)
(0.0542658318882149743 0.0469424498566819171 0.00582801228556406158)
(0.0468798480444404808 0.0453524236187501581 0.00484274270229017624)
(0.0395412597186251547 0.0440501456673056957 0.00406051753785438042)
(0.0322600455367955674 0.0430145732657862684 0.00345266852040980541)
(0.0250331691448926023 0.0422184900278196329 0.00299554679721600586)
(0.0178468380820123763 0.0416395811103638658 0.00267026008169096024)
(0.0106833568003361704 0.0412661352381104227 0.00246307518640634555)
(0.00355574885770254144 0.0409985607686872422 0.00236195821753685913)
(0.109563684857524546 0.0787216701279758735 0.0267956982136249994)
(0.103366598157618714 0.073458259181943153 0.0221335484774602062)
(0.0966962263487426282 0.068806448672953574 0.0182254730294571614)
(0.0897197515985299343 0.0647322902977248704 0.0149810020920155308)
(0.0825574304734215669 0.0611810244833316322 0.0123006648822906808)
(0.0753023460690744467 0.0580949031995600731 0.0100983077620516275)
(0.0680190871242287165 0.0554115812215833156 0.00830157115993639116)
(0.0607368408404532906 0.0530796742362877466 0.00684316298566557332)
(0.0534652138054799927 0.0510737927268316086 0.00566296626302828163)
(0.0462146759412093155 0.0493845612318648264 0.00471343576894299888)
(0.038999859264449363 0.0479990456890339035 0.00395881540228565539)
(0.0318305178814428311 0.0468934802588707317 0.00337106110449026612)
(0.024705540617815238 0.046040195923769768 0.00292749762162178252)
(0.0176147154532582222 0.0454177237073558546 0.00261059751627161322)
(0.0105424390681934429 0.045015735746745375 0.0024080052371609679)
(0.00350758553548162575 0.0447223771984108301 0.00230896771416747287)
(0.106873202072991308 0.0838496595559452135 0.0254914535964057172)
(0.100976684408872086 0.0784602815254843433 0.0211212143749291044)
(0.0945910538365403314 0.0736682974795166978 0.01744383422541812)
(0.0878796062402608658 0.0694429053666784646 0.0143764560169775055)
(0.0809601185157693415 0.0657367661414262616 0.0118333165476161989)
(0.0739254731524909559 0.0625000666455202691 0.00973721976511059822)
(0.0668392959293230143 0.0596806034560215248 0.00802151607683294042)
(0.0597322725158958984 0.0572341553339812681 0.00662474691471313937)
(0.0526175134127604624 0.0551336349786629293 0.00549205158487559367)
(0.0455084618974311989 0.0533626514832298005 0.00457927544597928719)
(0.038421830460323228 0.0519033455813119743 0.00385249390820710568)
(0.0313695209711310763 0.0507321097194396858 0.00328490926887910033)