/*--------------------------------*- C++ -*----------------------------------*\
| =========                 |                                                 |
| \\      /  F ield         | OpenFOAM: The Open Source CFD Toolbox           |
|  \\    /   O peration     | Version:  2206                                  |
|   \\  /    A nd           | Website:  www.openfoam.com                      |
|    \\/     M anipulation  |                                                 |
\*---------------------------------------------------------------------------*/
FoamFile
{
    version     2.0;
    format      ascii;
    arch        "LSB;label=32;scalar=64";
    class       surfaceVectorField;
    location    "0.0899999999999999967";
    object      Uf;
}
// * * * * * * * * * * * * * * * * * * * * * * * * * * * * * * * * * * * * * //

dimensions      [0 1 -1 0 0 0 0];

internalField   nonuniform List<vector> 
20856
(
(0.131238988325905692 0.0736884777523439116 0.0359942004582470276)
(0.13451617200903157 0.0803243311474385185 0.0387288441085847715)
(0.140700360770018129 0.0792641240940031577 0.0402067444362525367)
(0.120656677384234245 0.0670014622190703152 0.029295452946166204)
(0.124273931912470437 0.0729253861748507815 0.0315994944202401193)
(0.122594154887367454 0.0686769034871196893 0.0316779123414666144)
(0.129363028061737106 0.0714675480506734573 0.0327208788798462533)
(0.11032787531551079 0.0614279789840754126 0.0238275064329554059)
(0.114094742822225592 0.0667237186063163595 0.0257497454423567321)
(0.112741681759822965 0.0629430280641739004 0.0257949264938169866)
(0.118269624869479728 0.0650142782848278089 0.0265984881715110172)
(0.100293745024431918 0.0567950120599761757 0.0193824809366900247)
(0.104114709860075899 0.0615522835406566229 0.0209768243097424242)
(0.103031059246616707 0.0581357699016514934 0.0210014387837966637)
(0.107526630975410278 0.0596818306369330531 0.0216173270115170603)
(0.0905821747926990606 0.0529438217423932045 0.0157740388357849072)
(0.0944300573599880511 0.0572385990632006611 0.0170888813432934598)
(0.0935674872101669164 0.0541231732430957346 0.0171020111860188048)
(0.0972173295296318851 0.0552844050691086095 0.0175739904004164789)
(0.0812076458623518793 0.0497330100784432738 0.0128551894588068982)
(0.0850479627834671847 0.0536301079772773664 0.0139305695527721755)
(0.0843703910282393166 0.0507634863255297386 0.0139356317397411472)
(0.0873221758859813596 0.0516389347806663762 0.0142998497862749929)
(0.0721535215739969871 0.0470548490110094114 0.0105065555649052188)
(0.0759727515318597002 0.0506121850197425449 0.0113800219995090542)
(0.0754470639774098562 0.0479476429198295792 0.0113797116276882649)
(0.0778204266336105926 0.0486117449582776362 0.0116632332037391023)
(0.0633964922562091776 0.0448212433453290746 0.00862297026447680394)
(0.0672062517191169828 0.0480853139274178762 0.00932956094636244564)
(0.0668016747775480174 0.0455890087784065409 0.00932627751669979667)
(0.0687020598323553888 0.046098548446825427 0.00955053076943490967)
(0.0549125383987084659 0.0429610842220546352 0.00711561605104474998)
(0.0587110662125532728 0.0459677451013373248 0.00768358071615280781)
(0.0584009996033964598 0.043612905032523519 0.00767834278768104051)
(0.0599181628354477497 0.044008185424618429 0.00785907962099015485)
(0.04666644511184493 0.0414258736662672794 0.00591694044363558908)
(0.0504341427350973454 0.0442056836434267866 0.00636690049939439562)
(0.0501978851606325882 0.0419661110953582842 0.00636032405697729321)
(0.0514012628933462473 0.0422742123927429894 0.00650680747533047103)
(0.0386140149256408161 0.0401848304115186225 0.00497771243556382852)
(0.042340462777855678 0.0427659521659547251 0.00532498257100293311)
(0.0421631020867208189 0.0406167339743516917 0.00531817138817121306)
(0.0431045211856176669 0.0408571579080638098 0.0054361571833671336)
(0.0307133827661403187 0.0392140199569415496 0.00426052353643146565)
(0.0344100107947970524 0.0416218036586116294 0.0045171708377674813)
(0.0342805924259338562 0.0395420005768092331 0.00451127048675156652)
(0.0349999235799120095 0.0397308824219522738 0.00460662397321586273)
(0.0229303144284221487 0.0384909023750985846 0.00373565028416858458)
(0.0266194644909963987 0.0407467667347649817 0.00391122762983828285)
(0.0265291546938405468 0.0387195618591054808 0.00390674220997297775)
(0.0270576222739857715 0.0388711374445840155 0.0039861508699990094)
(0.0152348453173536784 0.0379956396183097067 0.00337979929854802024)
(0.0189353945451856444 0.0401168385551630632 0.00348142598735256452)
(0.0188768380697386141 0.0381277867961461181 0.00347813835481346765)
(0.0192380993711726567 0.038254316063154388 0.00354773799932467122)
(0.00759543808231542567 0.0376721268435705539 0.00317423700868541209)
(0.011319667764076417 0.0397141728522293763 0.00320825548472967407)
(0.0112869800420094986 0.0377497781094977211 0.0032059028404014)
(0.0114967793062180461 0.0378614309394246784 0.00326959609239619144)
(0.00376607405762894969 0.0394381232357953748 0.00307481538721281157)
(0.00375546450514242314 0.0374916273807218217 0.00307283096653562359)
(0.00382408314024703126 0.0375969899136904886 0.00313321652306097504)
(0.127640416798617151 0.0794286274435160866 0.0343341380705778909)
(0.130561579408546097 0.085907403341962979 0.0368350430345970106)
(0.128802596273026954 0.0813206951570440151 0.0370114071701902955)
(0.13647273675424304 0.0850840311769886087 0.0382642887263752104)
(0.117687330441710661 0.0725428000902800241 0.0280537869164306196)
(0.120964132053100845 0.0783869419754511798 0.030176883658812978)
(0.11953406435834546 0.074309652392449535 0.0302999333345831713)
(0.125881689025214655 0.0771326551594732623 0.0312679193846185019)
(0.107863976429334249 0.066749428289273105 0.0228990633191436879)
(0.111327127121195052 0.072012030417777137 0.0246813417235977987)
(0.110176905971588163 0.0683474361287161186 0.0247620022311275736)
(0.115390555926359148 0.0704627769230657675 0.0255133962414624549)
(0.0982446304861701314 0.0619043367004424652 0.0186832247163458941)
(0.101810533400655101 0.0666529668359805566 0.0201692603835087747)
(0.100889930772327538 0.0633262686890072313 0.0202231773385197593)
(0.105155984051590767 0.0649202547915946893 0.0208035334491483113)
(0.0888807420070003157 0.0578470135031609115 0.0152454120602807976)
(0.0925089671322154722 0.0621452665798332901 0.016476670779061009)
(0.0917817850638596999 0.0591063695280029944 0.0165126284189858578)
(0.0952611302788503034 0.0603103977166086075 0.0169606741432741341)
(0.0797947296528025429 0.0544451461629378922 0.0124554020934743645)
(0.083447200054557899 0.0583477292695747662 0.0134665230729269191)
(0.082880055894549387 0.0555497269224790036 0.0134892290091065889)
(0.0857033920657369469 0.0564604973707936858 0.0138373668813642613)
(0.0709831163691915512 0.0515916102471610447 0.0102030273809662897)
(0.074644379988317161 0.0551550461451540616 0.011027002806815768)
(0.0742088390416696941 0.0525547298882393862 0.0110412832419169906)
(0.0764864122853572831 0.0532505053773218995 0.0113146419840780173)
(0.0624331288224107064 0.0491902082366965851 0.00839017139803847033)
(0.0661059258016106072 0.0524696905769334657 0.00905853593280950622)
(0.0657766631836485677 0.0500256478308240896 0.00906749023447725629)
(0.0676068907563473626 0.0505662613137616707 0.00928586229916834351)
(0.0541247560056965643 0.0471718407389654926 0.00693486516450246993)
(0.0578011554484424497 0.0502104925516985851 0.00747369232779082539)
(0.0575539756965284671 0.0478843120435551439 0.00747807854531974507)
(0.059019816828891597 0.0483086668283153331 0.00765515235453066451)
(0.0460269984028863488 0.0455002111959420877 0.00577494262676174486)
(0.0496878010285484659 0.0483262702648835848 0.00620348436447475809)
(0.0495024299107989507 0.0460892688557807545 0.00620379335301286632)
(0.0506678455362881835 0.0464214263485527301 0.00634747122197005034)
(0.0381025292596139514 0.044153199536746221 0.00486444097320658242)
(0.0417386979519437096 0.0467858552493270047 0.00519676188109100164)
(0.0416009342916148286 0.0446213434578346876 0.00519441663951247801)
(0.0425142194977594159 0.0448795750435786317 0.00531027479742750361)
(0.0303162752879079997 0.0431056762392960785 0.00416787493117429242)
(0.0339375557923134036 0.0455616834586100583 0.00441464375826324234)
(0.0338379429803834786 0.0434596195599205454 0.0044114294638573949)
(0.0345367796320017878 0.0436611761359946143 0.00450565631616972433)
(0.0226387378143975901 0.0423287119557990837 0.00365700333302225716)
(0.0262636213989376442 0.0446248135968337553 0.00382633371193091256)
(0.0261949650277945277 0.0425751870370676966 0.00382351547859459103)
(0.0267090347860540998 0.0427364982555331827 0.00390293607274338041)
(0.0150431732327961521 0.0417975363663429383 0.00330988217353421228)
(0.0186865769449578861 0.043949406802138262 0.00340768011536841248)
(0.0186427123800152819 0.0419397081215479861 0.00340571655891548381)
(0.0189944960134147307 0.0420749914775503803 0.0034762471892706235)
(0.00749937645246930712 0.0414482677005922062 0.00310883386325707441)
(0.0111709328892731097 0.0435181310880211197 0.00314075345451615305)
(0.0111476646838822024 0.0415339521945442269 0.00313977803228833842)
(0.0113521371794056292 0.0416544079532983336 0.00320491257702116422)
(0.00371600084676366495 0.0432184092252762275 0.00301009254705157875)
(0.00370894022964916295 0.0412520718327323357 0.00300931013795189802)
(0.00377587428827601008 0.0413662043111195574 0.00307135899865922189)
(0.123979088770811152 0.0847560413210992902 0.0326777886228321601)
(0.126582387527045925 0.0910963129603537258 0.0349637240214472345)
(0.125085754583632719 0.0867175043693594744 0.0351803915076904991)
(0.132217457853646886 0.0904398760548859593 0.0363338441392180717)
(0.114624721741711011 0.0777532595115268538 0.0268044384659801085)
(0.117587436532293949 0.0835135457154483341 0.0287571716249259667)
(0.116376728259226778 0.079592499301421496 0.0289153012879252054)
(0.122314135130547591 0.0824123215220261135 0.0298119204932322107)
(0.105295019253998909 0.0718147784390897881 0.0219515387879627814)
(0.108478246707790757 0.0770275974673936409 0.0236004431528747151)
(0.107508209898368387 0.0734788961373678551 0.0237123483481818699)
(0.112417761545748632 0.0756198156915794673 0.0244117462742277809)
(0.0960905312513245236 0.0668036275135858865 0.0179627064462238931)
(0.099414953355257657 0.0715281090297801986 0.0193438754990440595)
(0.0986469791397126122 0.0682968082447013014 0.0194239298056329661)
(0.102684371058414811 0.0699258952583031723 0.0199679299685356221)
(0.0870783810915165962 0.0625712184409245586 0.014697781791707186)
(0.090493642228383353 0.06686382944240013 0.0158464062323856354)
(0.0898949196210261509 0.063900671644649118 0.0159038286270939098)
(0.0932003590235790241 0.0651402793443185274 0.0163272925866522825)
(0.0782884064389891138 0.0590009785446770907 0.0120381237862683625)
(0.0817578876475928557 0.062909263928361922 0.0129853190421683803)
(0.0812974508732043216 0.0601712292739811916 0.0130258036292070691)
(0.0839897722336224589 0.0611159872917418148 0.0133577135982362698)
(0.0697288187677087973 0.0559909780046527403 0.00988251135865901749)
(0.0732349218744198505 0.0595668966352937979 0.010657994771667581)
(0.0728861756885230277 0.0570147984571258079 0.0106861123552367699)
(0.0750666552817076116 0.0577420474605017525 0.010949401257049924)
(0.0613953806265189264 0.0534479650698723718 0.00814205686256188124)
(0.0649320602422694959 0.0567426389709223475 0.00877366095860157742)
(0.0646712231901695328 0.0543368962836584465 0.00879238348662775282)
(0.0664291266968914107 0.0549042345049852443 0.00900439060230834656)
(0.0532718245228249385 0.051307241695288372 0.00674231152776314131)
(0.0568266804384379431 0.0543583706815323822 0.00725294577759813368)
(0.0566328090275559221 0.0520643184764089731 0.00726403181505596521)
(0.0580435433779346241 0.0525091664898402061 0.00743614013966307445)
(0.045331879993210443 0.0495340313691543591 0.00562530361880400967)
(0.0488869373142760827 0.0523657527917869986 0.00603212243993972701)
(0.0487439421604570836 0.0501592947206062692 0.00603738705479284557)
(0.0498670593427342143 0.0505064437994200421 0.00617663938902833672)
(0.0375453813073686124 0.0481040852008945974 0.00474696466614765462)
(0.0410922704572609238 0.0507350327101266652 0.00506276772354532362)
(0.0409889076403442618 0.0486012540999266815 0.00506443596323557892)
(0.0418704668981162154 0.0488708944906807927 0.00517679546664504431)
(0.0298838408909337175 0.0469896918451489579 0.00407310253901985685)
(0.0334296401097428711 0.0494381910303911126 0.00430769790032711937)
(0.0333574939458379308 0.0473659316087690768 0.00430781868671890195)
(0.0340336122921555476 0.0475769687477038059 0.00440000858735083763)
(0.0223217803921061837 0.0461608751859712979 0.00357701049427705878)
(0.0258809950221811115 0.0484448606460033265 0.00373775815982315459)
(0.0258329204430099643 0.0464225695153522092 0.00373763994959614701)
(0.0263317090871665639 0.0465923334421615362 0.00381654233233494995)
(0.0148346127935863933 0.0455932109188931581 0.00323855139635034978)
(0.0184193511116011767 0.0477280913031497209 0.00333059673048325539)
(0.0183892551566918298 0.0457427685252595195 0.00333073055833566552)
(0.0187315670718147358 0.0458858497737159865 0.00340190382809892186)
(0.00739492095813324129 0.0452167454370149824 0.00304201213831065695)
(0.0110110175071546634 0.0472706357545608219 0.00307004137945786609)
(0.0109951282297528694 0.0453082940187743907 0.00307071289660099675)
(0.0111942263700225697 0.0454361064981337812 0.00313706516527390358)
(0.00366196435638174375 0.0469471861061051959 0.00294249362393066149)
(0.00365707853218507749 0.0450003039661633006 0.0029429318169338658)
(0.00372210719114041046 0.0451209013416647015 0.00300644341615749966)
(0.120298336247290791 0.0897247908638082736 0.0310431070235410549)
(0.12260995420604269 0.0959147877982044206 0.0331325522140884371)
(0.121346526853634049 0.0917364370002889534 0.033378440908117174)
(0.127972977498053475 0.0953823478751858744 0.034440216422682364)
(0.1115061176832228 0.0826746826900849191 0.0255531763118205732)
(0.114178964633893432 0.088325662172196992 0.0273478866748949299)
(0.113166601572906242 0.0845598591897255003 0.0275328145113551553)
(0.11871676001535085 0.087361136831135916 0.0283625692808452227)
(0.102648441505056615 0.0766396408979722055 0.0209927798639559342)
(0.105572431846495604 0.081782008329697134 0.0225165771334041344)
(0.104770199057005436 0.0783602646454359675 0.0226535236632964508)
(0.109384123678882714 0.0805085180316073012 0.0233026073740372798)
(0.0938514370545827092 0.0714989269766136137 0.0172275752852057845)
(0.0969474254704090349 0.0761815484932045067 0.0185098419612519695)
(0.0963213521000901157 0.0730534368516476129 0.0186113356212596372)
(0.100132839920233641 0.074700944202544195 0.0191193940189353685)
(0.0851898091099132365 0.0671247012609916677 0.0141339434828468211)
(0.0884023632101395562 0.071394840049074676 0.0152044799188639015)
(0.087922325630549053 0.0685146653508812153 0.0152794753064853482)
(0.0910548760590966372 0.0697789360681866505 0.0156783371442528428)
(0.0767009716380639694 0.0634110848026512575 0.0116051900275676422)
(0.0799937151031287902 0.0673122027189881206 0.0124913609371811347)
(0.0796321157614384156 0.0646397221604407685 0.0125459557457015033)
(0.0821923577847576137 0.0656114709505724869 0.0128617873441369077)
(0.0684035479572645544 0.0602645782125376117 0.00954914437161016698)
(0.0717545488146808519 0.0638426463868606436 0.0102772190170094587)
(0.0714875127286626749 0.0613411059700003716 0.0103162703978787497)
(0.0735676780072337388 0.0620925861220638434 0.0105694907907088135)
(0.0602980128416790717 0.0576018056328636979 0.0078845498736378368)
(0.0636945142045066137 0.0608981423201459468 0.00847919336094978861)
(0.063500805800421764 0.0585352044576260208 0.00850638558354336119)
(0.0651825764495313209 0.0591210129572398088 0.00871136455049622942)
(0.0523691319801197069 0.0553617509931740234 0.00654275668977472025)
(0.0557973831523225841 0.0584058215780798515 0.00702460414116741656)
(0.0556585471164765394 0.0561561403826733307 0.00704257681480459103)
(0.0570114631298581503 0.0566146062056277766 0.0072084541654025237)
(0.0445947810282159296 0.0535059382688001101 0.00546958654468103316)
(0.0480397030847949519 0.0563194631155888442 0.0058543720405869748)
(0.0479413766314282716 0.0541635845665845786 0.00586543418212903157)
(0.0490209772652914835 0.0545222571407568621 0.00599867518317247737)
(0.0369528538276820764 0.0520053653599101481 0.00462350095772477883)
(0.0404071756464011722 0.0546093125205476537 0.00492297188519309672)
(0.040339054219857895 0.0525305829157838994 0.00492945480299359848)
(0.0411885732154763304 0.0528116917136999611 0.00503652461939398197)
(0.0294226333027169003 0.050830930336335324 0.00397235352113041972)
(0.0328905863934737669 0.0532470442242767086 0.00419529831841195834)
(0.032845003470837561 0.0512298202829389593 0.00419929203352975913)
(0.0334982966681293473 0.0514527625980000861 0.00428742537452005482)
(0.0219832484559727877 0.0499540387374991859 0.00349134439602934599)
(0.0254748327205494701 0.0522022053814509418 0.00364408679424462704)
(0.0254455987839266699 0.0502316932476479933 0.00364704274091571124)
(0.0259288397820734394 0.0504132513587699574 0.00372314929825443659)
(0.0146123614544640349 0.049352203217434748 0.00316208671359077299)
(0.0181361080791404249 0.0514477266541499556 0.0032488577542185695)
(0.0181182287932855277 0.0495102245734093394 0.003251469439056152)
(0.018450640956195332 0.0496642369704969194 0.00332076048508784865)
(0.00728506186243683095 0.0489504932318856681 0.00297052286507786759)
(0.010842699184321368 0.0509661661727412452 0.00299510424984431554)
(0.0108330836282762404 0.049048975434199088 0.0029979216078726942)
(0.0110263532974721606 0.0491866100314148 0.00306265579985365386)
(0.00360584618285907793 0.050620063673018377 0.00287096031821456373)
(0.00360242304714666374 0.0487174639328968595 0.00287336218191983463)
(0.00366532108278764656 0.0488472715769693727 0.00293488737435393995)
(0.138700447434406599 0.122162078927318007 0.0510505134028010968)
(0.138666699355086798 0.129456221082783429 0.0537480172891804456)
(0.13671533086370577 0.124085211177468804 0.0542693425691945439)
(0.14636851400682499 0.131404933154920189 0.0562588249704140467)
(0.132074582832200665 0.111765576092034372 0.0427072558657978357)
(0.132931829589837402 0.118704203181192819 0.0451591575037370574)
(0.131322195596210417 0.113846706598692823 0.0455875376148891093)
(0.139744210226160237 0.119666395218857691 0.0471614549596285626)
(0.124601526779913097 0.1025209607478548 0.0355312733803722428)
(0.126144383655057007 0.108999841560352279 0.0377128069347179781)
(0.124835431777155129 0.104622714270717246 0.0380532402872455905)
(0.13207866907114435 0.109192758131789025 0.0392972626774469661)
(0.116617496683567981 0.0943983162767567247 0.0294373318654422775)
(0.118659963224279227 0.10039719092672468 0.0313471041386183882)
(0.117611433228723486 0.0964462314172783997 0.0316132691927855786)
(0.12376659416562516 0.100006287861595655 0.032591693731220138)
(0.108344011106803167 0.0873273007131617485 0.0243112874964785085)
(0.110753574552399703 0.0928469893466262047 0.0259601001942412757)
(0.109924442266668476 0.0892518093860991818 0.0261651853589373942)
(0.115106550673592559 0.0920132526049388666 0.0269320709064061192)
(0.0999422017950092195 0.0812285688968486796 0.020033639230700076)
(0.102627252438811031 0.0862848310449710193 0.0214402895465460493)
(0.101979718835391933 0.0829981319401964374 0.0215970177415467576)
(0.106307532410504946 0.0851334069016607409 0.0221987849101569559)
(0.0915457619873805417 0.0759925343642602613 0.0164867465949101143)
(0.0944262804458227273 0.0806175416056983951 0.0176753202665047571)
(0.0939312838200229844 0.0775994118501612817 0.0177944215537377999)
(0.09752188824127897 0.0792499469234287518 0.0182681480556016844)
(0.0832330016276487394 0.0715078127619204751 0.0135618973731982048)
(0.0862519518947946207 0.0757394144039642281 0.0145578433202617312)
(0.0858821540090586033 0.0729501375470085478 0.0146476257221948986)
(0.0888439350784586412 0.0742260045746470642 0.015022475995539155)
(0.0750484423951991581 0.0676784185133709748 0.0111633899266229616)
(0.0781692247809629981 0.071554886165763304 0.0119907699652145525)
(0.0778997086412307888 0.0689580482712091325 0.0120573946746459666)
(0.0803281767379264017 0.0699451054306986092 0.01235698071854106)
(0.0670169589822651041 0.0644178413967972652 0.00920726800634908034)
(0.0702147657619255766 0.0679798840794010872 0.00988926452459222907)
(0.0700241792255881373 0.0655418250092173471 0.0099379185643147256)
(0.0720033700202754728 0.0663087154397820344 0.0101800310805637943)
(0.0591426804220484548 0.0616493516685960447 0.00761924762847939353)
(0.0624004116729765523 0.064933874054514451 0.00817769249424054462)
(0.0622701036221021131 0.0626251750219250225 0.00821256999076819608)
(0.0638747384079702413 0.0632246760676485192 0.008409224118011158)
(0.0514137455473343483 0.0593157350076945755 0.00633621949197966591)
(0.0547163531197188344 0.0623499054370723199 0.006789713236392542)
(0.0546300822535668931 0.06014733913903407 0.00681392476464132753)
(0.0559240803927500418 0.0606177042993293266 0.00697296143144045862)
(0.0438132829941366084 0.0573793074462540173 0.00530775738109902275)
(0.0471474589621837595 0.0601834803498909679 0.0056707904301431071)
(0.0470921056882414868 0.0580690846100911373 0.00568691364223346957)
(0.0481270708273118034 0.0584384786462870537 0.00581459214584612635)
(0.0363257365063804072 0.0558108367169993097 0.00449476924588027623)
(0.0396851868356624601 0.0584043857339049538 0.00477817168504783389)
(0.0396509473569259252 0.0563627760576426717 0.00478867351324699202)
(0.0404674360596422797 0.0566539230328564902 0.00489163780790140106)
(0.0289360783134303065 0.0545811859747539554 0.00386703159152617)
(0.0323231338018757572 0.0569843004245247156 0.00407863699834648714)
(0.0323028294604456798 0.0550007759873506474 0.00408575201680115834)
(0.0329325973648077752 0.0552332592302022113 0.00417117634419396973)
(0.0216271740375420483 0.0536618699926989171 0.00340160015243384708)
(0.0250481507196404912 0.0558934946889918793 0.0035466797872550442)
(0.0250365340951387398 0.0539537774117768085 0.00355205715752188178)
(0.0255038407071229087 0.0541443659933139448 0.00362645497395776891)
(0.014379361236039152 0.0530302980652960568 0.00308187529047211205)
(0.0178391162978921679 0.0551052633918838533 0.00316370238136594577)
(0.0178325584363774881 0.0531961043711957418 0.0031682293274895028)
(0.0181548809046915456 0.0533585672080128803 0.0032363198233998562)
(0.00717130018092082804 0.0526058082287492179 0.00289554170298100908)
(0.0106671972591800834 0.0546015008495733742 0.00291697198488058678)
(0.0106635358505395832 0.0527112353260016653 0.00292138289266246753)
(0.0108508775039103927 0.0528567388969170271 0.00298488794571938549)
(0.0035432196139606833 0.0542353509137056752 0.00279637892716322421)
(0.0035463398124991408 0.0523574872535471428 0.00280010832661218819)
(0.00360706489009862338 0.052494884261572318 0.00286015181665487915)
(0.133408799882056506 0.125913388156577322 0.0478566613901165103)
(0.133293123229064281 0.132826240184260147 0.0503034269498497319)
(0.131571355200804846 0.127830165539316559 0.0508237472212673611)
(0.140445092393316762 0.134721095113748274 0.0526406958199188285)
(0.127318094740514559 0.115853703199993718 0.0401647085726571582)
(0.12802781231329835 0.122470563616658354 0.0423891157522356815)
(0.126629963022087955 0.11794134780447782 0.0428260403669096859)
(0.134392079687909782 0.123481296910452898 0.0442652787763984368)
(0.120398859106391365 0.106790829033082513 0.0335286376929641444)
(0.121744216058786547 0.113030923181720852 0.0355152765685219363)
(0.120628542782629244 0.108918902910538629 0.0358681181929287954)
(0.12732600859655499 0.113311402414281406 0.0370085537663700018)
(0.112944681586599524 0.0987494220262098432 0.0278698724674173622)
(0.114768736811659888 0.104575341374796321 0.0296161090109586383)
(0.113887157990000432 0.100823146042651704 0.0298963825138620735)
(0.119602481207739364 0.104277870793462346 0.030796025283788088)
(0.10515541468982452 0.0917022929967039047 0.0230891022443087852)
(0.107352272475759097 0.097096466254737071 0.0246029112152518215)
(0.106664871762624222 0.0936572841485805163 0.024824204754219991)
(0.111497530581838464 0.0963593599310554189 0.0255315998848013176)
(0.097194833110534895 0.0855780184014495321 0.0190819705823506124)
(0.0996779677092046179 0.0905449392015849064 0.0203785608133836491)
(0.099154020199498899 0.0873867003575650586 0.0205515642694818965)
(0.103207750232384238 0.0894944162824728717 0.0211091305641073999)
(0.0891898515670948022 0.0802793973971412805 0.0157464169918563705)
(0.0918813453922321666 0.0848416193430016063 0.0168459746428046113)
(0.0914932726552357273 0.0819293571456716496 0.0169799241371163777)
(0.09486960771403119 0.0835714405934936122 0.0174212786041802563)
(0.0812222508305991409 0.0757122894855429968 0.0129867159122780892)
(0.0840669759226655017 0.0798998630372961816 0.0139111976833196233)
(0.0837886286523731039 0.0771986349741699135 0.0140137230222319997)
(0.0865828577634738666 0.078476688152922025 0.0143654785238346728)
(0.0733422625550799595 0.0717913796171381624 0.0107166445631838182)
(0.0763040326973080801 0.0756371464063036458 0.0114873291245730681)
(0.0761122976868448958 0.0731143018059132455 0.0115645064262492117)
(0.0784104309207837441 0.0741090695845571246 0.0118478067466221016)
(0.0655779675631654457 0.0684377288069310252 0.00885968901248368468)
(0.0686308992999248996 0.0719776303127509925 0.00949707121552057984)
(0.0685062016207015761 0.0696024630520326731 0.00955421583635176)
(0.0703848557838323702 0.0703790052223425833 0.00978451119386230389)
(0.0579367746551922233 0.0655810948082227174 0.00734815810215372258)
(0.0610614677332511416 0.0688485697285134146 0.00787147558346648797)
(0.0609870878610919639 0.0665938441217116678 0.00791304020996676932)
(0.062514379373810755 0.0672028097530059654 0.00810066976060088914)
(0.0504118116925681911 0.0631680991479968978 0.00612428417455598232)
(0.0535923108437501294 0.066188553332661354 0.00655017414149186399)
(0.0535537029326877481 0.0640325053191400789 0.00657962674502575451)
(0.0547881289854507472 0.0645114734518956734 0.00673170986336209688)
(0.0429921670001323364 0.0611621733714720964 0.00514120473409190263)
(0.0462163162679778694 0.0639546256142900366 0.0054829444728402366)
(0.0462011718025111123 0.0618805768190857017 0.00550319795718554484)
(0.0471906244367789537 0.0622578526223417708 0.00562588385518868108)
(0.0356676585838235222 0.05953431607948588 0.00436203943751404567)
(0.0389301384360446964 0.0621164007945020774 0.00462962680282702575)
(0.0389286309562768065 0.060110221741905015 0.00464339173362652083)
(0.0397112712813447316 0.0604088328678342237 0.0047432020869329055)
(0.0284270849939094045 0.0582559075289990069 0.00375828519407536612)
(0.0317293497384864703 0.0606461751526137724 0.00395872155178868604)
(0.0317341693108356138 0.0586940656075888023 0.00396839331390567377)
(0.032339869604167952 0.05893380597222974 0.00405205841219686246)
(0.0212558358366600267 0.0572989830953539239 0.00330878201618713856)
(0.0246018410122890094 0.0595155095261535039 0.00344638110633876558)
(0.0246081474849611792 0.0576036331458311818 0.00345370945213376848)
(0.0250592826324485367 0.0578013823180788672 0.00352713069137744863)
(0.0141365663575547373 0.0566410543144526199 0.0029987990757744179)
(0.0175286349063692934 0.0586982394866862114 0.00307590276462520011)
(0.0175336920796715472 0.0568137365173458017 0.00308181499118803963)
(0.0178458330399076312 0.0569832837180488522 0.00314924513711976146)
(0.00704866036518820866 0.0562017619481865877 0.00281780920906280234)
(0.0104869588569887259 0.0581764877243457212 0.00283645242161223313)
(0.0104868207229997738 0.0563079145924896135 0.00284168570791039441)
(0.0106681660191908952 0.0564602803149394442 0.00290456890513371077)
(0.00347824983413020945 0.0577890607496115913 0.00271978740968526833)
(0.00347858472134006304 0.0559451905341901007 0.00272355352492470882)
(0.00353704795318980159 0.05608938096363527 0.00278301404401584815)
(0.13606440517755336 0.151030119324771839 0.0620479248392692487)
(0.132012815662840788 0.15211078052816715 0.065216679628223348)
(0.142350153362681892 0.161510581695676281 0.0678586251536440338)
(0.133773472824815887 0.15765688354226412 0.064636539089430331)
(0.13290987028569437 0.139940905494498197 0.0529311343714623933)
(0.130033190822233635 0.141540738224288587 0.0559048490402556941)
(0.139267299007838213 0.149392364527208055 0.0580063822142116089)
(0.131394580440172354 0.146591653062815547 0.055359019112581051)
(0.128372124011656458 0.129439438510145027 0.0448358813119689933)
(0.126685432827965266 0.131364856734616564 0.0475748871065741832)
(0.134865364424219369 0.137832236184573936 0.0492393782984634903)
(0.127704952040018832 0.135928852348855239 0.0470880497905610054)
(0.122749128596951917 0.119702004964883604 0.0377396837481004943)
(0.122123475213295946 0.121804951949164811 0.0401999958857662681)
(0.129287684296798294 0.127047385205472679 0.0415177922938220062)
(0.122842480418484945 0.125942362444618761 0.039787082674235183)
(0.116319533100548975 0.110841494373868601 0.0316027478865165065)
(0.116540823464690746 0.112989472961781523 0.0337738231104931994)
(0.12273793046459848 0.117182699169070328 0.0348178923113695027)
(0.117013395948446411 0.116769026755528416 0.0334360792908464932)
(0.109342050539047914 0.102919285293349413 0.0263491477587930005)
(0.110240074957142054 0.105011604003224013 0.0282382160058294168)
(0.115548315702838508 0.108337543137097744 0.0290630140002349387)
(0.11051149586088925 0.108477659886330333 0.027968135925597222)
(0.102001915983365637 0.0959248794716302117 0.0218923697843266818)
(0.103451348961196191 0.0979087355616564542 0.0235163612712464554)
(0.107957678707989307 0.100533320655713548 0.0241673418385059367)
(0.103557263728707896 0.10109310155311893 0.0233042289066079378)