/*--------------------------------*- C++ -*----------------------------------*\
| =========                 |                                                 |
| \\      /  F ield         | OpenFOAM: The Open Source CFD Toolbox           |
|  \\    /   O peration     | Version:  2206                                  |
|   \\  /    A nd           | Website:  www.openfoam.com                      |
|    \\/     M anipulation  |                                                 |
\*---------------------------------------------------------------------------*/
FoamFile
{
    version     2.0;
    format      ascii;
    arch        "LSB;label=32;scalar=64";
    class       volVectorField;
    location    "0.0599999999999999978";
    object      faceForces;
}
// * * * * * * * * * * * * * * * * * * * * * * * * * * * * * * * * * * * * * //

dimensions      [1 1 -2 0 0 0 0];

internalField   uniform (0 0 0);

boundaryField
{
    inlet
    {
        type            calculated;
        value           nonuniform List<vector> 0();
    }
    outlet
    {
        type            calculated;
        value           uniform (0 0 0);
    }
    top
    {
        type            calculated;
        value           nonuniform List<vector> 0();
    }
    bottom
    {
        type            calculated;
        value           uniform (0 0 0);
    }
    left
    {
        type            calculated;
        value           uniform (0 0 0);
    }
    symmetry
    {
        type            symmetryPlane;
    }
    interface
    {
        type            calculated;
        value           nonuniform List<vector> 
104
(
(7.45829838337311291e-05 3.64386951750061581e-11 -1.49455296367001625e-10)
(0.000110867839656108756 -6.0797495282736997e-10 7.73286035101089062e-10)
(0.000146843561816430146 1.44270591813214811e-09 -1.09638863427006253e-09)
(0.000177357010676404859 3.7497875485545062e-10 -7.53340218137749421e-10)
(0.00020320580745301415 -1.06541757001713769e-09 1.05778461376431668e-09)
(0.000223626389047531756 -1.46059978169432351e-09 2.02794546332316446e-09)
(0.000240763130587542772 -1.25134472516776112e-09 3.04156002979535791e-09)
(0.000255245571947085098 -7.01359496923473343e-10 3.87657562757521644e-09)
(0.000267069584626232124 -4.09349110617785014e-10 3.45620287249517944e-09)
(0.000277623609274497832 -4.30417085358799558e-10 3.56069495516483754e-09)
(0.000286990895761413763 -2.3139413384980734e-11 4.11179532744044127e-09)
(0.000296814484741128376 1.99197367724281005e-10 4.52617851185602285e-09)
(0.000310201574921243283 6.00261650713400329e-10 4.0204221402363839e-09)
(-5.92423286152113157e-05 -1.19303690585865464e-09 -2.52023779304862032e-10)
(-2.31964048488910577e-05 1.93720993613604778e-10 6.00650153345167651e-10)
(1.13019187198746759e-05 6.26485742218831158e-10 6.5937155955712263e-10)
(4.3280294336916052e-05 1.06104416504309563e-09 6.04690599812835179e-10)
(7.28749246668574941e-05 1.17997242770156936e-09 5.20637968808944319e-10)
(0.000100299270439331963 1.08485832622451268e-09 9.29763172872937503e-10)
(0.000125941708921955609 8.27348130352903462e-10 1.71962225880835889e-09)
(0.000149987638869948127 8.66456473191581284e-10 2.33226484999973185e-09)
(0.000172830100261320605 1.15407097777128545e-09 2.71271744255275784e-09)
(0.000195329225647546031 1.4959366096712837e-09 3.15507828190064476e-09)
(0.000218146411505545576 1.86819981983790346e-09 3.59950023559949929e-09)
(0.000241638183982795192 2.23568747161843208e-09 4.038844572748528e-09)
(0.000266361320753568894 2.54441637532425094e-09 4.24753842964270412e-09)
(-0.000139251962740842816 -5.41890224850302691e-10 2.15209977264920189e-09)
(-0.000102093550866421922 3.53131926932282375e-10 2.27007396478994408e-09)
(-6.63337602114700853e-05 6.22430178380341448e-10 2.40074652437565042e-09)
(-3.2140213931570281e-05 9.19036781963385759e-10 2.37176950588609587e-09)
(5.62069286617551877e-07 1.14580685585797835e-09 2.37974562952059295e-09)
(3.19050946905517595e-05 1.29015781688551634e-09 2.5162563403220396e-09)
(6.20609445715580269e-05 1.38978533667564253e-09 2.73623874566833396e-09)
(9.13925108760177136e-05 1.59573915028775158e-09 3.05924910388193243e-09)
(0.000120394772289223077 1.91058214544460604e-09 3.32926715642517457e-09)
(0.000149414840322106688 2.19378843322298101e-09 3.53928871455372267e-09)
(0.000178630315716731854 2.50582997470507352e-09 3.79555774050412805e-09)
(0.000208257686557852502 2.91187475459207876e-09 4.11489487573822142e-09)
(0.000238508426651866981 3.3560670718675463e-09 4.29443973818718818e-09)
(-0.000187315749731536637 -1.09482629225211133e-10 2.77751429081049694e-09)
(-0.000149824527310039635 4.12393098047999147e-10 2.88336133001948195e-09)
(-0.000113234461635622802 6.84183753515279236e-10 2.88814164961370627e-09)
(-7.75797710477681921e-05 9.47716175249595682e-10 2.93193913241329381e-09)
(-4.28084159544026566e-05 1.19137562931013514e-09 2.97532449432112365e-09)
(-8.84759468611505439e-06 1.40756794426298143e-09 3.05322407350176662e-09)
(2.44654429865978878e-05 1.63038199949934121e-09 3.17437869931270551e-09)
(5.73539904120389936e-05 1.8945788252024135e-09 3.32457414531711539e-09)
(9.00270831930688318e-05 2.19430566449789027e-09 3.46817108158732473e-09)
(0.000122659047577274374 2.51748245364837835e-09 3.60731601183809801e-09)
(0.000155368071689338135 2.85933411146518481e-09 3.75471794234410078e-09)
(0.000188279687919846919 3.24608593432795721e-09 3.89532589994359369e-09)
(0.000221519744185981655 3.6600078122596974e-09 4.00259279032550276e-09)
(-0.000218429034085088151 9.16204595862191029e-11 2.34835957624757842e-09)
(-0.000180647780252479387 4.23300429461141647e-10 2.48240029673547021e-09)
(-0.000143443222922631975 7.05127919985735542e-10 2.48902374165764293e-09)
(-0.000106811442658427862 9.68476401112364198e-10 2.52676705011986327e-09)
(-7.07178083694996826e-05 1.22678469857588659e-09 2.57810260329806549e-09)
(-3.50996402846977427e-05 1.48856723231617047e-09 2.64121564992198401e-09)
(1.25872960728705031e-07 1.76106652474941879e-09 2.71674363054153003e-09)
(3.50566202380289438e-05 2.05228718627130166e-09 2.7992572567206192e-09)
(6.9802100602315656e-05 2.35949825755405637e-09 2.88055761270683371e-09)
(0.000104469002650062927 2.68187919207633103e-09 2.95589509137056749e-09)
(0.000139145110210379963 3.02122720409626442e-09 3.02654413055424923e-09)
(0.000173898448699709814 3.38670498639405832e-09 3.09060846967189628e-09)
(0.000208771670091892711 3.77643179402840832e-09 3.13888488672181198e-09)
(-0.000238132743372620678 1.82158730204679068e-10 1.73512778373899287e-09)
(-0.000200188268639744498 4.21073710251990966e-10 1.85891578266694863e-09)
(-0.000162628427296629885 6.99044604779728665e-10 1.85404814382944961e-09)
(-0.00012544068486383664 9.76555987250637253e-10 1.87663053661459614e-09)
(-8.85913065884555434e-05 1.25170893270630749e-09 1.90752489639385479e-09)
(-5.20426830064280474e-05 1.53084825511504875e-09 1.93873304530885043e-09)
(-1.57521152334837126e-05 1.81884686546762068e-09 1.97888395475391587e-09)
(2.03340497512539136e-05 2.11580539895295534e-09 2.02002830349555813e-09)
(5.62724920662038158e-05 2.42300441706285851e-09 2.05892091728405433e-09)
(9.21133721517395097e-05 2.74241920783666226e-09 2.09391864282256181e-09)
(0.000127893380413509413 3.0762064080749493e-09 2.1233295832536609e-09)
(0.000163629463588482152 3.42989457438987845e-09 2.14593389318600608e-09)
(0.000199314580577982658 3.80133344061975532e-09 2.16104680192347235e-09)
(-0.000249700908229025947 2.06039055190646026e-10 1.03907679038241497e-09)
(-0.000211667017238633418 4.20566310748154133e-10 1.13039617167612543e-09)
(-0.000173891140424350471 7.00216796535965809e-10 1.12263823678102787e-09)
(-0.000136373686156577971 9.84692743355238583e-10 1.13408118884579436e-09)
(-9.90936721212451699e-05 1.26792863446379734e-09 1.15073437981682632e-09)
(-6.20233247682857903e-05 1.55448899192717648e-09 1.16879416227915988e-09)
(-2.51371049835629265e-05 1.84583566690218364e-09 1.1875185419385366e-09)
(1.15918482263511688e-05 2.14335933110686986e-09 1.20613463732604235e-09)
(4.81867427953833096e-05 2.44847397555930184e-09 1.22342082537860962e-09)
(8.4660767515306809e-05 2.76283737053701187e-09 1.23842940456842407e-09)
(0.000121010907635885743 3.08766623148431844e-09 1.24934594780753854e-09)
(0.000157211519298090595 3.427249289660186e-09 1.25513185671007916e-09)
(0.000193200367798424753 3.78774463096150289e-09 1.25223438626721456e-09)
(-0.000254998495232520073 2.1320719218146351e-10 3.46291684852270051e-10)
(-0.000216923913299317571 4.19892569691530243e-10 3.7614793951384167e-10)
(-0.000179045838337284457 7.0278625242197548e-10 3.7380962708530124e-10)
(-0.00014137540040344874 9.90334052770339003e-10 3.7760727042531889e-10)
(-0.000103897653464731096 1.27606114961242968e-09 3.83073437089562194e-10)
(-6.65897702317210232e-05 1.56479650038269091e-09 3.88892637445642034e-10)
(-2.94357845500046862e-05 1.85732795697466409e-09 3.94900307733519369e-10)
(7.57765869583724302e-06 2.15476730214519072e-09 4.00845690248445711e-10)
(4.44572179905054462e-05 2.45862524870714933e-09 4.06199506329414096e-10)
(8.1197340966285007e-05 2.76889432930370334e-09 4.10496652320209044e-10)
(0.000117773352750036333 3.0892627627524278e-09 4.12197678388520323e-10)
(0.000154131317709166896 3.41769142616703278e-09 4.10586261637551791e-10)
(0.000190167772637938909 3.74500577925852305e-09 4.02896558846253604e-10)
)
;
    }
    procBoundary3to0
    {
        type            processor;
        value           uniform (0 0 0);
    }
    procBoundary3to1
    {
        type            processor;
        value           uniform (0 0 0);
    }
    procBoundary3to2
    {
        type            processor;
        value           uniform (0 0 0);
    }
}


// ************************************************************************* //
