/*--------------------------------*- C++ -*----------------------------------*\
| =========                 |                                                 |
| \\      /  F ield         | OpenFOAM: The Open Source CFD Toolbox           |
|  \\    /   O peration     | Version:  2206                                  |
|   \\  /    A nd           | Website:  www.openfoam.com                      |
|    \\/     M anipulation  |                                                 |
\*---------------------------------------------------------------------------*/
FoamFile
{
    version     2.0;
    format      ascii;
    arch        "LSB;label=32;scalar=64";
    class       volScalarField;
    location    "0.0599999999999999978";
    object      p;
}
// * * * * * * * * * * * * * * * * * * * * * * * * * * * * * * * * * * * * * //

dimensions      [1 -1 -2 0 0 0 0];

internalField   nonuniform List<scalar> 
7236
(
-0.330169708824865904
-0.135981819579898577
0.245678663542620385
0.660266590581022106
1.00498195585722017
1.26404904218155312
1.44491993784521111
1.54026617698218504
1.54994021493606771
1.50010445241742585
1.42001160808505444
1.33087376234523158
1.2451634047259168
1.16733800324158099
1.09788219864950065
1.03610511518079029
0.980944026987521367
0.931382883798448136
0.886607069066494335
0.84597617249327417
0.80898912647553467
0.7752528435057503
0.744461170160203078
0.716376119415447543
0.690805117532111046
0.667586641805935299
0.646585220132522509
0.627685010492884721
0.610784388304190129
0.595795378190142166
0.58264347972473618
0.57126459650904815
0.561602791674268076
0.553611848683273844
0.547257381980734925
0.542515304231973583
0.539366261615426223
0.537795653568327481
-0.444826620274014872
-0.227672470650722575
0.133708116194846266
0.512130289334087441
0.831037962745444947
1.07395610026522714
1.24696525594388175
1.34928694587137832
1.37992179221215139
1.34960209893702388
1.28223043542505488
1.19969229066534577
1.1168633061999591
1.0405389230623947
0.972093351405878936
0.911010213022342308
0.856336192704885368
0.807132793231253531
0.762622197579077676
0.722190367678692047
0.685354330861332572
0.651733334751116833
0.621032145466021368
0.593020113875898591
0.567508455215808727
0.544338970578577386
0.523379081975098526
0.504514015042721198
0.487642669525442329
0.472678225400147811
0.459547279152677346
0.448185977760997445
0.438538248761102256
0.430558187880381638
0.424212099295830258
0.419476443072045513
0.41633242929164449
0.414764839615299086
-0.556138307126387565
-0.316743861918997671
0.0316655861756693913
0.391646854551572388
0.697600867191016993
0.927259802324933879
1.08274983352046994
1.17009421534236857
1.1989749897607489
1.17956473854485333
1.12631766012054091
1.05532256415814274
0.980047565406725329
0.908270656286344069
0.842575096679825331
0.783199168729257766
0.729634542375484973
0.681194198274975404
0.637231247044139804
0.597203716150669139
0.560672496306027002
0.527286903009479779
0.49677166553877794
0.468908474241959861
0.443517814221271844
0.420448671872487245
0.39957308271552272
0.380779098586862652
0.363968009471313414
0.349054764086406621
0.33596687372708961
0.324641131174385089
0.315022403547430885
0.307065767955473246
0.300737934212503277
0.296015045497288687
0.292878764639563582
0.291314845613152962
-0.646084559157433014
-0.390256837618929764
-0.0519459080884546731
0.29004781436360505
0.576469273822273309
0.786133492915117804
0.921617159151518095
0.99713570405003682
1.02331637079318227
1.00922129938128258
0.965813690727099883
0.90524630788947924
0.838287170660306336
0.772111145673928467
0.710018941514076962
0.652989917368789863
0.601001016156462176
0.553658991213287655
0.510488495191401048
0.471049241899830551
0.434965977201624165
0.401929739697644617
0.371691590451322107
0.344050745943516367
0.318841408214770139
0.295922400553666087
0.275172582883941086
0.256484949265148643
0.239764400013232903
0.224927953449977014
0.211904423028131783
0.20063202831340704
0.191057240912965498
0.18313628359420997
0.176836142441800848
0.172132843056621909
0.169008813626178311
0.167451964858791158
-0.720374769557925787
-0.451279637042666826
-0.125273543769955475
0.19493691602632135
0.455201502055408436
0.640332588432750871
0.759587148419583746
0.826952714772605124
0.851723912832700769
0.841546232556029894
0.80539971525264753
0.753186943533423414
0.693674949045459788
0.633116435052196058
0.57497006913489046
0.520675401039095265
0.470599606625630273
0.424624385016315387
0.3824555764483204
0.34376914465904107
0.30826520045650585
0.275683984237938828
0.245808372628519844
0.218459816682674335
0.193489726631898007
0.170768839904053227
0.150185021469246283
0.131638083315558263
0.115037346256691264
0.100302249268741983
0.0873636736374925338
0.0761620854865026065
0.0666459356725952468
0.0587725871548441248
0.0525092636135134905
0.0478321237840888536
0.044724710186373029
0.0431772018741516383
-0.777742974243299745
-0.505903088868619011
-0.194772042406100354
0.0998637019950997518
0.33271582455912363
0.496142690787151341
0.601286731227589355
0.660713642120844713
0.683410891329762071
0.67582418618888318
0.645413249618305152
0.600155017254318413
0.547213357609798612
0.492008672316669671
0.437892405101168003
0.38654096489491907
0.338604669365126787
0.294199837656044294
0.253204278659851845
0.215412410658320175
0.180604251408959415
0.148573897104060659
0.119140338341027219
0.0921503258805487224
0.0674746023496255454
0.0449975745685903261
0.0246183039648842916
0.00624512994747272732
-0.0102076967472282121
-0.0248178872833323405
-0.0376515099952976495
-0.048765161723199113
-0.0582082602038738184
-0.0660223384947317138
-0.0722399105612460124
-0.0768844697386728004
-0.0799711544190074841
-0.081507950230105819
-0.824111732155486276
-0.559219836719344165
-0.262976434243339274
0.00388278703683953008
0.210732720030844645
0.354994398054062743
0.446328853795470715
0.497988127511470813
0.518037998784088627
0.512067751872606891
0.486191302514750068
0.446744822247375661
0.399579188937219776
0.349353954066896955
0.299192492842932589
0.25086001366633337
0.205196242070263657
0.162504908715793261
0.122815866318338962
0.0860354343657409038
0.0520228390726830137
0.0206283697678398825
-0.00829011294069292859
-0.0348594337787229147
-0.0591894311800761352
-0.0813799763373371787
-0.101518401612201825
-0.119686238143572155
-0.135964282024322647
-0.150426988098271708
-0.163136279448938604
-0.174145336074727486
-0.183501402936440572
-0.191244876824314791
-0.197407984218985977
-0.202013732265620582
-0.205075741506876241
-0.206600194669272708
-0.864606668878391216
-0.61128532051073492
-0.333895414618020414
-0.0942489319027799421
0.0883052489856440692
0.213575364609488005
0.292485688500215724
0.337267433906817682
0.35484348338768168
0.350089799755328612
0.327903997724460883
0.293355491033073013
0.251253934143479185
0.205591043069225932
0.159213650983644595
0.113881687507066176
0.070549434584112114
0.0296620105366927067
-0.00862330902698671409
-0.0443002519705538722
-0.0774347644989128447
-0.108119916833529617
-0.136457005325514302
-0.162547661704909308
-0.186486402163111409
-0.208351126623096849
-0.228214916985943428
-0.246147331081900678
-0.262224913344152433
-0.276518635565637272
-0.289084939064800706
-0.299973287823453227
-0.309228780522127988
-0.316890615709700452
-0.322990826672131304
-0.327551866433781647
-0.330585525809924063
-0.332095968159733523
-0.899485520227089053
-0.662583818394524071
-0.408150274063669993
-0.196572311159895929
-0.0380466609165865943
0.0700657830743383059
0.138767522134595866
0.177897342880185994
0.193514319976082039
0.189766410401483121
0.170632924147168019
0.140240920905254862
0.102577194013736328
0.0610566039847266762
0.0182399370718151488
-0.0241737048394912168
-0.0651718892307491249
-0.104208940442487963
-0.141025648772817314
-0.17553047220637974
-0.207721367079584329
-0.237635846267599482
-0.265333147920926771
-0.290898899353588036
-0.314405240829433108
-0.335906546030079634
-0.355463535942879161
-0.373130571842614889
-0.38898265211583738
-0.403086787733607066
-0.415491821756989066
-0.426243599851363064
-0.435385167787219918
-0.442954443355289107
-0.44898361094220085
-0.453494517832115474
-0.456496547652119333
-0.457991394955324926
-0.929486380865913397
-0.715559085768994629
-0.486624468120983589
-0.304027334640933455
-0.168194881896203352
-0.0744473065272817092
-0.0144121756185879857
0.0200105549994531451
0.034008021554072565
0.0310473290482249364
0.0144358409867801907
-0.0124216351829617988
-0.0462027850837418708
-0.083989012519382289
-0.123495413473423188
-0.163115016001321056
-0.201818530506449711
-0.2389943106856105
-0.274305384049540635
-0.307590426936594996
-0.338787846510960944
-0.367883653589722415
-0.956195926204551849
-0.771552542388768692
-0.572684931854132495
-0.4172234665502349
-0.300369392480944852
-0.218958534797163207
-0.166534785499954818
-0.136219967392611441
-0.123716037064578455
-0.126119390625712535
-0.140657727653854314
-0.164511698115795912
-0.194905035117089342
-0.229345091322065597
-0.265802876278604661
-0.302779180484880173
-0.339257640039529629
-0.374589206417996645
-0.408380744260913087
-0.440416034061263062
-0.470583429752013727
-0.498828965182274264
-0.986102396191507746
-0.830575101366203272
-0.663581611067065147
-0.533214620030096009
-0.433274962303975553
-0.362943763073409142
-0.317388254224389321
-0.290806375474215173
-0.279754409076969024
-0.281801079342265171
-0.294648508709179469
-0.315965751171336295
-0.343406130147320132
-0.37485964573942554
-0.408530154114379096
-0.443029032730694827
-0.477373065350421677
-0.510898705755759686
-0.543175299921927035
-0.573944906705551205
-0.603056679606405632
-0.630433169354061795
-1.02681022593126325
-0.89678751464520301
-0.758467474564309851
-0.650649854345270673
-0.566183755116166587
-0.506071404883958298
-0.46679480646707816
-0.443670695746954502
-0.434084562887919079
-0.436008120098337892
-0.447568861846233457
-0.466732574186150551
-0.491612961939866366
-0.520425857793661573
-0.551560749317548504
-0.583752045074677928
-0.616065102061035264
-0.647838020037599827
-0.678618925193560596
-0.708120683277371543
-0.736171077890251491
-0.762665921313245065
-0.588681551076495779
-0.599351220506814109
-0.616737842398952241
-0.63946218823010792
-0.66593978757162775
-0.694795744135242699
-0.724856449405260173
-0.755249520026981758
-0.785332057095685321
-0.814647550906919871
-0.765949895914717516
-0.786866397024773678
-0.811324433378726506
-0.838162486677398899
-0.866268032389448051
-0.894857804724321193
-0.923314387014653515
-0.951217549916055893
-0.956619082840182378
-0.981629859647774605
-1.00793274176461134
-1.03483617620918289
0.112836101469950129
0.238804756220446668
0.454179346456103139
0.69875559883596372
0.927017468988811544
1.10948856002469087
1.24079563162245599
1.31847093818693062
1.34338085125235596
1.32630829616553481
1.2831407612079031
1.22747691226853917
1.16792134444004447
1.10922086447330259
1.0537067300692633
1.00213551941467971
0.954527600570441725
0.91065431924312279
0.870218157498253486
0.832935008489678164
0.798555387033856312
0.766867175905555865
0.737699020271515904
0.710911659183947053
0.686383497693684008
0.66400590145728422
0.64368336107819768
0.625330234861592116
0.608869120338296543
0.594232335433558134
0.581361611569366166
0.570205548845702848
0.560718819815965719
0.552863982593311265
0.546612672763226226
0.541944160610711267
0.538841487470525848
0.537292729593443874
-0.001277908829736496
0.126963118767890265
0.336688957479751028
0.573745202725180481
0.791378662367538399
0.96664489926993602
1.09428097082385367
1.17284314828284786
1.20300545323823482
1.19199147145424211
1.15305015260250476
1.09950317262416064
1.04111150235085548
0.983306472065854864
0.92847164736567056
0.877392297190404902
0.830150806655632012
0.786557651824344561
0.746337669740350873
0.709220929727774063
0.674968981186769401
0.643380651197176912
0.614293341024259476
0.587572387456827161
0.563099155559360298
0.54076781120125561
0.520484502899085988
0.502164432916515135
0.485731330614963597
0.471118553142875152
0.458268144876125438
0.44712875417581055
0.437655488891707245
0.429811523243509186
0.423568714967760107
0.418906339931917171
0.415808121381063212
0.414262053406830977
-0.109917602616667776
0.0201340726973724404
0.225662302790052949
0.455244240453680393
0.664368082599176901
0.830699796726247497
0.9492403285879778
1.02167913407793098
1.05142483916183127
1.0446828390847791
1.01155307027311503
0.963153324722278548
0.908553160777608282
0.853348138456687999
0.800248348800923548
0.750344535092508869
0.703929219853364652
0.660933957662553029
0.621157986965516162
0.584377944207192246
0.550386379839484796
0.519004239432984571
0.490083098178442977
0.463497334921097404
0.439135668088166509
0.416897827315838687
0.396693570914022853
0.378440847954772286
0.362065555263308192
0.347502138926591819
0.334693114565806249
0.323587911123258243
0.314142770375264002
0.306321655399394321
0.300096519939286321
0.295446339510565759
0.292355547832633067
0.290813206364446408
-0.20951076377451841
-0.0779176759270684971
0.123098908971813192
0.342595096329352422
0.539289824485043479
0.693461318348004396
0.801764458870059538
0.867886166581180563
0.89623892268207328
0.89251373258235045
0.864788147851504929
0.822048632659105882
0.772077966462841325
0.720227723446708823
0.669475185935091033
0.621221290006451765
0.575986269724683142
0.533852736739599765
0.494720693712723536
0.458433159916838529
0.424826723948964091
0.393751680177499674
0.365078451683732375
0.338694746599380869
0.314500046316002591
0.292401898713875341
0.27231575924860224
0.254164038816959315
0.237875471158757512
0.223385820034737448
0.210638677015996589
0.199584992135045325
0.190182504173945166
0.182395989420163551
0.176197548584127228
0.171566258943563477
0.168487514149775142
0.166952369342132922
-0.300447417919614657
-0.167590237129645714
0.0257114543933686379
0.231884770018614961
0.412920586667852807
0.554013530618744587
0.652922483617438654
0.713706951609514695
0.740817213183444734
0.739302383342049674
0.715960744901585899
0.678259869622348854
0.632831058705665805
0.58457189254831543
0.536505481148891072
0.490225780321042248
0.446442557199149048
0.405389289215481563
0.367076171377869964
0.331422335152892988
0.298315856574407845
0.267641643278273111
0.239293389016340119
0.213175824631128163
0.18920171480577741
0.167288175282814811
0.147358244542072248
0.129340243511623876
0.113166249675391573
0.0987738191583780178
0.0861084888346954624
0.0751233567006386327
0.0657777875656375688
0.0580373497849419051
0.051874418485540752
0.047268513377896948
0.0442062303625949671
0.0426805626545543326
-0.383792718318672121
-0.251367818149002553
-0.0686994365536037765
0.121891393558139494
0.287500168035462411
0.41568701569728872
0.505252995004273453
0.560656425714478601
0.585981760911411853
0.58586977354495362
0.566056240254420362
0.532736357887008904
0.491552251519949857
0.446892087306614116
0.401670340958216965
0.357566691731826758
0.315431030934036793
0.27563093289908569
0.23828386025491255
0.20338699351813283
0.170883098276090606
0.140695374766455883
0.112744239428420601
0.0869538031809996559
0.0632516423412954332
0.0415657514894570701
0.0218285902468665638
0.00397575703781782863
-0.0120569465056215019
-0.0263295529031201125
-0.0388936253619591721
-0.0497934907568863272
-0.0590681746878158886
-0.0667513011014730928
-0.0728700531008030783
-0.0774442161745443336
-0.0804859008870320025
-0.0820007302615736178
-0.461208813747076563
-0.332140902934041138
-0.161582367446512776
0.0131236875022476829
0.163824457577844695
0.27882692749569582
0.358985100640569876
0.408730625878437004
0.431900206896769889
0.432607222874168085
0.415632056127759442
0.386104149168291277
0.348810345323567583
0.307627739268317435
0.26527982983085574
0.223454482199815008
0.183093854652655597
0.14467505059703567
0.108411860502837909
0.0743754873967231722
0.0425631918733268
0.0129386092289560661
-0.0145488731603823362
-0.0399549613477591103
-0.063336671492871699
-0.0847545386768072673
-0.104264460989992203
-0.121922088880812907
-0.137787886503062729
-0.151918892792054949
-0.164362826929373984
-0.175161207882483017
-0.184351484970910695
-0.191966374315920341
-0.19803247907815813
-0.202568729191048402
-0.205585853951237074
-0.207088225475544174
-0.53392966593180502
-0.41236169189807037
-0.253889086711425183
-0.0948194455655718693
0.0399092770739021274
0.14197428604223461
0.213192150714687667
0.257531472661817196
0.278532933725440968
0.27971668780663439
0.26505478579026176
0.238809127912094188
0.205039619733216938
0.167140753594349545
0.127608692965240467
0.0880882485861756992
0.0495730215666063678
0.0126231355746829754
-0.0224666403853348573
-0.0555590299817654287
-0.0866049156991891556
-0.115599389143169362
-0.142562813426350132
-0.167531582633368425
-0.190547410732973543
-0.211660718523079217
-0.230911279035304173
-0.248344989409907457
-0.264019340075793418
-0.277987896078953023
-0.29029346876997586
-0.300974690372685316
-0.310067471955031815
-0.317603510387214127
-0.323608792530668321
-0.328101270198991823
-0.331090111849589808
-0.332578341984552606
-0.6035186370381318
-0.491744368987781177
-0.346838883361454742
-0.204787119261322981
-0.0858673072918093583
0.0043101196197146141
0.0673997241075778852
0.106883667885848244
0.12586689164382614
0.127320998883394765
0.11456734223572651
0.0911686715370951806
0.0605691382112494292
0.02572378816561538
-0.0111063703032769912
-0.0483503133423225373
-0.0849953624378708694
-0.120423738476037601
-0.154276651933818787
-0.186360736335282162
-0.216579361355066058
-0.244886956551616186
-0.271273244379242606
-0.295755676795296463
-0.318368531429943147
-0.339143560067508343
-0.358104043304779296
-0.375285394618859458
-0.390744494619353788
-0.404530496267976547
-0.41667985219760606
-0.4272285112059242
-0.436210912379772275
-0.443657699468662625
-0.449594329896961908
-0.454037574919469389
-0.456994694893143594
-0.458467120111093807
-0.672323434483814486
-0.571382788358838933
-0.441926045209359519
-0.317682294743352411
-0.213367236258157456
-0.134052773482957743
-0.0783053065805130455
-0.0431628481237786854
-0.0260528427197095347
-0.0244795749480324343
-0.0356526760379118901
-0.0565830546145347224
-0.0843493335491394269
-0.116387897436207588
-0.150664740138930497
-0.185699334943935868
-0.220484762291113912
-0.254368396361413951
-0.286943998325033478
-0.317972683518403354
-0.347316158674668252
-0.374890963964935375
-0.400655722390167779
-0.742199343567775727
-0.653498166109279355
-0.540527944368047852
-0.433256282100449197
-0.342332432776732531
-0.27284535899088902
-0.223723800115703586
-0.192522890207725617
-0.177178301417885598
-0.175611444571394104
-0.185478259537441348
-0.204274372271188609
-0.229524315956198599
-0.259007098514149048
-0.290899059043581709
-0.323817604709968454
-0.35678049989299343
-0.389119934870882367
-0.42039707636671797
-0.450337796484940878
-0.478769441551647135
-0.505576646715517275
-0.814882742674957528
-0.739051900882062185
-0.642284307556428291
-0.550973535441762752
-0.472357714263824668
-0.411830898074931673
-0.368732558259171173
-0.341141742360728362
-0.327481169094255842
-0.326020010832666962
-0.334822913083086204
-0.351792110615224196
-0.374817324339765223
-0.401987805522186825
-0.431671840042017974
-0.462584117684659568
-0.493780767063387582
-0.524594913539273455
-0.554567885475316324
-0.583399525225744231
-0.610891707360901259
-0.636910967466206679
-0.892008190122478783
-0.828398675030519782
-0.746930579481988266
-0.670271509973180302
-0.602957563594188728
-0.55065408092244883
-0.513081394433283489
-0.488839181995121219
-0.47683143016185392
-0.475628988546944242
-0.483636674072778217
-0.499039324449701782
-0.520120038935312445
-0.545223164124253756
-0.572875790500402826
-0.601898106611848616
-0.63139689568904267
-0.660717542348990383
-0.689392931375268914
-0.717105810497116303
-0.743649044274002247
-0.768868193155511137
-0.624333275588531578
-0.631812554480884803
-0.645924699977806993
-0.6653529470620696
-0.68861012920250797
-0.714419221691197204
-0.741676010486554294
-0.769552682981800906
-0.797419321668011216
-0.824813272272020725
-0.792429854791498745
-0.810438357272233345
-0.832080071777246633
-0.856234281497482153
-0.881849136281414148
-0.908185007412110945
-0.934639834531661218
-0.960789124770578762
-0.975669518097600497
-0.998286126605043456
-1.02236468412764081
-1.04724310956041289
0.379944077300342908
0.459708694631023707
0.594190647449465814
0.751168556510368957
0.901601718911486438
1.02779205448021904
1.12229754528384085
1.18192191848405947
1.20729432126105629
1.20399854831356512
1.18063432963139903
1.14513474731026332
1.10310436584980542
1.05862989538093788
1.01424405417035057
0.971238439475374027
0.930216499670843966
0.89142866598485182
0.854939204431354627
0.820731892708024047
0.788763468507490018
0.758980020901355079
0.731329304833847504
0.705758878475861495
0.682211335074927594
0.660626268901846503
0.640943963205640066
0.623106725546582196
0.607060602256014215
0.592756779772626419
0.580151257933376852
0.569204516816796291
0.559882265567085424
0.55215594883672181
0.546002300640316851
0.541402974276564586
0.538343396046824574
0.536814921032543357
0.261414247323466797
0.340199072229078525
0.471201729137138314
0.624524729849817217
0.772149724268528015
0.896212230779066643
0.98975587662184461
1.0498386368468926
1.07679336701008843
1.07537294685320806
1.05332596287156921
1.01860088457297304
0.977235395033868026
0.933351530502812388
0.889430050041019937
0.846782592858702943
0.80604051915491326
0.767470981837621635
0.731153253840152062
0.697081681286092492
0.665220550110357522
0.635524050285511288
0.60794562189567003
0.582435710849195765
0.55893917198537324
0.537397495720359442
0.517752041644585437
0.499946158032287924
0.48392705093023497
0.469646421991630758
0.457060263908221687
0.446129391329605163
0.436820258156240038
0.429104730507376131
0.422959372169120607
0.418365802170990064
0.415310431969776406
0.413784764032412766
0.147799444437387018
0.224947630100029827
0.352286490032422572
0.501001184146375511
0.643978199423738351
0.763624578388401476
0.853127170655852862
0.910919782194894223
0.938139900307961128
0.938749375335997227
0.919295112343597731
0.886910727534126142
0.847457249068244822
0.805042305325107677
0.762209029983211162
0.720370407447537886
0.680236968270767073
0.642127950842668938
0.606163127777664457
0.57236818823978397
0.540728072000169702
0.511211538933446397
0.48378134729545369
0.45839441233754008
0.43500100214879045
0.413546554218572948
0.393975423574386197
0.376233582358101282
0.360269908323373467
0.346036627946442743
0.333490159647497508
0.322592320269484811
0.31331060906872954
0.305617319106357088
0.299488978380907711
0.294907150110243599
0.291859161900259456
0.290337404044994918
0.0396715403213034334
0.115197652098097514
0.238746570575742778
0.381407239222153527
0.517289508575850321
0.630232323789424509
0.714325961577978563
0.768903638139095458
0.795575189725775789
0.797812301230689247
0.781101687006559908
0.751580231695657464
0.714611498477452312
0.674173093729694362
0.632853711917832351
0.592161736788002879
0.552897096868913085
0.515451488797301516
0.480001445487016787
0.446614082084022812
0.415302436565969046
0.386054415511667526
0.35884563744580511
0.333642606055535584
0.310403362737636968
0.289079148707056865
0.269619208715801639
0.251973408122590115
0.236092672176818064
0.221930092828262593
0.209443201244146837
0.198595329150437927
0.189355116243448307
0.181695313150990356
0.1755926738404604
0.17102921448826558
0.167993301168107623
0.166478938332919491
-0.0633908419347086749
0.0102876684470259994
0.128870707006517038
0.26397210837558005
0.391047183870506743
0.496227307108648819
0.574517689132851617
0.625686432996674813
0.651357086074510372
0.654682756009086986
0.640353643973875508
0.613633407514670215
0.579310555212311118
0.541113307714058966
0.501587664788270771
0.462292751130755075
0.424107431017995529
0.387499988024284758
0.35270943546592104
0.31984929735177825
0.288965424965152096
0.260068702403531526
0.233150856813294061
0.208190425119048839
0.18515496546515009
0.164002997666538475
0.144690277310424387
0.1271715806916488
0.111400277459054342
0.0973309611061228264
0.0849230773701948882
0.0741418034043989094
0.0649568705638448041
0.0573415471715960079
0.0512731201198852737
0.0467344458319571832
0.0437150448746900233
0.0422103428556277471
-0.161859033163300636
-0.0905609077157055742
0.021724936021793928
0.147888745559504042
0.265440764394552664
0.362388188840692682
0.434568877987447033
0.481999196302076216
0.506261753927287339
0.51021523919486389
0.497873757752161361
0.473745712832736809
0.442051825884112848
0.406204893000603806
0.368636478815864699
0.330911600756599755
0.29396762236179208
0.258342212534605986
0.224335490548712047
0.192108481556027777
0.161742140846626636
0.13327312946798664
0.106711713724263579
0.082049934531999047
0.0592659472109974272
0.0383266157714863276
0.0191957664643042092
0.00183405327684449393
-0.0138023206311437274
-0.0277564957063956008
-0.0400663507807509367
-0.0507647316650144953
-0.0598809236418187396
-0.0674410143446995125
-0.0734668619166219949
-0.0779744893378200299
-0.0809732455138846285
-0.0824669428648462377
-0.256400443174338188
-0.188520133179236882
-0.0836512092834326149
0.0327656033344243536
0.140436100579513279
0.228811533692088842
0.294660549356244639
0.338116922847058854
0.360695234744927817
0.364922853484265119
0.354219135066337509
0.332435550632989463
0.303259847520484294
0.269765001572255803
0.234225253655693355
0.198175315313744549
0.162587529541432851
0.128055951911826393
0.0949355670407786567
0.0634324294733236149
0.0336627259368740273
0.00569062421828692155
-0.0204535654393672717
-0.0447638440038448104
-0.0672511662885093564
-0.087939872163709798
-0.106856045987086645
-0.124032161482739656
-0.139509062529407979
-0.153326906809736041
-0.165520240077842828
-0.176119942825160636
-0.185154383871736106
-0.192648807230854202
-0.19862392488095193
-0.203094436070489159
-0.206068586207510451
-0.207549665038454179
-0.348275593002639994
-0.284700354832435165
-0.188079520091878338
-0.0820094523047528723
0.0153259833703706105
0.0950937466703805079
0.154643256361627568
0.194119475016595322
0.214895846098129395
0.219152451517253044
0.209792549706402931
0.190102471698865183
0.163283693722451106
0.13207205247287912
0.0985640862548752272
0.0642381698921102862
0.0300796039219149991
-0.00327645599554160505
-0.0354295365558390252
-0.0661335983156121632
-0.0952387353610962828
-0.122652533159757438
-0.148323882282136221
-0.172233207799126098
-0.194381691077901486
-0.214785198380330833
-0.233455955772458701
-0.250419072613433213
-0.265712961481326393
-0.279374083072394308
-0.291432985509545994
-0.301918732641379028
-0.31085884831900612
-0.318277532705436017
-0.324194094902519714
-0.328621705846360745
-0.331567481711661172
-0.333034239980129043
-0.439164031249975828
-0.38027600493198066
-0.292578020817487072
-0.197560481417253464
-0.110540029917197358
-0.0391071069757087386
0.0143930468616981777
0.0500502104113405011
0.0690173658420367708
0.073141896444398391
0.0648864695587711982
0.0470521451371332944
0.02240520810354929
-0.00663640395364106794
-0.0381580949510591516
-0.070754457997013076
-0.103445875041802138
-0.135571677231966392
-0.166696722509406481
-0.19654147235947006
-0.224925163769849279
-0.251727472884004877
-0.276875968001561445
-0.300339209293499998
-0.322113367195012046
-0.342200134419726631
-0.360595972281171795
-0.377319259558820286
-0.392407454181431969
-0.405892047038268644
-0.417798850681189049
-0.42815557758687417
-0.436989053833225505
-0.444322281564522359
-0.450172862671696206
-0.454552113619508091
-0.457465938685565843
-0.458916666081572999
-0.53020922037136764
-0.476562042480489723
-0.398352717413845925
-0.314498783513553648
-0.23740298926921366
-0.173880501083199523
-0.126070250389906713
-0.0940137562127352222
-0.0768138631522770066
-0.0729301045480277299
-0.0802794619288731415
-0.0964798308850831621
-0.119149936224033581
-0.146161355081786848
-0.175775594650634082
-0.206669495815337889
-0.237884171451476667
-0.268748193440719874
-0.298802560135877804
-0.327741316507796476
-0.355357146037437621
-0.381503540565004906
-0.406086631179318758
-0.622021890407624345
-0.574624260745878579
-0.506255614557386657
-0.433064171188504377
-0.36531221296708094
-0.309176957393095364
-0.266665878452084115
-0.237983722612107318
-0.222493376075175942
-0.218929323055391256
-0.225540846579761256
-0.240313219243040166
-0.261203369043492728
-0.286338971073946569
-0.314146214439651184
-0.343388033630421585
-0.373138365522825755
-0.402728252814951615
-0.431684624700359842
-0.459682298738825157
-0.486493217374947773
-0.511949239078512641
-0.715501935221554697
-0.674956350039358499
-0.616307737482418849
-0.553216247572510977
-0.494190761038289184
-0.444910415794683045
-0.407309050248214399
-0.381779405481650347
-0.367936193454199589
-0.364747108925426611
-0.370776232488268631
-0.384321018457063568
-0.403621185529482895
-0.427037606250467272
-0.453150149048318407
-0.480805801515054365
-0.50912050914070528
-0.537438897003534977
-0.565282395522076708
-0.592313357853531564
-0.618290457487622791
-0.643034193847293989
-0.811292297209760371
-0.777398451991036299
-0.728192456521998488
-0.674616074948964362
-0.623742399432671513
-0.580834924396113172
-0.547794555924186466
-0.525228130198812426
-0.512998786566013054
-0.510280825430181828
-0.515900900166772702
-0.528391508362946238
-0.546295729949625386
-0.568158373615802792
-0.592692143363420798
-0.618834053420099783
-0.645752175050169908
-0.672812307912382557
-0.699538272712547538
-0.72558655434236663
-0.750716507369451058
-0.774732782740453874
-0.655447169965598708
-0.660807683550258429
-0.672435820336801382
-0.689145793541715346
-0.709601961276984827
-0.73268811634093356
-0.757397189452907127
-0.782964297447534041
-0.808785753250103046
-0.834397945784588257
-0.816471451577895801
-0.832099711410465459
-0.851306252205698777
-0.873075080893502831
-0.896430720881669196
-0.920698202791526144
-0.945303229674741563
-0.969824676972808053
-0.993319629287179762
-1.01381784744458447
-1.03588167582974111
-1.0589042392172523