/*--------------------------------*- C++ -*----------------------------------*\
| =========                 |                                                 |
| \\      /  F ield         | OpenFOAM: The Open Source CFD Toolbox           |
|  \\    /   O peration     | Version:  2206                                  |
|   \\  /    A nd           | Website:  www.openfoam.com                      |
|    \\/     M anipulation  |                                                 |
\*---------------------------------------------------------------------------*/
FoamFile
{
    version     2.0;
    format      ascii;
    arch        "LSB;label=32;scalar=64";
    class       surfaceScalarField;
    location    "0.0599999999999999978";
    object      phi;
}
// * * * * * * * * * * * * * * * * * * * * * * * * * * * * * * * * * * * * * //

dimensions      [0 3 -1 0 0 0 0];

oriented        oriented;

internalField   nonuniform List<scalar> 
20390
(
5.15554128031388569e-06
-9.77366022761585897e-06
-1.77150359734103559e-05
2.23331555442427601e-05
6.84140206677893515e-05
-5.18267590637268671e-05
4.35140485319144259e-05
-5.49470043068724459e-05
0.000132841726047367462
-4.03252418430761822e-05
9.16330190365887201e-05
-0.000115736543178221956
0.000176736028881594744
-2.1437277815134238e-05
0.000126730524053286715
-0.000149187598765587628
0.000202660888870619918
-3.69305236808445454e-06
0.000142749853415678144
-0.00016498111523931562
0.000211618360572037918
1.47050083709760914e-05
0.000150075007159175056
-0.000173737925805784283
0.00020288822105090577
3.19182887466666203e-05
0.000151544245438394527
-0.000174731382066415551
0.000179799846723918916
4.3756825237481329e-05
0.000145165563353468879
-0.00016583398405610331
0.000151761749821207741
4.54523282577865104e-05
0.000129155806298794407
-0.000146570960775546633
0.000127319784495702292
3.85518084115869778e-05
0.00010690225276930996
-0.000121011717122716512
0.000109049570115800346
2.87735173838423158e-05
8.37528115829637502e-05
-9.42568049778133566e-05
9.57152841106772868e-05
2.02090842627916591e-05
6.34773252076582361e-05
-7.03520495553870223e-05
8.52629273688816224e-05
1.44425322485618525e-05
4.75030325555593318e-05
-5.14921264038168715e-05
7.64448595401843371e-05
1.09224719591389622e-05
3.57947673057090523e-05
-3.78992711812801132e-05
6.88983271703603193e-05
8.67349156701682764e-06
2.74011778375750806e-05
-2.85281116568540934e-05
6.24170429343048699e-05
7.16013591317137383e-06
2.13060073311434258e-05
-2.19843788764210524e-05
5.67897542643496693e-05
6.08660646244469e-06
1.67560341003453707e-05
-1.72149975755068549e-05
5.18403166318842166e-05
5.28463620846048886e-06
1.32765561707838486e-05
-1.36103356912454057e-05
4.74249380648422876e-05
4.66993190243795146e-06
1.0576821698901824e-05
-1.08292228449800187e-05
4.34294197140287642e-05
4.1912010189923481e-06
8.46125279692757907e-06
-8.65590019771680859e-06
3.97690817895609281e-05
3.8111397690128321e-06
6.78974073991347681e-06
-6.94067416574691924e-06
3.63824592377835144e-05
3.50217738475161704e-06
5.46063874627640169e-06
-5.5766632199767662e-06
3.32263022907980282e-05
3.24327349164534679e-06
4.39892554032038538e-06
-4.4869399435777179e-06
3.02722195496350953e-05
3.019910711836e-06
3.54763820361149544e-06
-3.61464908305877852e-06
2.74998657396297574e-05
2.82435281760061228e-06
2.8631367796610934e-06
-2.91572316570484995e-06
2.48901638994190244e-05
2.65285566515777815e-06
2.31239676832681603e-06
-2.35527810554873993e-06
2.24219363599978809e-05
2.50461358449962605e-06
1.87007207446510475e-06
-1.9058061718221851e-06
2.00728933103018023e-05
2.3796483106153298e-06
1.51585601340519109e-06
-1.54553331337449645e-06
1.78223126002280581e-05
2.27606349309971413e-06
1.23302466044300202e-06
-1.25713018646956417e-06
1.56527621957987263e-05
2.19003988654418209e-06
1.00783561477380327e-06
-1.02689419211345622e-06
1.35508458068654443e-05
2.11763841855775053e-06
8.29245707695634843e-07
-8.44065007877845366e-07
1.15067239479680181e-05
2.0561079113381454e-06
6.88610005004271628e-07
-7.00110848216402776e-07
9.51222507472050853e-06
2.0040284463296998e-06
5.79218172251819673e-07
-5.88226306664249657e-07
7.55904876441125423e-06
1.96091165879785621e-06
4.95860756405700761e-07
-5.03121324236402826e-07
5.63835606073992261e-06
1.92686174792238751e-06
4.34578254266362252e-07
-4.40784080680750093e-07
3.742431472291507e-06
1.90096408800937142e-06
3.92405745080090434e-07
-3.98053399505688188e-07
1.86472011539194282e-06
1.88223496358870764e-06
3.67020233941398306e-07
-3.72279911130620359e-07
1.86903935445703912e-06
3.56714344523695435e-07
-3.61535737491545489e-07
-2.36260870816181688e-05
-1.19096262128501603e-05
1.80008788018380531e-06
2.39603926389669338e-05
8.28344259193838819e-06
-7.36943859003863424e-05
5.33785109302900362e-05
-6.34239358324265994e-05
4.45003204456473231e-05
-5.83623127012445651e-05
9.20306650056673117e-05
-0.000110210280932760118
7.74108098811518127e-05
-3.6201577049701677e-05
0.000118309885622298094
-0.000136455075537927293
0.000108573796646261605
-1.70155797387932491e-05
0.000132641095694505481
-0.000150482574984371517
0.000136997804290564843
6.12316939843524644e-06
0.000139019972162991945
-0.000158859950179446048
0.000156932873507207465
3.25800813260414244e-05
0.000141020572126492397
-0.000161617346884102329
0.000162769496311955563
5.70480548578776466e-05
0.000137236694355955164
-0.000156366531175340488
0.000154448183143802542
7.03014877120315711e-05
0.000126082579287076116
-0.000142609913159235594
0.000137148458805665032
6.96193691828899053e-05
0.000107907818139765078
-0.000121676385085127338
0.000117776193453131679
5.88805119585228762e-05
8.63871685088847275e-05
-9.71215647117497816e-05
0.000100898472687595088
4.4664912263683016e-05
6.59084840075852788e-05
-7.3484408617409294e-05
8.78514932442231444e-05
3.21879844353748133e-05
4.91658770505245193e-05
-5.38639277537076888e-05
7.784065312483579e-05
2.35224388766912647e-05
3.67749918085694198e-05
-3.93637740595242371e-05
6.98304394778170807e-05
1.80612263564593319e-05
2.79478069977469155e-05
-2.93238962661346227e-05
6.31694156037397684e-05
1.46042975050027696e-05
2.1611488573734716e-05
-2.23928516676485126e-05
5.74646877351582145e-05
1.22917405998244832e-05
1.69359770528945095e-05
-1.74327392635050449e-05
5.24657101811768192e-05
1.06367366736196847e-05
1.3390994722897109e-05
-1.37393322419016863e-05
4.80038291511717882e-05
9.3924190204133521e-06
1.06530156106553206e-05
-1.09110766214342656e-05
4.39631023191366964e-05
8.42746879334587741e-06
8.51281955701948911e-06
-8.70847933665251197e-06
4.02626681877150532e-05
7.66032160870670308e-06
6.82551315080904158e-06
-6.97543721632028397e-06
3.68435400332215639e-05
7.03486594192527951e-06
5.4872593174978797e-06
-5.60283707605058839e-06
3.36624451914779789e-05
6.51133396516477934e-06
4.42147092719668447e-06
-4.51094740924503711e-06
3.06877545130688511e-05
6.06306090570014852e-06
3.56945652832615612e-06
-3.63925190328273171e-06
2.7893816051723336e-05
5.67414617508421193e-06
2.8854711372286078e-06
-2.94073738387271439e-06
2.52580942182901736e-05
5.33480272269329442e-06
2.33476095555452875e-06
-2.37926176201433203e-06
2.27595078615361608e-05
5.04169131081901349e-06
1.89124484352437515e-06
-1.92728402191964073e-06
2.03778978509599024e-05
4.79348019103658141e-06
1.53476034457398133e-06
-1.56364706441051557e-06
1.80947647876374484e-05
4.58543337615954132e-06
1.2491415565837118e-06
-1.27187600145242881e-06
1.58941287241829858e-05
4.41083748078763284e-06
1.02117156451618848e-06
-1.0388012303775998e-06
1.37631367968630085e-05
4.2637764363086116e-06
8.40027061068201417e-07
-8.53590681274978385e-07
1.16915868180835719e-05
4.13946552015650479e-06
6.96935214185858506e-07
-7.07355628200672877e-07
9.67041194555131703e-06
4.03441901830017241e-06
5.84955872953118238e-07
-5.93099346532085604e-07
7.69063466787929577e-06
3.94729203750199588e-06
4.9889381222034101e-07
-5.05605799935119867e-07
5.74332982137520616e-06
3.8786920235863757e-06
4.35107976568697232e-07
-4.41057975504601104e-07
3.81827994167066747e-06
3.82970770540344374e-06
3.90975005885443361e-07
-3.9649353821138252e-07
1.90484240652129864e-06
3.79940612247093165e-06
3.64302978799531819e-07
-3.69427151779222277e-07
3.77778628059443063e-06
3.53321662621139726e-07
-3.5803033304445311e-07
-1.22691769341116023e-05
-2.6806568867889637e-05
1.14711540309945148e-05
1.56937803622819283e-05
3.01127418348837498e-06
-7.92708754833460752e-05
5.43035553456568966e-05
-6.40081008892822676e-05
2.3821680936926502e-05
-6.06570864901974084e-05
8.22161248801776508e-05
-0.000100733567881203622
4.89632262467816094e-05
-3.58738560532005624e-05
0.00010711253494706901
-0.000132583424109117916
7.34396703209714045e-05
-1.01118874797058627e-05
0.00012330292760424425
-0.000154682749497904665
9.26107010744529088e-05
1.91717915851823309e-05
0.00013022251504515739
-0.000162442216852678122
0.000106387110431275001
5.00010666451702491e-05
0.000129014776190964091
-0.00016021317941606182
0.000114312852133351592
7.41620099183475822e-05
0.000121166489415525263
-0.00014620567654771149
0.000116001875302511694
8.6755648122027962e-05
0.000108986822515066083
-0.000127129784636958077
0.000111650487838921511
8.65219953536015092e-05
9.36061073713142979e-05
-0.000106157734848497733
0.000103371311765791701
7.57129278945306301e-05
7.66010716866897948e-05
-8.51532108051891577e-05
9.37298478761542113e-05
6.00589221560381823e-05
6.0123986155428578e-05
-6.58753194033778261e-05
8.43825676198422348e-05
4.5150776515868397e-05
4.60553434444279522e-05
-4.96707093107093202e-05
7.60481874756225923e-05
3.39508780389012962e-05
3.51444712828382968e-05
-3.72382338909787739e-05
6.88069181111171661e-05
2.64853127042431906e-05
2.70606104197352546e-05
-2.82426205502043736e-05
6.25261782498318639e-05
2.15965292446087715e-05
2.10877287838005804e-05
-2.17975216010664785e-05
5.70321756879410549e-05
1.82604713865069612e-05
1.65989658739813673e-05
-1.70706534612272551e-05
5.21595652418648832e-05
1.58499442363841062e-05
1.31615302750158276e-05
-1.34993573865318919e-05
4.77766093275241852e-05
1.40265852904766723e-05
1.04917639960040559e-05
-1.07420679931196623e-05
4.37890643906873591e-05
1.26031288826497793e-05
8.39679254861217981e-06
-8.58530142110498101e-06
4.01284924024331174e-05
1.14643638572399131e-05
6.74022204355550018e-06
-6.88470543666245954e-06
3.67413337868927647e-05
1.05330448244611414e-05
5.42371397235415011e-06
-5.53651491718119481e-06
3.35863454359406347e-05
9.75355922357183457e-06
4.37425047595880383e-06
-4.46335623374039262e-06
3.0632485913245866e-05
9.08692380295045814e-06
3.53500939194084005e-06
-3.60571732548135581e-06
2.78540067137505319e-05
8.50949630670526627e-06
2.86094228972967525e-06
-2.91726770487982387e-06
2.52290572111850135e-05
8.00583009630683046e-06
2.31776356584859608e-06
-2.36272136605162968e-06
2.27374279433953971e-05
7.57060164976900548e-06
1.87970740409161185e-06
-1.91533208336554016e-06
2.03597805430000251e-05
7.20124300527956642e-06
1.52691651999041576e-06
-1.55466224472900395e-06
1.80786970842651063e-05
6.89023778499194118e-06
1.24370789345024438e-06
-1.26492075328367679e-06
1.58792419153761911e-05
6.62831119942245027e-06
1.01732897928817476e-06
-1.03338103988569711e-06
1.37491802158262861e-05
6.40757477358396922e-06
8.37167296131851646e-07
-8.49334903782014851e-07
1.16784686510505085e-05
6.22107280603985911e-06
6.94496693282697722e-07
-7.03868723055669429e-07
9.65794077487643028e-06
6.06354537942305402e-06
5.82487398210512947e-07
-5.8998845992168961e-07
7.67846393594136403e-06
5.93315922971155301e-06
4.96167881030867646e-07
-5.02552381462201333e-07
5.73105098607536638e-06
5.83083101317528065e-06
4.32097066828859864e-07
-4.37856871713282855e-07
3.80726931839885578e-06
5.75747551762544951e-06
3.87721063503228175e-07
-3.93059730322079593e-07
1.8990283542499087e-06
5.71143180835140712e-06
3.60842379254644251e-07
-3.65772939196559547e-07
5.68050858185577239e-06
3.49766463063407479e-07
-3.54323935411201243e-07
-8.13746554999369065e-06
-3.7094164642808238e-05
1.40272049655719194e-05
4.39639875254830442e-06
-4.52375566787283697e-06
-7.16169506425672699e-05
5.48204080178154234e-05
-6.6091802664534693e-05
1.33471352920262997e-05
-5.23859014057479912e-05
8.28019173401768925e-05
-0.000108945837426574924
3.85074438559987106e-05
-2.20078607151268649e-05
0.000108795988662780351
-0.000147823753625218868
5.90857072596988667e-05
1.25017471383650286e-05
0.0001255672899936692
-0.000168760841226077028
7.40573658212291704e-05
4.6383918493113726e-05
0.000127716568985390591
-0.000169900166500772543
8.38846388115877732e-05
7.38748314893961121e-05
0.00012102729090942626
-0.000154727736863746301
8.99617931744245251e-05
9.19259794640395357e-05
0.000109522761594714308
-0.000133363600728054164
9.34016955102733796e-05
9.92533573491640874e-05
9.59593701038383037e-05
-0.000111896710668054624
9.41187907593635839e-05
9.59334794980490726e-05
8.19421375402358152e-05
-9.20698228410711338e-05
9.18161224383627557e-05
8.44190793008776788e-05
6.79027868893653007e-05
-7.43048947882487702e-05
8.69894255933163568e-05
6.90121565973869769e-05
5.45944047335461698e-05
-5.87203433469086778e-05
8.06777055896434214e-05
5.41112530421616032e-05
4.29432425093359416e-05
-4.55920731184369981e-05
7.3972534782870686e-05
4.22964292489143295e-05
3.34854496719126228e-05
-3.5125473873435168e-05
6.75685165169467546e-05
3.38978231455099423e-05
2.61551722499145367e-05
-2.71626994835675255e-05
6.1735351769958029e-05
2.80830661739074879e-05
2.05551062038929757e-05
-2.12069572729763346e-05
5.64951379192858014e-05
2.39546259676858358e-05
1.6259626545209169e-05
-1.67117721411603902e-05
5.17735575069716323e-05
2.09002110031138967e-05
1.29330162865877668e-05
-1.32606635336915064e-05
4.74858320070690451e-05
1.8556860228001536e-05
1.03319100082997904e-05
-1.0574541809023271e-05
4.35640525649545372e-05
1.67080045020582517e-05
8.28112253280431136e-06
-8.46481138842976594e-06
3.9952988033054467e-05
1.52172606012780501e-05
6.65421457676205956e-06
-6.79700799945529906e-06
3.66047820196540338e-05
1.3992721658695344e-05
5.35912907308027667e-06
-5.47204278399675381e-06
3.34809936567063187e-05
1.29654754529682477e-05
4.32627967901897869e-06
-4.41563541454211511e-06
3.05520506553370703e-05
1.20860122302013614e-05
3.50007387613565006e-06
-3.57052321207847874e-06
2.77925646509358384e-05
1.13253032496000348e-05
2.8357250413912927e-06
-2.8917107745973252e-06
2.51818720744080263e-05
1.0661923411255221e-05
2.29969255602806038e-06
-2.34457379131334065e-06
2.2700601194436254e-05
1.00885589458157206e-05
1.86680240139125171e-06
-1.90253655697884487e-06
2.03301086910811464e-05
9.60127759461622379e-06
1.51759440660160972e-06
-1.54546349357685812e-06
1.80541501759128161e-05
9.18947567047555215e-06
1.23689353737809213e-06
-1.2581510867738602e-06
1.58588694112824753e-05
8.84150266236810664e-06
1.012341743831572e-06
-1.0283385156858841e-06
1.37326113701359606e-05
8.54775813390623397e-06
8.3340020338078253e-07
-8.45486264723239012e-07
1.16655313878036098e-05
8.29932538017727261e-06
6.91330573835047852e-07
-7.00724833190553296e-07
9.64844103170009062e-06
8.0895365448149302e-06
5.79461398249817403e-07
-5.8714148369074508e-07
7.67203637798505666e-06
7.91635860924902453e-06
4.93082137264227152e-07
-4.99716768063162406e-07
5.72711597016428786e-06
7.78092976986509953e-06
4.28909595358599029e-07
-4.34857534457155612e-07
3.80510151555747038e-06
7.68375833515430756e-06
3.84396116440826989e-07
-3.89806376015599704e-07
1.89792531886451995e-06
7.62235856745312982e-06
3.57326655385395782e-07
-3.62240773667321135e-07
7.58190497390033623e-06
3.46086776546252873e-07
-3.50590728909095751e-07
-6.7156417932601306e-06
-4.24113041078157433e-05
1.80299926763992916e-05
-6.00134333463443054e-06
-9.01802713110190415e-06
-5.68843946621682951e-05
5.88538313662362029e-05
-7.1288856015155243e-05
8.04070014728763772e-06
-3.80948121388788099e-05
8.6279018842589305e-05
-0.000117631294787809301
2.99035634041402577e-05
-2.5630161078941347e-06
0.000109950146419843876
-0.000151260851927291365
4.89972613909523996e-05
3.60176837221020716e-05
0.000120269183872439149
-0.000162878778586082496
6.33307235027553517e-05
6.79600008361148889e-05
0.000118988079162484666
-0.00015489645859241639
7.25821134199984677e-05
9.07864100853262055e-05
0.000110293433647672468
-0.000136456655023061449
7.86560565668737306e-05
0.000103709912795693583
9.84301202149363445e-05
-0.000116287546273165612
8.28215481189112872e-05
0.000106747384874533746
8.58888232380574371e-05
-9.75467643658027664e-05
8.50357665471024196e-05
0.000101147007803218872
7.340625140655132e-05
-8.08325794574524676e-05
8.4778228501368699e-05
8.93697892268876642e-05
6.13321653849866182e-05
-6.60245135394546843e-05
8.20077746617759319e-05
7.48262204257659559e-05
5.00776642466990352e-05
-5.31210102975438253e-05
7.7363479130507565e-05
6.07670781508590848e-05
4.0131405354630598e-05
-4.21426280633507142e-05
7.18122201337610016e-05
4.91722871361422855e-05
3.18224706720997459e-05
-3.31461991118726644e-05
6.61423677065167969e-05
4.04457191961821242e-05
2.5165817317277226e-05
-2.60427902191101474e-05
6.076395827277179e-05
3.40651124165822347e-05
1.99406443789267252e-05
-2.05434248500570001e-05
5.58047290426168539e-05
2.93449112464590499e-05
1.58585510027716784e-05
-1.62891815049564938e-05
5.12600416801985861e-05
2.57592724092428767e-05
1.26600739390727895e-05
-1.29746808760421756e-05
4.70899851470843613e-05
2.29608911366525007e-05
1.01393317141895644e-05
-1.0373957933235453e-05
4.32526976172509456e-05
2.07249520874243145e-05
8.14083941994293825e-06
-8.32117243830416722e-06
3.97057725853751918e-05
1.89056513168222116e-05
6.54982676706094716e-06
-6.69209249256542766e-06
3.64073302081136183e-05
1.74029901326615432e-05
5.28101328077115301e-06
-5.39379704800114626e-06
3.33227684261938343e-05
1.61377907048672415e-05
4.26822340256119409e-06
-4.35660725106241963e-06
3.0425283680327053e-05
1.50524071029853431e-05
3.45722401884903978e-06
-3.52625719293649927e-06
2.76904826925857586e-05
1.41153394882800726e-05
2.8038256750383632e-06
-2.85910868667586859e-06
2.50993985583231124e-05
1.32979028723390008e-05
2.27601039492550855e-06
-2.32104553545231136e-06
2.26332524144626479e-05
1.25912237170245574e-05
1.84933138541583055e-06
-1.88560414847319814e-06
2.02740775433695181e-05
1.19899679851894997e-05
1.50463454113446775e-06
-1.53308323122441125e-06
1.8007038712668876e-05
1.14799754733397666e-05
1.2272703080089171e-06
-1.24899808447529143e-06
1.58194148948752736e-05
1.10474734841709631e-05
1.00525313853192756e-06
-1.02157223497690169e-06
1.37001394263321597e-05
1.06815338059709207e-05
8.28040084687483898e-07
-8.40408784241548626e-07
1.16396545303658011e-05
1.03715794441497015e-05
6.86902730965295998e-07
-6.9669310999193522e-07
9.62879936783325846e-06
1.01099385979803446e-05
5.75438240594179681e-07
-5.83648462922839055e-07
7.65804339818683882e-06
9.89464805059731971e-06
4.89256834328407199e-07
-4.96431257052037588e-07
5.71789134102352524e-06
9.72696797412711199e-06
4.25202671474560396e-07
-4.31576132896494432e-07
3.79957204106339504e-06
9.606815612676468e-06
3.80690335905733496e-07
-3.86398437464313035e-07
1.89488312814194817e-06
9.53095717971978794e-06
3.53489575240638002e-07
-3.58631368064701262e-07
9.48030477164299726e-06
3.42083880820783128e-07
-3.46814573467134315e-07
-6.5117253282750276e-06
-3.51802426529800307e-05
2.27946562934062567e-05
-2.35184640966175417e-05
-9.85744128788374103e-06
-3.73225454102061812e-05
6.57002623497974017e-05
-8.19211188020289144e-05
5.94066781298736456e-06
-2.20308919417286437e-05
9.05957082398874954e-05
-0.000122461304812318837
2.6651923104469599e-05
1.508239557572559e-05
0.000108900377347567788
-0.000147258561464256265
4.54700341518680503e-05
5.36077359118858834e-05
0.000114129860457705905
-0.000150536887118155516
5.89999109765302899e-05
8.33484573728131821e-05
0.000110366014806318762
-0.000139284430712362223
6.75314721005829116e-05
0.000102096860790996865
0.000100744447069362118
-0.000120586807441700389
7.3268670395500659e-05
0.000110780074866087688
8.9279904411042148e-05
-0.000102085697687911129
7.74125005303832506e-05
0.000110835659435619166
7.77595103291270459e-05
-8.59897359281833082e-05
7.98282077105339757e-05
0.000104021986809636757
6.6643239532721937e-05
-7.19329628588610576e-05
8.00879680612426119e-05
9.25646101744303541e-05
5.60661456227022257e-05
-5.95200297646357018e-05
7.81120527287924697e-05
7.91254585124829581e-05
4.62741268361147357e-05
-4.85966573588544366e-05
7.43671880702325658e-05
6.6111990728306012e-05
3.75718007602516486e-05
-3.91707922718448492e-05
6.96266707241708521e-05
5.50239546579056431e-05
3.01751084658024289e-05
-3.12849509887184449e-05
6.45804434171121187e-05
4.6271962030537316e-05
2.41142163026305545e-05
-2.48932995055996497e-05
5.96383792444719882e-05
3.95655569215290265e-05
1.92568197943198782e-05
-1.9815061571415954e-05
5.49708683177975918e-05
3.44183187821223846e-05
1.54006756166632872e-05
-1.58070843265840723e-05
5.06220310391636752e-05
3.04071217274101058e-05
1.23436460349534505e-05
-1.26434992398662213e-05
4.65896614936938094e-05
2.72194409866869505e-05
9.91377476385539474e-06
-1.0140755379935583e-05
4.28544131863124825e-05
2.46371975403837171e-05
7.97588207737543321e-06
-8.15347863955671163e-06
3.93852931710005882e-05
2.25155124369648743e-05
6.42732519740231957e-06
-6.56859566400319632e-06
3.61466212381525911e-05
2.07525663747161227e-05
5.18950314235648631e-06
-5.30085321880546974e-06
3.31088545548925288e-05
1.92615689150949121e-05
4.19981031678431667e-06
-4.28604441526457073e-06
3.02493737815203443e-05
1.79787714519722257e-05
3.40593472787378241e-06
-3.47304243421070624e-06
2.75454055134066348e-05
1.68735471268749871e-05
2.76469797758453632e-06
-2.81949956044902991e-06
2.49797747165542538e-05
1.59082058120555941e-05
2.24643919609560428e-06
-2.29185078608466604e-06
2.25337443312927438e-05
1.50736671794125735e-05
1.82724516998993281e-06
-1.86398066021803412e-06
2.01902855850129725e-05
1.43628552922700394e-05
1.48809544599629591e-06
-1.51687985126215172e-06
1.79362277230655656e-05
1.37575743347573521e-05
1.21494421522109909e-06
-1.23685794907286579e-06
1.5759912172348661e-05
1.3242383331260036e-05
9.96171740711913264e-07
-1.01256664740292985e-06
1.36509165812355844e-05
1.28053687823767559e-05
8.21163323126955111e-07
-8.33682417024901092e-07
1.16001225291348544e-05
1.2434576660404664e-05
6.81265220648546006e-07
-6.91432757276831636e-07
9.59839609521069457e-06
1.21218082941629873e-05
5.7047367939347783e-07
-5.79225070393866922e-07
7.6358707977020843e-06
1.18654398143016866e-05
4.8475924636155768e-07
-4.92449372908571682e-07
5.70273572652957754e-06
1.16666722817021109e-05
4.21041839788480118e-07
-4.27790483325259963e-07
3.79018650612273816e-06
1.15245473915676307e-05
3.7665626019324715e-07
-3.82628365503631262e-07
1.89024965955956347e-06
1.14349865346362677e-05
3.49372611123365326e-07
-3.54742871711087492e-07
1.13741864903473718e-05
3.37803506802395667e-07
-3.42783334840895479e-07
-3.92200748601325452e-06
-1.79367256346121568e-05
3.19941278622770734e-05
-4.53193603904262869e-05
-4.49207859527966837e-06
-1.63231062219690456e-05
7.40890197126365811e-05
-9.45203648844844128e-05
9.06504341160378844e-06
-4.00234600558175717e-06
9.56228301401954901e-05
-0.000127210503106751406
2.77912262967554421e-05
3.22379658956588214e-05
0.000107790145717699378
-0.00014367218910386648
4.52669281682056477e-05
6.90323492730289279e-05
0.000110114764726012559
-0.000143015091501888666
5.74818916627217947e-05
9.57596741422794644e-05
0.000103989552525937217
-0.000128616499413415153
6.50672348109864021e-05
0.000110454474194588987
9.34487774500476352e-05
-0.000109391269388541446
7.02889020088205566e-05
0.000115314870440903994
8.20199444434606276e-05
-9.17747027544137768e-05
7.40251356950534978e-05
0.000113172188617557533
7.11870300733475204e-05
-7.72585853295758355e-05
7.61764430357433155e-05
0.000105798292927824472
6.10862117481803413e-05
-6.50129110055279122e-05
7.64401469825327055e-05
9.4948608187647108e-05
5.16377611764517306e-05
-5.42841125044518579e-05
7.47862536163124522e-05
8.26289998199728078e-05
4.29539353071313053e-05
-4.48021011357965714e-05
7.15914566444483282e-05
7.06319285478579969e-05
3.5218473280428744e-05
-3.65420788009391932e-05
6.74568078295133516e-05
6.0120086767605674e-05
2.85714289182918289e-05
-2.95314147989256143e-05
6.29383244783244308e-05
5.14934208711420312e-05
2.30376470005820604e-05
-2.37398559558185234e-05
5.83984388022768143e-05
4.46217445313791268e-05
1.85301856742445888e-05
-1.90467153792075596e-05
5.40192113443341222e-05
3.91780618854470469e-05
1.49013654880420344e-05
-1.52826217943936671e-05
4.98766386769290126e-05
3.48342629228529151e-05
1.19921943544776916e-05
-1.22775342703360457e-05
4.5996453419856577e-05
3.13192086336174788e-05
9.66032056498999445e-06
-9.88050477079814796e-06
4.23766687151703913e-05
2.8431308947370446e-05
7.78970632663480928e-06
-7.96443045868991647e-06
3.89960710195339129e-05
2.60348608088700618e-05
6.28908083859118559e-06
-6.42804003652447526e-06
3.58255910193061713e-05
2.40314457127541336e-05
5.08600052772760807e-06
-5.19446909023981905e-06
3.28413161478791765e-05
2.23292142433237611e-05
4.12160554020897217e-06
-4.2051495786558422e-06
3.00256085560759961e-05
2.08592693118615194e-05
3.34639921912063494e-06
-3.4118611678188464e-06
2.73588395506317377e-05
1.95940759871846527e-05
2.71858731155449311e-06
-2.77347895456251743e-06
2.48244291393807572e-05
1.84873346930590996e-05
2.21136301962938266e-06
-2.25719342400074458e-06
2.24030616594865126e-05
1.75312398778167393e-05
1.80088577383921668e-06
-1.83770058235000438e-06
2.00796118774115468e-05
1.67154693595204423e-05
1.46820599615672177e-06
-1.49689506760572831e-06
1.78425727648398661e-05
1.6018058068205895e-05
1.20005381214640532e-06
-1.22180880583353671e-06
1.56810430940164072e-05
1.54225208684028413e-05
9.85156104919842964e-07
-1.00140799327218508e-06
1.35854971909793149e-05
1.49158355833523712e-05
8.12772516068508567e-07
-8.25361527340925316e-07
1.15475022855776931e-05
1.44849865171116401e-05
6.74423361392232148e-07
-6.84937943491615693e-07
9.55780754661807004e-06
1.41220531152250593e-05
5.6461385308023988e-07
-5.73811072056585982e-07
7.60599170245794187e-06
1.3826065107778858e-05
4.79661185303895363e-07
-4.87684779458350447e-07
5.68196822592453754e-06
1.35977645972181049e-05
4.1648661507777239e-07
-4.23409476243999973e-07
3.77716129727223016e-06
1.34348570250212531e-05
3.72320405357295572e-07
-3.78403404291369342e-07
1.88404968729108077e-06
1.333233592204576e-05
3.44975079623620966e-07
-3.50474847833738442e-07
1.32619854086633698e-05
3.33234720967243647e-07
-3.38389167574873741e-07
2.35195583474465141e-07
3.48298001992484985e-07
4.02834265194776213e-05
-5.88060259824008341e-05
2.21970731438570509e-06
5.57592186031157042e-06
8.33498116579809291e-05
-0.000107233498806121876
1.45628758359727509e-05
1.68254333871275453e-05
0.000102024813578177129
-0.000135196771540087757
3.13066428322236173e-05
5.11974430403944758e-05
0.000109198454335571884
-0.000144902171474459336
4.62349153187986792e-05
8.48582345430941542e-05
0.000107153823517694042
-0.00013790876798153444
5.67690213858869627e-05
0.000106894241071184916
9.87353048370906785e-05
-0.000120404185924831406
6.36031068814885305e-05
0.000116977877565694173
8.74504056610426919e-05
-0.000100806887457627862
6.82521466514880823e-05
0.000118586468251972291
7.60857155164577838e-05
-8.40052601688127151e-05
7.14378268983467522e-05
0.000114812786853234599
6.57761713506210176e-05
-7.06016936195736126e-05
7.31848109176132196e-05
0.000107184359027700401
5.64190120579287011e-05
-5.95508074000867274e-05
7.33003635586036793e-05
9.69865254376764104e-05
4.78304826055479871e-05
-4.99822586993712277e-05
7.17990410586041297e-05
8.56760960208486049e-05
4.00116377049989351e-05
-4.15558273510912603e-05
6.89871213965991079e-05
7.45848513974301398e-05
3.30519760525512478e-05
-3.41912944823650797e-05
6.53267147860198876e-05
6.46343804254946998e-05
2.70320868106238763e-05
-2.788435948647268e-05
6.12537399595911096e-05
5.6206503303752052e-05
2.1963477987054159e-05
-2.26028390551201471e-05
5.70761149135302366e-05
4.92770014115562655e-05
1.7781492034466625e-05
-1.82592592251216564e-05
5.29738336190658621e-05
4.36373302750801755e-05
1.43736950175564779e-05
-1.47310304092367099e-05
4.9041285859083407e-05
3.90388810121143241e-05
1.16137790048401628e-05
-1.18861060673915652e-05
4.53222037871734196e-05
3.52520406231002009e-05
9.38428345218706277e-06
-9.59824868478882639e-06
4.18269312253947108e-05
3.20973205624882577e-05
7.58596312388365276e-06
-7.75681744790812041e-06
3.85426319057075741e-05
2.94541311297356976e-05
6.13747406693424838e-06
-6.27237283776614205e-06
3.54474729195008501e-05
2.72311057331818541e-05
4.97181239522537996e-06
-5.0763135799599503e-06
3.25241651730119889e-05
2.5332934818967753e-05
4.03442410269627913e-06
-4.1154401037039224e-06
2.97552334740880197e-05
2.36932473596475541e-05
3.27775201730641172e-06
-3.3442635932729846e-06
2.71325068934503337e-05
2.22714800809331142e-05
2.66551230096959976e-06
-2.72182604170609582e-06
2.46350203625645301e-05
2.10296708471152221e-05
2.17130469524631216e-06
-2.21725511798752232e-06
2.22420913656392379e-05
1.99598176302114775e-05
1.77058489632402514e-06
-1.80681479050008727e-06
1.99430359607644518e-05
1.90431196864481172e-05
1.44515342699584306e-06
-1.47321602244355772e-06
1.77273017881647214e-05
1.82569503235409019e-05
1.18275725287471702e-06
-1.20403090549758486e-06
1.55838675728633084e-05
1.7584546227827597e-05
9.72269051153729342e-07
-9.88399188803118473e-07
1.35046983184929881e-05
1.70100690482924148e-05
8.02835662108744784e-07
-8.15759465616131989e-07
1.14825260283700354e-05
1.65197327287984316e-05
6.66364507491422877e-07
-6.77380585466084167e-07
9.50770060961245355e-06
1.61075628085201014e-05
5.57929576197755423e-07
-5.67405531082741684e-07
7.56890521438528324e-06
1.57738095204202438e-05
4.74072404215738228e-07
-4.82042777604576816e-07
5.65588774089751222e-06
1.55179842596617776e-05
4.11612964960713474e-07
-4.18330654474575624e-07
3.76067203306364302e-06
1.53356836545831955e-05
3.67694948385115687e-07
-3.73646080077887256e-07
1.8764156300485804e-06