/*--------------------------------*- C++ -*----------------------------------*\
| =========                 |                                                 |
| \\      /  F ield         | OpenFOAM: The Open Source CFD Toolbox           |
|  \\    /   O peration     | Version:  2206                                  |
|   \\  /    A nd           | Website:  www.openfoam.com                      |
|    \\/     M anipulation  |                                                 |
\*---------------------------------------------------------------------------*/
FoamFile
{
    version     2.0;
    format      ascii;
    arch        "LSB;label=32;scalar=64";
    class       volScalarField;
    location    "0.0599999999999999978";
    object      p;
}
// * * * * * * * * * * * * * * * * * * * * * * * * * * * * * * * * * * * * * //

dimensions      [1 -1 -2 0 0 0 0];

internalField   nonuniform List<scalar> 
7248
(
2.54415485613792658
1.2577290697151593
0.439620590601797367
-0.455041771558289287
-1.78922780630554712
0.439116151715996494
0.542090865761629459
-0.60015170650072136
-1.38257098119649768
-11.607348104015216
-1.16984046868662972
-0.412247579161296507
-1.38450162940015797
-2.17867858784963708
1.05299683533561961
-6.6014140305831237
-5.11159808276639538
-3.84673636830489629
-3.52003381426471673
-7.17674573428887541
-6.68790839235710166
-6.70367949576341005
-6.80594275306285201
-5.99596565700348716
-7.32593803206020766
-7.11832917954810274
-6.59475324077103409
-6.41828039103278591
-6.25873894589296675
-6.58298395036552364
-6.25839706139346852
-6.12945394877691996
-6.03182229107661261
-5.88120018156008051
-5.94697456924232526
-6.00455093229157733
-5.97254922956289125
-5.91994386990749266
-5.81016115072112704
-6.07750111745107091
-6.09141468458811808
-6.06816566714227257
-6.01757701624821983
-5.93414767588682324
-6.29489737194189303
-6.2884586493200505
-6.26232141086478489
-6.21845500100459425
-6.15764048225013827
-6.55319288989802828
-6.53723181682853127
-6.51160093301612974
-6.47567042561666284
-6.43021848167972188
-6.86271207458121868
-6.846812836457846
-6.83122758902159521
-6.81284507026450026
-6.78972396079388396
-6.76110447353821264
-6.72740338445810337
-7.15207338281317728
-7.13549039876156854
-7.11950752973353929
-7.10249992737658697
-7.08339846901518566
-7.06177151864280184
-7.03787674980677647
-7.44156638056724784
-7.4273903603098228
-7.41380666063190841
-7.40022963550701363
-7.38628720191520216
-7.37186322908783431
-7.35708113933160757
-7.73538367084663925
-7.72484695323460713
-7.71493954430534412
-7.7057746089701471
-7.69748318625562522
-7.69018528656808531
-7.68392336562896894
1.84335799980602477
3.07592638136499374
0.329875574871890898
-0.342364685993098661
0.724002829914525137
1.56501255503935699
0.880391701104129787
-0.21109488212590044
-0.719216066586410463
-18.3550413786815625
-3.19893313906753107
0.800401498677903334
0.586131411964979421
-1.24422608434591808
-1.87475060628821666
-4.91730716053247896
-4.46349856376291765
-3.61959004887718017
-3.73383964667842605
-6.33947492564873372
-5.65103196691823406
-5.92728363154445326
-6.35460440210573108
-5.73810931576659122
-6.62500189184840682
-6.46173896367475642
-6.16181127365562986
-6.11463044825636093
-6.03520927812549957
-6.51215357944597439
-6.22022616041782594
-6.02251906403461668
-5.91591911508660218
-5.78749746183985803
-6.05565347572879364
-6.03717378889041445
-5.96192332695575722
-5.88793331812874499
-5.76758769478654187
-6.13963566837148988
-6.11322847438098727
-6.06589457584069702
-6.00108055453451605
-5.91149971959894849
-6.32817323216014049
-6.3036036589687825
-6.26386435498503324
-6.21113008323017723
-6.14541852223229412
-6.5715780268888464
-6.54685784024331774
-6.51384381620641228
-6.47252944479432379
-6.4238315860252202
-6.84175538618587975
-6.81883220514158861
-6.791623589311099
-6.75981726819752371
-6.72400681092260033
-7.12525123960034268
-7.1058898785312179
-7.08461077754499868
-7.06123648858918784
-7.03613034927832626
-7.41617115042688368
-7.401621245363458
-7.38676241016646973
-7.37157860920999575
-7.35623992692359785
-7.71450533188072374
-7.70541383181370154
-7.6971448473266415
-7.68984586318836705
-7.6835670132044962
0.719764927022256806
1.32853147439023189
0.108184509678343588
0.341982081214000644
1.38830821887540878
2.1647357473671871
1.52313479719913936
0.302887493310451283
0.488623393978129705
-22.3129123523405042
-1.66447561335725425
1.73981530331448653
0.901734077694683833
-0.0224564770216151288
9.58346496171441231
-6.43536125591207675
-4.35934980972362851
-3.62913776936168953
-4.66001546232860431
-5.24426625969605187
-5.15918458425799198
-5.3591950780883888
-5.8661714116310435
-6.06145097048346848
-6.33338071474116404
-5.96865304584525447
-5.86801825271390864
-5.80598019501431928
-5.78821678667657924
-6.25618255938399948
-6.08765912407093879
-5.87097260672690702
-5.75783601896888619
-5.64894991528517032
-6.14265320121949543
-6.05167087252919167
-5.94293785263760821
-5.84171465724592576
-5.71407958293275087
-6.18948743122808676
-6.13131494249810149
-6.05924957379789042
-5.97969032419969793
-5.8853441545118077
-6.35965947701176049
-6.31866152257117886
-6.26569310886488129
-6.20392000470406568
-6.13327082019408998
-6.59053354766161803
-6.55746346212752851
-6.51707642516027086
-6.47027978408660331
-6.41826964889322404
-6.85290383142011272
-6.82554015499640432
-6.79423242311324671
-6.75921044524097425
-6.72129404416356468
-7.1313887731066421
-7.10967236978041139
-7.08621751644011422
-7.06110443550420275
-7.03480954550108351
-7.41873813466814536
-7.40322790207553627
-7.38745896062161567
-7.37152443804414315
-7.35564239064453673
-7.71421093691250537
-7.70518117100098721
-7.69692974288407594
-7.68962430495407201
-7.6833181900708194
0.161116644087532457
-0.392647802998752127
0.106689671402993902
-0.138183972224009466
-0.86412626630340128
0.560896334198618618
1.28461229015183775
0.070839391670275198
-0.260849264627434074
-11.4790157373582815
-1.49902236724495097
0.082913769699373141
-1.04337636864183558
-0.768934894410955749
6.01147922023073988
-4.04594558934592907
-3.83476040249138173
-4.56719979148311683
-4.82380470215365964
-5.32939337518874012
-5.09965165333621506
-5.16064133512795653
-5.27809307181619136
-5.48488597546989531
-5.7793038275343882
-5.66762566960280445
-5.60391572050179043
-5.46168198000843308
-5.40659083337260427
-6.00573455201700668
-5.83581207034800187
-5.70090062563276856
-5.57008504862895659
-5.4604224558073815
-6.20825878077932636
-6.03726149207059848
-5.89699382447504572
-5.76846237993478717
-5.64172617071308924
-6.21705492910501434
-6.1426457945388373
-6.04681828454593617
-5.95431041514957204
-5.856578300489657
-6.38179453659381313
-6.32986739816007926
-6.26565780971568653
-6.19576655309918412
-6.1217129135635
-6.60574912253692581
-6.56633479001003106
-6.51961714457370434
-6.46795890031669707
-6.41316430027241235
-6.86244922461342188
-6.83139057955825191
-6.79654437980336645
-6.75871584426888372
-6.71898598327708996
-7.13680687475166042
-7.11308988079583315
-7.08774871124363948
-7.06111687000524935
-7.0337805395995403
-7.42107683632383708
-7.40475147458234595
-7.38819360821419302
-7.3715981643764934
-7.35522853037902902
-7.71396587971145653
-7.70501468244577659
-7.69679584638523817
-7.68948859018533692
-7.68315190545036586
-0.426563121325600925
-1.01983713016070077
-0.354319851834415722
-0.436096145604675911
-1.97138143083714112
0.296344063221808618
0.0412782287553747906
-0.392643142502397069
-0.569156314270664154
-7.9678687251083602
-1.32005501733418651
-0.544075095263329978
-1.12113901336092248
-1.2893006361954189
-0.0291501609817998997
-5.0504546865788118
-3.73145634778302426
-3.27752462412524714
-3.44278936246850931
-5.82787142868195396
-5.69469584466342038
-5.44314858600777463
-4.74402130466365346
-4.58938469644151592
-5.8584425745086488
-5.83312212376130201
-5.73137612301541743
-5.35225323119065344
-5.10966430272888505
-6.00591746383802594
-5.94694603720670933
-5.64798844794112398
-5.45607103414994388
-5.31560116869418309
-6.17571329902529875
-6.02005687748893958
-5.85866712911396714
-5.70148852394100825
-5.57313400539963233
-6.23441955866571718
-6.15502027788293216
-6.04428871825648883
-5.93291935673089643
-5.83068501913536696
-6.39298090890926751
-6.33614144645386812
-6.26375391693588579
-6.1873947318952851
-6.1106081170448121
-6.61507461266171237
-6.57169843406235898
-6.5204679009859321
-6.46519474504053004
-6.40833985043411047
-6.86902041993429346
-6.83536179022417123
-6.79792149071992213
-6.75800356699645377
-6.71690352010422664
-7.14084548857668455
-7.11565478842665033
-7.08888646724991922
-7.06108287757279385
-7.0329222820098698
-7.42291418793560265
-7.40598330437736152
-7.38881974637382832
-7.37170051603945442
-7.35492934804414578
-7.71372362060647809
-7.70487711108691364
-7.69671045436979995
-7.68941028296790297
-7.68304470829093056
-0.0922197339798351834
-0.305649643864057907
-0.194642920432057664
-0.540054609575476796
-1.23620815452517263
0.00136139636732313107
-0.266121209637279144
-0.405760153376864885
-0.817242691013303713
-7.68513159835600845
-1.21236370782614067
-0.504679811975208281
-1.23831940647428596
-1.54369744828376199
-3.29847454503621407
-6.55436213116712629
-4.26570563392656243
-3.19113028756192962
-2.90295898356013327
-6.50319550026573268
-6.62697987014123058
-6.0667263104001643
-4.63132173022286242
-4.19930238132981337
-5.70244599278304065
-5.87929975055296694
-5.89767844004028952
-5.39922936294901845
-4.96210410345188002
-5.93516237231400723
-5.98971651293352281
-5.80426253812748616
-5.52258594534892833
-5.2686920027714006
-6.15230427199584717
-6.06676709907906009
-5.92762111467023001
-5.69153490328564438
-5.52445964425112734
-6.22467195889717395
-6.16384184315281569
-6.05100103106210341
-5.92183611348907224
-5.81045772174019071
-6.39206534526858938
-6.33473565992619214
-6.26087462452192423
-6.18051362185582587
-6.10131441193759194
-6.61794583421218441
-6.57261412668376455
-6.51935093836611479
-6.46220106777623915
-6.40407946649340598
-6.87240308142117673
-6.83715196024431116
-6.79819231685994296
-6.75702115355535859
-6.71504910524390741
-7.14335428104649495
-7.11719488218435359
-7.08949078972529101
-7.06090665251289717
-7.03217945186916715
-7.4241563864411706
-7.40682354319267944
-7.38924778245029756
-7.37176019899559609
-7.35469645857998433
-7.7134876693734844
-7.7047590605245917
-7.69665483848890286
-7.68936736598154891
-7.6829782856847153
1.16762261374287135
2.91605733761886654
0.319299303851186878
0.144648097489286975
-0.225444691282461918
-0.767208949072401225
-0.52345272005364496
-0.517110344660354215
-0.8716663098261348
-12.9729761316517624
-3.47796198169721915
-1.30354751501745536
-1.17701855834308056
-1.50306622669650514
4.46806748491121652
-6.09439676911004824
-5.42360972753176185
-3.15546219848549825
-2.66481942442583231
-6.48531970499656651
-6.76741226968577525
-6.79537267699873304
-4.96849386837692109
-4.01279739676216529
-5.86484402782937231
-6.01955237473993598
-6.13628196895098199
-5.64186579286488943
-4.90681713775156503
-5.97889338003953075
-5.94447542952137731
-5.90437429467783392
-5.67160806167716025
-5.26311832477314923
-6.07904191702839647
-6.04185429170222843
-5.93193369829674122
-5.71797504304512838
-5.50637995103328581
-6.19504546024004821
-6.14381118430756512
-6.04954705843795182
-5.92048022720929268
-5.79701447910865131
-6.38223970523909401
-6.32453583292930244
-6.2536143005819147
-6.17538542079543618
-6.0945319478546871
-6.61618800683993857
-6.56990782137033502
-6.51660498190187543
-6.45939736323464242
-6.40064637622085097
-6.87332875133601462
-6.83722821841981165
-6.79764351507526765
-6.75595497219072527
-6.71353411924207943
-7.14456733993394089
-7.11784693790605782
-7.08963268516644174
-7.06061753139655668
-7.03156154516735832
-7.42485380969827791
-7.40728523654481563
-7.3894665159046431
-7.37175540149267849
-7.35450856134366759
-7.71329984524844736
-7.7046749636548908
-7.69662508455391059
-7.68934833143346719
-7.68294081760467229
4.28360147700719907
6.08940115874916899
1.29495500320718371
0.759894748824149424
-2.04177854309995155
-0.0818292170725847257
0.0732750674789750533
-0.0589053168457693843
-0.549584377285547987
-24.4728732537867018
-5.56128460339900244
-1.1237970557166399
-0.438860121409084591
-1.08019052429812268
2.60139141933399287
-6.44669465498262806
-5.09386131089703653
-2.28114277272688248
-2.29628359806240168
-5.94582470545598163
-5.72444554851131038
-5.68180394963111723
-3.95550445238976778
-3.59850355707691127
-5.2390750006112583
-5.47850743763109094
-5.68428069799904456
-5.10460923058127936
-4.62848986140885632
-5.76762759488391463
-5.71870606626324118
-5.76796558586159858
-5.63434417250127328
-5.22020509574677316
-6.03796097568790824
-5.98112759811589623
-5.89091893344203754
-5.74330311147542538
-5.51039325053320006
-6.15407269288430037
-6.11208758067317959
-6.04397633639515863
-5.92094955029447867
-5.79032726010883536
-6.37045472522395428
-6.30884754690056226
-6.24180194363878726
-6.16993180866537916
-6.09044491226888418
-6.61323384910915379
-6.56630998100477559
-6.5135982142105604
-6.45718261364161883
-6.39824344197964301
-6.87315209988208142
-6.83664921609782983
-6.79694906911837915
-6.75516973037733592
-6.71258652435548964
-7.14496218324558985
-7.11798170214368398
-7.08955981387247114
-7.06036715379632884
-7.03117110173657522
-7.42514416563256141
-7.40746709328144259
-7.38953695652807951
-7.37172236575732409
-7.35439018024982261
-7.7132072174738413
-7.70464519755238086
-7.69662392809387974
-7.68934936889636766
-7.68292788675193083
1.28218818103839816
-0.243792102385746556
-0.969159070421004465
-1.3646096440304607
-23.8583651717709699
-11.5790438177102555
-6.66987055234908155
-3.7439475391614927
-2.70882157288969694
-49.5885542908440584
-21.535138384219124
-9.83080081699751496
-5.99918945839436013
-4.21355619919604152
-2.8160603076581765
-18.8527537344928611
-12.9052932191733856
-8.37969254394181817
-6.94621153910094158
-8.33497477809886966
-6.23085237744426124
-6.83403240637566434
-6.82468117573900201
-6.53089822011190435
-7.67843990992030179
-7.13556068294956702
-7.43294269440085831
-7.50848989644427434
-6.88709680393946932
-6.71070118790826875
-6.82058796909274356
-6.90106692528475207
-6.87789929887990326
-6.62306862222579795
-6.40360552365736346
-6.48226158574950073
-6.52343225935230286
-6.45487742980335799
-6.28773614640659506
-6.24634671442815481
-6.33461558165701355
-6.36614424240435994
-6.32355676948388901
-6.22553298137888866
-6.36472161572608286
-6.41302313241043009
-6.42184465308927521
-6.39158999304020714
-6.33053778250891597
-6.57388856689387069
-6.59314679607620668
-6.59062156244830621
-6.56704398507079556
-6.52668332193397571
-6.82287095364048746
-6.82627178262317624
-6.832449217999919
-6.83422031040919098
-6.82644196413925375
-6.80754054442688794
-6.77900450865485205
-7.12663442380548418
-7.12024681064713416
-7.11556476659762005
-7.10962196405415892
-7.09977544482199185
-7.0846693820086335
-7.06458016890061291
-7.43010390628718032
-7.42076483998452918
-7.41234770575533286
-7.40379913535488399
-7.39415720521641973
-7.3828505539977396
-7.36980231898637861
-7.74010396251506361
-7.72995210981970882
-7.72025326474659135
-7.71114609097738146
-7.70276312623630588
-7.69524194155886399
-7.68862569238739724
-0.227825244206735888
-0.906102465594741169
-1.89189555969920287
-2.13217579871686835
-11.8623772766832758
-8.45764535908446291
-4.02059923622694804
-3.90541120537398712
-3.65178282582967606
-32.3968750965755703
-16.039837785254587
-7.32011831660696899
-5.66554956188945802
-4.91021334437862489
-11.571814888127733
-12.6501000421159162
-8.63452565681716244
-7.01842127219020728
-6.2587392181993593
-8.00525859947244633
-7.87837499941532915
-7.85046157064995143
-7.86262864208859114
-7.43229013060798582
-6.41064350038067232
-7.20678878764363606
-7.61447384391789317
-7.58488866707284881
-7.06351840747095139
-6.33104766222082205
-6.5839805746436868
-6.74107608175416217
-6.77725136062165845
-6.53549114531465491
-6.3075200916100016
-6.39797469799802254
-6.44567387343609788
-6.38282294705056952
-6.22716592819525605
-6.23444427103250831
-6.30912944459156133
-6.33695517803026043
-6.29089165862747279
-6.19259238431954095
-6.35902595642176038
-6.40300640763132467
-6.40862021685408134
-6.3766307645211846
-6.31523765843586649
-6.57197932128242712
-6.58797000241775432
-6.58427307790237215
-6.56015980606092164
-6.51965790884360175
-6.82493580169177783
-6.82663034403698621
-6.8309595708273827
-6.83159211281135637
-6.82324545523908377
-6.80421474237076929
-6.77556299780382609
-7.12684360523824711
-7.11997374548819728
-7.11480765939453441
-7.10841257451192554
-7.09823615275044428
-7.08302538522768543
-7.06292237691867797
-7.43034265907191127
-7.42075301298580836
-7.41208286950166428
-7.40329176675871103
-7.39344823688466324
-7.38204778722275368
-7.36904576076882289
-7.74023865627629526
-7.72993379980845319
-7.7200973898571732
-7.71089157546223269
-7.70245294702744765
-7.69491675494817962
-7.68835512209491512
-1.38015246648503265
-1.79381776574442009
-1.79601470984741152
-2.62231219933503645
-18.6982781373356488
-9.68159068404078127
-3.84116253840918631
-3.14979423570777683
-3.67029477525386394
-26.1026336527134504
-19.1280059675456044
-8.85733670467991274
-5.29058320872691823
-4.76457224830754278
-9.59867412588044999
-9.62410540557064387
-8.34905973581000538
-6.99181277570878112
-5.82879400962088301
-8.25270900815712594
-8.07946815934156426
-7.59970657524359883
-7.37601620299941363
-6.67713204927231097
-6.24629722794915843
-6.98133529976096501
-7.19748790576650066
-7.03530960150757778
-6.5478570847730353
-5.99999108941609283
-6.41494580413774429
-6.58332030976627181
-6.52472518522707201
-6.26904911166757106
-6.16424161487558386
-6.29046110208627418
-6.32662691586239045
-6.2622501970811264
-6.10989208649993287
-6.20565383575533236
-6.27378550282088376
-6.28627135746876586
-6.23672103563563862
-6.14111011743195068
-6.3486103680803776
-6.38480552027005288
-6.38495279040327546
-6.35113683848829513
-6.29016349637629446
-6.56744854492567054
-6.57948846915249508
-6.57311582885881762
-6.54776235648350369
-6.50742342598547197
-6.82686205882385
-6.82646798323930426
-6.82853783980411233
-6.82738997357891364
-6.81784052716452571
-6.79824026614673027
-6.76938025767440177
-7.12742717664523795
-7.11979300238176727
-7.11375515421923943
-7.1065169575098146
-7.09569964968435141
-7.08012361242000665
-7.05987688309674688
-7.43076758094308332
-7.42075538475477803
-7.41164679775560931
-7.40244267968600322
-7.39227254860964589
-7.38068874257550878
-7.36765275660847951
-7.74024845440670184
-7.72971989386811753
-7.71971190315016997
-7.71039986187157567
-7.70191567574370595
-7.69438081921386718
-7.68786611827979005
-0.804294102397065558
-1.25401422915085226
-1.02197564110596062
-2.21338222914591976
-13.3252731827090543
-6.37107064325088501
-2.13979770421249782
-2.15271950600299355
-3.23672279880463964
-34.3307729811259037
-18.2514738047865102
-7.50767223928637684
-5.10230597918145268
-4.94484101141486221
-7.37788953037789952
-10.9219310564079635
-9.12639673590149236
-7.45352902860205546
-6.03140344687413688
-7.83179350385381845
-7.33828984119505456
-7.50767333300001916
-7.3770678680037074
-6.62884375086218647
-6.49911043327903748
-6.90987346859492568
-7.03162470256243921
-6.80204246766591947
-6.31018167036648769
-6.12146137465643037
-6.40042917473172501
-6.47365181192182249
-6.35358929465895894
-6.08546992205209669
-6.13528179244344507
-6.22152292334309998
-6.2221327287731123
-6.16276527721669698
-6.01311029791695528
-6.17124978880705211
-6.22637761339282303
-6.22842137572991028
-6.18107702529604097
-6.08878923755206714
-6.33036291913285165
-6.35904263339227249
-6.35519522078434118
-6.32059302266184186
-6.26124877789263135
-6.55942125042695867
-6.56725243408033243
-6.55836748331588915
-6.53261734702658359
-6.49238953523185813
-6.82775419839380682
-6.82541286143019832
-6.82523844242989863
-6.82189161349292572
-6.81084449128163349
-6.79055092285918338
-6.76139143339261395
-7.12844770228404467
-7.11977241132620264
-7.11256315912366244
-7.10419512861659186
-7.09245016344060364
-7.07634179509014682
-7.05586937150651927
-7.43143337723773811
-7.42083328178155543
-7.41113095024623902
-7.4013747023742269
-7.39076385488586229
-7.37891769658024366
-7.36578889872307574
-7.73998561936966745
-7.72924797491570459
-7.71909138209558154
-7.70969331623488241
-7.70118074548471832
-7.69366845441538594
-7.68721192625766658
0.063024946702650908
-0.920379635633301163
-0.623319086782340825
-1.99994085290626922
-19.8733975497474376
-5.87809620265704424
-1.79936090813167837
-1.60028357095419338
-2.87790111213987254
-30.1107547733179786
-17.9682521567271536
-8.04472729988245305
-4.92630043756330505
-4.58595325727380398
0.660004132994259862
-8.60635485641436304
-9.38714365211416357
-7.55677045461551344
-5.89645306892995613
-6.24180773368968911
-6.69527609365857668
-7.41734577676114171
-7.38050946085184023
-6.52802616009235237
-6.64200630153891503
-6.74412182372977398
-6.80796057740485239
-6.64930538881456457
-6.20762598870412141
-6.19912157903133654
-6.32792024048989088
-6.37646174857531189
-6.23758884433512595
-5.97161950929047514
-6.09516472047284008
-6.13346906666616487
-6.13979470167415986
-6.07929146102629669
-5.93655936492318315
-6.13976919288850098
-6.17702250097927319
-6.17430037322496972
-6.12828160424548241
-6.04110792660639895
-6.31035148395921563
-6.3304324012227573
-6.32335926064527598
-6.28969947798629558
-6.23262108611253129
-6.54965845684005199
-6.5532945483181102
-6.54245884025702562
-6.51637196581515354
-6.47642751839181052
-6.82863223438460132
-6.82430976329075989
-6.82188107411419598
-6.81602337497902599
-6.80333727187820614
-6.78223248348020569
-6.75287074386861974
-7.13014564468228951
-7.12016536096800312
-7.11155390726491632
-7.1018156470821534
-7.08898294373881388
-7.07223122240431046
-7.05145809881787589
-7.43236917912040873
-7.42107242074706086
-7.41067963758040715
-7.40028723394913879
-7.38918756909716556
-7.37698407202552264
-7.36370040841642126
-7.73938208339829536
-7.72850489220011294
-7.71826419924873264
-7.70883006644699176
-7.70032728451187243
-7.69285853149613619
-7.68646675198870533
0.477264387275038615
-0.435864873046587942
0.0873324905681638342
-1.50752970441678569
-6.49369723386809028
-2.07011154184992918
0.85601738498078106
-0.0656852598053419001
-2.68367669022115329
-31.1035083731025566
-12.0086363823651254
-5.26205012344080014
-4.3140453606723197
-4.07166684674110613
6.0364294111303991
-5.38577916198695039
-7.70796814070098346
-6.81767671025587418
-5.51728721101497221
-5.35400470471266221
-6.05844124149181606
-7.15523308907293654
-7.10773352479026066
-6.23775858820429452
-6.39612887516600992
-6.49712997637579459
-6.6835537998066199
-6.52343786461552533
-6.10103531159886003
-6.10134378220014195
-6.22218031469833832
-6.28351236896343934
-6.14240568088344663
-5.89113057597367717
-6.0264954696109605
-6.04881208971349515
-6.05656184519404484
-6.00537625910548378
-5.87326863251532316
-6.09548996527431974
-6.12854742632125582
-6.12545697485323437
-6.08320208084655079
-6.00045601152660257
-6.28635844632426721
-6.30339145588890659
-6.29505711823168035
-6.26241223113400736
-6.20713300350194697
-6.5406381140335208
-6.54082759118306978
-6.52809733999360731
-6.50134728619063562
-6.46125460956804432
-6.8311727474164341
-6.82436618169384523
-6.81941042908093209
-6.81122979132567519
-6.79662185482479764
-6.77446702220508445
-6.74480264136019159
-7.13295104286366843
-7.12146074049465039
-7.11127004883978131
-7.10003685597102407
-7.08605879117166282
-7.0683870662927788
-7.04714970286729958
-7.43369771740483731
-7.4216661783784561
-7.41053216758422995
-7.39944033218622543
-7.38775618360997832
-7.3751434847163484
-7.36162375570396765
-7.73848455064497287
-7.72756167116086434
-7.71731785174632368
-7.70790697991990825
-7.69944853791087613
-7.69204093423282309
-7.68570827573518045
1.19337808364661679
-0.139016257565726331
0.465365121695260342
-0.81350626283684857
-12.1372907307563764
-1.03857504705756298
2.24570237250228111
0.327226486550710405
-1.85021808720992809
-23.6390908548881384
-8.44245964440951724
-2.73164244962668867
-2.69156107765366226
-2.94070253185691177
14.6337907530590883
-2.40497992256036097
-6.65859565852890789
-5.79551489723673363
-4.89577704612487974
-3.63684896049728934
-5.08252043591213809
-6.8631590083110634
-6.95495783361574826
-6.29298470135638777
-6.38688642788186112
-6.44648088555326471
-6.5703626267010069
-6.45007069015654544
-6.13078206079846399
-6.09384056638543203
-6.27263596064366702
-6.2673675866150127
-6.08173322636988267
-5.8513839866778774
-5.88581670883366748
-5.95400621018966003
-5.99105310570371774
-5.95487792964698492
-5.83256346242057067
-6.05953070331837917
-6.09191474878909744
-6.08902091116200417
-6.05055314255548726
-5.970764382115469
-6.27187671743265263
-6.28549062667123959
-6.27578003633385073
-6.24223476026909552
-6.18661072950785673
-6.53678799069983008
-6.53327311932291899
-6.51792147095781793
-6.48944356103694986
-6.44831471951210844
-6.83684079949825207
-6.8274477572689376
-6.81957467127725003
-6.80866049462226108
-6.79200090423096103
-6.76821791394282091
-6.73765142930719563
-7.13734929456787182
-7.12427159136608878
-7.11234982283560768
-7.09943517203010632
-7.08399804891559182
-7.06525582597699042
-7.04331104245539041
-7.43561866471702082
-7.42285643753883484
-7.41094243921162921
-7.39908669357255544
-7.38673216892842355
-7.37360691309550997
-7.35975079211750316
-7.73742129113468291
-7.72655017780836939
-7.71637462829312781
-7.70703437407068481
-7.69863873026886303
-7.69128548871271445
-7.68500145958754022
1.8699153000131794
0.146098081977921179
0.477092590328101807
-0.603180800094342828
-5.80262047480181309
0.557315359706134217
1.08861835753781211
-0.568733167285375707
-1.57015459193234896
-19.9175654576615102
-3.47152447620250371
-0.49669474865544494
-1.86822091043352145
-2.56776284208867756
4.81414693246185266
-5.88000783436003438
-5.67231758205681924
-4.78321633179103145
-4.39434050591258885
-5.98393436356539521
-6.50155013443247043
-7.00411302872957453
-6.94426250252551558
-6.44509240511224579
-7.040451583806286
-7.40625236168608758
-6.76195290657514647
-6.58225628747004343
-6.31916094278477924
-6.42544794734266045
-6.48195613629476952
-6.27973234102420808
-6.10719815037646008
-5.89420476037324459
-5.94203139608904873
-5.97749432709966477
-5.97598922986417058
-5.9423813199155342
-5.82494203634252994
-6.06124331858091736
-6.08411734827636863
-6.07258095466333714
-6.03109420593980516
-5.95180122514500454
-6.27502111333442691
-6.28084524926786791
-6.26516540954504997
-6.22796412811225242
-6.17079860988363293
-6.54063611359722774
-6.53210535983674934
-6.51255293169329619
-6.48101865990137949
-6.43795376435401501
-6.84737553608937866
-6.83494847368689129
-6.82351669488365786
-6.8092377198524856
-6.78971862904039014
-6.76380073214074162
-6.73181803212547791
-7.14376726979827303
-7.12897217670518302
-7.11511537415435669
-7.10027926407710197
-7.083134724172921
-7.06305095873475874
-7.04020282607675529
-7.43824965902363466
-7.42476544227981705
-7.4120326666098908
-7.39934847582990951
-7.38624111403523465
-7.37250465460853199
-7.35822048102900439
-7.7363442620665186
-7.72561196582273446
-7.71555451987947194
-7.70630524256503602
-7.6979697948962178
-7.6906553203950363
-7.68439741042544622
-0.892572019321293153
-0.609342572833347695
-0.995220665804430915
-0.803734707045390406
-1.23666931884550846
-1.11735226245942365
-0.953998609384962171
-1.12689664386900534
-1.43264028695964774
-1.33059106394932281
-1.12947770375034318
-0.264285678332606189
0.0392353292286697908
-0.508713395170081961
-0.270594721106796499
-1.00537776534082068
-0.838558578023129275
-0.574518996440548602
-1.48755424517921986
-1.40970761758434682
-1.2444619647505073
-0.954229441063772832
-0.75786939773505213
-0.381627599228695935
-1.0356102078857341
-0.594083253559152036
-1.55915975035718746
-1.25891534898499691
-0.77847375154951326
-2.16822856571038969
-1.80223036664841985
-1.39908092930418393
-0.942239725238507075
-0.604202309124689307
-0.398090686222271728
-0.892444166157942087
-0.65050620603500553
-1.44556834126250866
-1.22209409254289536
-0.916343595037336645
-1.81754102332054424
-1.80494367744061601
-1.49047504655087293
-1.12065072086040995
-0.930915238992852334
-0.644434454147333913
-1.09212059874945111
-0.81219571886306241
-1.33148470585189926
-1.23220368586284423
-0.991447187222856963
-1.33870045323219689
-1.52834538395343955
-1.42108747557247028
-1.15867085922660151
-1.56341087029204906
-1.25797898954328802
-1.55909791359498229
-1.28038440539859089
-1.57728942288266127
-1.53659133932104508
-1.2958850841445444
-1.30421789741162275
-1.62164460673309341
-1.55230938367053217
-1.3367613020298168
-1.88640337546633297
-1.5757418560100338
-1.73991752191783577
-1.48454435347603497
-1.70008326931499809
-1.62571609287188812
-1.43123889991833342
-1.43222065223360806
-1.65438401434406623
-1.57984931829439335
-1.42870657401692602
-1.93926813258040376
-1.59546057135572505
-1.72076038231939865
-1.48633960810638865
-1.73303699694492153
-1.58803750316903747
-1.42837195932241845
-1.33832837586440823
-1.58804743712945196
-1.52267374008461442
-1.41869322004578891
-1.23749538145944005
-1.65133612978645239
-1.69253612678499721
-1.52618535637253117
-1.59989681290474617
-1.98435493903887483
-2.06942795774875954
-1.94998424482376898
-1.76818935292879775
-1.96400583244059446
-2.48372071377619585
-2.60941185318731339
-2.35723991959248158
-1.79882215111676436
-2.33350989666106479
-2.93606298005599209
-5.07430861371165243
-3.1387787874782771
-2.55256685632750902
-2.90559777121642693
-5.55393924706601094
-4.40913008387587624
-3.74301252028317322
-3.85066929726177642
-6.12373486156341329
-5.5240969601426988
-5.07965825794186099
-4.72697187112325601
-6.24178747803051248
-5.83052444608622977
-5.41496263192219995
-5.05126891582016313
-6.06759502450982602
-5.8363201724301943
-5.60631301728833975
-5.37994254913669412
-6.0956554726435126
-5.95584987750299533
-5.81073029163031851
-5.66765655652824929
-6.25007607154550726
-6.16178544259510552
-6.06769524873553667
-5.97432879833677877