/*--------------------------------*- C++ -*----------------------------------*\
| =========                 |                                                 |
| \\      /  F ield         | OpenFOAM: The Open Source CFD Toolbox           |
|  \\    /   O peration     | Version:  2206                                  |
|   \\  /    A nd           | Website:  www.openfoam.com                      |
|    \\/     M anipulation  |                                                 |
\*---------------------------------------------------------------------------*/
FoamFile
{
    version     2.0;
    format      ascii;
    arch        "LSB;label=32;scalar=64";
    class       volScalarField;
    location    "0.0599999999999999978";
    object      p_rgh;
}
// * * * * * * * * * * * * * * * * * * * * * * * * * * * * * * * * * * * * * //

dimensions      [1 -1 -2 0 0 0 0];

internalField   nonuniform List<scalar> 
7248
(
6.73158222144341689
12.8552091707116087
4.80170736727026615
3.57578916879086739
249.895521168096337
5.79668771013010975
5.60548309627022068
4.44043554267063012
2.94070226283073666
290.390943961629716
10.8936475094273479
4.44234795368628888
4.29137855874469931
4.15104571325273497
251.937650501699636
-4.07340541077826668
-1.28368780502767477
3.29097591369253406
6.83012102496536411
-3.24013128301719444
-2.60436303515245271
-2.52043269059192276
-2.46746443445444719
5.23220406540210359
-2.92904032318233654
-2.73322399257340276
-2.16201455304063606
-1.84974073114069149
-0.879915795315099003
-1.82384872408253518
-1.53377915016307553
-1.39835942232196508
-1.20046875851682944
-0.983841282390591321
-0.850816193019416467
-0.915438154530431869
-0.88300389305882554
-0.817685230163723631
-0.686427638866937695
-0.620469403959608035
-0.634597570818830725
-0.611339909794391234
-0.559702391737345262
-0.474281157203372938
-0.470209859260816376
-0.463771089249439883
-0.437634186339268039
-0.393730059613590866
-0.332823659404925087
-0.36063038987882734
-0.344669317114562501
-0.319038507484929401
-0.283107942000316859
-0.237655910519917746
-0.302274574581161248
-0.286375336457884655
-0.270790089021728297
-0.252407570324274522
-0.229286460965857919
-0.200666973911679369
-0.166965836788031757
-0.223760882813177103
-0.207177898761569723
-0.191195029733561783
-0.174187427376634063
-0.155085969015565844
-0.133459018643497962
-0.109564249759677657
-0.145378880567247376
-0.131202860309823144
-0.117619160631909289
-0.104042135507012939
-0.0900997019152025291
-0.0756757290878338762
-0.0608936393313387753
-0.071321170846639248
-0.0607844532346043312
-0.0508770443053407767
-0.0417121089701447054
-0.0334206862556262335
-0.0261227865680855528
-0.0198608656289673835
9.56471662095008845
23.3354185700542374
5.10734425987674978
6.39336431136182703
280.322707980086705
9.48788913892689401
6.2258028554578928
4.85917085381259461
4.91165873848819778
482.104363078859535
25.533757027289731
9.39060229274665481
7.83425284125022081
7.31789548873278228
309.21275457547631
-2.11711557813773865
1.29887053688416532
5.60622636802567698
5.37976422906256246
-2.321039649579558
-1.62017750962363682
-1.82778150418762064
-2.15002880007885544
2.14787186860887447
-2.25939977216830368
-2.08915225569103891
-1.76762785558611113
-1.61061663383934595
-0.904418704651697158
-1.78880685435441511
-1.49706034507269004
-1.29460281402438593
-1.12108083520024371
-0.880097167024733062
-0.965483855697945148
-0.948125092275723835
-0.872693641299951306
-0.78421818215646022
-0.64622676741895646
-0.682821085170358111
-0.656413657931830929
-0.60908107552797619
-0.543341839944145089
-0.452133371661918415
-0.50348572283341142
-0.478916157459185754
-0.439178398768469536
-0.386436436899188551
-0.320660686680465989
-0.379015526855032092
-0.354295345604431655
-0.32128133548962845
-0.279967000936269361
-0.231268121416422612
-0.281317886188559629
-0.258394705151812509
-0.231186089727601018
-0.199379768464469725
-0.163569263903598383
-0.196938739600345497
-0.177577378531409924
-0.156298277545317388
-0.132923988589773473
-0.107817849182159475
-0.119983650426883887
-0.105433745363453735
-0.0905749101664679451
-0.0753911092099936453
-0.0600524269232897354
-0.0504428318807198517
-0.0413513318137000846
-0.0330823473266416077
-0.0257833631883681406
-0.0195045132044972327
5.46816535879845489
10.4250702926678738
4.75118842027058541
5.88685517280962323
492.657085347093641
15.0876736787520134
6.73721490971111514
6.56396551158472619
6.84782147372655725
519.631450099843278
70.1215875533469131
11.3988058822722564
9.33357424032740823
11.0897520522896826
306.083573532686785
-4.87947891220570895
-2.14780882077042579
0.321712158085302957
5.22429107742393928
-1.20356381273380109
-1.13364491142372725
-1.36205343178779215
-1.62722968005790514
3.03789629896921154
-1.97027946745835458
-1.58718791535906556
-1.49492171812574948
-1.39236762271191261
-0.65403115372033771
-1.53525573854494235
-1.35990508792517595
-1.1482633384740597
-0.982432889860345049
-0.780189171495591083
-1.05371874521981246
-0.962690459031023127
-0.853889250655221255
-0.74508830368358947
-0.609225305213207058
-0.732674643970992023
-0.674501041931098055
-0.602439086440317628
-0.522737828090450773
-0.42725701681737116
-0.534971972532982787
-0.493974046769664943
-0.441005640937789545
-0.379232225600242667
-0.308543871127667901
-0.397971047866602645
-0.364900962319846756
-0.324513937322346901
-0.27771731704216962
-0.225706108006879097
-0.292466331420222769
-0.265102655015146627
-0.233794923218046014
-0.198772945613893276
-0.160856512907904009
-0.203076273106654548
-0.181359869780460731
-0.157905016440413826
-0.132791935504482816
-0.106497045393542489
-0.122550634668146266
-0.107040402075536403
-0.0912714606216154106
-0.0753369380441429176
-0.0594548906443275182
-0.0501484369125031748
-0.0411186710009871503
-0.0328672428840744851
-0.0255618049540739349
-0.0192556900708203763
6.27797186871052126
8.38913034336954944
5.67063342026324158
6.11715826673599139
519.439162301319243
15.494524794382702
6.77906461922397785
6.52143060301073962
7.75332906172929892
643.654212427020639
27.5365380631066365
7.82027267644415591
5.42520923079491713
8.45009552514559381
278.250868047537608
-1.69768537436441558
-0.607351374747662875
0.85570629652061192
6.16158413237055758
-1.28190257967656529
-1.01560495217620739
-1.12217158664874428
-1.09333353343362805
-0.928098286867998112
-1.40245433848879419
-1.28561374401188644
-1.25136124255943093
-1.09780336782026278
-0.998771346932805004
-1.27268480062327916
-1.08713023983118684
-0.965219793953573268
-0.847676785660836041
-0.709297272379972532
-1.11890377619721137
-0.946723113391405358
-0.808062159344852371
-0.679345911099215494
-0.546832899006896467
-0.760242309865396759
-0.685832803021138249
-0.590003364566132005
-0.497487232359503428
-0.399192455733829221
-0.557107035353786473
-0.505179890456662228
-0.440970292694026766
-0.371079022113193324
-0.297007489636817112
-0.413186622534442161
-0.373772290222263104
-0.327054647686514544
-0.275396404819559959
-0.220601266696238418
-0.302011724613945431
-0.270953079562676502
-0.236106879816919274
-0.198278344392848055
-0.158548468981325352
-0.208494374751663464
-0.184777380795844964
-0.159436211243712045
-0.132804370004910799
-0.105468039546900025
-0.124889336323837599
-0.10856397458234697
-0.0920061082141927361
-0.075410664376493311
-0.0590410303789431559
-0.0499033797114574254
-0.0409521824457761696
-0.032733346385236374
-0.0254260901853372995
-0.0190894054503654813
5.43810384245758449
8.29475557220057702
5.28103594945884236
6.40809326251764499
334.637934617815574
5.89649251480730108
5.81404072779502368
5.52533360969969856
5.56115786850313221
326.790713872154356
7.65913150156648559
6.10534002033355794
6.05585424272666639
5.65345906525610964
117.786356362494516
-1.06692424103280903
5.21104675268060635
2.16241563791210911
1.1284748238896678
-1.65571677104048387
-0.778790531122185214
3.02496526904516649
-0.0434462620507373234
-0.45928468535058059
-1.48129390925033033
-1.3942383351260883
-0.991264445458651777
-0.963952556033033647
-0.739523987577677455
-1.28476275252140448
-1.20465954959543153
-0.926925947941124928
-0.734259491988673685
-0.591988885930123221
-1.08678588349350491
-0.929639801339805283
-0.770481881922966294
-0.612551075692992497
-0.483531744029571886
-0.777607195666460971
-0.698208134656483126
-0.58746843268795168
-0.4761049104292574
-0.373806110149318416
-0.568293411105950219
-0.511453666157812514
-0.439064981115342756
-0.362707180798239937
-0.285917545026443842
-0.422512112667903561
-0.379135934087307003
-0.327905400967533678
-0.272632246539168288
-0.215777208578582042
-0.308582919934370703
-0.274924290224495715
-0.237483990720713717
-0.197566066984047189
-0.156466017947428759
-0.212532988576685761
-0.187342288426652126
-0.160573967249918709
-0.132770377572717257
-0.104609781996785597
-0.126726687935603793
-0.10979580437736107
-0.0926322463738259022
-0.0755130160394525407
-0.0587418480441228158
-0.049661120606477753
-0.0408146110869122489
-0.0326479543697980185
-0.0253477829679037356
-0.0189822082909307417
9.8006237870917392
11.1285458906543742
4.84123681645585524
7.47218804458435404
290.309629964641317
5.36022478476265185
5.2901374267873047
5.24270773915921939
3.82756190557810516
333.727913938030497
15.4790051087113749
5.9181522652260643
5.16973787533301277
2.88278368136872665
182.220503407826016
-3.03798906707234773
5.23691343003547782
2.54097119445453989
1.20172871874042775
-2.36777769471899813
-2.3346572444729996
2.28802808833609017
1.94382202699688023
-0.0719595506159858844
-1.31558886007479803
-1.46833404060130546
-1.52750639398879073
-0.641907870796420976
-0.584348287948576739
-1.18849075627403211
-1.19274741929952954
-1.08097584247879097
-0.798290890702458844
-0.546337334454858548
-1.06336073185833069
-0.971416237297732743
-0.836886401961240201
-0.598664857828395069
-0.4354309513276437
-0.767861411156477103
-0.706657660515816022
-0.594183142263729147
-0.46496340291530136
-0.353642929388956917
-0.567377869749594144
-0.510048159691487424
-0.436187123793506992
-0.355825974212041818
-0.276626381800093191
-0.425383334212646236
-0.380051626696857381
-0.326788438351673538
-0.269638567549264296
-0.211516944782281613
-0.311965581421191296
-0.276714460244317395
-0.237754816859662182
-0.196583653542432568
-0.154611604909489997
-0.215041781046493991
-0.188882382184351078
-0.161178289725290746
-0.132594152512859498
-0.103866951867025492
-0.12796888644117102
-0.110636043192679362
-0.0930602824502975018
-0.0755726989955954331
-0.0585089585799825826
-0.0494251693734844705
-0.0406965605245899614
-0.0325923384889041101
-0.025304865981549924
-0.0189157856847154277
17.147126497489932
20.6530041050288453
5.49329805667756421
4.68603655191920687
434.924354652681245
4.73858663336041808
5.01736162358073123
4.12470775528697775
2.26390415519280674
717.093048552033792
2.49642898098704613
4.89976726276684449
4.3252873194984236
2.34777985251878318
355.864717632562304
-0.966911551139914227
6.36182980621954464
4.02834219203573074
1.20024623118138773
-2.10192936208078152
-0.157312172254354649
5.55550657090365796
2.85146224535851767
0.117963616465635454
-1.42027302915599085
-0.250373135488403731
-0.386335677310463754
-0.117013583864383125
-0.449652930383080796
-1.24410628280309443
-1.20571905222068776
-1.10611164150231045
-0.858115106648093096
-0.53146682116937416
-0.989830675031200369
-0.951131915910779946
-0.822865372836646514
-0.606225887150827147
-0.416780203528815452
-0.73822833663758658
-0.68698886770207479
-0.59252923580539818
-0.463059888431108679
-0.340189366668652793
-0.557549783364025719
-0.499848332788721983
-0.428926798803877463
-0.350697912002665868
-0.269844401617657215
-0.423625506838051058
-0.377345321370858688
-0.324042481898996038
-0.266834863199123695
-0.208083875979619332
-0.312891251336015197
-0.276790718419811788
-0.237206015075234922
-0.195517472190655045
-0.153096619183305693
-0.216254839933942511
-0.189534437906057035
-0.161320185166441921
-0.132305031396549866
-0.103249045167031622
-0.128666309698277248
-0.111097736544815265
-0.0932790159046428952
-0.0755679014926767117
-0.0583210613436669564
-0.0492373452484457033
-0.0406124636548905668
-0.0325625845539110267
-0.0252858314334674858
-0.0188783176046730013
16.8364276134793442
26.1394338865819407
6.34530286083139661
6.49046348073035162
343.347724157922755
21.0763972611556341
6.27274049576198856
4.32265097982188706
2.80704156502425706
558.843748826196361
45.8625675685323557
8.50934097229148279
6.01519255595450719
3.7047661090938715
299.189052866064912
-0.331917585254381586
10.1652245248828343
8.07415243378929581
2.95514634171047019
-1.54662782197302517
-0.21687872236680425
24.2737716476613699
14.4716186507332338
1.36720469516292242
-0.799515016144170643
0.171322973582193311
8.68458170129170881
6.51233735907573585
0.125225026432591091
-1.01278447503209179
-0.60870342466215499
-0.986956008762446713
-0.737733321185458535
-0.45240661222388906
-0.936526343113059601
-0.819018777056445546
-0.778134448610831919
-0.647008780744499523
-0.417437917582960227
-0.697260397925302033
-0.65527721065513489
-0.587164663377900631
-0.464116545986723472
-0.33339724215950961
-0.54576739236426286
-0.484160050096719752
-0.417114004723805831
-0.345236862071381545
-0.265757166228242026
-0.42067134909874776
-0.373747481007552007
-0.321035714188825039
-0.264620113498851395
-0.205680878874849454
-0.312714599882041033
-0.276211716097833349
-0.23651156911839008
-0.194732230383660498
-0.152149024395578952
-0.216649683245589059
-0.189669202143683657
-0.161247313872471404
-0.132054653796318228
-0.102858601734145572
-0.128956665632561057
-0.111279593281442268
-0.0933494565280798411
-0.0755348657573249038
-0.0582026802498172291
-0.0491447174738384521
-0.0405826975523791433
-0.0325614280938794631
-0.0252868688963680532
-0.018865386751930599
6.11103433699863619
3.40383398060493692
5.00557162647515241
3.03101259165859815
283.120689923694044
10.1416342241034396
10.5258149120159601
9.88997624765560346
3.65353981234261216
430.084682436749915
9.48701142413662346
12.9340504074155493
9.8110766968626546
5.03829206686821429
290.742916084297235
-15.5422667192159363
-7.87951075680728863
-2.65264529121529646
-1.78105415812545642
-3.85923238280892367
-1.57487332219313592
-2.04978100251765349
-0.0940626547943621411
0.0300643952054731878
-3.10922091405815726
-2.65210238993377567
-2.90556181687326465
-2.7888327815474554
-2.10023230566305052
-1.98684967400467638
-2.09817359787057356
-2.17903919207693919
-2.15339155788269343
-1.90236236562176653
-1.31462416360150391
-1.39245102374733443
-1.4342342588030772
-1.36591539274519236
-1.19869718065176123
-0.789519443240504715
-0.877694659112235209
-0.909318059209364926
-0.866743665959693099
-0.768712485156202496
-0.540033059635677937
-0.588334546509149181
-0.597156775352463143
-0.566902455486126944
-0.505849818373838467
-0.381326069735390571
-0.400584291838214646
-0.398059060171314094
-0.374481481824774476
-0.334120768637334919
-0.262433459136902414
-0.265834283161594687
-0.272011717630745498
-0.273782810409191446
-0.266004464137949481
-0.247103044326601518
-0.218567007030464916
-0.198321923805483913
-0.191934310647133566
-0.187252266597617761
-0.181309464054158237
-0.171462944821985069
-0.156356882008224563
-0.136267668884011234
-0.133916406287180018
-0.124577339984531105
-0.116160205755330578
-0.10761163535488151
-0.0979697052164198723
-0.0866630539977391451
-0.0736148189863250063
-0.0760414625150635515
-0.0658896098197094687
-0.0561907647465895096
-0.0470835909773812539
-0.0387006262363065665
-0.0311794415588637318
-0.0245631923873955334
6.12783628950340642
3.84092931101681323
3.32003713195300554
2.32646615548991376
192.96696187204671
3.34789643188826913
2.20414112250299832
1.74191045804701261
0.971494458698194507
311.359272035339472
6.78626516552223347
1.84669469562978028
0.294497135921238218
0.130687621916777269
358.275778026841238
-7.68071117023717242
-4.44383077982880081
-1.60297828968027489
-0.958274602232639161
-3.78478260899055252
-4.08872651285395339
-3.80656484653197857
-1.73959904177466362
0.279341601706667941
-1.96996682579583671
-2.82623665911803368
-3.24733135056257982
-2.71739539296202004
-2.31425820359151579
-1.53671701635128621
-1.84584945709246639
-1.99862976305210882
-2.01685516643114671
-1.81032806558913939
-1.21758413392465248
-1.30673212900237368
-1.35526041393569363
-1.29328865224391643
-1.13727148573629333
-0.777494072328684394
-0.852054149954289963
-0.880063965369038415
-0.834045639885680812
-0.735713568066224788
-0.534332946602834702
-0.578306346402703619
-0.583930423458190684
-0.551943204771095819
-0.490549152025553825
-0.379416821282426153
-0.395407417023245
-0.39171056453895331
-0.367597304883666987
-0.327095237978541287
-0.264498292731717044
-0.266192844968265563
-0.270522071477655668
-0.271154613625309848
-0.262807955239082958
-0.243777242360565749
-0.215125496005662858
-0.198531105238243383
-0.191661245488196658
-0.186495159394535176
-0.1801000745119129
-0.169923652750440773
-0.154712885227427793
-0.134609876903810377
-0.13415515907191089
-0.124565512985808438
-0.115895369501664416
-0.107104266758709279
-0.0972607368846614279
-0.0858602872227553909
-0.0728582607687847938
-0.0761761562762949263
-0.0658712998084533263
-0.0560348898571713244
-0.0468290754622299674
-0.0383904470274489332
-0.0308542549481804831
-0.024292622094916165
4.46250697500745286
2.15430314551604996
5.81306488278272049
2.8625711702878549
362.59267024258844
8.97859501712152408
7.48410912491378788
3.19050860360821797
1.30033130118501905
293.294054287285292
9.93353503660734205
4.41583688458081713
2.392779555250375
0.00461055267054817381
169.478348449085985
-2.89044975611961563
-4.17474655091375269
-2.14408654734383308
-1.00404183033941741
16.4994202753510706
-4.36792663386453839
-3.58418189991213421
-2.8344414611444364
-2.38106185867982534
-1.87632374791875178
-2.62228421857847227
-2.83580196219167879
-2.58732274356845782
-2.0863464327833916
-1.26749112428024246
-1.68599336508116826
-1.84930480714078849
-1.77788437381931019
-1.5415883447582015
-1.07436074995533604
-1.19877876514629511
-1.23553705079923026
-1.17149389154427785
-1.02049562493058077
-0.748777072180683012
-0.816701734781287048
-0.829244873645563096
-0.779901548192667327
-0.684141793324697045
-0.523920182913060195
-0.560109844278196656
-0.560265173087553525
-0.526449298413981692
-0.465475240525035749
-0.374886051947424748
-0.386925953832758518
-0.380553328146646108
-0.355199855981427448
-0.31486081325952231
-0.266424558648473864
-0.266030480461756813
-0.268100338651796666
-0.266952473733212736
-0.257403027164525344
-0.237802766139812549
-0.208942756748882991
-0.199114676645134603
-0.191480502381764173
-0.185442654219238834
-0.178204457509809233
-0.167387149684351866
-0.151811112419907274
-0.131564383092163562
-0.134580080943082825
-0.124567884754778965
-0.115459297755609425
-0.106255179686001025
-0.0960850486096434947
-0.0845012425755097274
-0.07146525660846971
-0.0761859544067021305
-0.0656573938681155878
-0.055649403150168239
-0.0463373618715755969
-0.0378531757437042052
-0.0303183192138679579
-0.0238036182797898878
3.68340776086022004
2.46722123272694338
5.93163795369015912
2.67811808366897397
417.848656059518532
22.9853218795710426
16.0731946796900189
7.70584917100506317
4.29491581400084144
451.865475663222526
13.0998284678537047
11.4471657386727284
7.95175978132453753
2.94747520381965256
252.343407333935716
-7.20208039641560749
-5.06718240921238916
-2.19778180812733703
-0.777041881654477518
-3.66036073561143604
-3.44973640499240153
-3.36252634536399819
-2.4681499693332265
-2.24116243571517737
-2.14713529424094274
-2.54823811746842699
-2.63152723829333235
-2.3540153145436209
-1.86725181743512469
-1.39807558893502937
-1.67926914398820282
-1.73889284257415877
-1.60889269254089284
-1.35224462721549221
-1.04387234681471286
-1.13204953942281628
-1.13022538601810463
-1.06858257087735775
-0.923361149514602686
-0.714181441300382303
-0.769404949322519571
-0.771567900531013762
-0.724259534689802975
-0.631890026620388623
-0.505669812597230872
-0.534353034875990396
-0.53050767164223156
-0.495904319286886275
-0.436552932895320656
-0.366858767771690297
-0.374689951222064388
-0.36580498330275113
-0.340054846294287283
-0.299826929385637098
-0.267316698403891773
-0.264975361440524637
-0.264800942479597123
-0.261454113514898667
-0.250406991284161162
-0.230113422862420952
-0.200953932225203052
-0.200135202284041303
-0.19145991132620177
-0.184250659123663785
-0.175882628616586573
-0.164137663440615339
-0.148029295090054192
-0.127556871500935365
-0.135245877237738538
-0.124645781781556567
-0.114943450246240642
-0.105187202374226504
-0.0945763548858589986
-0.0827301965802436506
-0.0696013987230676978
-0.0759231193696655454
-0.0651854749157056851
-0.0550288820955811622
-0.0456308162348791832
-0.0371182454847166984
-0.0296059544153842655
-0.0231494262576669198
4.30760152110559691
2.32794277513208803
4.30221854276015669
1.79782268050398208
365.056864949622479
20.4580183969472813
13.1850173211244606
11.3156349277697394
2.84849051204867676
353.723544650648137
8.18072521101618655
6.64870721835696443
4.8879005763027914
2.67867758590786931
158.522302258067867
-5.33697042462980864
-5.78287709448112608
-3.25931919453503882
-1.04512041799782107
-2.21434455470997094
-2.70421848635887141
-3.32369379521507957
-2.14844748812243846
-2.1709624196295354
-2.22099505201658998
-2.38336732909125359
-2.43638437005509489
-2.16527509195099155
-1.78624287672257909
-1.47769889628472906
-1.60664980664370982
-1.64877234575901865
-1.49797986126057658
-1.24049614056076729
-1.00538496070187278
-1.04448446215186652
-1.04866905006504574
-0.986662131117879149
-0.846810222690741354
-0.682718676799036306
-0.720175368029322693
-0.717486386415239541
-0.671463673207840506
-0.584201066204892316
-0.485652844768904912
-0.505742680816031132
-0.498671740289506615
-0.465007169069774684
-0.407917785327347959
-0.357095793128121342
-0.360732019618486222
-0.349896340134197126
-0.323809465093146731
-0.283864998238075039
-0.268194734384600952
-0.263872263290760245
-0.261443574114668398
-0.255585874979102068
-0.242899771878912762
-0.221794983476844149
-0.192433241704001223
-0.201833144682286969
-0.191852860968002525
-0.183241407264915418
-0.173503147082154724
-0.160670443738814367
-0.14391872240418685
-0.123145598812068255
-0.136181679120409432
-0.124884920747062408
-0.114492137580406675
-0.104099733949139503
-0.0930000690971649197
-0.0807965720255232889
-0.0675129084164140802
-0.075319583398293144
-0.0644423922001109289
-0.0542016992487323532
-0.0447675664469897178
-0.036264784511872053
-0.0287960314961368709
-0.0224042519887033414
5.28338893791979292
3.29783596169631288
6.14290272550032057
3.26298299187017404
295.826534008787291
21.7365216485622881
20.3614446602028458
19.3436223675268089
11.1516801873823148
358.522205544863084
7.59351847319523099
7.28947171568070029
4.72036372728468567
2.67880748741134811
240.738500976276299
-1.97994429884105339
-3.97298761199902328
-2.7077544640018405
-0.615952727573902958
-0.492927314973295116
-1.98455743631583759
-3.07513119425228743
-2.83141282434409858
-1.84701807499348103
-1.76992602426247081
-2.14376760155973667
-2.3096745880014975
-2.08260918692739461
-1.64800920744829993
-1.38007999950719173
-1.50176624607574727
-1.55736209223524913
-1.39140220248456692
-1.15356105121382924
-0.937533592065514565
-0.959868342794413687
-0.964446781280132837
-0.910208685387687844
-0.782748456139383042
-0.638662696272175978
-0.671734347717313218
-0.668643327871753623
-0.626292816433574262
-0.543403489873557355
-0.461670931679857122
-0.478703972664298816
-0.47036970021318153
-0.437716142226567739
-0.382410310069135617
-0.348075614323322069
-0.348265091634099133
-0.335534842238571329
-0.30878478709067142
-0.268692102625045171
-0.27073524741642524
-0.263928681693463063
-0.258972929080945269
-0.250792291327596673
-0.236184354829763327
-0.214029522202130368
-0.184365136874171553
-0.204638542863667589
-0.193148240494649515
-0.182957548839782269
-0.171724355971026504
-0.157746291171665637
-0.140074566292505309
-0.118837202857259586
-0.137510217404837737
-0.125478678378455721
-0.114344667584230522
-0.103252832186225385
-0.0915686836099780799
-0.0789559847163485984
-0.065436255703957058
-0.0744220506449732727
-0.0634991711608623444
-0.053255351746321955
-0.0438444799199063165
-0.0353860379108775283
-0.0279784342328251202
-0.0216457757351803705
5.77390261401234195
3.19793823075025507
7.47376814139654666
2.89189406995960852
204.894189678798682
22.4080001725836482
14.3150931045782102
19.7365341138828576
5.7481613739724331
207.084963557788257
7.31470779166747498
6.73750132213889685
4.70831606961040805
3.10775822548860736
212.727880495003603
2.84768200282188255
-2.55969184855866549
-1.11071672158681056
1.12151052987623889
19.6726530501663674
-0.664428066332253153
-2.68534510009372474
-1.5957339869930669
-0.00185377280832969122
-0.0738385689431335507
-1.61618355686573523
-2.15641192887822175
-1.871999233562472
-0.838443712459296497
-1.32481969866940985
-1.5199190858269116
-1.52094100121456099
-1.30421995065716212
-1.09195921239885041
-0.796942578596773088
-0.864979859517593042
-0.896629591557108307
-0.855482113871827154
-0.739548725953922514
-0.602718325791106735
-0.635100227857046895
-0.632200793201083244
-0.593672589481865853
-0.513025764182870825
-0.447189212113435264
-0.46080310787247053
-0.451092636621590604
-0.417515334567625518
-0.36183220301840785
-0.344225490761412456
-0.34071062059175089
-0.325358976181056136
-0.296881067674889143
-0.255752201367027532
-0.276403299498261035
-0.267010257269092555
-0.259137171277615486
-0.248222994626251664
-0.231563404269001238
-0.207780413983372964
-0.17721391866655431
-0.209036794567871553
-0.195959091366086469
-0.184037322835607753
-0.171122672030116441
-0.155685548915632216
-0.136943325976456337
-0.114998542425218439
-0.139431164717021466
-0.126668937538835069
-0.114754939211626786
-0.102899193572553116
-0.0905446689284244155
-0.0774194130955075249
-0.0635632921174561494
-0.0733587911346830074
-0.0624876778083703413
-0.0523121282931284584
-0.042971874070681905
-0.0345762302688628689
-0.0272229887127126667
-0.0209389595875387503
5.43339769003037709
3.08000772795735767
4.15587606914926866
2.29091077937126508
435.872707114188586
14.8665753485519367
6.43831382276904574
4.55808894210190907
4.28651959811448346
295.064813121351335
20.3417556788415865
10.3156339861786215
5.90649349854174766
2.82067966142375548
222.822520020689723
-1.58042312132013651
-1.86499503327640626
1.88958990735013321
6.49344003697144512
1.02695460041538045
-1.15078223401424862
-2.83130804580406448
-0.782738580344629287
4.03884302898339786
-1.79982849310775461
-2.68851249596884667
-2.32280208603829808
-2.05848348164951878
-0.454148827963089419
-1.51978832068605185
-1.65664158943616302
-1.54902006915639756
-1.35192212481736118
-1.09086640941472002
-0.847356439475776102
-0.874306876920487364
-0.886433938580745373
-0.837897659290939067
-0.716685813110884196
-0.604387362352102442
-0.627300762591389782
-0.615753375107230494
-0.573274184544749321
-0.492362317832183038
-0.450333602378414077
-0.456157705117598233
-0.440477688021679636
-0.403223599142143452
-0.34595870573350479
-0.348073613603484489
-0.339542859997532531
-0.319990436049179539
-0.288456171110201609
-0.245391215902478588
-0.286938036088888349
-0.274510973686891424
-0.263079194883886092
-0.248800219856999766
-0.229281129155683161
-0.20336323229959033
-0.171380503776876775
-0.215454769798272799
-0.200659676705180867
-0.18680287415435573
-0.171966764077159301
-0.154822224173073369
-0.134738458735030986
-0.111890326029224177
-0.142062159023632756
-0.128577942279816643
-0.11584516660989097
-0.103160975829909671
-0.0900536140352340003
-0.0763171546085319036
-0.0620329810288549124
-0.0722817620665162641
-0.061549465822734635
-0.0514920198794704131
-0.0422427425650343108
-0.0339072948962185136
-0.0265928203950347858
-0.0203349104254460268
1.41390831223088997
1.40539019261319043
1.24691460338544324
1.21081811934076478
1.4379152453477182
1.2232308298426291
1.15523948604235316
1.95847769857725695
1.18430294669484892
0.979003802188467831
1.00620311081062508
2.16287640844185081
2.19257843107400507
1.92048725036351642
1.89916809058197522
2.82862930348374642
1.77787435926979631
1.748370368898986
3.05943625377579353
1.78785828726261098
1.37335035228571645
1.40278777761879114
1.46943024664534883
1.60718121286515481
1.35454227350048173
1.46611791792109503
1.25245993220658947
1.17026775398483007
1.71875792437545361
1.04284515374473075
0.85440377313314253
1.10090885633331625
1.47806979913178949
1.43043314707706237
1.42119418559231736
1.17376334218215717
1.27304640677937941
0.975366378618707341
1.0186047536682703
1.21014610929470523
1.11260670955415697
0.83530773514691492
0.983405237928912324
1.23135614953477912
1.40389679909623633
1.29629148673663552
1.22196788173255544
1.20654839012692339
1.39803122090200072
1.14468415516930766
1.1684095306263369
1.52007306269164477
0.978107792018120592
0.92129721258296049
1.04458224630611096
0.560019132359607097
0.721033386899923689
0.665773988963928587
0.70916345886569887
1.12288365649549071
0.746632803004770307
0.760831274557479897
2.28502817543936665
0.903133213676235336
0.66916831478246519
0.752816964162228541
-0.0597839183078388708
0.232180280706779318
0.193664866287978549
0.36065290769604097
0.581335170553422542
0.418471222561037026
0.514441365952482021
2.90486734767333799
0.675003202152042792
0.50000755717113432
0.580806116588295063
-0.181829022393839967
0.11225592866384039
0.124632741603999286
0.287153349172041994
0.328891393915187957
0.36083991805283705
0.468793637118949447
2.07500565435004836
0.49728325595669548
0.493386192676976476
0.57152255163172716
1.73433537788018288
0.96927464838347932
0.725752402093880922
0.765912372829205657
1.76422729052080185
0.892819112854822183
0.616799872768335034
0.653360846404099083
2.72818385214635928
1.68085657920637122
0.806304146866357541
0.498516329741151731
3.96388733661621329
3.16503558341034585
1.93657810442369605
0.973388793472774072
0.00875260801147428186
1.93936492759985368
1.72737130459207489
1.08309933219029486