/*--------------------------------*- C++ -*----------------------------------*\
| =========                 |                                                 |
| \\      /  F ield         | OpenFOAM: The Open Source CFD Toolbox           |
|  \\    /   O peration     | Version:  2206                                  |
|   \\  /    A nd           | Website:  www.openfoam.com                      |
|    \\/     M anipulation  |                                                 |
\*---------------------------------------------------------------------------*/
FoamFile
{
    version     2.0;
    format      ascii;
    arch        "LSB;label=32;scalar=64";
    class       volVectorField;
    location    "0.0599999999999999978";
    object      U;
}
// * * * * * * * * * * * * * * * * * * * * * * * * * * * * * * * * * * * * * //

dimensions      [0 1 -1 0 0 0 0];

internalField   nonuniform List<vector> 
7248
(
(-1.1390472468956212 -0.222422134977849795 -0.57275396867787487)
(-0.885363366582039513 -0.501581935568542359 -0.618297076746179952)
(-0.621069749876828281 0.123695222993547141 -0.112184001491847596)
(-0.092154556735604215 -0.0188969285358633887 -0.525806789362474269)
(-0.0988161884306657801 -0.611906587159607773 -0.017401518068987272)
(-0.0339940464722604946 0.202898728390350835 -0.286123597197214197)
(-0.120147306640094181 0.0336022589634416072 -0.222633207441131131)
(-0.288432935418640624 -0.289965970783632843 -0.146886514584327554)
(0.228127901787443799 -0.128740585410239528 -0.53887049083167593)
(0.121574445632395028 -0.652322213062011325 0.118981969309861185)
(0.557576725389868244 -0.319149820106054083 -0.377877373529661886)
(0.296065987142366704 0.344799109263245529 -0.204500502450047417)
(0.372885120913668988 0.268032358487043265 -0.336676507562846172)
(0.362276749190849401 0.115371338670458984 -0.600441546560024464)
(0.567550026918119732 -0.702661710380284799 0.125099843406405065)
(0.923179541741035337 -0.970762474005654519 0.332287995425889771)
(1.56923375327603831 0.132420891903467119 -0.482123865564033305)
(1.3131356917362853 0.25687191692818323 -0.453892277252575416)
(1.30396391627814756 0.299821261773755399 -0.581971087823944133)
(0.957139220440753058 -1.21158519500061157 1.12688736158193858)
(-0.181855971664508231 -0.734720363058375292 0.650977105502655196)
(-0.961711456355472172 0.381056534591132756 0.268475767497633577)
(0.174712396282420523 0.65548152309072083 -0.0771943726783200224)
(0.434901518534822062 0.601015475895039786 -0.177990700250248796)
(0.225955103143462427 -0.978590388905055897 -0.227676149218299068)
(-0.815923906891794948 -0.129250735697628988 -0.354316838181313432)
(-0.997642634409989348 0.122664417317423363 -0.159468612118702419)
(-0.712922632772123421 0.0679169757723706025 -0.0542188759150569188)
(-0.473344270613590301 0.248595736592838068 -0.0279163123884560577)
(-0.749353133700739082 -0.0945378506832103838 -0.396569261589581668)
(-0.972694942348726777 -0.419802130700696163 -0.329463022045078935)
(-0.930928008436537002 -0.206338699228075934 -0.0954991599923202955)
(-0.75136859309844839 -0.0551391339233414657 0.018293156626998798)
(-0.661407839197272196 -0.00693515234870026309 0.0297097471203270382)
(-0.764244736319853457 -0.549888696497124352 -0.443743926439406577)
(-0.651795701113999093 -0.463078413043780779 -0.175396492486952993)
(-0.706459892033534764 -0.261415940598922703 -0.0369196784779974724)
(-0.635891759319405447 -0.135810697818498277 0.00370317307766314732)
(-0.611770571676436448 -0.00920643503741355729 0.0342435300900835043)
(-0.478918119467766801 -0.459275266135882154 -0.199178036563332189)
(-0.451914297854977332 -0.36230480084112382 -0.0744544693254686057)
(-0.495047425744277625 -0.230533130487783344 -0.0447841536806959234)
(-0.485543290462334354 -0.124860454107947674 -0.0160372869778608249)
(-0.468347679381576509 -0.0248318638591771834 0.00806258564687621637)
(-0.321287126260598854 -0.356143712982767924 -0.083983593681499713)
(-0.346246511784983502 -0.283541630293024149 -0.0516732887522967851)
(-0.360076957916679041 -0.199209969832293388 -0.0302242713031755893)
(-0.362147132463714216 -0.119839266662504162 -0.0146854026733321055)
(-0.349024557071847152 -0.0422619501974873316 -0.00199439152671899121)
(-0.236083622091101258 -0.294649919310926212 -0.0516276485286740333)
(-0.257735740050564932 -0.239539318214171959 -0.0376821218954997775)
(-0.268378649108439782 -0.177732832845641731 -0.0247086821569419864)
(-0.268953695381193514 -0.114969730646120177 -0.0139761335086181354)
(-0.260116675931340524 -0.0548720751724326855 -0.00553073919711979858)
(-0.129858265865075873 -0.326142623154221378 -0.052202159106461303)
(-0.15272757228786818 -0.296076268870231252 -0.044164943003081332)
(-0.172350195961977204 -0.257458875268409548 -0.0355257794049622377)
(-0.186346430132658558 -0.212364014259300682 -0.0269131725416153454)
(-0.193915327826990169 -0.16350013758714993 -0.0189095634344635839)
(-0.194683929570201641 -0.113228879973933619 -0.0119028075120070024)
(-0.18894622421392604 -0.0641304915927511654 -0.00609806344379158847)
(-0.0942783223578498586 -0.298035447819534283 -0.0346051881103094094)
(-0.107811538564304962 -0.268866106428746088 -0.0292900113318522899)
(-0.119389895465599638 -0.234677250235111212 -0.0237673531602541517)
(-0.127826933413652033 -0.196303696110182668 -0.0183555779030950481)
(-0.13227136834359729 -0.154988221674643017 -0.0132879319908657065)
(-0.132530335008487932 -0.112435861853270286 -0.00876315952167729117)
(-0.128840300114835021 -0.0705070331095934699 -0.0048987894407171587)
(-0.0585959155385773409 -0.28237069411957233 -0.0207368867054834698)
(-0.0662312279565200196 -0.254353527164530191 -0.0175443554334706389)
(-0.0724187875707517636 -0.222748722380250841 -0.0142444585363097516)
(-0.0766823869956756027 -0.188100210961117426 -0.0110103031609282628)
(-0.0786279156960478787 -0.151120622950731365 -0.00800896316753891419)
(-0.0781991042974269496 -0.112897738662098263 -0.00533848864479285687)
(-0.0756510686216883554 -0.0748454363393698252 -0.00307532053358002683)
(-0.0215016688218706079 -0.269901990618037879 -0.0082231346519184411)
(-0.0243704493056290453 -0.244173670726296754 -0.00701358547458894727)
(-0.0265150930519932881 -0.215734131891990977 -0.00572445331810396939)
(-0.0276901983876308329 -0.184482756835858519 -0.00441665057357439397)
(-0.027826965648740494 -0.150823203821880192 -0.00316871658989344076)
(-0.0270141055231399446 -0.115469685453771176 -0.00207115966839437364)
(-0.025508566150016336 -0.079503274808690988 -0.00117366238340891986)
(-0.716054468138864864 0.0994757254889422765 -0.507056204091934193)
(-0.70770498491192535 0.137525878073499003 -0.71656581070147285)
(-0.302433395480616818 0.176236933050269717 -0.341487047760188012)
(-0.190890521771679561 0.802596822977497903 -0.771774119019401628)
(-0.0330390066436909158 -0.668701120406305693 0.231755740863299642)
(0.132548615620367183 0.604078537126065185 0.0756705536132374207)
(-0.3028759310343625 0.443618211518763073 -0.156711496269612671)
(0.321732069328123815 -0.392821389809997701 -0.221504068437210433)
(0.283170021566856389 0.396424896696574991 -0.635852452979269844)
(0.349415732808581736 -0.614906425766647446 0.0501631414379356336)
(0.503532246942139494 -0.260470194893965279 -0.105900704129845064)
(1.06320088798552792 0.122701712662386053 -0.103980577670955532)
(0.556354542551757314 0.0741466039510863262 -0.300395990758902831)
(0.427729741132992947 0.335491760130801453 -0.59706540273674924)
(0.497003768950457114 -0.630754212472812159 -0.0160700702909545717)
(0.734191264720570391 -0.674362049470120795 -0.0359712789866212662)
(1.15096605306806543 -0.447605400605723347 -0.534647707214009116)
(1.25919023982866007 0.0271448712141302562 -0.748804277536855079)
(1.40982112205257626 0.358264405742832803 -0.814599761478469797)
(0.639836337600930061 0.44346623077960845 0.933769998835406789)
(-0.393023600549203489 -1.32698851148708008 0.120716790694421316)
(-0.659901507374494822 -0.0536456610260678812 -0.0232346659676272438)
(0.0919796828611146866 0.335130964963521571 -0.380346914433290162)
(0.714930738119145204 0.57429252230392458 -0.467973678078475674)
(-0.150772607984819146 -0.248514926026925764 -0.283664378004883144)
(-0.635450161356725496 -0.421704182262192973 -0.418418653614556102)
(-0.680103939981720917 -0.147965910590982713 -0.442081710804160477)
(-0.51246917918156254 -0.188189375574507378 -0.230664602061245977)
(-0.341542032223414671 0.20644189688068379 -0.12740847032668956)
(-0.226284209812415649 0.760182961489435538 -0.47695598822103058)
(-0.849971322735971757 -0.403278266835687516 -0.329486379896892945)
(-0.771952080194946655 -0.208362951027708243 -0.163661480866944986)
(-0.707889367529770608 -0.151802549701993639 -0.00668859100679487784)
(-0.668819101694524298 -0.00588963065278316766 0.0077257226459162831)
(-0.663049351599776404 -0.304304295617593923 -0.2815634307754461)
(-0.553012240171209091 -0.421053385751811449 -0.155311992177299629)
(-0.663801159036912281 -0.221056004918683602 -0.0795250399297286054)
(-0.609169982347834593 -0.132500508823413465 -0.00749239839703531169)
(-0.605241815843527209 -0.0148533207122491517 0.0137907734003962779)
(-0.397828829452111787 -0.384528920002837615 -0.163827542355718947)
(-0.421595659184397231 -0.33636071134112222 -0.0969243362094133615)
(-0.464105022918792465 -0.222478490866833217 -0.0549740341735234783)
(-0.465798408761904259 -0.127288937975256894 -0.0244966785071993043)
(-0.456133821362244118 -0.0314850930962184972 -0.0037750812454747807)
(-0.298327533017583524 -0.32134656101640835 -0.0902790887663966757)
(-0.325887047037739241 -0.267372333428478326 -0.0628095891067720208)
(-0.343543679289559423 -0.194264123213050255 -0.0386431960946700959)
(-0.348824444165535708 -0.120262141307059311 -0.0220500251112035646)
(-0.339011955999557246 -0.0456457392517315291 -0.00887064176565400576)
(-0.223244235841821625 -0.27952266498772893 -0.0585011081199053387)
(-0.244950011295600734 -0.229816910423493809 -0.0433352500120703504)
(-0.257463262384072966 -0.173189525220114271 -0.0297104354619613306)
(-0.259894886751614596 -0.113904584278197746 -0.0183476343454971116)
(-0.252882814093964736 -0.0559643591689875028 -0.00915707026097269117)
(-0.164281913988576306 -0.247531253254927253 -0.0388359495494631016)
(-0.178601793842962181 -0.205630037678133482 -0.0299370749382026069)
(-0.186894144629945913 -0.159454774983136122 -0.0215768875669938159)
(-0.1886218133480565 -0.111344883527592226 -0.0142089635667487588)
(-0.184009598327700669 -0.0639151941488537989 -0.00798265284522642858)
(-0.114389088950897055 -0.227641556185435301 -0.0255174217863172043)
(-0.122957627310053816 -0.190977941403868451 -0.0198897877066944589)
(-0.127827396080237188 -0.151374065574433725 -0.0146399535460914089)
(-0.128661217396140337 -0.110324756728017365 -0.00994185108144899493)
(-0.125631961272861636 -0.069653302916883153 -0.00590602059708248903)
(-0.0693793013190004415 -0.217216584328592865 -0.0150577327874398884)
(-0.0737619426509488058 -0.183665562731339049 -0.0117183902567310205)
(-0.0759846696597019783 -0.147838011118197804 -0.00863221555582641131)
(-0.0759321014399133437 -0.110744639786349033 -0.00589904123348067733)
(-0.0737926507722977548 -0.0737054766209404993 -0.00357175312172640542)
(-0.0251573312008262148 -0.211054458680473067 -0.00597094721018378606)
(-0.0264051794983333754 -0.18058414039404308 -0.00461151510146966433)
(-0.0266824273645912304 -0.1476599246968818 -0.0033366287908066475)
(-0.026064354174179169 -0.113131431652171821 -0.00222395616146092668)
(-0.0247669514537297263 -0.0780320109483931962 -0.0013156714713151974)
(0.222061540891808712 0.537976530023074884 -0.451335065291823545)
(0.0650819662800324189 2.42498236995073757 -0.946535527579788871)
(0.294304186495022602 0.232494517597677558 0.0370340865388599783)
(0.163673601951863146 2.22741436650313496 -0.851297066695501203)
(0.105047923043479943 -0.703169019776253457 0.100319091594426757)
(0.177439350315472089 0.04146083471896779 -0.0689988742009911421)
(-0.06404190844758606 0.0751891355613398815 -0.336058629124698249)
(0.0736841623801003098 0.0162540343337078119 -0.0886841581038285837)
(0.197396917562206731 1.57061872437745365 -0.52409294354492808)
(0.214426080043734674 -0.777865468096281654 -0.0264345440465861767)
(0.897449811749196691 -0.524180706357312842 -0.0258588723149228289)
(0.332545394414579976 -0.460750510866302587 -0.500080917507413125)
(0.62015318024878896 -0.0976881917350821832 -0.594757410439504142)
(0.345463147453884067 0.84520684649288258 -0.583443698748340012)
(0.565489713128406013 -0.623682850617248596 0.00741163803997262061)
(0.98575788342074766 -0.592331522198489169 0.0805697245521198036)
(1.60907958027775955 -0.37508354980920855 -0.578150346137146331)
(0.675202415797891087 0.0645324019980439839 -0.906570758149368161)
(1.29541740487408408 0.552524144724456767 -1.09139634972126798)
(0.262671670236821031 -2.73050459511939092 0.613617906092963961)
(-0.268572352419575389 0.362343037286578074 0.596914362503377038)
(-0.347824794687719541 -0.483962553681729024 -0.179787472252774305)
(-0.0326666593184599535 0.173953432074307301 -0.649537346672618754)
(0.721483064849659295 0.539948460992750734 -0.83810342747987876)
(-0.208977654599242196 -0.39282192785606912 0.142890860641052553)
(-0.736622927109161663 -1.11876161315275557 0.0543748839198526235)
(-0.454958359476240692 -0.598057082576040955 -0.542715620533757992)
(-0.501539701920971415 -0.327106915727058079 -0.165383700416669832)
(-0.241282387163079814 0.0662203432162193351 -0.322201603357996857)
(-0.785360018918980218 0.37761244209925976 -0.0563887181734256254)
(-0.38243219988647098 -0.545596537725764774 0.109906022748704743)
(-0.638254822851658354 -0.345112564226154328 -0.301876475852114134)
(-0.649488906401234245 -0.289595327232450184 -0.0654470936262433189)
(-0.636960398592063881 -0.117754153380585175 -0.0623575022997197095)
(-0.552824850227014553 -0.34759712293236622 -0.219716518769015406)
(-0.460576070809255278 -0.338185890734119421 -0.13504855275746569)
(-0.56033433430820867 -0.211274572353064183 -0.0977236851933868805)
(-0.581435019950257814 -0.121471044076948753 -0.0315855300224310229)
(-0.586466556077314793 -0.0194395721243769137 -0.00463234038624480565)
(-0.372201905513209752 -0.340493008106435791 -0.152373438714954651)
(-0.394072533356603139 -0.31018819795117869 -0.099204400051391986)
(-0.430755066490669636 -0.215966525184283997 -0.0558472962617246604)
(-0.445226510536366082 -0.128951461158862885 -0.032996533057187423)
(-0.43873782687192564 -0.0360612195138005423 -0.0135715404657484051)
(-0.277877665706490362 -0.298454483725103414 -0.0923436361574675596)
(-0.305799953705798822 -0.252081767748163821 -0.0661140486152669155)
(-0.327540752800930035 -0.188608450399011696 -0.0433131259329580659)
(-0.335551779218721591 -0.117975619393672765 -0.0273558557763785952)
(-0.328043735858641383 -0.0470289245232432124 -0.0143557218922933053)
(-0.210181560441912468 -0.263611477296228025 -0.0597697609883295275)
(-0.232174970549699294 -0.219156227863630898 -0.0454072131747750504)
(-0.246432953642656327 -0.167362985434787781 -0.0323884256835367534)
(-0.250893291289524145 -0.111434890144650051 -0.0214810097461978385)
(-0.245505398586946921 -0.055689318795566517 -0.0123199611144781691)
(-0.156270619341600969 -0.23705453303143198 -0.0395179150433734028)
(-0.170791949642181307 -0.198066778158690254 -0.0308690911000226026)
(-0.179841052361221554 -0.154561233385274749 -0.0228104390697388276)
(-0.182563108897259602 -0.10863663279107505 -0.0156649209993867319)
(-0.17899274580487784 -0.0629538680540313172 -0.00954157003461865091)
(-0.109369068736786534 -0.220225506094846368 -0.0256237359471159533)
(-0.118117210920079957 -0.185252416915558077 -0.0201479600647246349)
(-0.12343128305488911 -0.147319743623759103 -0.0150991174950580332)
(-0.124832870930724649 -0.107770071424472674 -0.0105626128555088555)
(-0.122417193681253811 -0.0683762425713514144 -0.00664108540352751579)
(-0.0662932547856707466 -0.211400068283635001 -0.0149506483260172171)
(-0.0708969547381993609 -0.179070000986101263 -0.0117370218797025888)
(-0.0734055740101596244 -0.144352380059907998 -0.00877870881315957058)
(-0.0737032034747418657 -0.108353845819278427 -0.00614441778395354282)
(-0.0719377800625395775 -0.0723169395916577473 -0.00388682971360461427)
(-0.0237868115421138032 -0.206404912467724494 -0.00585399630589404987)
(-0.02512506408024082 -0.1765028413595367 -0.00453105152144009978)
(-0.0255703591473262111 -0.144313280635900487 -0.0033114168697976681)
(-0.0251495337065743459 -0.110643501116869117 -0.00225607260192945856)
(-0.024047257829574703 -0.0764330297710826834 -0.00138583352718683536)
(0.198037123558344519 0.73092592298745851 -0.46472226624706503)
(0.125793810053986099 2.84869108597717924 -0.983396941805484759)
(0.0710118212410795896 0.111994068840286176 0.180861238496696636)
(0.197498936835506789 2.55412417482850662 -0.820370177063884154)
(0.0923539942627214089 -0.78702335659969247 -0.00980229495367679338)
(0.430891151341201539 -0.344679880249712856 0.134054394609392336)
(0.0698416934829521607 -0.0449933410168472381 -0.180847889196997819)
(-0.893876890440324035 0.242589105292091933 0.073834015636585093)
(0.133349558983569705 2.13735770264164815 -0.596186193295036748)
(0.280451814626494045 -0.696484461637904451 -0.0249644844449750727)
(0.484002204950009007 -0.589404402114120707 -0.110151386167820664)
(0.153051701300567833 -0.22237324116685786 -0.256593906927050364)
(-0.157140915429717309 0.445193529869390037 -0.571809822908053822)
(0.447236882491578447 1.2256577150331065 -0.480108480150248207)
(0.50059715944488381 -0.655147183948856071 -0.0271557293731879458)
(0.658318743335262968 -0.908423581560358184 0.0311306859056192792)
(0.676417010515871886 -0.323604689455670558 -0.357915623754221091)
(0.273673775071759329 0.408413680555337555 -0.924153642493897198)
(1.38482566025602694 0.656840314959699634 -1.11440214814567051)
(-0.0246091195603521835 -1.12110176944777318 0.627863481777301891)
(-0.669664997961885056 -1.06479771563461423 0.625156563465945725)
(-0.480360410233165003 -0.438734729375003296 -0.372259799800322699)
(-0.329722334859399724 0.247139786454179555 -0.686135844345742707)
(0.147404743852594944 0.428430016729069441 -0.729518490254284946)
(-0.257574856283677489 0.0178546154519218687 -0.199024707253330185)
(-0.874735810198698061 -0.983155618657891694 0.406081970862879449)
(-0.810226958447677448 -0.708608112963537207 -0.632644846424836427)
(-0.836397974621323925 -0.213556614438014936 -0.187553327836051859)
(-0.619743535996095551 0.00334227718723556499 -0.313419150328722085)
(-0.353996786400313068 0.694658065061873442 -0.46230917268040711)
(-0.154915828991133708 -0.251664965591861578 -0.538598962259731695)
(-0.458291704279887024 -0.628395402298835393 -0.288815662527080907)
(-0.691136367365844606 -0.334210684232886912 -0.0544604349010463784)
(-0.681947459025377567 -0.125346421891262216 -0.0936267335639509035)
(-0.597945582991835312 0.0501554276246598818 -0.205420245802930335)
(-0.394317403515215825 -0.224444197395402029 -0.144371582593777859)
(-0.467171883858946146 -0.218823803426212882 -0.0484316147691230409)
(-0.567347744706210966 -0.125756488589929077 -0.0356531777409651238)
(-0.561276786090648461 -0.0243453881514916065 -0.0328765723937289867)
(-0.339934388610414751 -0.29640995917900248 -0.123360639704001296)
(-0.355759045124778905 -0.267535253891615588 -0.0736182675302503725)
(-0.408133740392566169 -0.210241105503382986 -0.0444532438555547069)
(-0.429985698817208939 -0.126467126685250175 -0.0392816180476946025)
(-0.420631244722806774 -0.0368524529112002758 -0.0259687428487787447)
(-0.256001839319305202 -0.272757279778222228 -0.0842863342273901667)
(-0.285720876221600584 -0.237993389310849818 -0.0625041192094232395)
(-0.312470616448936478 -0.182913852576147923 -0.0448965440557502482)
(-0.32359747544044587 -0.114461130094623525 -0.032750874787322401)
(-0.317456320923925894 -0.0460024539367881041 -0.0203119588829283673)
(-0.198202514460283141 -0.248240546825536618 -0.0565327660821123568)
(-0.220563931121058709 -0.208793148478452595 -0.0443102215911469685)
(-0.236483670615665109 -0.161121649313395371 -0.0333312330382008679)
(-0.242453845910501981 -0.107714193564690225 -0.0238148946196739611)
(-0.238237091956639224 -0.0541079053391770939 -0.0150837146081065961)
(-0.149091390317395434 -0.226892495760124491 -0.0375766994461496917)
(-0.163756481429207679 -0.190463618467643814 -0.0299684376369337632)
(-0.173415329479843616 -0.149265342609762819 -0.0228304409586854579)
(-0.176862176182356279 -0.105222405766262211 -0.0163364480041410486)
(-0.174071789320266179 -0.0612150453671350819 -0.0105463518963992316)
(-0.104736382445294901 -0.21283376885790245 -0.0241261395708973342)
(-0.113726309206743176 -0.179525397622002147 -0.0192785770612073463)
(-0.119394698695381746 -0.143083027778002886 -0.0147391391985371052)
(-0.121218121741269294 -0.104896739314350673 -0.010588819190857586)
(-0.119290793691756061 -0.0667305067211462349 -0.006921196585277096)
(-0.063430298386930456 -0.205628308217515904 -0.0139484711339769394)
(-0.068237979968469073 -0.174439876495136675 -0.0110770206792208184)
(-0.0710243497139207286 -0.140826965462924142 -0.00841502090118923657)
(-0.071609251232396226 -0.105848857875146751 -0.0060092326259027903)
(-0.0701566187617994469 -0.0707658519670018304 -0.00391720447520106912)
(-0.0225379161444610246 -0.201682453207115892 -0.00534430265292625082)
(-0.0239614194690798456 -0.17242746789613056 -0.00417208878923574101)
(-0.0245583851596771451 -0.141013551936863657 -0.00309240746075804254)
(-0.0243094581286605188 -0.108185845129037866 -0.00215072345945872215)
(-0.0233756077924912875 -0.0748031012859416283 -0.00136053093062517608)
(0.390247764396785046 0.845909596412014686 -0.244298539331197551)
(0.256384199562474435 2.9632011427870224 -0.916386912822958255)
(0.107169224067113433 0.372812196228739068 0.0628423595074270314)
(0.177256403374468213 2.65024874528353838 -0.757615822562884289)
(0.0446501368274268631 -0.692548852196666065 -0.0942837557052650377)
(0.249327068555982412 0.736606830521948086 0.346495241410113064)
(-0.408911655531872975 0.507637328856675896 0.383942276367730928)
(-0.389103483731669975 0.919301552365432428 -0.208788117367137482)
(0.15225822911557485 2.05308380614463326 -0.630399201898635853)
(0.181394741954772398 -0.641209745967928346 -0.0188649532471446557)
(0.462303397099229907 -0.0789029247079980067 0.238897296390940289)
(0.305132382386088252 0.549978413927917464 0.334763584455503138)
(0.00639900479406495248 0.715099346181383155 -0.545878500324680993)
(0.389499223830934826 1.24187731272390023 -0.525442666229379296)
(0.470779855666748515 -0.493045298520712216 0.132949999720597456)
(0.678403273954254038 -0.575743040999978084 0.358220450574052773)
(0.739799618231261613 0.139736218495038034 -0.29215574972918823)
(0.278984169319946573 0.544897043933339376 -0.932791067941267871)
(0.191519074216962876 0.753723575336676777 -1.00297185016629009)
(0.235452764426935801 -1.44527629823445247 0.902432483496812821)
(-0.458494941065605899 -0.0392337447991420313 0.373928405960856691)
(-0.0763332455011537098 -0.0527309761317053191 -0.50542110936044804)
(-0.373203953488459583 0.487807415265823274 -0.760230356469320023)
(-0.539709787780426886 0.528083742174884518 -0.922710941151832609)
(-0.316218254851175218 0.642332354007120188 0.213041422555697024)
(-1.1767952649552893 -0.777995637097141257 -0.0916187572665828065)
(-1.13931839319508277 -0.54724739971477776 -0.341741122635165206)
(-1.20448463874431666 0.219870436122852037 -0.185814066055466187)
(-0.8202271153597116 0.217771255752984616 -0.34497033820453632)
(-0.175065567852234982 0.133916257083616541 -0.367566161776023581)
(-0.356795448131793203 -0.286136686451521738 -0.709571468550692086)
(-0.712882445836108269 -0.827635794074212616 -0.516303427549681837)
(-0.914236446109064405 -0.255656306288330581 -0.0440853647375944596)
(-0.70848901088289673 -0.037073920391953577 -0.103562181366481237)
(-0.342308761798956862 -0.298736882425926886 -0.105079748977538065)
(-0.314722612496317944 -0.52662592460413149 -0.0839842278183991903)
(-0.499544768735867895 -0.449561742366949679 -0.106503317277126142)
(-0.606269458397544314 -0.140577677649218913 -0.0552139175732623694)
(-0.538852807702754233 -0.0161582011291545244 -0.0754033639532295796)
(-0.286837025572022231 -0.290837014966637053 -0.0865969917094767672)
(-0.334427571901353748 -0.281081992298763295 -0.063312768584947221)
(-0.399971205274676889 -0.239344505911335104 -0.0512581068679405644)
(-0.430873215164311929 -0.115008912218887871 -0.0555556935076237518)
(-0.408274882802891037 -0.0282338082179534808 -0.0425363987712157193)
(-0.236835747360599064 -0.26898814837436269 -0.0749242264313063483)
(-0.271092391146507294 -0.237625982644617928 -0.0613010510113809054)
(-0.30260894348984263 -0.184860422152837489 -0.0492289944074553384)
(-0.315030006320555833 -0.109052274691159801 -0.0389519285400206083)
(-0.307737500364420324 -0.0408648169910370979 -0.0267943477241653072)
(-0.188571536845039772 -0.236410796564697018 -0.0508776710324024342)
(-0.211579233756798629 -0.200416362811531745 -0.0419464805022041892)
(-0.228476228420379013 -0.154823051509926729 -0.0333819073528938068)
(-0.234971014455483185 -0.1021805469654955 -0.0251415790054310244)
(-0.231278996413707222 -0.0505457761052646587 -0.0169707647540083585)
(-0.142900505146100143 -0.217620273165713529 -0.0333184473959981312)
(-0.157823615528113192 -0.183201916251807095 -0.0273301203858675491)
(-0.167921094694312961 -0.143709971279001703 -0.0214806746062151735)
(-0.171804988478834325 -0.101116441446908845 -0.0158847337825774801)
(-0.16949305949051896 -0.058653284588733659 -0.0106905503435928487)
(-0.100651000250199074 -0.20593066871481247 -0.0211155735092754884)
(-0.109878731027586662 -0.173999811197574461 -0.0171428119024498345)
(-0.115858159933559357 -0.138855965740276227 -0.0133514934738552127)
(-0.118020185358974794 -0.101875449096543419 -0.00980233651474514064)
(-0.116446910375849588 -0.0648216136112673424 -0.00659714271144753919)
(-0.0609203005137300066 -0.200251469670994775 -0.0120737899931025912)
(-0.0659163953127666069 -0.170087064902277596 -0.00968835851782840277)
(-0.0689254634356343959 -0.137459734007524398 -0.00745256072698833108)
(-0.0697610237708081449 -0.103419763157455644 -0.00540941764841353437)
(-0.0685633041341647265 -0.069186491736813488 -0.00360943627111861426)
(-0.0214879768610735933 -0.197137174405660864 -0.00451188755491690064)
(-0.0229906382238469521 -0.168620914149259338 -0.00355883881339170115)
(-0.0237018852966097184 -0.137975524085514972 -0.00267841746024620984)
(-0.0235838575003036524 -0.105919694526536004 -0.00189484827164744301)
(-0.0227862983384658283 -0.0732543453524951149 -0.00122553348759850216)
(0.129768903485869724 0.778033612480041548 -0.0647455138882352677)
(0.20068444428486143 2.98141736129737023 -0.831579961188548045)
(-0.0545722225860741372 0.798952727974793997 -0.227357770761796224)
(-0.00762588844434515523 2.30125593666941786 -0.653705202006149344)
(0.0949780228882555339 -0.673443250796648685 -0.0533674044590488478)
(0.146838482383147229 0.304744081107277853 0.0672810499476338975)
(0.0819357521021270019 0.412395054541256079 0.401179722627037938)
(-0.205925428049847814 0.848628698963825645 -0.295426267154279831)
(-0.038229556966627623 1.63297909415246112 -0.407666709163760799)
(0.15263930858710234 -0.548036325985646666 -0.00791176411734750146)
(0.311507573083649014 -0.0737073809950137965 0.325452303957469158)
(0.705971792085086092 0.520145134337489989 0.339823243516451545)
(0.161138572293946264 0.442899718107096552 -0.287765656392381663)
(0.355792707736769021 0.88043670469945301 -0.403495302979416159)
(0.602601536399961502 -0.627087768210183416 0.0645281453487487611)
(0.686867149509420072 -0.650994372510661612 0.185967103744632517)
(0.881234307308564113 -0.0879136872636640671 0.291735936553561337)
(0.5003529983144126 0.336471510616271396 -0.526406351755867141)
(0.0742701314886369951 0.631081951767463512 -0.677354488469696703)
(0.784791440894225145 0.354238175611700679 1.21960473447692186)
(0.553911810994317189 0.617487087293423387 0.870725060354272218)
(0.815523545796211669 0.137603076400693164 0.192170740533722101)
(-0.0677090914109152453 0.482818269540253975 -0.247582147108782485)
(-0.341787405813462175 0.559943597226027046 -0.545098974341002962)
(-0.327450167351831189 1.34115366835623906 0.73926434697493737)
(-0.7889745609962866 -0.00982653587088716529 0.983072748982943057)
(-0.782591662367382201 0.000960162889441090739 0.504045747207230055)
(-0.905496949643199378 0.302937752763866863 -0.0131785562308526644)
(-0.603297486426422669 0.41332639809932048 -0.313148608998532363)
(0.0751441678669783203 -0.229009492237649687 0.0618682483309457437)
(-0.426136351108953815 -0.430233061074415835 0.088532197419671721)
(-0.890595609246772613 -0.435471951015585668 0.00544840029030488338)
(-0.996923683824715301 -0.0820062314830823647 -0.175687870029783533)
(-0.668819728746326003 0.166563156376660304 -0.186997477882416163)
(-0.225956233027620912 -0.341307111273942032 -0.112928411055195826)
(-0.165423955281580132 -0.622169418107130445 -0.0694807092531166126)
(-0.526494475606107848 -0.493315742946907387 -0.128971106019519971)
(-0.59120602425712554 -0.122612700756198928 -0.148971382202251451)
(-0.516033281662360288 0.0265260165343990245 -0.10664471564757981)
(-0.260614415932316212 -0.290567702544916429 -0.117955178577506287)
(-0.321789902111113524 -0.286222290238655142 -0.115763705669218342)
(-0.392483106552806216 -0.248739584002349468 -0.0975991066795956902)
(-0.419445076099533909 -0.0921925469256441865 -0.0796704819950704302)
(-0.392679234713747105 -0.00128232994717084742 -0.0569627406383036716)
(-0.226576796961730387 -0.25278825276779493 -0.0692806865152607171)
(-0.262196776981044211 -0.226111610802397445 -0.0662329870631802597)
(-0.293128655290414764 -0.173480708714186305 -0.0568554225050517809)
(-0.305498133182416198 -0.0937819792142297604 -0.0435903504713706577)
(-0.297416760806107849 -0.0285614739264821102 -0.0301989467097126332)