/*--------------------------------*- C++ -*----------------------------------*\
| =========                 |                                                 |
| \\      /  F ield         | OpenFOAM: The Open Source CFD Toolbox           |
|  \\    /   O peration     | Version:  2206                                  |
|   \\  /    A nd           | Website:  www.openfoam.com                      |
|    \\/     M anipulation  |                                                 |
\*---------------------------------------------------------------------------*/
FoamFile
{
    version     2.0;
    format      ascii;
    arch        "LSB;label=32;scalar=64";
    class       volScalarField;
    location    "0.300000000000000044";
    object      alpha.water;
}
// * * * * * * * * * * * * * * * * * * * * * * * * * * * * * * * * * * * * * //

dimensions      [0 0 0 0 0 0 0];

internalField   nonuniform List<scalar> 
7236
(
0.177395626006614404
0.245884388124636921
0.330610918869939652
0.386791161839813824
0.443809100717394656
0.453283115205270148
0.414293864947588686
0.531161090817566128
0.66075767691954157
0.63082261496632519
0.62482059040295268
0.612196362493793167
0.733442047903511196
0.653908120587223918
0.590124415372714095
0.559071546258659735
0.528959660670704546
0.490814800054779066
0.441122861166614921
0.422021109728107358
0.381727877842255703
0.338635308240638033
0.29988407664925687
0.259902663254272248
0.233796385927931616
0.199327991997031218
0.180706125926961031
0.154212718099441815
0.104712965606662267
0.0715011268260462018
0.0785204488194169437
0.0583197159179076052
0.0392837039181502951
0.0331110301224949929
0.0159738973435227805
0.0292501153712563904
0.0267170895534298569
0.0189060668007185601
0.0102966677380044291
0.00341206554481799859
0.00945191002722899597
0.0139184340824079298
0.0165233452511705167
0.018177783373210004
0.0195516674892436404
0.0195650212633467803
0.0205469878719914748
0.021601816207610907
0.0219286835111752246
0.0201472059841853457
0.0196170149473420471
0.0176566280552564354
0.0135042972838124546
0.00850507496856872484
0.00700284446616146385
0.00546784046187488021
0.00596295973576542633
0.00674094238738596509
0.00696446127619595404
0.0074662051344666679
0.00636126886734368277
0.00571807104756079376
0.00494860332303224178
0.00444193076330829609
0.00331926585461990095
0.00304358868802400914
0.00405475850670598652
0.00484055941955071657
0.00617038529837547582
0.00528238769985015216
0.00598152067265529316
0.00643313976725651618
0.005724585176168283
0.00465553906877816046
0.00394905388376344015
0.0160794319866923961
-1.59530928359495376e-05
-0.000499032366855408304
0.00163966658826194015
0.00194881414493852092
0.00257604590017968937
0.00438763277469271778
0.00557348516360212012
0.00672544057264284206
0.0062640396941979256
0.00555772506932879565
0.00501068974289795108
0.00458072266703636165
0.00393928395174375674
0.00332623783600258932
0.00319447585817678441
0.00282369904328729718
0.00279946818198906081
0.00263219902573344532
0.00231590751822767504
0.00201375280384022328
0.00181166858327693869
0.00150431889094079763
0.00127086995371068073
0.000908318084815897659
0.000879771036908236236
0.000803688044819249
0.000688659335914272846
0.000566242069455381554
0.000482966746509332469
0.000394708065181489562
0.000243410360116104934
0.00019054118530101988
0.000163478846688007434
0.000132014308346292632
0.000111728723854686462
0.000367376690494592264
0.00138182819450942168
0.0081407776978251311
-0.000226926775033433741
-0.000555827748463062201
-0.000125620486982432115
-2.48845840600372736e-05
0.000110889303864337421
0.000596030298839566371
0.00131349055799362727
0.00164425123115029184
0.00143561037339190586
0.00121173756153131304
0.00110943111411811982
0.00111550343123950212
0.00114371300263389698
0.00116671241722165293
0.0011734929117888167
0.00118212956099064855
0.00110921704199692071
0.00103473333802211261
0.000925563588863092092
0.000788181704945672794
0.000695112793972753979
0.000617639939156700555
0.000536622621434986206
0.000462660980407390409
0.000456316702089318662
0.000454215793834339627
0.000410059983164726659
0.000353898305635540428
0.000316224382396408416
0.0002831616562615607
0.000242024047381447506
0.000185033476546554796
0.000165154950919008071
0.000124215189068729425
6.55192258386244744e-05
0.000129084957245389277
0.000413034105675611602
0.00498954246215568397
4.57338504790438405e-08
9.64984214248721897e-08
5.74748727773226542e-07
2.56949693764991221e-06
8.63109455814730855e-06
8.08762112641879771e-06
6.70709129407425007e-05
0.000119829521410932694
0.000173609221035951177
0.00022533597945740503
0.000280169875663658643
0.000337120466844222078
0.000366685102664077655
0.000368516723032308443
0.000367634386965877673
0.000372302258011730173
0.000337207898944986333
0.000305105500531760367
0.000270129374639811986
0.000265736637295369178
0.000276630102631626707
0.000287460152748268856
0.000284433669772335201
0.00026774367597355922
0.000226194395271348296
0.000196864690268720483
0.000169472285729382259
0.000145355766415535806
0.000124225623085011372
0.000104048524637091695
8.47947276822808482e-05
7.03314506232094705e-05
6.58606572792481417e-05
6.32279790843408469e-05
5.58716234088113838e-05
6.90161420548118473e-05
0.000189399564613471462
0.00838852355630214687
1.42011585941797225e-08
2.8588132681085518e-08
1.1268332553213375e-07
2.661017717445841e-07
-2.62801255014592628e-07
-1.1630743572582527e-06
1.42008929217817325e-06
1.37007870912956442e-05
3.12225615692057491e-05
5.04452614463448142e-05
7.41366245533170323e-05
8.75020567757095713e-05
9.68855730013499865e-05
0.000100580879011247744
0.000100843291736272167
9.47246951253847397e-05
9.22845754568091974e-05
0.000105733055701308311
8.99540541555259564e-05
7.38261568692413864e-05
6.6754695096446918e-05
6.96541810604313989e-05
7.36321408345412835e-05
6.87693994646451781e-05
4.54837099121385398e-05
3.18750778762514703e-05
2.71769819860903078e-05
2.33313803698984379e-05
2.21703126190686117e-05
2.31468697659180725e-05
2.4712466634303314e-05
2.6881486911638117e-05
2.71957336245734095e-05
3.19793938560571295e-05
3.96952378459492332e-05
4.2542352775830934e-05
0.000103609213371098327
0.00918639338191812316
4.7083057806551693e-09
-3.44842220365277152e-10
3.71927433378487211e-08
9.53419874033081206e-08
1.85762639976880168e-07
3.2062668630876339e-07
2.54700685011070339e-06
6.84887855555987184e-06
6.14305100054757103e-06
1.11010011792807273e-05
1.60630352605020125e-05
2.03354357735230922e-05
2.2754093603819851e-05
2.3212986489150937e-05
2.2814659703686944e-05
2.26803820027386418e-05
2.23441592052949687e-05
2.11180547764571807e-05
2.05459516329018751e-05
1.8582261187899731e-05
1.61943362280980413e-05
1.43642367744941406e-05
1.2407159270958684e-05
1.09157205435506434e-05
1.01319629474459316e-05
9.79986710927948867e-06
9.7721290516367651e-06
9.0926033532897511e-06
8.62378647616860105e-06
9.71953108879791518e-06
1.11590406073810351e-05
1.2402706419600429e-05
1.25493336834752005e-05
1.71529752437945288e-05
2.57946352084541148e-05
4.48631514783352266e-05
0.000235576757166708572
0.00452061781298808939
3.02790086569686429e-10
1.64924163326957448e-08
8.64092994934204243e-08
7.4779462799535554e-08
5.31230076908439538e-08
8.59533183588485034e-08
2.70676340778119826e-07
1.81996803430536197e-06
2.48331703170820346e-06
2.02157695142436751e-06
3.16800364285341393e-06
4.22819907301184655e-06
4.67672416670323411e-06
4.91696374678566381e-06
5.27872975168608482e-06
5.65729716490134079e-06
5.87274621195892995e-06
5.81394717381268349e-06
5.60360866301470343e-06
5.28102505922119024e-06
5.05371552789037191e-06
4.79919455135600029e-06
4.51208132516473042e-06
4.27176657449107793e-06
4.20570166355446271e-06
4.290190955819614e-06
4.25186893908511494e-06
4.02085388157419242e-06
3.93252484715521547e-06
4.36737916189257876e-06
4.99555312388642037e-06
5.47334638866156735e-06
6.92744782275766842e-06
9.71056501943111107e-06
1.62102077637319751e-05
5.29328918109257671e-05
0.000394856185116607659
0.00138644866697133339
1.53835255665268978e-09
6.94728537402106698e-09
3.95112491174963859e-08
4.63876125102836107e-08
2.77885874995358565e-08
3.47378018702089226e-08
7.94669427532143546e-08
1.9634686966675766e-07
5.51052750236411578e-07
6.51835246596215168e-07
6.58062001814848882e-07
8.55103842535936315e-07
9.69107159533858388e-07
1.11467445432394328e-06
1.29088413445570567e-06
1.50225654877588465e-06
1.61153949861602998e-06
1.65204697475260186e-06
1.71053792089001679e-06
1.7793431804272684e-06
1.77071484356001752e-06
1.69844251172502067e-06
1.6228198291085121e-06
1.63739786547176111e-06
1.75808384857403403e-06
1.83742890031426658e-06
1.81970739387607829e-06
1.7207247483543866e-06
1.7487421033920109e-06
1.96417023621022405e-06
2.24194584721711874e-06
2.76442750382361384e-06
4.05083471319464676e-06
6.09562868252180469e-06
1.12176686970277103e-05
4.46617742697147201e-05
0.000522006936645777204
0.00217463812268650159
2.64214551084324826e-09
1.16744531726975983e-08
1.85619737341388532e-08
3.77241999666567979e-08
1.81362912473164528e-08
2.51646909459993184e-08
2.75245991686876152e-08
4.70651162008636218e-08
6.05114123856372171e-08
1.24627516393588166e-07
1.50737591566844621e-07
1.92562950502859273e-07
2.34166121706807433e-07
2.9605331380348408e-07
3.70946119154779469e-07
4.41480193265109261e-07
4.90283950469173457e-07
5.28739408038790646e-07
5.81969066292227759e-07
6.4188206843940333e-07
6.61014948246544944e-07
6.48303742260366622e-07
7.32878518808969602e-09
6.41673904964601056e-09
2.64779441960063316e-08
1.17225626823891028e-08
2.84220681430957376e-08
4.95072574924204007e-08
4.39807718151360274e-08
2.28235571528040695e-08
3.54131721741857771e-08
3.82585204514609553e-08
4.02983230176482904e-08
5.44579265469106054e-08
6.96901205152736958e-08
8.84685458945264156e-08
1.0898595971435154e-07
1.29464156238353997e-07
1.49211958563053961e-07
1.71847208077431282e-07
2.04147836830432739e-07
2.34772513720248223e-07
2.4948058203528975e-07
2.50603023893733832e-07
5.06040985370391322e-09
8.2230315636015901e-09
1.97559972826351124e-08
9.44574800418086339e-09
2.05305924417504155e-08
3.3147454967777267e-08
3.08091369406680705e-08
1.75980074616804484e-08
2.08721280723936207e-08
2.53863728192706807e-08
2.35833868484136084e-08
2.20037430669847192e-08
2.22235791652809459e-08
2.65270976052180286e-08
3.31497827934214319e-08
4.01747565173665751e-08
4.7406612510305492e-08
5.76370068164730809e-08
7.37801044473958375e-08
8.85064107250201973e-08
9.57604495566051683e-08
9.63252291198373421e-08
1.00178336501012203e-08
2.59859138353509838e-08
2.94055291980034251e-08
1.76537032302243145e-08
1.528796739240278e-08
3.02803607760636626e-08
2.46825449872578921e-08
1.76676227327544434e-08
1.73512649861318499e-08
1.66009481942248277e-08
1.36388929162259248e-08
1.16922039340856516e-08
1.03780856770824445e-08
9.98928336216696437e-09
1.1106187079258425e-08
1.3737983718704453e-08
1.65235552543577638e-08
2.12846464256472227e-08
2.98553507240121624e-08
3.82125192422443968e-08
4.09095647249870804e-08
3.93311377283302701e-08
9.35540933575620365e-09
7.23165104053042173e-09
6.11858908970742119e-09
5.31250999481503535e-09
4.91191655513481657e-09
4.79722485886944949e-09
5.3189773909575442e-09
6.55386024017545967e-09
9.38037462869526495e-09
1.38247801428060482e-08
3.2033299358191319e-09
2.67505132129675685e-09
2.49533876299972215e-09
2.43450176960346248e-09
2.64703662974439134e-09
3.28373163629480415e-09
4.72331726846385056e-09
6.6415803349060882e-09
1.18375749574618201e-09
1.15622501717764299e-09
1.29290926983786773e-09
1.55312864415459914e-09
6.78652066124138791e-05
0.00353110254100244721
0.00993010963164895136
0.0150479103621616473
0.0183942224837681766
0.0212611345921046788
0.0458370252258863201
0.123674819202693895
0.141961888837784073
0.141747983210893214
0.135396907641463449
0.239514402795512421
0.29441147304876425
0.454535266478859779
0.519596977714237629
0.451539002018139901
0.39482382068671551
0.385097643542370693
0.344846181994490741
0.290210986699607598
0.271764921241674229
0.265487560310605386
0.244246068861731863
0.215681060869131691
0.193931487286135101
0.175173171688623203
0.156629784025280577
0.130371805307631705
0.0929093724149704508
0.0854364031903609156
0.0746882618195129355
0.0607213539723999648
0.0436101901214565879
0.0308202106683497234
0.0188945375483479949
0.0286555763435809088
0.0249254739989165502
0.0207639491623741249
7.77982682622409695e-05
-9.51132065271554803e-05
0.00132738772036904195
0.00304108717985738337
0.00361521930582113732
0.00418261412443747104
0.00525201917777505176
0.00637558351553409956
0.00725334607028029106
0.00793477010545671005
0.00815512368286139266
0.00767599426820067977
0.00688536518988369824
0.0057808071812988247
0.00479340068128876647
0.00395295519984234164
0.00343527735915228043
0.00305802975224529067
0.00273408980444304287
0.00238458114881813857
0.00205200481081491918
0.00172448423710802059
0.00145280461581213222
0.0012384292520344546
0.00105390645735088423
0.000870803116373338121
0.000686201732626552305
0.000590400425795847947
0.000585636720273606656
0.000521992484753472158
0.000634189704401349487
0.000981029094830664387
0.00144122096851775016
0.00214705847339046428
0.00323517286168938968
0.00110600580793382029
0.00312374044583454665
0.0164550365298985063
2.02451336533353949e-06
2.40567837694470857e-06
-7.57777744008808127e-05
-5.64514826024617423e-05
0.000112351417680501496
0.000630807013391801387
0.00120652159044626122
0.00168965453854429061
0.00180672928471414329
0.0017959050774053833
0.00173979686540716547
0.00165775543311390446
0.00141164582636702364
0.00123243583239583633
0.00118151975782401796
0.00116357108297569399
0.00113678268604612922
0.00107925330532348228
0.00099296980404133049
0.000878065369909867958
0.000746680139082481101
0.000667708678048054049
0.000552716676894741943
0.000472229027624482625
0.000396131291475905565
0.000423553014280014578
0.000442363465102273731
0.000366090853563415925
0.000308981040979309086
0.000234932491295018102
0.000161505518720153846
0.000126397420880598483
0.000109011828563016053
9.2180000462589021e-05
7.56660051259715638e-05
0.000203427111553372743
0.000674717275511643798
0.00733969761044220986
8.94646403152720737e-08
-4.26926051979315294e-08
4.45779727405391531e-07
2.91780791610375662e-06
1.20633289579974178e-05
3.64244814080942514e-05
0.00013402989407285579
0.000193742400032962758
0.000236977133546109126
0.000291609720053200841
0.000320238281771012751
0.000345291966999437404
0.00036023490365803758
0.000363773878042728167
0.0003570845141300883
0.000360104516444395583
0.000347636760087706984
0.000335827036086614188
0.000311261256494462402
0.000278789006435749926
0.00024170093824171237
0.000279216620630965936
0.000336167755415039396
0.000382220534621824631
0.000425459495658466087
0.000400253048228002583
0.000316220960815694128
0.000257960847219409215
0.000216119104064278159
0.000185777482609456555
0.000144216915013895046
0.000109729513329241763
0.000104817914771508322
9.96190602876143608e-05
6.11239706380052643e-05
7.88573716757912259e-05
0.00020303296828629624
0.00524825990645555115
1.34423865678848679e-08
3.99145233933870226e-08
1.31321001571017963e-07
3.23808340091059853e-07
8.58455374352097223e-07
1.40918660275198616e-05
7.10523902253493483e-06
1.8425339105010833e-05
3.42179276436050731e-05
7.50078574510191045e-05
7.80430197636435328e-05
9.21123382921268841e-05
0.000104363743397557925
0.000110125698254047105
0.000112179162675574073
0.000108894903205764267
0.000105961992708456871
0.000121248353817723236
0.000119511381205910738
0.000108619596554965025
0.000102512688840291702
0.000103586727140838936
0.000109319921560814722
0.000106713276412146569
8.93701402902540568e-05
6.10793048273330149e-05
4.23838538459433891e-05
3.56783769844573563e-05
3.66805705078017749e-05
3.71492270958369742e-05
3.58742123018523362e-05
3.6135655107077613e-05
3.77173324909191811e-05
4.06597155065262453e-05
4.9720764160270846e-05
4.6313914464694454e-05
0.000101934985460002517
0.00834665515337703126
8.70016891462946773e-09
1.74117177776034861e-08
4.83982898713580565e-08
7.97278901417142855e-08
1.40305020328191364e-07
1.88993199385436054e-07
9.7806188037908388e-07
2.54343385818035944e-06
7.10625809211817556e-06
1.2082200314432153e-05
1.65517161010007438e-05
1.98801798863167725e-05
2.24706032539544531e-05
2.38575048225931778e-05
2.50087689079779056e-05
2.53431130257911065e-05
2.52846384269045537e-05
2.45134639978254156e-05
2.36455907832442499e-05
2.18699695816848476e-05
1.94841987775281986e-05
1.70020359504992888e-05
1.48064112840788597e-05
1.29764636488423459e-05
1.1637983798900103e-05
1.09682258925451637e-05
1.04792629059178146e-05
1.00344066097684018e-05
1.06259156584177347e-05
1.18309329140302715e-05
1.34977373349452528e-05
1.40788072711342882e-05
1.41796035224600698e-05
2.11529259569066802e-05
2.97522707871524081e-05
3.59176457540754922e-05
0.000239628876379276607
0.00690590531319434237
5.63096394531861618e-09
1.65879400251806187e-08
5.0012176204900527e-08
4.77686264986011292e-08
5.86938576019836555e-08
1.01219176130194501e-07
3.46039929158389868e-07
6.75407187141174714e-07
1.40640809337344097e-06
2.16452359639154419e-06
3.10347071087487563e-06
4.11853189360264955e-06
4.83429633722882275e-06
5.35218741709225096e-06
5.830869749418296e-06
6.26786555539158105e-06
6.47973875688555215e-06
6.43288403688690953e-06
6.28317191405830532e-06
5.91925061729525973e-06
5.42476552769096387e-06
4.93792898897118965e-06
4.71392469025039255e-06
4.5567672544653897e-06
4.45714775320692673e-06
4.52498781114687702e-06
4.39176369747890221e-06
4.25975281233251781e-06
4.52420490279193856e-06
5.33754957373183591e-06
6.01414905326118568e-06
6.08447403458705353e-06
7.32461243722708725e-06
1.06231348166005405e-05
1.70657833233214904e-05
4.19619382467236682e-05
0.000346222492088941786
0.00254954095183208005
4.6234793112522628e-09
3.40001478332676599e-08
6.10473931864645891e-08
4.81032662737065633e-08
4.59072788570860815e-08
5.70491096550857872e-08
1.01622944994809708e-07
1.63651818068074122e-07
2.42074667741616082e-07
4.10265893892928645e-07
6.0656033410478374e-07
8.21569414038266734e-07
1.01695192211501759e-06
1.19125176489329161e-06
1.36536288281603399e-06
1.53330385471217747e-06
1.64381080516204032e-06
1.68861075219824833e-06
1.70375183266114296e-06
1.6581194756776959e-06
1.70135989364171811e-06
1.67497826096817176e-06
1.62597972899328327e-06
1.633221590368935e-06
1.73006846574891183e-06
1.81453929093853428e-06
1.80813308119771076e-06
1.76582882132284866e-06
1.89751048339404826e-06
2.32656996451728025e-06
2.60811739727784541e-06
2.76321755345253339e-06
4.29587674533878401e-06
6.38792265836926835e-06
1.1069808057356208e-05
3.49312237255766878e-05
0.000304546592120141053
0.00170500869582602163
6.77778805101014781e-09
5.45680914727895004e-08
6.42568823064304076e-08
3.5944312383876762e-08
2.97961645681999186e-08
3.2586821828437502e-08
3.4859700383121849e-08
3.96884792429044538e-08
6.12492838467155901e-08
8.20559811057468763e-08
1.24347781430436993e-07
1.69823903623397024e-07
2.19038680203646689e-07
2.76893400407856461e-07
3.39877130517147881e-07
3.90948703826557829e-07
4.23967497043921547e-07
4.51674563984499568e-07
4.85762280048588181e-07
5.24311457976596118e-07
5.50224951947401084e-07
5.61152742573974843e-07
5.71319415892106699e-07
5.98352113610987837e-07
6.62492178930066433e-07
7.10943670824602731e-07
7.29009534473439422e-07
7.40134977083365882e-07
8.38998154076407569e-07
9.66365585553864643e-07
1.06446548747482802e-06
1.56933869616347538e-06
2.41491653268254994e-06
3.88081420365847169e-06
8.70767455481101911e-06
2.61162932290274769e-05
0.000544001072938028892
0.00266166127229651179
2.28065857386233746e-08
5.16360530835605616e-08
2.18697756246457318e-08
1.62414907353502374e-08
1.57187361756148035e-08
1.50372017668444825e-08
1.50958356549766061e-08
1.38121851324226801e-08
1.66170874112652873e-08
2.14895307867803752e-08
2.95040498249609327e-08
4.19577071834501841e-08
5.76646671997652465e-08
7.72399965341136789e-08
9.85627342838613293e-08
1.15268297507113824e-07
1.26090003364473324e-07
1.3814807992226956e-07
1.58653139481566804e-07
1.78645611273430959e-07
1.9030145755692204e-07
1.95756185667285044e-07
2.01568581852835347e-07
1.27090894182572445e-08
4.03646700398346411e-08
1.29914160264540472e-08
8.87866354707081192e-09
9.19957789511997595e-09
7.84101597062458207e-09
8.10110929249412935e-09
8.37054410980115181e-09
8.90692052041021285e-09
1.00950364320431079e-08
1.12985047247772259e-08
1.30507925641514139e-08
1.72473322337589734e-08
2.3041548194435166e-08
2.98758452228511416e-08
3.58137437821781025e-08
4.07604107250295185e-08
4.70337140319815795e-08
5.61390503775047638e-08
6.46417498277561914e-08
6.91185746304726043e-08
7.13634069730640305e-08
3.42303375934745719e-09
1.93903400454281697e-08
1.20380691957322614e-08
7.25897727104069385e-09
5.8353534946132981e-09
5.71263348415220156e-09
5.92737832783576802e-09
5.86089605130637573e-09
5.60606511030566122e-09
5.75694264855952431e-09
5.70950007999410481e-09
5.45708937935822484e-09
5.59412806030867944e-09
7.22902349957659499e-09
9.12871549782504159e-09
1.13073653519298998e-08
1.37266871360819548e-08
1.66239021701166403e-08
2.02274486748661192e-08
2.35729974947281327e-08
2.57559946080482663e-08
2.67270565387733152e-08
7.92469020318412126e-09
2.53067437283821903e-08
7.18757199759794406e-09
5.61517089289138108e-09
4.64570726369573614e-09
4.39368915637331132e-09
4.33105612428282793e-09
3.91344061216872334e-09
3.41984276869969419e-09
3.07387191062509158e-09
2.76585544486323817e-09
2.66043745756536657e-09
2.61271449028784987e-09
2.70856334151611411e-09
3.24963416707196079e-09
4.03391074347790298e-09
5.02702004604666634e-09
6.38092629461878549e-09
8.35567180120941096e-09
1.006133479316599e-08
1.08951627395151159e-08
1.10157640482894146e-08
1.70006751760627664e-09
1.49533695037416128e-09
1.40316339566868771e-09
1.35678799428157698e-09
1.35761538932180873e-09
1.56756327370616309e-09
1.93384210336152828e-09
2.49146890109158015e-09
3.24150461826603167e-09
4.11047455008151035e-09
7.62185767619725963e-10
7.40478381887000945e-10
7.87295424721281234e-10
9.21665494448667034e-10
1.17475705851315559e-09
1.57315486837379691e-09
2.02230761582258153e-09
2.3779375818228138e-09
4.2335024238842092e-10
4.96892594516082082e-10
6.27697749269643897e-10
8.81163446740729559e-10
0.000388900453275759016
6.63073656137174025e-05
0.00146415859912009221
0.00319126797665355167
0.00451355009465939042
0.00551625477633450011
0.00705899187233667742
0.00884601306234738226
0.0101875580232706139
0.0105244926203887507
0.0107632878109120804
0.0105343269932924102
0.0347852792436206815
0.0729944915915206882
0.0655367176016679737
0.150906538788294325
0.165219040995410349
0.153886746316294398
0.152410102353017884
0.141154913876371912
0.146507811811655231
0.150161642549723667
0.138986418332206207
0.131464953893619757
0.127455232935925589
0.115938642402889577
0.102919572864142189
0.101877503327199193
0.0859905451368299378
0.0659302192131908243
0.0602755281188592784
0.0504774386244754569
0.0400844474871129147
0.0279757096303845862
0.0187987179173062305
0.0254260000975214673
0.0207753924714573351
0.0177847535948473176
0.000298030986140302193
7.9254977043852437e-05
1.49980218471277219e-05
0.000124990979744661656
0.000254919328205831209
0.000505238632642108706
0.000934508840549420558
0.00161945627306914653
0.00220085397248704923
0.00259779534905067635
0.00284765317269045732
0.00363684135215066933
0.00327101002894861909
0.00253174755557532705
0.00245161195340113346
0.00214497800755974067
0.00184701748885885862
0.00169141318210875398
0.00155473355365900708
0.00141712215527515996
0.00127279832997208233
0.00112615486414882767
0.000979078241592431803
0.000841134916841607518
0.000719730074980533415
0.000651870841561677473
0.000564430109035625243
0.000444407229288345162
0.000348655166362324431
0.00031194379314918952
0.00026535156914942533
0.000209966280936952536
0.000188461999913245177
0.000371280806561210706
0.000969809591154248895
0.000206463284186005964
0.00232145100443253722
0.0140940620068285213
3.26588923758264974e-05
9.54916420222612597e-06
6.93323617315310988e-07
4.84996235051807092e-06
9.40988460091752339e-06
4.86803249013993786e-05
0.000135292196331931959
0.00028618940726248042
0.000378350044505508499
0.000462338168617842579
0.000523604495059777891
0.000559930148292505704
0.000553076032985329422
0.000498386307592408218
0.000790428248963530268
0.000605238862710668984
0.000481818661312514041
0.000453494696060088615
0.000418500239568262073
0.000379872328591094124
0.000347615941283169693
0.000318985486763421436
0.000272065027284157618
0.000229660904618472951
0.000192497580499799702
0.000209920702363830883
0.000237204180151547787
0.000226057301804530742
0.000225630455790279698
0.000233919552954724402
0.000210759737203859785
0.000170227785668597545
0.000154828306514883247
9.74265351653415788e-05
5.42011305493822769e-05
0.000100885321584746158
0.000246083716088357795
0.00782154989873534538
1.95107456601277655e-07
1.091363790216814e-07
1.10869076589841606e-07
4.00179924229878247e-07
-4.49108746542827874e-07
8.67775823694923919e-06
5.60961518356949498e-05
5.91749159573782562e-05
9.0596841179880523e-05
0.000133104578938883532
0.000147659467911578397
0.000148466264023614642
0.000153913876128175964
0.000179711752101764373
0.000184855523851047899
0.000154410973366512344
0.00017009464118823944
0.000150209490453070949
0.00012830940605422248
0.000128708194581460565
0.000145697069507809743
0.000184193852881009662
0.00018645007416786863
0.000185199091151794351
0.000137025857638672167
0.000100449078305410997
8.02604429824722041e-05
7.16902916382527317e-05
6.48371035941834324e-05
5.52167423140203459e-05
4.66820120356012868e-05
4.84945159522228e-05
5.41547470785740088e-05
5.86470108356098644e-05
5.35684708749333775e-05
5.37878811563419551e-05
9.78092779618259042e-05
0.00625729770716241911
4.04531932865574568e-08
7.30724299153543355e-08
4.31716332487418425e-08
7.68259750196458616e-08
9.054522103459341e-10
-1.19778905218090896e-08
9.55901045559729862e-07
2.67077928501152901e-06
5.72660675378987578e-06
1.11015507577653177e-05
1.69665907033336185e-05
1.96254673726919558e-05
2.17097336110648318e-05
2.23484648518646157e-05
2.48936861170643005e-05
2.76591114890708345e-05
2.83659420705309026e-05
2.73320018594300516e-05
2.61093260100302037e-05
2.44391000425551567e-05
2.18699223882166455e-05
2.19923502539615243e-05
2.01994047098306955e-05
1.87288891100769657e-05
1.66898379256020008e-05
1.35637532151556235e-05
1.28556700416269472e-05
1.31392085344818179e-05
1.29347967676374059e-05
1.30807733231978111e-05
1.45029735375174363e-05
1.68482206135155593e-05
1.96796283697804633e-05
2.6055991370498206e-05
3.37577718362161379e-05
3.86108429548548827e-05
0.000111214715397379407
0.00775893299016023642
6.9180933065203565e-09
1.51828667609390905e-08
2.35588718859717447e-08
2.39122863839111134e-08
2.70330539968074322e-08
2.9294277418699493e-08
8.9510135004078886e-08
3.63661575850936986e-07
8.83152649367530181e-07
1.60177899130608169e-06
2.52587653716631761e-06
3.42962115958528955e-06
4.01113728473017263e-06
4.50220866528844294e-06
5.52282186475689211e-06
6.47923067165869488e-06
6.80135644945311742e-06
6.78800097748449491e-06
6.47219946028476125e-06
5.89720515061461504e-06
5.3865319452429614e-06
5.02174204208794104e-06
4.72481006009725434e-06
4.36083215541055994e-06
4.27312260220323226e-06
4.2720102199264599e-06
4.47618374646750176e-06
4.81853763972576447e-06
5.16405222984944325e-06
5.82814932729730522e-06
6.09703583497677171e-06
6.26915586402493414e-06
8.27354816731785122e-06
1.21752311011660574e-05
1.90768180683422055e-05
3.79067166161169101e-05
0.000194036628969022505
0.0051107962714095935
2.47835861780017082e-09
5.15575688285288694e-09
7.12441005211764919e-09
1.19538926530415948e-08
1.48545680536975173e-08
2.29519709534207119e-08
4.2128576125612852e-08
7.96598387933219871e-08
1.61121330126945102e-07
2.73140071288066286e-07
4.32631860278300722e-07
6.19603575163151901e-07
7.79789898517282727e-07
9.47568221556857842e-07
1.21050737471726682e-06
1.50987378570262635e-06
1.6437267364764783e-06
1.61187765154868646e-06
1.5399911957918801e-06
1.442199870976253e-06
1.35990286655411065e-06
1.30942080504457648e-06
1.36603589526246291e-06
1.43906453629774903e-06
1.5249325193463989e-06
1.62560401310969182e-06
1.72837479171462621e-06
1.88792615435797769e-06
2.14507686937509145e-06
2.46714529846920189e-06
2.46587392414464171e-06
2.81486082248168213e-06
4.54699609847004301e-06
6.69919618766326237e-06
1.13288657734303176e-05
2.0996695945230925e-05
0.00029384517490879474
0.00194872038266403081
1.80506861464912052e-09
2.18191593827250356e-09
2.85558511519714435e-09
2.54715577556595369e-09
7.92020511575862445e-09
1.21535531144692673e-08
1.73279612481312234e-08
2.352223656561433e-08
3.54455447720463765e-08
5.51052088450437793e-08
8.34481132068106712e-08
1.16726798367490133e-07
1.57916195520070304e-07
2.05699185663472706e-07
2.71815487847242742e-07
3.44240893878461709e-07
3.83414550625879002e-07
3.8788115634208057e-07
3.84380297929853735e-07
3.74702575333100005e-07
4.00214665635473594e-07
4.27368762781078042e-07
4.49915966361636402e-07
4.99824318712290948e-07
5.59297671099840205e-07
6.14960115222232424e-07
6.54408982724018678e-07
7.35394582477316533e-07
8.87560794494373595e-07
9.80785935855493649e-07
1.04623071495803795e-06
1.59611380245532779e-06
2.44870095740706363e-06
3.95895223461722684e-06
8.57847742922050499e-06
2.23556424253452972e-05
0.00048798478271328135
0.00306486692540462648
1.45323710925256951e-09
1.53969899864709509e-09
1.61319708623281128e-09
3.25135375068238255e-09
5.56023639366198406e-09
6.87342759601055131e-09
9.68176297403289061e-09
1.07963756072537157e-08
1.09353293814281052e-08
1.39409245602395072e-08
1.9502712868624168e-08
2.69923958241693455e-08
3.82744240734629676e-08
5.3672367688430806e-08
6.9718743666340105e-08
8.13615773125348404e-08
9.22133205118374487e-08
9.76099993219364923e-08
1.06473867794800752e-07
1.22067501485623227e-07
1.36178196571024998e-07
1.49551607353552762e-07
1.64661044758862477e-07
1.8822749264290835e-07
2.15592457194807843e-07
2.37426198090912418e-07