/*--------------------------------*- C++ -*----------------------------------*\
| =========                 |                                                 |
| \\      /  F ield         | OpenFOAM: The Open Source CFD Toolbox           |
|  \\    /   O peration     | Version:  2206                                  |
|   \\  /    A nd           | Website:  www.openfoam.com                      |
|    \\/     M anipulation  |                                                 |
\*---------------------------------------------------------------------------*/
FoamFile
{
    version     2.0;
    format      ascii;
    arch        "LSB;label=32;scalar=64";
    class       surfaceScalarField;
    location    "0.480000000000000204";
    object      phi;
}
// * * * * * * * * * * * * * * * * * * * * * * * * * * * * * * * * * * * * * //

dimensions      [0 3 -1 0 0 0 0];

oriented        oriented;

internalField   nonuniform List<scalar> 
20856
(
-2.46264564646676484e-06
9.54817761819774178e-05
5.3663558856605657e-05
-1.42651797905080054e-05
9.18512077691521013e-05
-6.3698284955073222e-05
6.34937404579091226e-05
-2.40782507640859951e-05
8.87770951165086573e-05
-6.8560250257852399e-05
6.88279735843444745e-05
-3.13563327456902095e-05
8.68436751161786409e-05
-7.18177175589122525e-05
7.11544721943698307e-05
-3.71475276290765132e-05
8.63594143405038874e-05
-7.51314649951350983e-05
7.37874087792070478e-05
-4.20347560875614337e-05
8.75076879728587363e-05
-7.87168052686676754e-05
7.72166159421008315e-05
-4.62487977164223864e-05
8.9377609937954698e-05
-8.33860907541827782e-05
8.19167942152729001e-05
-4.96635627171718521e-05
9.13205577818290389e-05
-8.95907250015897565e-05
8.76571140154417593e-05
-5.00581619314584435e-05
9.23981102693842595e-05
-9.92245038928886886e-05
9.46855494892550199e-05
-4.40588218362825099e-05
9.20613317743351083e-05
-0.000113433733777114221
0.000102326640578382719
-4.17255598668209518e-05
8.94403717200864447e-05
-0.000121151301049971037
0.000106269611237969753
-4.97095295099099193e-05
9.82429829096605764e-05
-9.43044510381489925e-05
9.19337808420289502e-05
-2.07899744806792965e-05
0.000199915624804458957
-1.3687812951881246e-05
1.42665690040271996e-05
1.49970728698122814e-05
0.000363849294380350356
8.25491474552682091e-05
-0.000120865609702460044
-1.00804464152934965e-05
0.000738701532235742377
0.000251720694492672337
-0.000227956478822071291
0.00149454438767642893
0.000285665682168328061
-0.000269809523646621485
-2.64645858812734339e-05
9.74988229542670228e-05
-6.2925879777982885e-05
6.64254164122092951e-05
-3.13055034502298415e-05
9.40474913685013778e-05
-6.64680255947505905e-05
6.91129502745252319e-05
-3.54403930436567366e-05
9.11464173854501745e-05
-6.90473538615702319e-05
7.08134016999244372e-05
-3.92169003120743415e-05
8.94021306078899501e-05
-7.12988817525342356e-05
7.25175456138184727e-05
-4.26253048112027735e-05
8.89796769354184489e-05
-7.37963069610244254e-05
7.45848590954212423e-05
-4.54406215566892203e-05
8.98533861558380544e-05
-7.68896300091604973e-05
7.73594515001347808e-05
-4.79121208055966711e-05
9.17458461090918306e-05
-8.11249164447445188e-05
8.12281666218301051e-05
-5.01160870871439665e-05
9.43983432859748145e-05
-8.72776875542829826e-05
8.64035767595126326e-05
-5.01387503918452663e-05
9.6675559794267966e-05
-9.76474463413172001e-05
9.33921504759016396e-05
-4.49699699464701293e-05
9.91176214778372847e-05
-0.00011385282424023617
0.000101627596212616788
-4.20553231573628718e-05
0.000104949656478047935
-0.000124658283682272292
0.000106234381880905627
-4.97925799038815745e-05
0.000112094239952280757
-9.9133144804559566e-05
9.30189464259846029e-05
-2.43822769004547796e-05
0.000179436465052434978
-1.14597589370244873e-05
6.52774073865672959e-06
1.87822848409276025e-05
0.000373994204605407484
7.62080803261709801e-05
-0.000129517981693970689
-3.49372017054735799e-06
0.000732010005134641796
0.000241926369031136271
-0.000212958980490802823
0.00147168791095918781
0.000282101199068276337
-0.000262738449246655275
-3.08835447655185456e-05
9.62378909344461663e-05
-6.12677941426843737e-05
6.56947700710511543e-05
-3.39566825328635114e-05
9.3685782891822546e-05
-6.36310839422516561e-05
6.70663261708024554e-05
-3.68531993909944661e-05
9.15372122058537746e-05
-6.57488350737588621e-05
6.82550265602119321e-05
-3.95635658420201514e-05
9.03065652941793042e-05
-6.79835719847486576e-05
6.97898131718470297e-05
-4.19645162365019783e-05
9.01646965268701565e-05
-7.06260866271324399e-05
7.18421862067929802e-05
-4.39729228997267049e-05
9.1184350716851502e-05
-7.39505533405721151e-05
7.46279806826544433e-05
-4.57618889626602699e-05
9.34871434655146363e-05
-7.83999229446824238e-05
7.84468907489794056e-05
-4.73405345018300684e-05
9.72093412411752743e-05
-8.49352307896510881e-05
8.37016834468023432e-05
-4.70729451760489855e-05
0.000101105227325863769
-9.55830351139347865e-05
9.08850905814763692e-05
-4.18750993474922161e-05
0.000106237024369971664
-0.000111615341265299651
9.92981828087761704e-05
-3.59966437835457318e-05
0.000118716994447995243
-0.000123393886971196186
0.000103748037531826331
-3.72706612030891007e-05
0.000124506487550396706
-0.000101107422318838543
8.99685797728555552e-05
-5.20763526669915783e-05
0.000207426053067250493
-8.99763582673828767e-09
-1.3175627314653753e-05
-5.09500346281443377e-05
0.000416071130956710599
0.000104427254713155036
-0.0001476315758381669
-9.31190491875919478e-06
0.000660566474161795565
0.000228147617615615385
-0.000198342884679386368
0.00144617488318284863
0.00027578044704312869
-0.000259579344914793466
-3.03902104035243546e-05
9.5119606743708019e-05
-5.76227250382405982e-05
6.16192129106642991e-05
-3.32242194732177901e-05
9.34125048575964762e-05
-5.99149344087311316e-05
6.30225660763831228e-05
-3.59420049176479699e-05
9.20250016008240882e-05
-6.22316881502003779e-05
6.44619037335282167e-05
-3.84067207962254656e-05
9.13020283328929582e-05
-6.48133542659434623e-05
6.62828291405204156e-05
-4.04855210825274785e-05
9.1466463401074791e-05
-6.78802517981710391e-05
6.86575199537770183e-05
-4.21363629858322329e-05
9.27293732001390451e-05
-7.16564640418893391e-05
7.17619828698559578e-05
-4.33920640536632665e-05
9.5465399562256689e-05
-7.6576626398223825e-05
7.5852886061920604e-05
-4.40669116445899993e-05
0.000100030650220612395
-8.34593753814845244e-05
8.13116889646605447e-05
-4.28287733409699943e-05
0.000105098457740016561
-9.36796341145962222e-05
8.84479648012580525e-05
-3.67012637261438012e-05
0.000111715203633099759
-0.000107895370265732743
9.62898357787183407e-05
-2.89534878194412735e-05
0.0001295773215279051
-0.000118350208703451971
9.9741753153255859e-05
-2.8672808011337671e-05
0.000135443486005773072
-9.71604721732116471e-05
8.59424622787942761e-05
-6.47751989868723785e-05
0.0002469473343033449
1.2169852835215898e-06
-4.63527859429916226e-06
-7.40078216813859751e-05
0.000450099065671359384
0.000120010994575740841
-0.000144806216142372455
-4.64430587943695083e-06
0.000577248777257840379
0.000204866541982079821
-0.000190912364701278323
0.0014303953762095198
0.000270399063880643828
-0.000259263911228371704
-2.03358420114494435e-05
9.55866758646542572e-05
-4.63384800097957824e-05
5.03983503184026173e-05
-2.34086320922760664e-05
9.62533015938836034e-05
-4.91897396813293972e-05
5.32976601470382588e-05
-2.65145175872654978e-05
9.59357361654398686e-05
-5.18709172614725773e-05
5.55635564247195627e-05
-2.95482015621389098e-05
9.50845396506818475e-05
-5.43492855294682036e-05
5.7418579905958802e-05
-3.24893483947163289e-05
9.40309119894863093e-05
-5.6799296240480432e-05
5.912227108176002e-05
-3.52228036532886677e-05
9.31959336716370524e-05
-5.94111673858071167e-05
6.09738368871292854e-05
-3.75940203508678072e-05
9.28564898506699621e-05
-6.23715494838811285e-05
6.31884821734299458e-05
-3.94839932367691454e-05
9.32777733005676587e-05
-6.58760416022927819e-05
6.59549486113583818e-05
-4.07989436106663477e-05
9.47507562434512422e-05
-7.01476629226076412e-05
6.94409428080391988e-05
-4.13966454605304098e-05
9.78013755929182927e-05
-7.55968465783987318e-05
7.38575626139251012e-05
-4.08052460180178064e-05
0.000102714735699123671
-8.2772225808469416e-05
7.94959998058192139e-05
-3.80919541113110811e-05
0.000108457373584645988
-9.24646552446875569e-05
8.63922421862260524e-05
-3.03700263203253703e-05
0.000115125620315979281
-0.000104498821099352696
9.33661642182187626e-05
-2.00722085576260576e-05
0.000137090026878615494
-0.00011334278834971293
9.5531934035825088e-05
-2.50779963130240633e-05
0.000150756169286013665
-9.30707183253311307e-05
8.27626928654184049e-05
-5.64179014751951227e-05
0.00026721615194838207
-2.00913308501515809e-06
1.30773821933742933e-05
-7.6019737018008396e-05
0.000472751701241332241
0.000125254301371966896
-0.000128305185307650625
-4.33215527161328728e-06
0.000501414858375441304
0.000200535769030762414
-0.000196388649457647876
0.00142302849857288351
0.000263049388516463801
-0.000260014665407112908
-1.95301758208146515e-05
9.57806612580359117e-05
-4.41593352354894826e-05
4.70779727371606807e-05
-2.27776934129927309e-05
9.65126012125186396e-05
-4.67131909814458456e-05
4.97026911596057979e-05
-2.6045472836096129e-05
9.65021872451859146e-05
-4.92214748174126914e-05
5.19236852709859632e-05
-2.92216736020754281e-05
9.6061283841199731e-05
-5.17106369745264264e-05
5.39105249474055694e-05
-3.22274250594651527e-05
9.5468203417443034e-05
-5.43106864969553177e-05
5.58792417342978805e-05
-3.49304877103059035e-05
9.50221175272942788e-05
-5.71781888442310856e-05
5.80551225312050503e-05
-3.71862184068102487e-05
9.49719982158183496e-05
-6.04797208607140517e-05
6.06201542974370698e-05
-3.88585950210248559e-05
9.56020536886989373e-05
-6.44016086457964372e-05
6.37500281393682137e-05
-3.97935520580937953e-05
9.7270769776683255e-05
-6.91830347036394354e-05
6.75977694132467755e-05
-3.96461723036612744e-05
0.000100496859930170821
-7.51823582828234799e-05
7.23388284912414292e-05
-3.7740673515486534e-05
0.000105457094986479785
-8.27914503036640136e-05
7.81428018216327698e-05
-3.33658665448347382e-05
0.000111475850519774644
-9.22350504395255086e-05
8.48407231064668156e-05
-2.43183000051589666e-05
0.000117820006119873834
-0.000102772638489629031
9.10299078707273792e-05
-8.71555067259209703e-06
0.000139238720865670918
-0.000109920360582019922
9.21696095206396131e-05
-1.84493566891637592e-05
0.000168512980654723525
-8.79770651380248312e-05
7.99549256944717739e-05
-3.65235958379095046e-05
0.000264265962457260338
-1.92887693187958008e-05
4.03117851952964444e-05
-4.2075516234713322e-05
0.000482991514443312491
0.000111613102059876491
-0.00011629987895200053
-6.02831898863009702e-06
0.000484005951911181469
0.000183797468090892953
-0.000202436845201951326
0.00141285575004226893
0.000261780926335397797
-0.000257636382024709499
-1.25912732090965971e-05
-3.81137514052600813e-05
3.91892348444235509e-05
9.27992469609868206e-05
-1.57628212065953999e-05
-3.99906771102092527e-05
4.17181063579792163e-05
9.53814288032000065e-05
-1.91029314453499416e-05
-4.22162019733669561e-05
4.43566702019179836e-05
9.69813317150415826e-05
-2.25288177349524974e-05
-4.45720396396320439e-05
4.67652159996425601e-05
9.77462651482079235e-05
-2.59278203143122807e-05
-4.69782884827359192e-05
4.89313985669286163e-05
9.79486098989774094e-05
-2.91828792255427601e-05
-4.94854153550435837e-05
5.09980552899359007e-05
9.78038532940287634e-05
-3.21907683923323553e-05
-5.2212158397218323e-05
5.31481696938776563e-05
9.75400174232930918e-05
-3.48228948592799918e-05
-5.53060136478112903e-05
5.5570038856631642e-05
9.73903512397090716e-05
-3.69374189812574598e-05
-5.89287871719351269e-05
5.84295868150346603e-05
9.75861804525242989e-05
-3.83710452304389645e-05
-6.32655447936937982e-05
6.18863853613706318e-05
9.84151040647620419e-05
-3.88878577169933726e-05
-6.85593961055206764e-05
6.60734844059897693e-05
0.000100273259618984033
-3.79993922206147376e-05
-7.51574278531857271e-05
7.11299653974566267e-05
0.000103635489621754131
-3.49726697720573041e-05
-8.33938694934426922e-05
7.71236321768202509e-05
0.00010869961009488566
-2.90558267088885499e-05
-9.32668662696281038e-05
8.37667900785757347e-05
0.000115057706723668837
-1.94262274210089047e-05
-0.00010427712868112861
8.94828316206207504e-05
0.000122984402701510051
1.78724123863064769e-06
-0.000112249475498224347
9.11115997162048266e-05
0.000139163943477345602
-2.16357207162011953e-06
-8.95819024456829827e-05
7.69091795790310126e-05
0.00018513670061762259
1.14657850907988354e-05
-2.89230377484154239e-05
5.69031318105472729e-05
0.0002226563946701529
1.49424184715767744e-05
8.89480017878812744e-05
-8.71483494879466797e-05
0.000477714164306576334
-1.58375407444366048e-05
0.00019229198587847191
-0.000225162937675868317
0.00054765664323185915
0.00026733509490278832
-0.000256505182341536697
0.0013861883800521974
-2.75795434977404191e-05
0.000114042864124873819
-5.84426303193148774e-05
-3.41489433397163314e-05
0.000109825969811082203
-6.28348656959087861e-05
-3.97355511238319195e-05
0.000106164295726664574
-6.67873228014110313e-05
-4.47629933199311059e-05
0.000103400077852752124
-7.02897482031432716e-05
-4.99177009549615786e-05
0.000101577919666200677
-7.37310441453434978e-05
-5.55206426012541538e-05
0.000100711467678493268
-7.78711667587930404e-05
-6.16705092391814467e-05
9.95743262110749362e-05
-8.37402030693472073e-05
-6.56764910004887609e-05
9.43491455974212052e-05
-9.60349617592958968e-05
-5.86664625954387654e-05
8.09893539424646179e-05
-0.000122114987332396901
-4.3165865262651375e-05
7.16575107354247998e-05
-0.000148086434179934672
-3.56976780124770005e-05
8.97115460637835146e-05
-0.000117086163288705945
-6.42961926204258037e-06
0.000184137249776331524
-1.12930036056270072e-05
4.19532872107742164e-05
0.000262535003276179776
6.8681633337837431e-05
4.90201291090041832e-07
0.000700207199925960443
0.000273156476264980726
0.00142432438594304557
0.000295352408506759426
-3.26606827533599747e-05
0.000113501173853161369
-5.57258916395352217e-05
-3.60709424242692576e-05
0.000110338349055372429
-5.93521410244297204e-05
-3.95543529011527933e-05
0.000106794435001506747
-6.25312091483692115e-05
-4.30687019448720146e-05
0.00010365194020006952
-6.52712815996907557e-05
-4.65928170761570969e-05
0.000101312644758547112
-6.81842525292303248e-05
-5.02725128413585885e-05
9.98175982678232179e-05
-7.14490806531803418e-05
-5.47093291347283973e-05
9.95552805730911866e-05
-7.55319931432843191e-05
-6.07451376146754554e-05
0.000100000193444280307
-8.16687806334366134e-05
-6.65196740222438526e-05
9.74774934760547939e-05
-9.50018099567138209e-05
-6.28485821530643939e-05
8.74650442531277637e-05
-0.000123999487217295497
-4.88712729390449954e-05
8.76586210776981209e-05
-0.000154636609724494243
-3.6754086250187562e-05
0.000106118229942734357
-0.000127657203579629785
9.88566112197996033e-06
0.000145262871642789203
-1.92269816005720743e-05
2.69057168383498831e-05
0.00027860791713348981
4.31151096334579954e-05
-2.08960250982608833e-05
0.000726212624362364279
0.000263722846191052375
0.00139395220963309838
0.000291577395617685046
-3.34599212215899841e-05
0.000108982595088436137
-5.4019438578953e-05
-3.62854251011942113e-05
0.000106522211179963688
-5.69889390121315099e-05
-3.92251685230670947e-05
0.000103814300909188997
-5.98284895907970864e-05
-4.22509875808278022e-05
0.000101344995718346693
-6.26503433921419021e-05
-4.52734937108666211e-05
9.94845125336813336e-05
-6.57751234702418292e-05
-4.84238826773761305e-05
9.8428817006591436e-05
-6.9411595174294821e-05
-5.22785319368457573e-05
9.89971299975166721e-05
-7.39880052912904199e-05
-5.77538402722966492e-05
0.000101143152338742848
-8.06039313683551883e-05
-6.33366060136729913e-05
0.000101242152356688915
-9.37653892621211337e-05
-6.09519368239187193e-05
9.50035860246382246e-05
-0.000121538844681422044
-4.73062241460868476e-05
0.000101868456227959702
-0.000151249911464436832
-3.87539809464676973e-05
0.000122416642576070941
-0.000125957799753595976
-8.21629153165914864e-06
0.000137334534978302513
-2.26201036428845581e-05
3.70388643795595534e-05
0.000291041667042764741
4.67344552878666829e-05
1.23022299217795915e-06
0.000735562034719481023
0.000254606979708873376
0.00138436739733157439
0.000286595460555081922
-3.23836459612638266e-05
0.000106019819826772959
-5.17747734770739981e-05
-3.53637467495458729e-05
0.000104223067106915329
-5.46354013226960984e-05
-3.83909276251320322e-05
0.000102172383980173107
-5.75623253914764134e-05
-4.13798472994299907e-05
0.000100231494859010577
-6.07105671072354731e-05
-4.42536143036370162e-05
9.87402401320207199e-05
-6.42620172941550698e-05
-4.70982361746245844e-05
9.80656635276459446e-05
-6.84491651480785974e-05
-5.0186400376631585e-05
9.9156921582385028e-05
-7.36490934145126152e-05
-5.3982092415227034e-05
0.00010215787278146226
-8.06791124630578462e-05
-5.71338155835171817e-05
0.000103518996663929806
-9.28052472071138728e-05
-5.36366969161574663e-05
0.000100473359245152369
-0.000116863011525911121
-4.08768435235771455e-05
0.000113437051258905708
-0.000142678932771544444
-2.7663395475379779e-05
0.000132132076639272566
-0.000120087293058186514
-7.3140418014250514e-06
0.000146146210161651204
-2.79422679748210657e-05
-1.28515680185106208e-05
0.000361968990887479762
5.46192228733849696e-05
-2.03058319104818842e-05
0.000705300205282825528
0.000242583499912200006
0.0013518203579792993
0.000282640251550916508
-2.26775525772424333e-05
0.000102974685552236541
-4.22199714629208864e-05
-2.56711158692595186e-05
0.000104884556603710084
-4.46158563684884027e-05
-2.87267492673633287e-05
0.000105369149236981565
-4.72241179784707975e-05
-3.18541334767275924e-05
0.000104761360755564401
-4.99631142933729659e-05
-3.50307466964743409e-05
0.000103454069099915408
-5.28535397028781427e-05
-3.81589788836291869e-05
0.000101860577369457261
-5.59710161589636426e-05
-4.11315641186109376e-05
0.00010028815287151689
-5.94551608274095623e-05
-4.38684145734610784e-05
9.90660614537309961e-05
-6.34647548989397193e-05
-4.63530075513542985e-05
9.86461203945658891e-05
-6.82439061558234899e-05
-4.84866003063276604e-05
9.98207069875163712e-05
-7.41277462748214162e-05
-5.01520140922115864e-05
0.000102720857680330124
-8.16706820500507106e-05
-5.00405209856887419e-05
0.000103908993265071166
-9.29672975781031157e-05
-4.39789757067478979e-05
0.000103482686309297055
-0.000113570436209975325
-2.68214871031232883e-05
0.000118228904370672243
-0.000135292614394360547
-2.94824754303001599e-05
0.000153528867087103531
-0.000111806824868019748
-4.07429849230954105e-05
0.000169223353508115795
-1.38254053553475146e-05
-1.76760788060375401e-05
0.000385381234000646295
7.87739159941277427e-05
1.80324086354447834e-07
0.000656360928288792986
0.000231618223812482386
0.00133832652018175654
0.000276723605860817394
-2.19337839124648229e-05
0.000103087032477743542
-4.10051336396517312e-05
-2.51987842916944331e-05
0.00010467853533656226
-4.32414443332179057e-05
-2.8505927540996672e-05
0.000105183339785562207
-4.57280124561340381e-05
-3.18363689779503441e-05
0.000104816055566856842
-4.84346471134605925e-05
-3.51373296940787048e-05
0.000103851119396993952
-5.14067771646405325e-05
-3.83022571231369572e-05
0.000102584866329593532
-5.47374078168965124e-05
-4.12223154506543126e-05
0.000101290115223249698
-5.85611740186819959e-05
-4.37970194807579095e-05
0.000100286952615354717
-6.30475835226769498e-05
-4.58938792407311076e-05
0.000100010153418647103
-6.84504928366781756e-05
-4.71482223078191427e-05
0.000100993119724448847
-7.51012276641340164e-05
-4.69607871241052181e-05
0.000103121236318465452
-8.33806001632582611e-05
-4.41758647115986604e-05
0.000103544823532739178
-9.46572465973780005e-05
-3.50966512129034574e-05
0.000104529190592564668
-0.000112898694465424256
-1.31253808165074045e-05
0.000121787545566946211
-0.000135451649621369231
-6.42122929808817487e-07
0.000161902943678164836
-0.000108836203004715373
-5.65576693350056209e-05
0.000216346134087727946
-1.04918365768330474e-05
-7.60137429119697272e-05
0.000423422914303394563
9.30254965167055017e-05
-1.187064128146194e-05
0.000558737998533778788
0.000217277549313459181
0.00131767197422595714
0.000270564415139884539
-1.43677517315555624e-05
-3.64511789975799897e-05
9.87319077765713476e-05
-1.79244249192379588e-05
-3.78594900680799936e-05
0.0001018030579443123
-2.14484803967566513e-05
-3.96868181601388599e-05
0.000104082372341812301
-2.49694688110345124e-05
-4.18422248299386802e-05
0.000105470223540842336
-2.84949779452666831e-05
-4.42769775881802954e-05
0.000106007731268282178
-3.19835622122660763e-05
-4.7003311414920405e-05
0.000105822627125230141
-3.53671673294569128e-05
-5.00949942757077175e-05
0.000105117600252836968
-3.85434871417873512e-05
-5.36640632862178324e-05
0.000104119456851551568
-4.13996017867991861e-05
-5.78552542514231184e-05
0.000103072806891734152
-4.3807298431754646e-05
-6.28613400645038799e-05
0.000102290082493794183
-4.55632845777036234e-05
-6.89656641758271577e-05
0.000102171795543506581
-4.61959999396579449e-05
-7.65461479502550291e-05
0.000103013915762979362
-4.4809195808205876e-05
-8.6088095634913935e-05
0.000104427679261932043
-4.12159211483660576e-05
-9.91050519915755488e-05
0.000105788698656076756
-3.05178540607767507e-05
-0.000120108030401295342
0.000109662590932078018
-4.35764730828299253e-06
-0.000146102446245492657
0.00012948014704211198
3.85375289841670408e-06
-0.000115413270722626663
0.000179520250589591845
2.68378395200130783e-05
-1.08187564602192533e-05
0.00017525543643644913
4.96296973103230177e-07
0.000104671247296230261
0.000434042585302652525
2.94110995671383003e-06
0.000197650250942194711
0.000550935519650082631
0.000266251514067808459
0.00132169670828015742
-3.76060464308146023e-05
0.000123336467175308732
-5.00207083886120845e-05
-4.10627813129669483e-05
0.000120014750331401415
-5.41536080290220233e-05
-4.49078668095348981e-05
0.000115666767977135146
-5.76253415093196754e-05
-4.96088485556178175e-05
0.000111505856647625378
-6.05629983314663037e-05
-5.53169559876817815e-05
0.000107617761433812103
-6.33007618168799182e-05
-6.23840745662488776e-05
0.000104225532066853588
-6.62405231123995374e-05
-7.33876861503658754e-05
9.92926571140462791e-05
-6.92294038291640349e-05
-8.931078055652844e-05
8.85315812383711913e-05
-8.06045031241525451e-05
-0.000100534810182165344
6.69647510392823783e-05
-0.000117160337085215192
-9.02651142223820043e-05
5.71985704623982432e-05
-0.000171981698585775008
-5.24597519229072463e-05
0.000142536275288438928
-0.00016757503896652862
2.24409146164891076e-05
0.000266972571655635621
-5.72566196925564336e-05
7.40264904482787088e-05
0.000256589351272179251
7.30788438447656095e-05
-2.51426356188207308e-06
0.000707775251153725101
0.000304596387483926532
0.00134237013088918432
0.000297017847951330251
-3.64680811911517332e-05
0.000118672695590061223
-4.70425351272491817e-05
-3.92315344506209639e-05
0.000116934321016428828
-5.01850284682051574e-05
-4.22734511603778488e-05
0.00011385942679347866
-5.33322387466426308e-05
-4.56371303323675556e-05
0.000110040672691276485
-5.62797355991324159e-05
-4.95086046140518052e-05
0.000106313714163473594
-5.91191590503873296e-05
-5.4246817544996113e-05
0.000102901936741889443
-6.1993856931863889e-05
-6.09161986995733194e-05
0.000100304250050237237
-6.49410040966827781e-05
-7.30693969599268041e-05
9.80576313180279925e-05
-6.82805450716790664e-05
-9.28237508556081737e-05
9.30872701835129443e-05
-7.98024989001583064e-05
-0.000109737041098256224
7.69131383649427269e-05
-0.000117034187466339521
-0.000103508440181817007
7.15664377737634192e-05
-0.000175233280255070894
-6.27487315977433269e-05
0.000150495209339056887
-0.000176375814220717316
2.23543563055282369e-05
0.000237484105410367384
-7.48419181691755748e-05
3.3868631148027933e-05
0.000253199158657422337
3.49923902269775146e-05
-3.13302348235262786e-05
0.00073180052204221426
0.000304895584831393288
0.00130965118662901172
0.000292966063169788221
-3.55054803664705659e-05
0.000113840547023970101
-4.63748342648733774e-05
-3.84763118412809969e-05
0.000112157912728226892
-4.92410342227873898e-05
-4.16638192955028506e-05
0.000109391895669657551
-5.21729239685632417e-05
-4.51127404986036764e-05
0.000106043571199027761
-5.52038155927436167e-05
-4.88526810999784315e-05
0.000102642294025696312
-5.83633125108524046e-05
-5.31630878638305224e-05
9.95598569481912816e-05
-6.17590565854045235e-05
-5.92893030290201042e-05
9.76456420624817451e-05
-6.52035585577933257e-05
-7.06090344920412094e-05
9.75863839628832001e-05
-6.88136328016570285e-05
-8.90563788898309503e-05
9.6959954075165149e-05
-7.91914787394998332e-05
-0.000106129022339754083
8.6339331003968512e-05
-0.000113893469171006504
-0.000100816417963442494
8.36457034857163655e-05
-0.000168641896048823926
-5.91253582563113362e-05
0.000154070978250773512
-0.000171224936225435542
4.5896023613451454e-05
0.000193351935484680198
-8.35110751679953977e-05
9.96371126920896771e-05
0.000234661213324821697
1.15328187266289621e-05
4.82090703708454478e-06
0.000775575231374219616
0.000305647282523611096
0.00131110267342080802
0.000289964956659261172
-3.48498434979033108e-05
0.000111068042544150089
-4.59154151378643211e-05
-3.81106159607695516e-05
0.000109500472632055202
-4.87168127455423679e-05
-4.15382529328789e-05
0.000106989426446071898
-5.1732243217679807e-05
-4.51051032571898495e-05
0.000103920498033984232
-5.50205042860327912e-05
-4.87842055854219018e-05
0.000100682686688617314
-5.86232403097632361e-05
-5.27705400996211527e-05
9.76803657912967072e-05
-6.25836398394524242e-05
-5.79626436744617248e-05
9.58493125573776e-05
-6.6661105602055723e-05
-6.67231997152023884e-05
9.60671151716155987e-05
-7.04002128310861461e-05
-7.9946184767449682e-05
9.64556465137318702e-05
-7.90795133892809228e-05
-9.20994001187627482e-05
9.12002141938469659e-05
-0.000109572186357382421
-9.04316462801376438e-05
9.99066462057269784e-05
-0.000160606880918421745
-5.8402050110857603e-05
0.000162799400631185654
-0.000160845141434384721
-1.97359470141957543e-05
0.000206474430013961073
-7.97326000684322014e-05
2.45487752457613541e-05
0.000250077518991829951
-5.08338173881887158e-06
-3.13718409198619373e-05
0.000770816264205805685
0.000303263269510361361
0.00127734640274601357
0.000285024684824544065
-2.48428472229909379e-05
0.000106965121596276278
-3.91054058746424338e-05
-2.81101678273167277e-05
0.000109361795858946669
-4.08428170169029435e-05
-3.13900778224162182e-05
0.0001103797316419227
-4.30175419068718048e-05
-3.47735203418270269e-05
0.000110047574172460823
-4.55587080228197147e-05
-3.82863514600545129e-05
0.000108574521520529691
-4.84145005807026769e-05
-4.18902519007681486e-05
0.000106237113650551067
-5.16147366918994161e-05
-4.55186969113983211e-05
0.000103322728428857852
-5.52285639100309419e-05
-4.91135102987837747e-05
0.000100122604410960301
-5.930982050658219e-05
-5.27734394864372915e-05
9.69738686551835719e-05
-6.387790377131065e-05
-5.700229452903346e-05
9.45274838493596106e-05
-6.85776677663832765e-05
-6.30116511890706807e-05
9.31409978309497499e-05
-7.27360758912483937e-05
-7.10825514048953576e-05
9.22613467205646293e-05
-8.07030446258761582e-05
-7.57931415022049839e-05
9.09365474543601766e-05
-0.000108595789358492971
-6.94942268207995921e-05
0.000113203628338885812
-0.000154886891129769118
-4.02610180638031994e-05
0.000174099931108904755
-0.000152341683989628158
3.14598698823273959e-05
0.000184293902357461517
-6.33660494375233054e-05
6.427962936572185e-05
0.000285694520587577785
1.0336839625381363e-05
-3.48983970643781255e-06
0.000777919957963309661
0.00029228428124570741
0.00127003380765435187
0.000280546321282953374
-2.41401939885312484e-05
0.000108013096302606864
-3.83881327360119053e-05
-2.77201406990358289e-05
0.000109898486235696072
-4.01973566515133776e-05
-3.13115481858465211e-05
0.000110654752758366506
-4.24109689984952624e-05
-3.49645369573699041e-05
0.00011027301012238258
-4.50066218493263545e-05
-3.86825459171371726e-05
0.000108882300465081396
-4.79961594111426513e-05
-4.24142021698517595e-05
0.000106673906589565829
-5.14421671445121657e-05
-4.60864327626779057e-05
0.00010385864982179641
-5.54243868388734712e-05
-4.9636732963657559e-05
0.00010064607159211685
-6.00204583630705669e-05
-5.30882778614258886e-05
9.72073655930127381e-05
-6.52326543638937065e-05
-5.66644822571007e-05
9.36304438025072864e-05
-7.06287451590288299e-05
-6.10108462262516223e-05
8.95965301554761066e-05
-7.54904792235371931e-05
-6.54734653461497176e-05
8.62391760214897276e-05
-8.41728253118046219e-05
-6.58063448384452876e-05
9.10717091231224413e-05
-0.000112701103642813641
-5.30945674545017736e-05
0.00012464110757785346
-0.000159602873653415516
-2.37504062334798396e-05
0.000191428428339126481
-0.000155507234542035628
7.09168273573817392e-06
0.000191809499675726772
-4.8848911269864232e-05
-2.72309594715402993e-05
0.000377121155527528258
3.59178318689490659e-05
-1.85407232971123576e-05
0.000700957007729181977
0.000285551069167030167
0.00124699396035802927
0.000275062881354833154
-1.574142709392941e-05
-3.47438241947767745e-05
0.000104143348029253158
-1.97331751864039058e-05
-3.58592479981669819e-05
0.000107168160886694688
-2.3625585328382956e-05
-3.73544135300554018e-05
0.000109573558732032255
-2.74743858514254582e-05
-3.9234262795363857e-05
0.000111139907672088933
-3.13346133155549742e-05
-4.15105864480919186e-05
0.000111748855096399641
-3.52243773254655912e-05
-4.42074418773539266e-05
0.000111367011418704205
-3.91249736918560049e-05
-4.73827223819323022e-05
0.000110070654232294677
-4.297614548652121e-05
-5.11276909581069063e-05
0.000107988438492079286
-4.67085302851067742e-05
-5.55476245725884877e-05
0.000105283048962202987
-5.02780758842523074e-05
-6.07360960648423018e-05
0.000102090191137759002
-5.38142177823795292e-05
-6.66917650675077483e-05
9.84691358845194657e-05
-5.76917856779194798e-05
-7.30807510543328057e-05
9.40420249121920113e-05
-6.32870998127108231e-05
-7.96448116873938236e-05
8.87479551763477076e-05
-6.73420006237039626e-05
-9.30295644274862555e-05
8.42182579054603876e-05
-6.76000059738890706e-05
-0.000128342317675851267
9.9563991824138954e-05
-5.06887232959684001e-05
-0.000178846332047358957
0.000140474176610004694
-2.41591917988117472e-05
-0.000165313538675487402