/*--------------------------------*- C++ -*----------------------------------*\
| =========                 |                                                 |
| \\      /  F ield         | OpenFOAM: The Open Source CFD Toolbox           |
|  \\    /   O peration     | Version:  2206                                  |
|   \\  /    A nd           | Website:  www.openfoam.com                      |
|    \\/     M anipulation  |                                                 |
\*---------------------------------------------------------------------------*/
FoamFile
{
    version     2.0;
    format      ascii;
    arch        "LSB;label=32;scalar=64";
    class       surfaceVectorField;
    location    "0.480000000000000204";
    object      Uf;
}
// * * * * * * * * * * * * * * * * * * * * * * * * * * * * * * * * * * * * * //

dimensions      [0 1 -1 0 0 0 0];

internalField   nonuniform List<vector> 
20856
(
(-0.00788046606869365583 0.148418492733679436 -0.190172181944989527)
(-0.0317069638604528387 0.152770841891164411 -0.191681493556562721)
(0.0403841732150610616 0.11954910411238058 -0.171723388341139233)
(-0.0456485753296255875 0.142420504613069626 -0.214180306795145325)
(-0.0603483464967336791 0.146961932430643927 -0.212139330051632186)
(-0.0524062147554341592 0.165812642008513672 -0.203834511856234663)
(-0.00646870329301584088 0.116128727513474292 -0.203179969465309446)
(-0.0770504024450751335 0.138413445218724368 -0.227247918924849523)
(-0.0851355737380465327 0.142043352186413091 -0.224782444445579849)
(-0.0813082685991125681 0.159598335335813468 -0.219392800825125911)
(-0.0450284946294523952 0.114457911076788973 -0.220249515469900542)
(-0.100340264786208597 0.136386138616637509 -0.236076242437995576)
(-0.104973440795657499 0.138949880185886193 -0.23199375562956398)
(-0.104729197343559233 0.154650549094590944 -0.229816696188519604)
(-0.0731219378238471829 0.114844412066365795 -0.227694311021983981)
(-0.118872088413047181 0.136793098142920927 -0.246669113425195125)
(-0.120877702518958255 0.138175062944806581 -0.240443911726999443)
(-0.122888088613851226 0.151699201320798893 -0.240420687984432141)
(-0.093749335677475204 0.11701945726282105 -0.236119708093462416)
(-0.134511219480196786 0.139146693971974877 -0.260319901105384333)
(-0.134198144896952587 0.140012300756573088 -0.250819824989094275)
(-0.139169362464515889 0.150842077206849473 -0.251893776859736129)
(-0.110432007637743065 0.121541026582621628 -0.247093171014723056)
(-0.147996152692551675 0.142021514231090717 -0.27817077702783044)
(-0.145472839339970073 0.143004175900726616 -0.265521206246302377)
(-0.154995728502784674 0.151426123104890953 -0.266835490413383281)
(-0.124656991802788733 0.126547329226089217 -0.262133741488873584)
(-0.158923400694950173 0.144042741570843458 -0.300974148993850554)
(-0.155126020162359157 0.146112892450928317 -0.284719704733424561)
(-0.169983335986324952 0.151397923771598275 -0.286690320005090371)
(-0.135585390687136653 0.131283387969814813 -0.280502764849415887)
(-0.160186118180667275 0.143590562074476291 -0.329054042856433138)
(-0.162150239978286481 0.147836976431014233 -0.311095026546144515)
(-0.184019444420880363 0.147002967816394908 -0.317518412457242161)
(-0.143047684919594104 0.13567163423295156 -0.302993758365614541)
(-0.140988229876104099 0.13704166838916515 -0.35135048366082261)
(-0.161999381533797476 0.147298130838936892 -0.343395356176249278)
(-0.188515753260691477 0.134316012685043867 -0.362987948086767376)
(-0.143931044870603431 0.138942009668275718 -0.327445249850825959)
(-0.133521791573827014 0.14039017057894726 -0.325008468489132452)
(-0.12296154800346773 0.143104594752137576 -0.360407524421973102)
(-0.139222761698509334 0.117069312793154842 -0.387684163359905243)
(-0.112502083007172543 0.13286289149241956 -0.340062755961501206)
(-0.159070494431711784 0.246365900214215117 -0.171980950084288042)
(-0.0826822220886174325 0.157188772655455944 -0.2963417789470566)
(-0.0600280532306333922 0.140364548351518792 -0.301774243322075086)
(-0.100211140792308862 0.161394756096896991 -0.294188098694491584)
(-0.066527918338173786 0.459734109123623114 0.133476075447565207)
(-0.481384769011947045 0.319864999687135332 -0.0485989686319389519)
(-0.477268235483655545 0.333820144580155354 -0.0438010014460196231)
(-0.458187737764208791 0.377014353759260568 -0.0456530208128875375)
(0.0479906331833939992 0.869705048162383587 0.540340422720046565)
(0.701819334974720155 0.582158871008563117 0.325818696620778947)
(0.770228282277563236 0.509772139056939078 0.264157271856858611)
(0.659151171346629372 0.656483755758357379 0.386769951047875038)
(-0.0322574285289269833 1.78952649377162176 0.826949393793303011)
(-0.897617540957243332 1.18192245157719356 0.745469624944919751)
(-0.901096907022584048 1.16003789386376344 0.80550622237656011)
(-0.919339631828582249 1.20622914476484477 0.729460732230634568)
(0.955192884967669742 2.39127102028227423 0.884337531064440796)
(0.983169522420482944 2.35098081097588851 0.914130182938643121)
(0.952516331950919892 2.46380043716343389 0.863390475669188806)
(-0.0846866748200751224 0.153952660782765482 -0.213648641663205296)
(-0.0848578526571248243 0.155998116726828145 -0.206484130898604235)
(-0.0876409667265367204 0.171696257538610286 -0.201362815289545999)
(-0.0635003061811741931 0.133453299222760391 -0.212561332519070084)
(-0.10017761104073554 0.148021454869965652 -0.222741467702066792)
(-0.0984138296653168515 0.150475986189602812 -0.215141319258132929)
(-0.101485812605683678 0.165561550641857541 -0.212697681903202929)
(-0.0835743741940311313 0.129261457484643238 -0.221161440878481497)
(-0.11340925773969894 0.14367631676528661 -0.229528281150294389)
(-0.110132267663974576 0.145834267816718238 -0.221258410455492244)
(-0.113971564973706821 0.159604018859538732 -0.220951532357023334)
(-0.0988034312960520134 0.126285487301824539 -0.226602885439756319)
(-0.125494080998635266 0.141542462788358636 -0.236361424918567792)
(-0.120977587785060348 0.143043408972624242 -0.227628663071711146)
(-0.125884896514029287 0.155049884079362432 -0.228156421608110338)
(-0.111730146549323714 0.125413407110378211 -0.232056145964219945)
(-0.136400975395846419 0.141739497267553055 -0.244594623290898372)
(-0.131048800122117282 0.142367483096670161 -0.234887153253593495)
(-0.137455167559992486 0.152438583847613635 -0.236148182275278784)
(-0.122954598066522591 0.126773387346435812 -0.238671549105348296)
(-0.145409988981405253 0.143771148545727867 -0.256021130130012098)
(-0.139490492840634334 0.143765417849341465 -0.244483113539001679)
(-0.148037372759084435 0.151701046866472122 -0.246046816029313414)
(-0.132173208096678069 0.130164458050521431 -0.247550244800430364)
(-0.153318786577909066 0.146854932122534643 -0.272070133951896442)
(-0.146534621758097061 0.146793353774545943 -0.257982736587303696)
(-0.158383009613260295 0.152507742122908851 -0.25959973262318109)
(-0.139167679837825464 0.134434551362178523 -0.259930133189855028)
(-0.160371478678858453 0.149739454184714876 -0.294840582285718245)
(-0.152679304641986591 0.151037349257560516 -0.276936242365968366)
(-0.1694581154733657 0.153874114778641963 -0.279288600173707713)
(-0.144337271879906387 0.139206840375590862 -0.2764914456304427)
(-0.160444001253907426 0.151580440946613826 -0.325436339865960267)
(-0.156755938612742951 0.154680895670830543 -0.304284739183376729)
(-0.182439413716014548 0.151705324979484107 -0.312471828292216147)
(-0.14738084510926891 0.14417368803193778 -0.298854881522886529)
(-0.143903903828704632 0.153322643317644336 -0.352452396937399715)
(-0.157445534861451686 0.158588194364538831 -0.338878153712441788)
(-0.193672156645866206 0.142692871426896684 -0.364329037568755509)
(-0.148008881863639252 0.150195216586546415 -0.325208307880374137)
(-0.134577034103561116 0.159263611854522924 -0.331740834879896918)
(-0.123318113441574256 0.167919450364875683 -0.359700114869806131)
(-0.153896316136253736 0.140155534954178096 -0.398906507783269304)
(-0.119903455267034789 0.155958839850399128 -0.339950022018896236)
(-0.159336255692423406 0.226483413850186749 -0.172959797494704248)
(-0.0740766215990221327 0.179350783923650087 -0.300771357125646732)
(-0.0683748391326071125 0.159553793195737897 -0.317226063374591971)
(-0.099915465496142955 0.17463951056634236 -0.29766062856314851)
(-0.0780232860814550344 0.428267496521439028 0.143743652541279798)
(-0.416486060033068095 0.287098344083893509 -0.0136862655213652457)
(-0.461251387750392206 0.274935290250571895 -0.0366712285984781283)
(-0.413154180645160296 0.342348692959314749 -0.020888770363702177)
(0.0601033114909683697 0.885320961119635763 0.530947898845660626)
(0.487242044568844568 0.598390727368652509 0.384523576197493722)
(0.765391430707412557 0.491006611121305225 0.243865857043748746)
(0.542546194591603914 0.669385266225012154 0.414457541420705955)
(-0.0111799045457515733 1.78868854108519937 0.802857762216056758)
(-0.87346845959574837 1.17121600821543104 0.698157144140404862)
(-0.922202045724109354 1.14473681142887518 0.774164380899639792)
(-0.871240577249439818 1.18260622477223354 0.681468737570567917)
(0.942305420905829805 2.3547006575346896 0.867759420371077117)
(0.967354653101904938 2.31561104980607535 0.902723837018479691)
(0.944053378331346393 2.42945678394074216 0.840763037589290385)
(-0.0988273432496593884 0.15240625575430411 -0.207976808493531812)
(-0.0931137841191582577 0.153980625495114765 -0.19841752982320035)
(-0.09816143338381908 0.166195137481002453 -0.196056941256590511)
(-0.0878351120898441667 0.13699457204217555 -0.210223264227364232)
(-0.108661384105160422 0.147942755555664912 -0.213658262011558436)
(-0.102686696978144504 0.149897252626915362 -0.204468628083470494)
(-0.107579848201660389 0.161434870666642166 -0.203619468615204913)
(-0.0989271681626326255 0.133515874800604201 -0.214612243746567261)
(-0.117930238051184508 0.144732344234906607 -0.21935879237690914)
(-0.111992839254781901 0.146459539529366412 -0.210147636361881468)
(-0.117015748464842723 0.156895494089040854 -0.210396272236026555)
(-0.108974414488940283 0.131001984411272088 -0.218416084992676618)
(-0.126603410694464735 0.143351072432712584 -0.226154391406736877)
(-0.120742772150397179 0.144490504470686287 -0.216797860765066019)
(-0.126347252467978372 0.153518349496117867 -0.21754743035119542)
(-0.117996679585868944 0.13042426195908266 -0.223327402149910093)
(-0.134286451956806246 0.143878674200584422 -0.234775643501696663)
(-0.128631179193636092 0.144263514442992735 -0.224883357742672513)
(-0.13541031018775479 0.151647573016686243 -0.226003477206824871)
(-0.125669582944401448 0.131789735898719534 -0.229894995861738588)
(-0.140713353279125375 0.146324191255333552 -0.246444719996292971)
(-0.135035990413782947 0.145894961146963098 -0.235340152437757605)
(-0.143720900467669027 0.151392613038475038 -0.236641770689831138)
(-0.1315662842426292 0.134878901469073831 -0.23880953818449438)
(-0.146438044680515578 0.150524764227348867 -0.262848845001375231)
(-0.140433622888890858 0.149579429544823478 -0.249425006862723064)
(-0.152142082770108433 0.153198825009011136 -0.250879753422982466)
(-0.135910265710319389 0.139449358707250309 -0.251030050396733428)
(-0.151489710405856293 0.155534238522311435 -0.286380399263626517)
(-0.144491046232831571 0.15553494598588069 -0.269135028402136378)
(-0.161136357416173687 0.156749798694483494 -0.271792738526884459)
(-0.13874366013353237 0.145458490998802065 -0.267845387029767013)
(-0.150633424563353796 0.161267782445939201 -0.317726553029857472)
(-0.145379034749962638 0.161768363721382702 -0.2966357444550769)
(-0.171771851398959313 0.158475525443833865 -0.305865712364593811)
(-0.139251761587319806 0.152471268149376477 -0.290832289860726123)
(-0.13400031791197442 0.171979774718556161 -0.34612587164484826)
(-0.144134021289628128 0.169979238991955023 -0.329887722528609817)
(-0.18421248185187955 0.15542600432315129 -0.357169092048958026)
(-0.139254182728282883 0.162759746833504193 -0.317754184988082777)
(-0.115189260107346314 0.183490154726392352 -0.328730637115555391)
(-0.114042520880230508 0.189947191116791092 -0.350680888941574065)
(-0.150537690127967916 0.166037694202884362 -0.394860438307824468)
(-0.113492192881109774 0.17960192896817409 -0.331993720101842305)
(-0.11926611584988818 0.247577520150567748 -0.141497825152303774)
(-0.052151450192446408 0.199210380080637212 -0.294553846889259563)
(-0.0595262784076853388 0.184825478968275281 -0.323543751420287073)
(-0.0801330555193532496 0.194008786846894987 -0.287899455273138927)
(-0.166644328534373137 0.476176589949331541 0.227093658134857102)
(-0.327202948370381552 0.331881684907595398 0.0191951533007924773)
(-0.389532185472515002 0.261676314862987036 -2.87924346454877106e-05)
(-0.320051627682270856 0.386418417441807938 0.0421620074068920908)
(-0.163040110810061784 0.882639924994148228 0.551732821492243009)
(0.227838075440306209 0.665713809530738998 0.449040551268503063)
(0.500931623613659172 0.551403430639513914 0.334167215082097346)
(0.175212030453364448 0.72909539368692855 0.472421042682137693)
(-0.0297980957399679308 1.72832781991857498 0.763058802295426886)
(-0.874757655750448615 1.05690635865885785 0.639101762762455339)
(-0.838137516930730131 1.17309139742557966 0.730072376369963805)
(-0.891798761926909989 1.08162589538222242 0.634697230974032411)
(0.930281591140235231 2.31387981309258617 0.852174940469999864)
(0.951006219322109381 2.27958662655250555 0.882497430538013217)
(0.936465581721096507 2.40300324294426115 0.830653903727337273)
(-0.0972486732912779817 0.150888108576362617 -0.194909349413139116)
(-0.0910774859682970672 0.152191370789934749 -0.185736463599494084)
(-0.0957166408661555002 0.1619235938266331 -0.184392720122371401)
(-0.0893951872369239675 0.138394238935796776 -0.197181481314127771)
(-0.106317502314299719 0.147850702222819125 -0.200958002433793553)
(-0.100430509354746303 0.149460007772154901 -0.19211072956106956)
(-0.104955671893575464 0.158582611659793066 -0.191727790107939472)
(-0.0987781503265107719 0.135954384318308641 -0.201672211444426069)
(-0.115014415736473877 0.145724866552743082 -0.207586704750038431)
(-0.109548123247689075 0.147240002561317862 -0.198809905821681732)
(-0.114315419141850283 0.1553400844458101 -0.199141402080641627)
(-0.10764731470405374 0.134364504863099532 -0.20627809194729041)
(-0.122901506547923922 0.144985933118647964 -0.215526827101001711)
(-0.117947354967513837 0.146083245332629202 -0.20656185425233406)
(-0.123420081066449652 0.15286695595565844 -0.207402733651018994)
(-0.115602962847186463 0.134254495137174301 -0.212105053249665138)
(-0.129553667464088279 0.145949926972979926 -0.225447866678733566)
(-0.125081948022822437 0.14634634144171893 -0.215995253184589342)
(-0.131798080023726255 0.151555318587551197 -0.217216805754146841)
(-0.122087517780581523 0.135717552593294766 -0.219704063852086295)
(-0.134836361554663497 0.148903987119117454 -0.238320439304187476)
(-0.130583457579156514 0.148366997120223054 -0.227792293623612502)
(-0.139274735158275542 0.151788209067817037 -0.229300684934047261)
(-0.126701473194935577 0.138888391343646334 -0.229638345183540593)
(-0.138854604971724777 0.154320409492481492 -0.25571119026348399)
(-0.134696656635324458 0.15274463929961038 -0.243104243344456794)
(-0.146395879078278834 0.154571568167871348 -0.245045204474314965)
(-0.129792433452448452 0.143906521098243256 -0.242729235398147225)
(-0.141014117262687894 0.161397870016131484 -0.279390373593586649)
(-0.136360725830381752 0.160049040352979483 -0.263568317459666468)
(-0.152670615676343352 0.16022889189038389 -0.267070001220751141)
(-0.130859329668411101 0.151449570280656698 -0.260197404686913103)
(-0.137052074691109693 0.169933299446244107 -0.308796913953829244)
(-0.13269040013419714 0.168157532384028446 -0.290229485981812918)
(-0.157491389250415226 0.164669094428909729 -0.299774829166708667)
(-0.128101938745900812 0.160369831909131955 -0.283033487364029557)
(-0.117444043923653568 0.187303975711797438 -0.334442739825335844)
(-0.126104230646704119 0.178744325812955518 -0.319655584975784224)
(-0.164233819764680045 0.165774133002126206 -0.345265184850343576)
(-0.125060788230585612 0.173721943673071033 -0.308127474491894482)
(-0.0926511610222121168 0.204592539038457172 -0.31650409871527746)
(-0.101214269705641305 0.207323714444650642 -0.336849121201847512)
(-0.133933730115511546 0.186281330067856216 -0.378720667851047799)
(-0.101748056980060134 0.199666542330241503 -0.319173610090419724)
(-0.0917529856362703095 0.283277358225228759 -0.133860868436163877)
(-0.0143634671447313948 0.21670957760923551 -0.282879367780563939)
(-0.0416566062015335317 0.206607148883531211 -0.310913510954278105)
(-0.0482976991892887092 0.211547820128259179 -0.275015879292142718)
(-0.207280636757991715 0.529450142814929414 0.241142046434444035)
(-0.293568178144859193 0.395115734885352843 0.0126238441432604369)
(-0.308595919859532664 0.290533208928498932 0.00389435290726906783)
(-0.30205946717842086 0.43591229474953519 0.0148328915017572442)
(-0.236825029380425489 0.853744914586239578 0.536409492538714061)
(0.157952368799580689 0.72015850507417345 0.446281580921882637)
(0.362703579881499538 0.604612385480852943 0.384035182642370909)
(0.173820795845552156 0.768127122466695011 0.463379891655592513)
(-0.0148617788142569804 1.65266155950633942 0.728217900937034202)
(-0.863127793848790126 0.92359804361254938 0.604578942115633899)
(-0.89993779223567949 1.06673808012350291 0.655572934342657065)
(-0.871170148956324497 0.969067846310026848 0.610919567044084455)
(0.920285764456439392 2.28863260193521745 0.83868466703700606)
(0.935702993790176296 2.24586017740577493 0.865277004418068429)
(0.929438516331960507 2.37102254780882582 0.829644515930794357)
(-0.0650746944366382557 0.153790778880531498 -0.159569595168519235)
(-0.0588238906255583102 0.152938681383446018 -0.150482191984552871)
(-0.0640237420911735911 0.159265756557843724 -0.148283136031345936)
(-0.0561205674511656635 0.142867511880953729 -0.161274721018888179)
(-0.0749076226952833657 0.153859856499680758 -0.168360409011775625)
(-0.0687295460216013343 0.154005282550213063 -0.159388437985613363)
(-0.0735861964061438889 0.161431461984146846 -0.157407166980253171)
(-0.0662919316942532921 0.142763308674245137 -0.170552512470521223)
(-0.0848464562792525245 0.152569785513554435 -0.176002947469372395)
(-0.0789238056602954707 0.153497177864704543 -0.167354843767630407)
(-0.0833663867425940147 0.161383951502490186 -0.165986935236712235)
(-0.0767593286180207612 0.141568241728502797 -0.177803380559102414)
(-0.0945542449988444611 0.150628687440691938 -0.182937843747424528)
(-0.0889890190293169542 0.152135263441091767 -0.174557270202494758)
(-0.0931958223058932111 0.159899516905082528 -0.173917713694299869)
(-0.0868530173957360457 0.139993493758635928 -0.183739455699069049)
(-0.103965914863092229 0.1487084830395623 -0.18996263294895771)
(-0.0987709449520328131 0.150449459183178952 -0.181668780163625226)
(-0.103061091065583685 0.157617357884554055 -0.181757747969537975)
(-0.0964095316951732034 0.138487641010202722 -0.189191267461632173)
(-0.112712971690521357 0.147447442741380441 -0.197785055323977499)
(-0.108012028543256061 0.149113493874618031 -0.18939763505630236)
(-0.112769145346820074 0.155328622344996642 -0.190115735634581451)
(-0.105251380736698652 0.13770667372865858 -0.195116278038811181)
(-0.120300865122776574 0.147292428977975426 -0.207030280335921607)
(-0.116216221498303615 0.148570383761072594 -0.198323007894161962)
(-0.121872712918635065 0.153524597464862439 -0.199588958348419748)
(-0.112896131363705868 0.138044026808324533 -0.202203142954977516)
(-0.126348778357660896 0.148620280078457206 -0.218339680129468305)
(-0.122856239197641187 0.149244437280908221 -0.209065015491532002)
(-0.129900751357178434 0.152692476919063402 -0.210803333127336734)
(-0.118800286462099294 0.139737319461752274 -0.211055835556345217)
(-0.130556619554132447 0.152059035451651003 -0.232576097663881765)
(-0.127552825602076841 0.151601209989522645 -0.222254559534566881)
(-0.13666906546125801 0.153381375245326967 -0.224472521352344884)
(-0.122625238423731492 0.143029750833023106 -0.22221101698572629)
(-0.132469265473697084 0.158354088968058027 -0.250961370540639328)
(-0.130130132014822097 0.156482200948668798 -0.238892117801684817)
(-0.142212472295104614 0.156689313671017905 -0.241909909050875283)
(-0.124485595165946414 0.148638295337760989 -0.236344200364559637)
(-0.130576787257659727 0.166680189379042026 -0.274407429847892292)
(-0.129021274758304827 0.16434357711859976 -0.26011433419943375)
(-0.145098403405750004 0.163070055938599467 -0.26487112258710438)
(-0.123351878329893361 0.157218531718144205 -0.254387199378622142)
(-0.12189425315619519 0.176821106628341551 -0.301088157003768064)
(-0.120132114627346437 0.173531797735433119 -0.285850660050960492)
(-0.142575472464706449 0.168822927784371579 -0.295886896783000286)
(-0.116349356788112424 0.167421615302084187 -0.27645517499592509)
(-0.0971840842250410175 0.198753255580286947 -0.322061966352296225)
(-0.105651752518357969 0.184200992505564626 -0.311367798713107047)
(-0.138930322641459741 0.173738297899379834 -0.334396227517924305)
(-0.107525551253600499 0.182187102252065247 -0.298771725498292506)
(-0.0642310673844074531 0.22305169792165952 -0.303224390267133992)
(-0.0890671663514555068 0.219344043005789829 -0.323429762198558957)
(-0.114603709207313248 0.202090967860987764 -0.362696922719087489)
(-0.0900136055616154451 0.216222395021753472 -0.305702188914644846)
(-0.0802495882016886347 0.32745087442369214 -0.136394655201142245)
(0.0413323986525222856 0.241209870857623326 -0.270543677314741049)
(0.0123305966294128821 0.230269890147851625 -0.297826298641059639)
(0.00215653234028735999 0.23131058962577361 -0.264840617169337322)
(-0.180537284720624303 0.578599689553303653 0.217763378630702942)
(-0.297765991574746425 0.427545843117406399 -0.0379727670865433742)
(-0.331782874131239469 0.335684761259431752 -0.00642922587204939125)
(-0.324588469412894876 0.466603440295217498 -0.0418476230187954101)
(-0.243263158457616868 0.790045957296659496 0.514451030498801476)
(0.240047065010504795 0.756402721986128679 0.415834266936972397)
(0.269964869149202147 0.677529304645595354 0.400813764390291261)
(0.30071904625932655 0.781405606427755917 0.410576592984484789)
(-0.0138628968691794988 1.56207051297191968 0.715045708215609643)
(-0.85531960320525946 0.802263773400717972 0.591790579163555264)
(-0.81578728456362759 0.984103077328210341 0.641714460898448524)
(-0.853937667837971981 0.865583427898586111 0.628443678264479888)
(0.912932626376876111 2.27684559771658845 0.831350638183922408)
(0.922863272062011908 2.2146829999760671 0.841758043252668231)
(0.923169184904612306 2.3384794789734249 0.832046929302751037)
(-0.0624965626266070426 0.153304495543105435 -0.15030103480164686)
(-0.0564860472767352989 0.153249058012856959 -0.142411869052074758)
(-0.0611234361891731665 0.158669144215224295 -0.14130987275356599)
(-0.0533058784624790491 0.143831436473702584 -0.150649512758913334)
(-0.0728886189215737917 0.153722093056335996 -0.158382872741468145)
(-0.0670319798235391451 0.154420161940027639 -0.150474953062722294)
(-0.0714424700789833556 0.16059106856612701 -0.14948221114062557)
(-0.063987447641699266 0.144071046678574399 -0.159048611710737087)
(-0.0833455130755074575 0.153082082698373201 -0.165909166500752742)
(-0.077754005061055384 0.154403499592299098 -0.158059883374566529)
(-0.0819255853346360641 0.160845622611013261 -0.157508719415721365)
(-0.0748494154950764129 0.143477908617782812 -0.166155792867156982)
(-0.0935093555266415105 0.151939636634434661 -0.173288206618695512)
(-0.088270706914085395 0.153698054145919805 -0.165435344064384898)
(-0.0924033972347255983 0.159952292552251268 -0.165474038318484257)
(-0.0853202938841496894 0.142577300072808666 -0.172513679831699074)
(-0.103127760190288936 0.150815784008713843 -0.181103782270970043)
(-0.0983069974027760696 0.152749125467909419 -0.173116459079541596)
(-0.102725441126876371 0.158423443390918212 -0.173794196790257177)
(-0.0951158010496785528 0.141800382160593735 -0.178813573549754301)
(-0.111777560672979601 0.150182479687790332 -0.189935587626487101)
(-0.107505997256140712 0.152035388043670089 -0.181669713135055672)
(-0.112579888035146278 0.15679900902987573 -0.182970204301538597)
(-0.103902476046227474 0.141599877117010609 -0.185776392099854581)
(-0.118995898901792602 0.150461882323532609 -0.20035774304977233)
(-0.115407362276840786 0.151955197145308418 -0.191636120893969975)
(-0.121540241844458954 0.155515727816388671 -0.193535106754284064)
(-0.111215038440522246 0.142297265232257303 -0.193984493751800019)
(-0.124347504067279735 0.152152917527566545 -0.212979894896630495)
(-0.121510721102625674 0.15296328590191885 -0.203584534866821876)
(-0.12916825983844421 0.155053495920064316 -0.206085147666549479)
(-0.116568913886617165 0.144198774652286255 -0.204000090045978355)
(-0.127339366585900615 0.155968259911676704 -0.228570579672369933)
(-0.125289256479950012 0.155633231642694048 -0.218125401424872689)
(-0.13511094277023955 0.156059556795002913 -0.221385711051647005)
(-0.119565698584893715 0.147757127457201792 -0.216312862122390426)
(-0.126867751371715437 0.162413591554603137 -0.248045081460479322)
(-0.126122397362605554 0.160794975888272434 -0.236109332778743464)
(-0.138923829858596332 0.159570381560993652 -0.240583546505033857)
(-0.119928355135923828 0.153717069403008638 -0.231484251171970856)
(-0.120770155249556962 0.171176249968736344 -0.271557564402501339)
(-0.122208756909372343 0.168731351978369637 -0.258289517189471629)
(-0.138603141618233588 0.165754876009498425 -0.264932640971727584)
(-0.116385106190165455 0.162522944121665514 -0.250056965829228039)
(-0.106770772943471107 0.181395226309118418 -0.296130301760299419)
(-0.108662029873547214 0.17836136083163831 -0.283809808350422244)
(-0.129484064547511213 0.17133550382638299 -0.295152161406479541)
(-0.104964924868599485 0.173579003789746333 -0.271490313940692951)
(-0.0778185600165161029 0.204999967031428892 -0.31273559455937)
(-0.0855651146495056414 0.188512009791798635 -0.306589005627779021)
(-0.114642423359717457 0.177384742029081971 -0.328872443166810358)
(-0.0883833935416178662 0.187749630541002632 -0.291295705186326526)
(-0.0278897621522904912 0.239017878437014275 -0.290749049246165958)
(-0.0788811856668620442 0.222781953385071813 -0.317454022073842934)
(-0.0960360342648066967 0.206912532605064203 -0.351745153862466409)
(-0.0814256156308738183 0.227115111081167109 -0.294942750466050452)
(-0.0590379414053120027 0.343636540958058956 -0.172121789200143871)
(0.106624309716261648 0.269620769047555942 -0.260049929120555912)
(0.0675317449754787164 0.253601641107285336 -0.281526608441678539)
(0.0617889226059732261 0.254368497052251452 -0.255855762222310268)
(-0.1168755066813216 0.601576458450012952 0.160098121219732742)
(-0.297287945734896308 0.422825539931622085 -0.111312568699101971)
(-0.271129980458919062 0.3714559199664213 -0.0617240618201455316)
(-0.329461593374235473 0.445476202455720283 -0.128997712624949301)
(-0.134641651951087293 0.762590141459632109 0.493173815601727739)
(0.46287696980021692 0.77278642310929202 0.343222652043324583)
(0.232221093618459162 0.707364260134592415 0.357161926591602008)
(0.47597831234579091 0.798799483889499617 0.372159612646396631)
(-0.0192906207636060756 1.50912975030673557 0.708095509131866585)
(-0.840101179349097893 0.774409523057895677 0.628402003792673636)
(-0.862160200625537776 0.866948187927359393 0.588151897890867192)
(-0.850036509140657093 0.828251571395349995 0.6477979046462502)
(0.905296875038283821 2.26056920006761608 0.835807538015695517)
(0.912875014546330021 2.19164407222624691 0.837698964273265845)
(0.918810221312887032 2.3044132618394535 0.824436422479067899)
(-0.0402920742691091696 0.148889105928893012 -0.127515088977354613)
(-0.0376880771243451179 0.15146732879390512 -0.121964004496832576)
(-0.0320888961855634383 0.140924916133381484 -0.125405551502155405)
(-0.0340613958447012616 0.148478795137579528 -0.121490234056651894)
(-0.0504410278611053253 0.152486336843963871 -0.134852323135764701)
(-0.0484214042071290374 0.156356452422433734 -0.127970166752669756)
(-0.0412834143114942376 0.144402086672824476 -0.133497940345533833)
(-0.0443193915565765692 0.152610286085120561 -0.128092527807505574)
(-0.0611293806251196753 0.154438032384711543 -0.142585787313150136)
(-0.0592657772023395257 0.159667844605308751 -0.135091846314773112)
(-0.0517131026409742706 0.146078804476766716 -0.141941344646136947)
(-0.0550328770816495769 0.155170130744065604 -0.135512675672928823)
(-0.0720922167518504575 0.155123931525875919 -0.150151963695820623)
(-0.0703326222473500962 0.161421710383662487 -0.142630526846820899)
(-0.062903816611788399 0.14655764951188438 -0.149648691198854517)
(-0.06613281566055286 0.156394024237131779 -0.142957859216304856)
(-0.0829690250058020828 0.155002238446673879 -0.157586060938198574)
(-0.0814638706659073786 0.16192346829417717 -0.150330523144757117)
(-0.0741197013682522166 0.146442234275239724 -0.156580475414173137)
(-0.0772614419875575498 0.156717775838365991 -0.150276206379382077)
(-0.0933852135217364543 0.154469947997111501 -0.165263596525231066)
(-0.0924342614458416451 0.161494259137143076 -0.15835332913613992)
(-0.0848140579253693905 0.146094019196935931 -0.163193776927794604)
(-0.0880450779601985034 0.156486165270445038 -0.157758710078551578)
(-0.103010458855463227 0.153928958149120026 -0.173682389943627197)
(-0.103016281102523172 0.160514122320220415 -0.16707890687109897)
(-0.0946349163021660417 0.145864773863525005 -0.170074143020409213)
(-0.0981638724167401416 0.156064027877269362 -0.165863246964224303)
(-0.111433263549693351 0.153773939857530129 -0.183370246402538656)
(-0.112877461521581582 0.159389489557035802 -0.176979243672994613)
(-0.103207457888620402 0.146095544160427637 -0.177824124341219192)
(-0.107234123540777854 0.155824561983532867 -0.175104054455512692)
(-0.118199740740026801 0.154424239159036664 -0.194862912711019687)
(-0.121622262550516974 0.158516420858252655 -0.188572118950192075)
(-0.110109110405306299 0.147092077568692109 -0.186974677808111195)