/*--------------------------------*- C++ -*----------------------------------*\
| =========                 |                                                 |
| \\      /  F ield         | OpenFOAM: The Open Source CFD Toolbox           |
|  \\    /   O peration     | Version:  2206                                  |
|   \\  /    A nd           | Website:  www.openfoam.com                      |
|    \\/     M anipulation  |                                                 |
\*---------------------------------------------------------------------------*/
FoamFile
{
    version     2.0;
    format      ascii;
    arch        "LSB;label=32;scalar=64";
    class       volScalarField;
    location    "0.930000000000000604";
    object      p;
}
// * * * * * * * * * * * * * * * * * * * * * * * * * * * * * * * * * * * * * //

dimensions      [1 -1 -2 0 0 0 0];

internalField   nonuniform List<scalar> 
7248
(
-1.20913026327555251
-0.119912749775380689
-1.57327311578007101
-1.5898809050413214
-2.02544555456214725
-1.97859071479288451
-1.90175363064457459
-1.81985627658401516
-1.74391762045323717
-2.38052747075077953
-2.33111458004457806
-2.27055797445923924
-2.19955617123552072
-2.12156042228691222
-2.76884309333206069
-2.72204620780800788
-2.66926806279740569
-2.6092743253035926
-2.54435401268825245
-3.18358401344804243
-3.14149389919723188
-3.09582982896901004
-3.04651329070323307
-2.99468320378114017
-3.60903544492126915
-3.57267099529092169
-3.53470884242651984
-3.49573523945059383
-3.45674279600597067
-4.04352298457570924
-4.01333226574087831
-3.9829550789602548
-3.95343522028747785
-3.92630433376439303
-4.4829712038501377
-4.45844153142992017
-4.43460490541317132
-4.4128985602816444
-4.39543203992426079
-4.92569967694279498
-4.90570349278469742
-4.88667694311781453
-4.87012676715113457
-4.85837251867613151
-5.37074922167416169
-5.35408170307507625
-5.33802309841589562
-5.32374283888217015
-5.31312164290435618
-5.81793923554325065
-5.80382265927120411
-5.78960069496914542
-5.77586788374277038
-5.76363675459417468
-6.28842118847704423
-6.27834160382070294
-6.26742238595210477
-6.25569897144766429
-6.2432096264928667
-6.23003205104898594
-6.21640131806366192
-6.73461601994850678
-6.72738704054502001
-6.7193313198225475
-6.71033470804783327
-6.70022134137462633
-6.68876812673610566
-6.67576476871769575
-7.18261903927071543
-7.17843455257669394
-7.17358529194211592
-7.16789314086305662
-7.16109922317276482
-7.15295527795615627
-7.14293405762202394
-7.63201535581660728
-7.6311212656287486
-7.62986567088209
-7.62809411312048447
-7.6255931578533005
-7.62216864046865439
-7.61740602311911008
-1.51995571184194267
2.24101225662685977
-1.61607581207548723
-1.50534219357179366
-2.0245020868096355
-1.99881793434363142
-1.93933233269156857
-1.86854827857308803
-1.8214788566682989
-2.38448606074718938
-2.34811305387983538
-2.29682153039101067
-2.23132508485303704
-2.15417974944719148
-2.77553373376273038
-2.73245998254802691
-2.68446557639102945
-2.62932901095908367
-2.56913960664292684
-3.18914045960860459
-3.14928965331217148
-3.10663789840194271
-3.06078885004759593
-3.01227901759182215
-3.61339742522095086
-3.57839810700498484
-3.54241088812476601
-3.50578095530034339
-3.46918545775977272
-4.04734272898313208
-4.01811141074037614
-3.98894166194686273
-3.96070377722322586
-3.93455844024189449
-4.48651585349046389
-4.46265498241887393
-4.43948534532240391
-4.41824022429607144
-4.40062218586828724
-4.92894072453605414
-4.90950612137499576
-4.89097237555060183
-4.87464365358272822
-4.8624172627400748
-5.37381560421908855
-5.35776476900688348
-5.34235748918666342
-5.32865517995203053
-5.31826920097344402
-5.82086581623205834
-5.80750410276460993
-5.79424636146937555
-5.7817311160756919
-5.77097538485240324
-6.27014321147408715
-6.25926382479298127
-6.2479560118184061
-6.23645241367735181
-6.22518853126664062
-6.72169196268614311
-6.71350917598623376
-6.70457224143576092
-6.69482265559146761
-6.68427804325435204
-7.1754144844029133
-7.17038300777639837
-7.16455246824238401
-7.15773062159730689
-7.14969537255158993
-7.63103309186912249
-7.62966450148735653
-7.62773982926067795
-7.62506734673955311
-7.62138708861863012
-1.52868839224955533
2.73991754084427441
-1.61623295632497443
-1.47933301934460526
-2.02331597601331081
-2.00020840148628531
-1.94638617055069774
-1.88172838059530845
-1.83506206338529387
-2.38389008534364155
-2.35848593808038931
-2.31043162592393791
-2.24550131808599929
-2.17056891418750642
-2.77747803391783732
-2.73856022743156879
-2.6938781855254752
-2.64236848447544315
-2.58547880090415605
-3.19164958943263599
-3.15407625343188602
-3.11419154865152148
-3.07121398696395165
-3.02512351365418741
-3.61635330612673433
-3.58266042081975788
-3.54836602661265577
-3.51354413212157013
-3.47861132029762876
-4.050279577058431
-4.0219695179749877
-3.99386112704283214
-3.96659280294902139
-3.94104279437674254
-4.48947139808153928
-4.46623558599685211
-4.44363764926348104
-4.42274249146604337
-4.40490977531813943
-4.93175842346147331
-4.91284786009375729
-4.89477171615367901
-4.87866136830388264
-4.86607122200217201
-5.37658027089136148
-5.36110812207362653
-5.34630741961351408
-5.33315053005979411
-5.3230374346442435
-5.82355952922623477
-5.81090001011170099
-5.79852213373201675
-5.78709190454349365
-5.77761122458149501
-6.27267760601498203
-6.26258381394923713
-6.25234786041697088
-6.2423108786296968
-6.23303471298943634
-6.72391028366769916
-6.71648861754609339
-6.70862563024549008
-6.70039502094947714
-6.6919757026694624
-7.1771475803539202
-7.17273660040788297
-7.167792003476392
-7.16221653022684546
-7.15592788628169263
-7.63214729189557417
-7.63116838765401884
-7.62979129787977417
-7.62786279210407336
-7.62519923314268233
-1.56465870770330406
2.69003141744522623
-1.63023294416053988
-1.52038553219895012
-2.00423404038319575
-1.98391883151286685
-1.92742576029254886
-1.87474067897964569
-1.83749480881380589
-2.37602955130512727
-2.34787434459131239
-2.30365151188372685
-2.24939187423866604
-2.18162121901180317
-2.77533765160902801
-2.74074508408379947
-2.69915878668418996
-2.65046638601533946
-2.59635502984672195
-3.19481376366183856
-3.15810500799436733
-3.11940342672883864
-3.07783343229492923
-3.03373985075091124
-3.61876789064879389
-3.58504954522522112
-3.55191359736492407
-3.51869261681484247
-3.48519895853211104
-4.05241197426801314
-4.02482014061211402
-3.99759781294468652
-3.97110569908605626
-3.94594445140531791
-4.49191170168069043
-4.46918392436997625
-4.44705252963141007
-4.42641133356754857
-4.40835059304583687
-4.93417666707621017
-4.91570546693409494
-4.89801560297837479
-4.88209099020361847
-4.86921905518628328
-5.37898409060877114
-5.36401616135415615
-5.34973825005768244
-5.33704513663752866
-5.32716817842860912
-5.82592716800136579
-5.81387778618105777
-5.80224813175124332
-5.79171420560337413
-5.78324764460836249
-6.27492285154129714
-6.26551202434858379
-6.25618687819080765
-6.24736102305126906
-6.23966524175673509
-6.7258896985164931
-6.71913306996125481
-6.71219146126790722
-6.70523252148810123
-6.6985445088745772
-7.17870532081976442
-7.17484038193770512
-7.1706685756944557
-7.16617020819987882
-7.1613494573157066
-7.63315918479743782
-7.63253455512619361
-7.63164905205289301
-7.63039204215029088
-7.62861257851808716
-1.52513224198619346
2.5569609123582353
-1.66884599010717483
-1.56226396354586328
-1.98502120572723606
-1.978086403144518
-1.93493611077250183
-1.88136655965657118
-1.84585190739626914
-2.36921733050773309
-2.34177790984009526
-2.30205593896946681
-2.25352704310600771
-2.19006406269576059
-2.77327657081417422
-2.74065807356650559
-2.7017883221324781
-2.65476482614970566
-2.60217271249334692
-3.19811615716711728
-3.16073863246248887
-3.12194052526606169
-3.08134510251262528
-3.03893395351838214
-3.62192271823812817
-3.58792830530229612
-3.55502188760249904
-3.52263762900604904
-3.49000172712007162
-4.0547084165182925
-4.02759481329744151
-4.00083440559595971
-3.97469649784527279
-3.94963637811934998
-4.49403962422595971
-4.47169096727636362
-4.44986047191080747
-4.42934299266151488
-4.41104788235849288
-4.9362194322603159
-4.91810205427212299
-4.9007096726904491
-4.88491359199664821
-4.87181126074120385
-5.38098363700569404
-5.36642590070627179
-5.35256509103079203
-5.3402322391549859
-5.33053049078163532
-5.82790058385789855
-5.81634804382484827
-5.80531402281927811
-5.79547212359212427
-5.78775778893740966
-6.27680049892107306
-6.26794613203248208
-6.2593472721272807
-6.25146149815768926
-6.2449543843668236
-6.7275536302213057
-6.72134237848169214
-6.71514207689458686
-6.7091852590818073
-6.70382659776032774
-7.18002289776983549
-7.17661161010528215
-7.17306814332430775
-7.16943949977141592
-7.16579254319386472
-7.63402350623333881
-7.63369746682328554
-7.63323087034014236
-7.63254080455365891
-7.63152393101519433
-1.14163314842950525
2.66529722653228873
-1.65467240267326354
-1.56096313341740967
-1.97065668815451733
-1.97071693481523025
-1.94387148417584132
-1.88401286279826086
-1.84451856695649163
-2.36254595749870822
-2.33974520454594348
-2.30555150547390619
-2.25949893481825193
-2.19393058412577213
-2.78001998072214018
-2.74546731628594376
-2.70545650271457516
-2.65804565145600558
-2.60414710013480954
-3.20464776456054867
-3.16634251617286377
-3.12599174022739712
-3.08424809652465326
-3.04205036317564836
-3.62605057861695412
-3.59159690213319482
-3.55842455228636068
-3.52603247957656185
-3.49356464200408867
-4.05699716770888319
-4.03012672116201287
-4.00355327206412603
-3.97748722445863834
-3.9523273319079304
-4.49581448126757621
-4.47375163133085874
-4.45210542472085535
-4.43162390766226544
-4.413102767280904
-4.93783890884122556
-4.91999156395028781
-4.90280775732177965
-4.88708651315096532
-4.87380041320289603
-5.38253193720503287
-5.3682877267229383
-5.35473455216706995
-5.34265697984486998
-5.33306777347621619
-5.82942598067793405
-5.81824824319769185
-5.80765279463689854
-5.79830484717167849
-5.79110397765497797
-6.2782531764411873
-6.26981803734974363
-6.26175578452505643
-6.25454753231802751
-6.24886833294575972
-6.72884531682971421
-6.72304751489877539
-6.71740079178610383
-6.71217708430479743
-6.70776862556509634
-7.18105058223189907
-7.17798762547186708
-7.17492109439305281
-7.1719375005240158
-7.16915886497196908
-7.63470379670275179
-7.63461027981235052
-7.63446711616992069
-7.6342203944005842
-7.63378245930491328
-0.986464093415299725
2.99686229102246671
-1.63743375277094172
-1.5564917356536736
-1.98975290133307259
-1.96875365399386038
-1.93086450699993972
-1.87552110078244727
-1.83774785810518915
-2.37686346355960509
-2.34055236742226613
-2.3023116163840891
-2.2586830935710287
-2.19200481769132649
-2.77718499687802201
-2.74458956526154996
-2.70750390130031526
-2.66020402817622381
-2.60558526334516083
-3.19958698969191691
-3.16718511814622383
-3.1291519483707475
-3.08694596702921542
-3.04442365901840528
-3.62806048874624176
-3.59439298441320076
-3.56113538538622576
-3.52862833351151206
-3.49601731539577099
-4.05815701809900276
-4.03172145895591605
-4.00541196757204965
-3.9794201627234882
-3.95413840162416363
-4.49695251342874869
-4.47520097069471667
-4.45370129241002211
-4.43321824451311031
-4.41451474459689397
-4.93893933543694263
-4.92128573068438513
-4.90424142692071463
-4.88856359894908454
-4.87515272741688221
-5.38358031274934579
-5.36955401475872485
-5.35620586290066392
-5.34429040376476827
-5.33476489875576476
-5.83046347535778864
-5.81953591629610667
-5.80922730935125475
-5.80019449747932292
-5.79330829708158213
-6.27924118885378846
-6.27108514319969679
-6.26337523098760496
-6.25660386793671908
-6.25144472090949321
-6.72972573617325853
-6.72420465808664591
-6.7189246138197829
-6.71418126281800554
-6.71038518471490519
-7.18175359568468785
-7.17892629049992248
-7.1761799158643198
-7.1736268745067564
-7.17141923173188012
-7.63517280847198876
-7.63523831541557207
-7.63531509757472993
-7.63536868254133871
-7.63533363246218144
-1.23278651141402862
2.80009429797922849
-1.66108982828532392
-1.58947413315749619
-1.98215424622946568
-1.94154816113233775
-1.89558058844150557
-1.8542708548968756
-1.81972432942992279
-2.34987338074954843
-2.3048071332015807
-2.27498196516916718
-2.24244515929754851
-2.18087936145177164
-2.7491546120041872
-2.72476739566546122
-2.69782356228286879
-2.65605819622577721
-2.60413750018930923
-3.1851375495120271
-3.16195631391039544
-3.12812394704860708
-3.08694806880879602
-3.04508585946702715
-3.62672923949821469
-3.59453315993088296
-3.56199230632652775
-3.52989233460830532
-3.49720073406432475
-4.05845082333621843
-4.03257451399643063
-4.00635530504530557
-3.98037776431714985
-3.95502430253713033
-4.49743375252698918
-4.47587420457347207
-4.45448359876173949
-4.43402213462756301
-4.41523451807123912
-4.93946231395406787
-4.92194096036281437
-4.90497920011205846
-4.8893197587732633
-4.87584171550035794
-5.38411509475154215
-5.37019612562269799
-5.35694856929533803
-5.34511242718088475
-5.33561819002615678
-5.8309858144436264
-5.82018418295525297
-5.8100185711283352
-5.80114091453441194
-5.79440919851509495
-6.27974080753557651
-6.27172363567932578
-6.2641882317881441
-6.25763284013533738
-6.25273208052855978
-6.73017142533130652
-6.72478851193146809
-6.71969108574759755
-6.71518737706564028
-6.71169827477521963
-7.18211063785614279
-7.17940183481359373
-7.17681584138788953
-7.17447826958598345
-7.17255487890485099
-7.63541251010388677
-7.63555856178894121
-7.63574639970448565
-7.63595292903449518
-7.63613100192599692
-0.786443310302660459
-0.695653406220646309
-1.19115490580479322
-1.08824436942606306
-1.87754295216528355
-1.79855172069067981
-1.71153524534430157
-1.61542288594347383
-1.50493302199776813
-2.28270723931510844
-2.20855822476926189
-2.12644151114050972
-2.03340522218091735
-1.92861407789096728
-2.70022621102611327
-2.63395591170271581
-2.55790559218763436
-2.47242609381240586
-2.37600392849988706
-3.12705167882627411
-3.07115309975132211
-3.00701204115484266
-2.93353893351734296
-2.84959957419029308
-3.56424453498365601
-3.51722235291464402
-3.46474398121917782
-3.40595206667798944
-3.33966691904008961
-4.00754847118629076
-3.97003511644062979
-3.92973406514694723
-3.88658942293915954
-3.84008647205646447
-4.45442746019640623
-4.42501996754054439
-4.39496061403011495
-4.36560434355057048
-4.33870975440782658
-4.90251600271578702
-4.8793541733991832
-4.85723613909638807
-4.83814058821439108
-4.82529988084537997
-5.35164556546681425
-5.33281291348228947
-5.31513016118324089
-5.30074455549163126
-5.2928782837698547
-5.80190882901527338
-5.7858067206962156
-5.77001839544877893
-5.75612283588432661
-5.74673045901971413
-6.27844294819585258
-6.26675244351322913
-6.25390741832677932
-6.24001751025076867
-6.22526620096846539
-6.21021653377770733
-6.19642867926192764
-6.72678684557910778
-6.718107293823393
-6.7082247887824602
-6.69701581459514017
-6.6841594549854193
-6.66962028507200699
-6.65373544964951424
-7.17683949321418879
-7.17147405928096049
-7.16506321526002488
-7.15760682651013269
-7.14833719581647387
-7.13728530209682699
-7.12439200217553292
-7.62819880886680135
-7.62653614218314146
-7.62426799052268045
-7.62126462486974798
-7.61717462717015348
-7.61193261714388036
-7.60559873651382556
-0.80686243343729247
-0.71497257853768903
-1.20286929755038385
-1.11625619200757753
-1.87370730187995238
-1.7900155573422698
-1.69957747212791888
-1.60651506352169271
-1.50194312610709391
-2.28507933849385436
-2.21095081616996225
-2.12592760829803051
-2.03006991499242684
-1.92493380189617302
-2.70181353525276302
-2.63636226712453192
-2.56096737517188133
-2.47581281764861583
-2.37882454253671405
-3.129114475512635
-3.07318849369346481
-3.00954657327872255
-2.9369880693205328
-2.85423629842983795
-3.56603442788491609
-3.51944263315798489
-3.46764374703943457
-3.40981745218490451
-3.34485974488355309
-4.00892567376007669
-3.97166796096458574
-3.93175279550938139
-3.88934188591769248
-3.84428500230956249
-4.45542684955845836
-4.42630770881867086
-4.39678931844606957
-4.36822376533330026
-4.34245320256036571
-4.90353014978267598
-4.88057110815678463
-4.85861585029121468
-4.83987909880443823
-4.82801000107660272
-5.3524462334390277
-5.33359754873611802
-5.31584152979066005
-5.3014233872790637
-5.29391819823425092
-5.80244639652772687
-5.78620463088300152
-5.77007325564362539
-5.75535205939729533
-5.74428293727590411
-6.27885518130773068
-6.26714847437569222
-6.25423673967261351
-6.24015439309847686
-6.22498311701565488
-6.20895056876514051
-6.19258648930026911
-6.72707938189354149
-6.71838666235841764
-6.70844633968815796
-6.69708576694236157
-6.68393021698778789
-6.66873373753542076
-6.65129912557696379
-7.1770510676530419
-7.1716770657437765
-7.16523009672488964
-7.15768852072538131
-7.14821908018390673
-7.13670606671217023
-7.12279301288579081
-7.62840524115039731
-7.62673549211159951
-7.62444793558347467
-7.62140582772419339
-7.61722616327610158
-7.61179075077272049
-7.6050743078613996
-0.795848679630505762
-0.706740045119653271
-1.18502975751011963
-1.11674476813718004
-1.87434564474750753
-1.78727262612798699
-1.68869977732845511
-1.59087703427743254
-1.48264263120855744
-2.28386749494749486
-2.21081099086113575
-2.12614191293937171
-2.02931604646095209
-1.92137354126143234
-2.70362160514969441
-2.63911642949934011
-2.56520996495040965
-2.4807316287080905
-2.38483822422852842
-3.1329536427890794
-3.07765626755331123
-3.0152147983581381
-2.94438911468899178
-2.8641921356088611
-3.56972612664487299
-3.52375571361589035
-3.47298749035438226
-3.41686358280790214
-3.35471540503071441
-4.0119437491184442
-3.97512766880687396
-3.93600549202643268
-3.89499319197517124
-3.85248060547236815
-4.4577374740873621
-4.42892989813008331
-4.40000582376603599
-4.37252485535905677
-4.34876393161735297
-4.9052964217551418
-4.88252408306149199
-4.860875334395522
-4.84270404453266412
-4.83209021668401384
-5.35377288436245546
-5.33492812821096507
-5.31707516655586598
-5.30237926537726789
-5.29460222424467553
-5.80340135691368708
-5.78699755428459106
-5.77038306253873046
-5.75450579777778248
-5.74112854283651242
-6.27957712082448971
-6.2678729540332121
-6.25490397872536441
-6.24059628372003861
-6.22486022186323762
-6.20744066875855349
-6.18817380622159074
-6.72760022341860964
-6.71891512666606339
-6.70893229251427581
-6.69739824947003637
-6.68380916438446349
-6.6675816698361734
-6.64798747268691237
-7.17742238328608728
-7.17206459420659836
-7.16560179258390217
-7.15795844730036812
-7.14823214967203224
-7.13610326834248276
-7.12090577369617339
-7.62866850964347698
-7.62701679579080061
-7.62472990028682407
-7.6216851786472164
-7.61741414363476466
-7.6117543646812349
-7.6045644058368369
-0.79502816130353926
-0.716691895745028784
-1.16367411762278294
-1.07306752056021515
-1.89157603279254682
-1.80280928508500105
-1.69929576063648469
-1.58498684473167772
-1.44756384004427896
-2.29251637325943003
-2.21948701255024394
-2.13392059317280935
-2.0335601889848709
-1.91940846691702349
-2.71074889384929518
-2.6467564392384042
-2.57359050344712248
-2.49028898945436605
-2.39618296510634288
-3.13929024405808033
-3.08502006298643394
-3.02402230723412835
-2.95541904795620125
-2.87883358698563896
-3.5749955174042034
-3.53003320968080603
-3.48079296554571727
-3.42702014071119798
-3.3686300747564184
-4.01624845712011869
-3.98019828181956647
-3.9422858313760738
-3.90318083403078653
-3.86382226108300619
-4.46111176246883634
-4.43281506145385329
-4.40468036990861389
-4.37844637010126903
-4.35682670619719659
-4.90787282174244943
-4.88536093618369538
-4.86404068562798919
-4.84631640424543519
-4.83649480396832576
-5.35569880125974773
-5.3368951640280029
-5.31894716859884653
-5.30391016187217357
-5.29543554895732704
-5.80483257050210089
-5.78833412768284372
-5.77135190306421197
-5.75454358299954194
-5.73923568323234701
-6.28059949578864085
-6.26894527427197978
-6.2559809715090875
-6.24152689511890735
-6.22546141428284372
-6.20702576584835874
-6.18570088800216489
-6.72836201780510113
-6.7197296503309305
-6.70976867767175378
-6.69815020633136804
-6.68430430228755945
-6.667366429956747
-6.64626571093551988
-7.17797243742051805
-7.17267333976982879
-7.16627631989260117
-7.15853129094308649
-7.14871106917692423
-7.13618458671543543
-7.12008667444952614
-7.62903386295887742
-7.62742820567079605
-7.62518625239371595
-7.62216292777205595
-7.61787859488553298
-7.61208916261643509
-7.60454858778435216
-0.809717393459209012
-0.724796348464453732
-1.16116316364915662
-1.04895959111465786
-1.91614306262251954
-1.83067355980328172
-1.72081468813810234
-1.59273140957702997
-1.43527857792849578
-2.30635828991723191
-2.23460049073867406
-2.14932605245808439
-2.04618833102198927
-1.92858802075283942
-2.72099602073474989
-2.65899277842709214
-2.58743946667958102
-2.50555562239536744
-2.41359796003591009
-3.14732270048166063
-3.09474287207961618
-3.03585544570632626
-2.9701284299681614
-2.89768352360352743
-3.58146973885114006
-3.53795104431278506
-3.49065295125629049
-3.43964433465342623
-3.38548002199655551
-4.02146560140031362
-3.98644959227982731
-3.94999671807964248
-3.91302599811656915
-3.87700815556329204
-4.4652002534205435
-4.43756452526216716
-4.41032508140574819
-4.38533592121128812
-4.36561246908070011
-4.91104037020060602
-4.88889217048065827
-4.86795153526571944
-4.85055129031171006
-4.84089061040069879
-5.3581533990022141
-5.33951649115254234
-5.32160500285043181
-5.30629546952019471
-5.29702856903166897
-5.80676801167236079
-5.79036435539306549
-5.77332266317905152
-5.7561469225808688
-5.73992135846464535
-6.28187662456646656
-6.27036068387580148
-6.25754136505542391
-6.24322104904801822
-6.22709504833508021
-6.20850103084998839
-6.18669258103116526
-6.72933773701323101
-6.72083317464323393
-6.71101216751596041
-6.69951175111862174
-6.68576840701264796
-6.66880491988112922
-6.64748971759819351
-7.17868349796943583
-7.17349670382757143
-7.16723594139738118
-7.15957410110202641
-7.14990044792111057
-7.13743096539086519
-7.12124300864402215
-7.62949500095869748
-7.62796999585275248
-7.62583586810637382
-7.62287794264807772
-7.61871742683426678
-7.61299488010765746
-7.60539908548625121
-0.757190852137862525
-0.587425785901469766
-1.20373456969069248
-1.0969730232560071
-1.94130208231614154
-1.86069887537345946
-1.75641385444085363
-1.62660925913417942
-1.46867002686320647
-2.32283711941752946
-2.25578880388509084
-2.17328054798081549
-2.07208452350101702
-1.95795114073406018
-2.73346443644607806
-2.67443740150405729
-2.60593380781005202
-2.52713224773327383
-2.43942449001465977
-3.15651365429599418
-3.10623138818163591
-3.05011852592418409
-2.98799011252614299
-2.92050560643834611
-3.58864227913759493
-3.54686446895314411
-3.50180330934930018
-3.45384946341286891
-3.40406015196760681
-4.02717365442435504
-3.99338164918919558
-3.95851670531830591
-3.9236990780900749
-3.89076250696975645
-4.46969876075408123
-4.44283010139177836
-4.41651562043538881
-4.39263141089705478
-4.3742431868268481
-4.91460506710892719
-4.89291788966744168
-4.87240728923502342
-4.85525510922764703
-4.8453343356485874
-5.36103591838005133
-5.34271916415454928
-5.32503434852876634
-5.30964853307641249
-5.29972676056455683
-5.80916921234609074
-5.79308808364047145
-5.77637212854154036
-5.75946531766073111
-5.74337806795342054
-6.28336321153515076
-6.2720869762466096
-6.25956695723393164
-6.24562385562063049
-6.22995686995923936
-6.21202890592903945
-6.19124601115974915
-6.73049982507671807
-6.72220970202307111
-6.71266668905530839
-6.70150826334643668
-6.6883296154623153
-6.67206567376687687
-6.65184904961812773
-7.17953691584606624
-7.17452394043395358
-7.16849351871541174
-7.16110649331217708
-7.15188751226800346
-7.13998173115780421
-7.1245812365853558
-7.63004264100641016
-7.6286318019242465
-7.62665056929791163
-7.62386956723464237
-7.61997431252363189
-7.61454811932248532
-7.60725971819356506
-0.818438090852164013
-0.749949966622244446
-1.29067292194734051
-1.21592909833651031
-1.96399585774223873
-1.89084183998778954
-1.79953613466950735
-1.68263758803159158
-1.53823256403665987
-2.34094579239637479
-2.27840211812178284
-2.2025416972668026
-2.11113115717930677
-2.007939725037863
-2.74623803652606835
-2.69120817230697007
-2.62727559614448669
-2.55425554701909885
-2.47396551792470332
-3.16615665089444942
-3.1186767769454895
-3.06592667452183143
-3.00824731390135058
-2.94643111787167999
-3.59601461329007055
-3.55614787639160923
-3.51351997431832164
-3.46874731861707808
-3.42315683471171495
-4.03301184573665772
-4.00050824315051656
-3.96724428348165148
-3.934442362713229
-3.90404802071448653
-4.47432961420875763
-4.44827286252292264
-4.42285791261538286
-4.39987647596527687
-4.3822011324757062
-4.918364475809204
-4.89721349560057462
-4.87717699809812899
-4.86022631338558675
-4.84972523943330636
-5.3642052403815752
-5.34635302866605677
-5.32908772067322989
-5.31388133815171049
-5.30344306613144489
-5.81193267511449818
-5.79638280898373548
-5.78032156838087818
-5.76421456720750136
-5.74905475101158725
-6.28499792391096079
-6.27405713194732062
-6.2619808405327424
-6.24864445944069136
-6.23383292385231247
-6.21722605539038309
-6.19848070835215026
-6.73180562919537273
-6.72381320267216509
-6.71468565997708211
-6.70413392065005187
-6.69175799389188075
-6.67684297209501665
-6.65867136896716794
-7.18050418268458479
-7.17572454188859865
-7.17001834300959562
-7.16305312070258715
-7.15459940818170814
-7.1436660238032692
-7.12973892843971502
-7.63066059437410438
-7.62939611039022569
-7.62761737115632599
-7.62510102059887274
-7.62161969535564587
-7.61669670105491647
-7.61004044747811736
-0.905691357730325608
-1.04371681034040309
-1.42332006356696006
-1.39207572677605129
-1.99663581878657359
-1.93420517941234493
-1.84831185861234903
-1.74987263019129347
-1.63456682701539835
-2.35955629575154635
-2.30410345159796348
-2.23628569510529118
-2.15701894564061547
-2.07127209455330874
-2.75858589426728651
-2.70774480276248797
-2.64939959672699032
-2.58314759054417475
-2.51157076197391671
-3.17544486289215522
-3.13079932719068221
-3.08163855133714337
-3.02837087663493776
-2.97199407508286395
-3.60289311626085595
-3.56490420219931625
-3.52473533230448632
-3.4830456907271401
-3.44105763795148967
-4.03850664232568679
-4.00724903031658286
-3.97552652527705064
-3.94451752975252479
-3.91604013455152611
-4.47880672730058205
-4.45355162132211291
-4.42897538624338161
-4.40671038076886212
-4.38927969090234171
-4.92212040633429115
-4.90154629901107342
-4.88201200596861362
-4.86525380659376516
-4.85408982341921202
-5.36749805899427201
-5.3502138405288413
-5.33351268555609259
-5.31869757971242763
-5.30800971134182475
-5.8149109111722419
-5.80004115110505403
-5.78484955673951973
-5.76986713273133311
-5.7560882398151163
-6.28670922150626854
-6.27617665912858591
-6.26465036933279951
-6.25208157842181933
-6.23838505486985895
-6.22343979431305439
-6.20721964271819626
-6.73319879413359956
-6.72556805729679219
-6.71695091922942655
-6.70714141526682717
-6.69583553100836859
-6.68260944706589211
-6.66696770538894867
-7.18154683076117184
-7.17704993225650423
-7.17175299770199715
-7.16540777757044811
-7.15770895046891464
-7.14811882769085649
-7.13608266537529801
-7.63132638936424801
-7.63023736762445015
-7.6287081103301464
-7.62654810816505613
-7.62352373950668305
-7.61929521021171929
-7.61352094084847764
1.49440149652080834
1.93424189690152204
0.780228015414387244
1.45309592399387899
0.201527653670306783
0.529206604694678617
0.977574332193343665
-0.23355146874831223
-0.0681525437723107252
0.167827876750568539
0.506364994578976102
1.09533637942361395
1.71870019844349642
0.668603418701957608
1.09395902081190854
0.189895147240202622
0.335496779857021643
0.643836352292895597
-0.250682881989890305
-0.0934788732678191181
0.0346328368208896897
0.281184484506646459
3.07985463045307029
2.87854534205830248
0.660625156198035413
1.29677831586247549
0.193002020626597659
0.271026254841436387
0.558530729349272725
-0.20212764714075071
-0.113546676284907555
-0.0197466964971844128
0.262686280337378175
6.23856311469870306
7.36974564520283693
3.235422147617939
5.06009254665760011
0.145908862913579185
0.964961135868520614
1.29270179953851994
-0.178758358551320384
-0.329898040218861155
-0.750096150785038329
-0.513901994048819422
5.72970348897401749
6.18753970067880488
3.76553331765418164
4.90859401582093824
0.979293021272312103
0.906030792605321267
3.02983034665712125
-0.324766632195320426
-0.546849553622891449
-0.846452351460605712
-0.00772155905741556126
3.67900640960715108
4.5649174777743653
3.10235466708701679
4.25530104641318729
1.47739926652821296
2.1925427141727063
3.56402504049313151
0.422825145631069432
0.747585574754149107
1.0402664327406832
1.74081921383056937
4.9005805690031643
5.49999512665314327
3.71783234742521174
4.12821978596205241
1.40109646379415764
1.86657500664971465
2.36298878902992016
-1.20770563362587691
-0.319434971622355235
0.0840310990508612576
0.395319416892082387
-0.26414025973630828
-1.07385953222598474
-6.39329717749298787
-4.73116951075821568
-15.1185534317919164
-12.9164918983584442
-9.58301313197208415
-19.9302854429616474
-16.9802289479584196
-14.7591323147846758
-11.6130255234620812
-0.580252506630509313
-0.437307557504224453
-0.237126869959486175
0.0134771819721954955
-0.969816664954977536
-0.836284819571710747
-0.667512064491701418
-0.464996237928732903
-1.37536783148980657
-1.23047722617981536
-1.06360898278095894
-0.864728719866128426
-1.81360967721494326
-1.67823833035031234
-1.51409405455586343
-1.31880518281389825
-2.27001820041615865
-2.14848356077046398
-1.9998765151762381
-1.82281238602145157
-2.7581400090627568
-2.65485103236078013
-2.52737622582069399
-2.37453829550158968
-3.2683241494813462
-3.18951005691589806
-3.09202009412687051
-2.97246848456334822
-3.79214679080090633
-3.74169954766013069
-3.6824463838656678
-3.6101823391016743
-4.31754410219407259
-4.30128063118011905
-4.28618713453240829
-4.26701998935492899
-4.82363341955618008
-4.83476980998003913
-4.86215931902475784
-4.89848355916124323
-5.29832717414165444
-5.32204582528447467
-5.37316142331613111
-5.4428420370960966
-5.74606186881311842
-5.75973894881874759
-5.80119301204984161