/*--------------------------------*- C++ -*----------------------------------*\
| =========                 |                                                 |
| \\      /  F ield         | OpenFOAM: The Open Source CFD Toolbox           |
|  \\    /   O peration     | Version:  2206                                  |
|   \\  /    A nd           | Website:  www.openfoam.com                      |
|    \\/     M anipulation  |                                                 |
\*---------------------------------------------------------------------------*/
FoamFile
{
    version     2.0;
    format      ascii;
    arch        "LSB;label=32;scalar=64";
    class       surfaceVectorField;
    location    "0.600000000000000311";
    object      Uf;
}
// * * * * * * * * * * * * * * * * * * * * * * * * * * * * * * * * * * * * * //

dimensions      [0 1 -1 0 0 0 0];

internalField   nonuniform List<vector> 
20789
(
(0.0278828976013366092 -0.00834609517078803258 -0.0335209468852867981)
(0.0144904095835109471 -0.0131998790326258598 -0.03156818280473319)
(0.0128607768742853169 -0.00550598250040183756 -0.0303930256665717533)
(0.0134739163808829023 -0.00527259056134082079 -0.0320079858637680875)
(0.0769940568165077138 -0.012208194532877548 -0.0368613753347162704)
(0.0540379669457347889 -0.0229096043971652279 -0.0353023085190942235)
(0.0508123638241004955 -0.0112248273257005964 -0.0342667590635393274)
(0.0524694884290154914 -0.0108679638409298531 -0.0364316318885471654)
(0.131989017179229895 -0.0134608288558713853 -0.039988588300193452)
(0.103337337241058591 -0.0255123988226572986 -0.0377967300050820743)
(0.0987125089655641608 -0.013179424739496062 -0.0366358600178833052)
(0.101346213949116734 -0.0128706648717257042 -0.0387762761988345167)
(0.186379542490029998 -0.0129943991048253691 -0.0446751737664681375)
(0.158087491376437378 -0.0251337398718302872 -0.0414929907431117115)
(0.158420528657645499 -0.0136495569254464402 -0.040538096872925658)
(0.162386220331776909 -0.0135075936460151529 -0.0424584643855469845)
(0.23352437151915964 -0.0111439849351463258 -0.0514041276089341331)
(0.206277556529735673 -0.0217691908925077976 -0.046938064259897043)
(0.20885969753877176 -0.0121542277297718836 -0.0461997968282497964)
(0.215074014656394086 -0.012199866236171749 -0.047831673197989838)
(0.272504012459376999 -0.00900495281399467037 -0.0608196768591436621)
(0.247569905575583338 -0.0180386109288063617 -0.0547867398416627266)
(0.249473247792093317 -0.0098926705344718497 -0.0541835373297688619)
(0.258453845306925334 -0.0100606563641838787 -0.0556121989541042833)
(0.304741894148171599 -0.00716998658457967432 -0.0739930087679411125)
(0.283469199360397606 -0.0149365315792559031 -0.0657284371463677936)
(0.283433971789084138 -0.00787654217204096854 -0.0651046816886292762)
(0.295899637733966991 -0.00809634537592068305 -0.0663218653159776683)
(0.330613358428702819 -0.00558867193824342124 -0.0917016241362647588)
(0.313575340494305743 -0.0122628820809457754 -0.0809708284589751026)
(0.310710618576868214 -0.0062358189138787155 -0.0802597735158189912)
(0.327461521247607967 -0.00649998425977678981 -0.0817886960979107847)
(0.350410422172245883 -0.00423780229928391334 -0.115539198487728589)
(0.337757017295015838 -0.00961037334058194997 -0.10102635763464507)
(0.331212026266752724 -0.00473608471820581318 -0.0998944384401581342)
(0.353571022465844098 -0.00499624640339369278 -0.101517814954954225)
(0.363538464716224252 -0.00310978421110063782 -0.146362567860611414)
(0.355684284216910285 -0.00752134455812130277 -0.128173252392837111)
(0.344720567542253775 -0.00354434598126940814 -0.126531329134990794)
(0.373878982235391122 -0.00382785113291209296 -0.129904670628883306)
(0.372182749412675817 -0.00255736472219902488 -0.187700551092505608)
(0.368155615612133946 -0.0056677817082086213 -0.162410346280174922)
(0.35193832736861036 -0.0025269361489403128 -0.159651225212469244)
(0.390122734024657913 -0.00272814546270261013 -0.163302997608456985)
(0.374153296608774777 -0.00259896963068377215 -0.23976498244118874)
(0.375282667243413193 -0.00576978471133055958 -0.209798721460207477)
(0.352689906767958306 -0.00241979953693408426 -0.205175869689695173)
(0.402122419163970291 -0.00275822124048601212 -0.214963851841541431)
(0.378691296738659089 -0.00379805545164045707 -0.316565864128603602)
(0.379437940567030674 -0.00618258988853075814 -0.266851840570681675)
(0.348584534977253613 -0.00258041387621984987 -0.25992179909726576)
(0.420371292414492836 -0.00247385138450723725 -0.268253209712350227)
(0.354646568108142379 -0.00653984847087178429 -0.415228137629557681)
(0.375519532779142962 -0.0105389592007341919 -0.361833424269515314)
(0.336495604713369201 -0.00477592637018279999 -0.340830420150381175)
(0.417157620064987911 -0.00599025185168615762 -0.383281438413735076)
(0.329684253310481012 -0.00407526998143040685 -0.650622832681908347)
(0.378790021746649386 -0.0169469432449906067 -0.466633783868465046)
(0.320942283954672669 -0.00910572987789787236 -0.431805042918072923)
(0.52696938280832728 -0.0106975002254267714 -0.487887648967813836)
(0.190570771625267477 -0.000879439783083607379 -0.846828665202632669)
(0.196080697621718369 0.00179353673019228563 -0.633932407930737241)
(0.429317291957052982 -0.00373654240804644888 -0.928743956769357171)
(0.0327262143045402715 -0.0273852926868732652 -0.0333495444385406084)
(0.017323300133864343 -0.0286952077056102164 -0.0318049045337298469)
(0.0156103287135910315 -0.0198057150630267381 -0.0304515936599670592)
(0.0162041173144503586 -0.0190070680437041638 -0.0323523437921970497)
(0.0821372934017720741 -0.0365309642353029013 -0.0362376631894600204)
(0.0592057051510398308 -0.0461093433346627807 -0.0352502022458345415)
(0.055736136390372587 -0.0350574881720791334 -0.0332847978012098047)
(0.0573398690149573009 -0.0339859807160256822 -0.0357634006666236667)
(0.132370742904893673 -0.0372358784513546343 -0.0393011324480003338)
(0.108506403941253451 -0.0490747220689361358 -0.0378314105053360189)
(0.105266643883975913 -0.0378389101931762215 -0.035815640284145793)
(0.107943456610639144 -0.0369728699054740206 -0.0382883987021276975)
(0.17848996503061898 -0.0342690073299570866 -0.04375588123654061)
(0.156946602362041859 -0.0467152436421804165 -0.0413173913776801946)
(0.153574236437385464 -0.0362409834149709023 -0.039541298365783635)
(0.157673608275517685 -0.0358110106247514354 -0.0417094835263127212)
(0.221236969045432746 -0.0294773620009818084 -0.0503206764926256434)
(0.201492004777826222 -0.0416534906154792592 -0.0465761464967271374)
(0.197412812585499586 -0.0317537604973244306 -0.0451104952588350094)
(0.203380229616752672 -0.0317548340680551891 -0.0468817936690660991)
(0.259728185462087591 -0.0246490469889581523 -0.059695500128886865)
(0.241977764426179298 -0.0358503561144704538 -0.0542888263300215224)
(0.236811652711746867 -0.0266261760082060171 -0.0530518513247062312)
(0.24521742317449341 -0.0269075002361220048 -0.0544609721259488241)
(0.29308558894902903 -0.0204279019237795303 -0.0727062568374018114)
(0.278119061767897469 -0.0303680069841134673 -0.0652055198140989029)
(0.271424016760923759 -0.0221709730645801607 -0.0640305670398274435)
(0.282992888423971356 -0.0225923971409384312 -0.0652425436569163547)
(0.320810058789993136 -0.0165678054182361277 -0.0902955619573553997)
(0.309114161110976171 -0.0252216542380175983 -0.0802218342338973656)
(0.300389914118008416 -0.018273964135319478 -0.0788812847912720577)
(0.315966072426720646 -0.0187790181772538242 -0.0801549153605623649)
(0.342745714224457099 -0.0130822227203529935 -0.11366041153975362)
(0.334355816261377392 -0.020230934923524263 -0.100332230778905143)
(0.323131930165437287 -0.0145514558324389559 -0.0985226906297525379)
(0.343799769027524738 -0.0150188412698402645 -0.10026552294490447)
(0.358446329550864806 -0.0102198892100503463 -0.144221030812400675)
(0.353519599764827497 -0.0158866324856561346 -0.12693708337277726)
(0.339333072175222017 -0.0113866944331948456 -0.124271410049645328)
(0.366330722034358736 -0.0118046275001878927 -0.12704593433377509)
(0.368999880836994143 -0.00882019913450110722 -0.184508516647876764)
(0.366755490486499747 -0.0126243506858707711 -0.16146866067689869)
(0.348924067165289065 -0.00892484845409183616 -0.157473097527549177)
(0.38459861579050536 -0.00917295140730402941 -0.162005335359247632)
(0.373518804926825376 -0.00933797379410147843 -0.236885579589700468)
(0.374603295032605033 -0.0118806118820580803 -0.207472226183821218)
(0.352256104312901774 -0.00854268783522179297 -0.201112867172337451)
(0.398355147908348584 -0.00892980597341003213 -0.209317738764983746)
(0.376287847243592322 -0.0125589172644466566 -0.312119400711593276)
(0.378395266595080826 -0.0140221519536503393 -0.266169746869202917)
(0.348983160286507776 -0.00972998420205493757 -0.256446520864504812)
(0.416312949528690579 -0.00977743204533554691 -0.2696642869743614)
(0.356890972810336882 -0.0219499429566676826 -0.41323907050842279)
(0.373234050416414831 -0.019581431255487055 -0.357097414474884245)
(0.338224452276165877 -0.0145805234158831905 -0.336151696960625412)
(0.422242747154121856 -0.0167779917721537809 -0.371478305603001269)
(0.326459132285730147 -0.0149389454804285931 -0.662839616389188313)
(0.375907689180526861 -0.0395584865932118238 -0.467706823459066334)
(0.314451348813563514 -0.0282385700235374855 -0.422430565147608128)
(0.502016608238500028 -0.0329756700645113601 -0.494704188166418479)
(0.182453822413538691 -0.00237786003638742896 -0.851548326659435806)
(0.194457975500666791 0.00367565330159008979 -0.659652473529564798)
(0.41215749847256955 -0.0132699819361641012 -0.95283522402663845)
(0.0381508447713616861 -0.0474694448435113228 -0.0337055623410237731)
(0.0198990488704877747 -0.0468745897185681229 -0.0319792473913707229)
(0.0185445578346668735 -0.0373194852859125639 -0.0300582289943932823)
(0.0191257279195047869 -0.0357569532753868463 -0.0325051866117709518)
(0.0863662135035686979 -0.059318162915611948 -0.03684394956171054)
(0.0640512502252984089 -0.0690497475306460218 -0.0358146337807023277)
(0.0611492299986541588 -0.057694348258120122 -0.0333832955049615729)
(0.062737569323073214 -0.0557060260499038506 -0.0364060716543092508)
(0.135099609005974813 -0.059175038232484739 -0.0398476694350158867)
(0.112126338217976712 -0.0722036192958353251 -0.0383574821387722698)
(0.108968234169817949 -0.0605303533972196689 -0.0360293969974091674)
(0.111598833322498384 -0.0589168141752127728 -0.0389686718399664747)
(0.180739714110814298 -0.0545017581807881318 -0.0441376566378667151)
(0.15933545610699279 -0.0682549842679246593 -0.0416505169645555312)
(0.155998039529848115 -0.0570723852128332959 -0.0397469482564685728)
(0.160001617670590734 -0.056190791198087793 -0.042257482221580607)
(0.223004727045543555 -0.0481126548797365869 -0.0505442963341230234)
(0.203321621874085812 -0.0614239235285937851 -0.046715126485051793)
(0.199325615500591025 -0.0510153828763566311 -0.0452747029420922445)
(0.205202634999187228 -0.0508468609646999595 -0.0472466994662389395)
(0.26136491611594892 -0.0414468155010038267 -0.0597988460152335671)
(0.243629450889024324 -0.0536362490179304111 -0.0542995424091241505)
(0.238481972740119091 -0.0443111416973913791 -0.0531832563855727247)
(0.246829615695001725 -0.0446464151926598829 -0.0546571287812489329)
(0.294923844671922675 -0.0349768898480051771 -0.072721097210594457)
(0.279857543076033499 -0.0458575892073080499 -0.0651443244963138962)
(0.273097209111604178 -0.0378332239948606167 -0.0641235700585024576)
(0.284638395855349668 -0.0384486550150815454 -0.0652726120751195571)
(0.322909687579742422 -0.0286828015243191931 -0.0902585030554470952)
(0.311117964022484761 -0.0382221711210686127 -0.0801342228928561412)
(0.302289617796542731 -0.0315671284780571007 -0.0789282816624738842)
(0.317874771120410404 -0.0322796067964915556 -0.0800530571051623341)
(0.344840698878861762 -0.0228149921571244481 -0.113608902611928797)
(0.336526230252382652 -0.0307400792221117665 -0.100272067463363548)
(0.325205902519351664 -0.0254556486761188146 -0.0985452277685616718)
(0.345921604011197203 -0.026081338988396173 -0.100069337531766625)
(0.36023593453743058 -0.0180326978676902082 -0.144184713237275247)
(0.355504423636173295 -0.0240155705042396223 -0.126938511679933225)
(0.341309233166254278 -0.0200260039597878643 -0.124265482620153148)
(0.368391505952794074 -0.0204584338939042161 -0.126838742975199203)
(0.369813334959996132 -0.0154582822045077929 -0.184432370212843144)
(0.367935124291382087 -0.019059067000720898 -0.161552367354038023)
(0.350279709965818697 -0.0160235243815675839 -0.157463923993006877)
(0.386014564984813013 -0.0162269947789211375 -0.161820140719065225)
(0.373205611657463687 -0.0163637953142859345 -0.236756393463323861)
(0.374466140271500159 -0.0174789402531582566 -0.207477847243922597)
(0.35268380540062183 -0.0148418579836181903 -0.200933666071522299)
(0.398802551060957189 -0.0149940577885749292 -0.209115001846178955)
(0.373675642320931423 -0.020888840756184069 -0.311147760632493886)
(0.376161356454483398 -0.0208806374629407834 -0.26610888359055701)
(0.347670681092709488 -0.017387877029535221 -0.256205339577280644)
(0.414488454251103922 -0.0179283882587966056 -0.269504532569311006)
(0.354059873167138051 -0.0363585811612672435 -0.411565167425528122)
(0.368870466965234789 -0.0281863072281022427 -0.35552230480591529)
(0.335790256011453681 -0.0230958831731382895 -0.334709179862612338)
(0.418595452934838685 -0.0253784507698684887 -0.369355178400776696)
(0.312903359805997372 -0.0271164670267803193 -0.656415533729313827)
(0.369351009323236446 -0.05597802615707443 -0.465306474202042908)
(0.309324652890737961 -0.0454908108053875132 -0.422387639073609655)
(0.494971189026644054 -0.0521648794490080225 -0.491810310522459548)
(0.1686923083737846 -0.00897311662707736372 -0.837226430424557688)
(0.176595551935606415 0.00255438023788042562 -0.649658838940435968)
(0.395567829777551727 -0.0252603289296123822 -0.940985679272916764)
(0.0424347384670682448 -0.0685740988892350467 -0.0340883188310492774)
(0.021892821867043416 -0.0672912117164393558 -0.0319666637952813124)
(0.0207819454993021166 -0.0568446077921195003 -0.0296312686779530744)
(0.0213520171677447045 -0.0541441226074920248 -0.0327448026360915578)
(0.0901342657214863618 -0.0821229074870716974 -0.0373281663577640505)
(0.0680964404325515443 -0.0919546314847365792 -0.0359380338740354355)
(0.0654220299402268335 -0.0803055429556204098 -0.0335154825619016911)
(0.0669173737678766395 -0.0770875646368983508 -0.0369257408908952658)
(0.137738796143980158 -0.0814069879853629719 -0.0401603296683119143)
(0.115698151984932732 -0.0949446976992999458 -0.038349238273354673)
(0.112464055213196856 -0.0832734315158139837 -0.0362300727904297654)
(0.114911172450902044 -0.0806876009938606448 -0.0393971423361024128)
(0.182715876756154832 -0.0752078746715847818 -0.0442279868117406091)
(0.16196209336384737 -0.0895475278809241271 -0.0414878805283887125)
(0.158289812134910057 -0.0784046035680999315 -0.0398812015750013779)
(0.162080254756697406 -0.0769963162852873445 -0.0424866948992047508)
(0.224622345020197844 -0.0669664022828031086 -0.0504703725600529202)
(0.205497761244194693 -0.0810102726303104925 -0.0464660454337681716)
(0.200980992018361032 -0.0706451773562563196 -0.0453353078945233703)
(0.206676724497199121 -0.0703579855649008601 -0.0472578382568562133)
(0.262995791896554421 -0.0581118735564478961 -0.0596450208902044934)
(0.245822033268963153 -0.0713235379066084058 -0.054043873588619798)
(0.240006216316956039 -0.0619818751330771106 -0.0532092560122201172)
(0.248233882364045616 -0.0624693895781582298 -0.0544741269832672015)
(0.296851920365590771 -0.0491655397876845784 -0.0725574501785755804)
(0.282331764589431544 -0.06129977419155061 -0.064935431065212143)
(0.274797845166225518 -0.0532102292419804682 -0.0641480397330134178)
(0.286283260848274324 -0.0540951159185715444 -0.0649381030329543862)
(0.325132824707248025 -0.0402815007382435614 -0.0901477873007726083)
(0.313959058636129107 -0.0511220880355456042 -0.0800085573122790439)
(0.304303704867663727 -0.044458476961099988 -0.0789667121715423997)
(0.319896469799253236 -0.0454158525650220704 -0.0796280041592607873)
(0.347006052440008872 -0.0318747615939791312 -0.113601676531367976)
(0.339531464446797326 -0.040976948256447647 -0.100278875453460037)
(0.327394420323334656 -0.0358340442101077669 -0.0986230711308632296)
(0.348169937870207113 -0.0365886445270633756 -0.0996539820229821877)
(0.361808803011828994 -0.024933273343547592 -0.144306165796695973)
(0.35814346900986882 -0.0316724166703555993 -0.127101243522095508)
(0.343249098854384482 -0.0279913228522892105 -0.12438019013653856)
(0.370419902451357752 -0.0283819175370067338 -0.126535918040262541)
(0.369979143375767094 -0.0209925515652241712 -0.184597844385117449)
(0.369413590228911182 -0.0247502468284795246 -0.161857717090227948)
(0.351311749012636343 -0.0221491507285749983 -0.157612741631859621)
(0.387076391065117931 -0.0221697442056154777 -0.161732612907912465)
(0.371496181297615913 -0.0219636938236842244 -0.236830337371155719)
(0.373940273206826046 -0.022239496482784709 -0.207719823873250914)
(0.352162379730899699 -0.0200424716622753067 -0.200955464770015579)
(0.398184582673063003 -0.0199376139138488645 -0.209128143351515555)
(0.368967517310233917 -0.0282559313070238141 -0.31048342776397847)
(0.372970129826133867 -0.0265584632325588793 -0.266093363296325935)
(0.345052022841389472 -0.0234248947967726079 -0.256006149715005515)
(0.411128447878910119 -0.0239707499375328391 -0.26960955771571149)
(0.348212244610667909 -0.0478970792873575912 -0.409263611582430187)
(0.36231929992027595 -0.0362142355331620813 -0.354027718840604577)
(0.330356824698041118 -0.0311678009555601855 -0.33345739164348065)
(0.412137309130718554 -0.0339239092240156484 -0.367962400375198118)
(0.302554143100481843 -0.0377662207465088717 -0.646117370897287158)
(0.360468760241143826 -0.0697027890791560301 -0.461357985905108348)
(0.303519296981210052 -0.0586332890149341354 -0.420132345963567411)
(0.483344148577760313 -0.0674763138698946663 -0.488166891842309325)
(0.159412595943116797 -0.0162131499703025185 -0.821430403271516729)
(0.166211563132997786 -0.000792861584355564327 -0.638304394466575498)
(0.381680666145559733 -0.0381416455732481383 -0.921721475334595919)
(0.0459260077019045948 -0.0907735021196915126 -0.0338163788382674774)
(0.0237521808608705462 -0.0894191522061880961 -0.0311672855943304628)
(0.0225289670949973091 -0.0782606677734432737 -0.0289761307327947061)
(0.0230456712570890655 -0.0740064044866572124 -0.0324089512558782891)
(0.0938690165061867865 -0.104862735040024455 -0.036959105789626058)
(0.0721780853637121883 -0.114872023124493725 -0.0348107996545660228)
(0.0692337137714222617 -0.103203715729853263 -0.0333194785666698495)
(0.0705014164237840746 -0.0985089271312668963 -0.0365383194060517544)
(0.140830261614908858 -0.103216744977966804 -0.0396767891334314782)
(0.119767692071476542 -0.117192784291271487 -0.0371701531488216191)
(0.116121793794913372 -0.105644632935178229 -0.0361386142209359218)
(0.118251260393861815 -0.10203285408743476 -0.0388915042984865136)
(0.185446691928254664 -0.0954704147063921149 -0.0437259391504162889)
(0.165441094233690356 -0.11042211926353479 -0.0404937068180440049)
(0.161237257228075748 -0.0992612613637510882 -0.0398224594306571464)
(0.164732729864623922 -0.0974288677824411697 -0.0419126216922580536)
(0.227330312908506638 -0.0854558874981915378 -0.0500395464623350494)
(0.208767330602151191 -0.100273298944570641 -0.0457683985718899886)
(0.203616259463746535 -0.0898241465137265549 -0.0453272236942415113)
(0.209105645837147885 -0.0895780507802360626 -0.0466234122848738913)
(0.265970130525251369 -0.074559448085985941 -0.0593342837636274614)
(0.249320794045739563 -0.0887463499683257689 -0.0536476165909795105)
(0.242777251447335224 -0.0793772672334112916 -0.0532766336033973567)
(0.250893499329174152 -0.0801429015232195258 -0.0537757744630310147)
(0.30028044638050122 -0.0632329452822560506 -0.0723865381989155787)
(0.286303270545626987 -0.0764995762593242562 -0.0647829614078520161)
(0.277959569847984367 -0.0685340813995097137 -0.0642900813903491963)
(0.289409078017864863 -0.0697291762943846039 -0.0641916560750138837)
(0.328920192131696265 -0.0517040646602407034 -0.0901396454649664863)
(0.318425752646406712 -0.0637129781027907516 -0.0800475698450372336)
(0.307905944241295304 -0.0573925526406579359 -0.0791676498113534771)
(0.323524741941197513 -0.0585277300747720011 -0.0788919129546662018)
(0.350666357275711382 -0.0405781409553837707 -0.113778442444187569)
(0.344188964612020254 -0.0507263001994130991 -0.100497458883130719)
(0.331183936621450403 -0.0461655396758332698 -0.0988744019064028701)
(0.352031909975760393 -0.0468627389589548679 -0.0990432166792859087)
(0.364556928091136878 -0.0312347535931461542 -0.144652794815627511)
(0.362283480589043971 -0.0386046418615066111 -0.127482165981668949)
(0.346610041055951001 -0.0357026009289203167 -0.124659359894260469)
(0.373872769810345285 -0.0357699088068346993 -0.126176678988003471)
(0.370778138955830894 -0.0257479014296192396 -0.184979696578361302)
(0.372009905943062602 -0.0294391223487549397 -0.162339850761954063)
(0.353363083465589312 -0.0277332402448034164 -0.157877003054152837)
(0.389140258434744257 -0.027230117024876755 -0.161724835209989926)
(0.369557756563928586 -0.026664271106472251 -0.236982849798421158)
(0.373849995501959353 -0.0258408072974529376 -0.208072883798180536)
(0.351978480901697866 -0.024531122121222014 -0.201045195725028686)
(0.397835841306511839 -0.0238309511823678113 -0.20933264767259771)
(0.363523318045600619 -0.0345862707838009362 -0.309637654372952209)
(0.36935144955674587 -0.0309601073081901546 -0.265983147311220303)
(0.342036711782774061 -0.0285497792219728368 -0.255647908047252459)
(0.407118723027119267 -0.0287945962811984452 -0.26981521502526995)
(0.340254823625527003 -0.0581606450682950332 -0.406122093163282571)
(0.354669717941659857 -0.0431018415621991918 -0.352091574058685575)
(0.324000356519059562 -0.0383444220934202121 -0.331920304217595108)
(0.404441715909739374 -0.0414372559190575515 -0.366378637232734339)
(0.291278776071255407 -0.0478479213090736918 -0.636671018279338696)
(0.348390776622486631 -0.0815073138325233953 -0.456270128965264254)
(0.295201335357593631 -0.0704473132840611055 -0.416350854054256092)
(0.466831466859209843 -0.0817256719393942843 -0.483494212559206826)
(0.148573932897175409 -0.0228801193042979314 -0.803179140627279131)
(0.157317054590804556 -0.00462017945233910571 -0.631001151027188789)
(0.368182061385294412 -0.0504646598943446698 -0.903249552346129803)
(0.0495529315577302107 -0.11365447038717677 -0.0321617064106290013)
(0.026241652465382851 -0.112906395394166734 -0.0290466802900100005)
(0.0243921400474199843 -0.101106497163729769 -0.027940370859791834)
(0.0247536212472826041 -0.0951155255775247704 -0.0308678600891749109)
(0.0983388958364059262 -0.127268246742564567 -0.0350218470137615701)
(0.077152221286157438 -0.137658403729814888 -0.0320298352059405073)
(0.0735220904333052788 -0.12604644603302495 -0.0322474587548936126)
(0.0744921532853468488 -0.120016208785463319 -0.0344549747092804046)
(0.1449497541590479 -0.124469199236040953 -0.0379870708334341459)
(0.124831896871415909 -0.138710419650757866 -0.0347382032099360499)
(0.120663920111559825 -0.127414401458969928 -0.0352978502764249927)
(0.122547552144389907 -0.12313582118851088 -0.0369012838821379877)
(0.189335678207753849 -0.115276641911822839 -0.0425361662395177184)
(0.169980486547498422 -0.130605055607756648 -0.0388220693146484191)
(0.165330524650017907 -0.119588549740606148 -0.0393335646371371916)
(0.168693943809065966 -0.117717923526577409 -0.0402453053896689728)
(0.231352070223877715 -0.103582735776515986 -0.0493764687005344635)
(0.213173788629605704 -0.118973603481690088 -0.0449011421191002971)
(0.2075772565010158 -0.108663761445748436 -0.0452118093776507149)
(0.213026440792335986 -0.10871582349172948 -0.0452645356824702971)
(0.270437690636440631 -0.0906669831144233385 -0.059096294235204079)
(0.254092564501487872 -0.105713159161136341 -0.0534185331217830392)
(0.247069379886944496 -0.0965988123093247802 -0.0534634736195915561)
(0.25516401965800295 -0.0977025100129957358 -0.0526543455176124858)
(0.305358295675941749 -0.0768945623008270851 -0.0724439930539736709)
(0.291750142904390108 -0.0913180691623539376 -0.064939570864901569)
(0.282852221398255332 -0.0837752066696928754 -0.06465632603473144)
(0.294249613227071272 -0.0851411295583822669 -0.0632528075951736546)
(0.334452368380144416 -0.062556825704764063 -0.0904053832632014942)
(0.324585383777139136 -0.0759096790244486175 -0.0803748344633711115)
(0.313394889008802635 -0.070209750919312558 -0.0795989133079684774)
(0.328938398401486753 -0.0712098927279939398 -0.0781309494422478823)
(0.356056351206258448 -0.0484796254513225264 -0.114201182420612057)
(0.350706744863900133 -0.0599390473230243248 -0.100865247884090126)
(0.336897528648092137 -0.0562039246563302008 -0.0992940016484444715)
(0.357674351625701104 -0.0563914768759356255 -0.0985159893811713427)
(0.368787291745440726 -0.0364769684707758821 -0.145169221927995556)
(0.368303399602865567 -0.044734118263581861 -0.127815451122775009)
(0.351737408737273216 -0.0428330774699850134 -0.125013898476498853)
(0.378953455369932191 -0.0420491712443370955 -0.125956509178940107)
(0.372531664832120912 -0.0292644365465707518 -0.185433037981773186)
(0.376196260304730357 -0.032979574251291166 -0.162608538817568565)
(0.356760053151457868 -0.0323804881228408892 -0.158120167893003954)
(0.392450558879800016 -0.030820652566101156 -0.161872790730302807)
(0.367694091529732647 -0.0300012373261273613 -0.237073181310979819)
(0.374700012551653638 -0.0280155440102452247 -0.208088720604738764)
(0.352415208621913556 -0.0278304092082692946 -0.201040868910688147)
(0.398060613652340578 -0.0261318577773268709 -0.209690440113123655)
(0.35727755356873192 -0.0394571060505792548 -0.308437066996953724)
(0.365681490372237961 -0.0338289923610974944 -0.265484565012231055)
(0.338742136791274462 -0.0322627536155950731 -0.255067972274485966)
(0.402622113558985639 -0.0319335727518334639 -0.270064955528979189)
(0.330224562575350544 -0.0664361395854868586 -0.402239609860667091)
(0.346142454059089888 -0.0484022402817319425 -0.349537805427663384)
(0.316707296385620507 -0.0440014831475191159 -0.329788949467749337)
(0.395612919562542464 -0.0473577624671365841 -0.364436852881883155)
(0.275479890288240048 -0.0563665475220151146 -0.622778251313205189)
(0.333654022609805923 -0.0904054081785882063 -0.450241668778352366)
(0.283619522854505757 -0.0802661273872682518 -0.411742906006634657)
(0.445626093466126028 -0.0940233727377769585 -0.478201062407766275)
(0.135638311034713355 -0.029782668753206655 -0.77889776371346009)
(0.145107154230581431 -0.00833541309528541483 -0.619755081654303597)
(0.350104672581209975 -0.0594986733842511537 -0.878431198915603062)
(0.0542143805578710891 -0.137115284687896355 -0.028914809085321503)
(0.0298970874399987346 -0.137737212629970934 -0.0251617324672239843)
(0.0271649750048721522 -0.125317645136292954 -0.0262375456643260431)
(0.0273216989664276967 -0.117743782905732591 -0.0277086647630083761)
(0.104004507371819793 -0.149211590476193812 -0.0317461914021149802)
(0.0831748567995292537 -0.160095156802031513 -0.0282885161069684893)
(0.0789565439010127962 -0.148721606959040853 -0.0301636482760544618)
(0.0798977472721528748 -0.142098431097791189 -0.0307793081621328159)
(0.150177952329846293 -0.144980880713297705 -0.0355732016911503302)
(0.130498636154947389 -0.159327097080419894 -0.0319872697000633671)
(0.126262598004100945 -0.148399066406655206 -0.0336850121391970292)
(0.128431267072457111 -0.144262817607897442 -0.0338753325743567854)
(0.194261097551769041 -0.134429166558512864 -0.0411870451942310048)
(0.174924981749473241 -0.149979968086589227 -0.0372289815540448044)
(0.170450987242080382 -0.139247482811137413 -0.0384720565420091018)
(0.174265340438822774 -0.137859068304615529 -0.0380368845138022646)
(0.236461927767577379 -0.121200080996686888 -0.0489432065403488867)
(0.21800957891300532 -0.137086967514440466 -0.0443810769306365177)
(0.21265656960677945 -0.127141844775736035 -0.0450643010017960019)
(0.21849173651716508 -0.127599353283591843 -0.0437792061251523618)
(0.276182515902390902 -0.106403647019506081 -0.0592618097514805431)
(0.259502086543671351 -0.122348691912587224 -0.0536584665751632384)
(0.252687828394753455 -0.113757225084402808 -0.0538002363250430146)
(0.260915435549058661 -0.114955371815246316 -0.0517641475543440394)
(0.311987604545059527 -0.0902680537430016333 -0.0728704122742990096)
(0.298210595061231265 -0.106044973124538103 -0.0654973222174786984)
(0.289354479829719569 -0.0991664951344480156 -0.0651731522734318724)
(0.30060631720395864 -0.100245393889838913 -0.0628002530118373231)
(0.34183197782715169 -0.0730653299381562038 -0.0908346990842597152)
(0.332241195860072225 -0.0881326366428987623 -0.0808209466164792611)
(0.320776822734796296 -0.0832230660710546327 -0.0800307383842838588)
(0.336012638984539092 -0.083539068837496136 -0.0779483548492112127)
(0.363531506699219242 -0.0557733557022001003 -0.114479516586253008)
(0.359230066528939629 -0.0690739863758506739 -0.100895313669745759)
(0.344723459923115982 -0.0662319526577369588 -0.0994798484912090414)
(0.365169699615880139 -0.0653571693578726964 -0.0984612909471461323)
(0.375086865959871729 -0.0406796135641180889 -0.145254768012348101)
(0.376685471398694016 -0.0503805276825019729 -0.127330399080784057)
(0.359025167124224109 -0.0494580739304622471 -0.124921481518671149)
(0.386012661273053004 -0.0473264589432803931 -0.12594291595036855)
(0.375833101249319457 -0.0312214476296613155 -0.185264221440534282)
(0.38261339570619618 -0.0353672814889409645 -0.161802068337682681)
(0.362001207593540097 -0.0358977393262612174 -0.157827490792823183)
(0.397533023454058443 -0.0328849883915161151 -0.161939635460953191)
(0.366564333544350307 -0.0316035477361861009 -0.236500104305990305)
(0.377058662987607651 -0.0285289489366162517 -0.20703467261318384)
(0.353979729184144387 -0.0294710744332904728 -0.200437253069011639)