/*--------------------------------*- C++ -*----------------------------------*\
| =========                 |                                                 |
| \\      /  F ield         | OpenFOAM: The Open Source CFD Toolbox           |
|  \\    /   O peration     | Version:  2206                                  |
|   \\  /    A nd           | Website:  www.openfoam.com                      |
|    \\/     M anipulation  |                                                 |
\*---------------------------------------------------------------------------*/
FoamFile
{
    version     2.0;
    format      ascii;
    arch        "LSB;label=32;scalar=64";
    class       volVectorField;
    location    "0.990000000000000657";
    object      faceTraction;
}
// * * * * * * * * * * * * * * * * * * * * * * * * * * * * * * * * * * * * * //

dimensions      [1 -1 -2 0 0 0 0];

internalField   uniform (0 0 0);

boundaryField
{
    inlet
    {
        type            calculated;
        value           uniform (0 0 0);
    }
    outlet
    {
        type            calculated;
        value           uniform (0 0 0);
    }
    top
    {
        type            calculated;
        value           uniform (0 0 0);
    }
    bottom
    {
        type            calculated;
        value           uniform (0 0 0);
    }
    left
    {
        type            calculated;
        value           uniform (0 0 0);
    }
    symmetry
    {
        type            symmetryPlane;
    }
    interface
    {
        type            calculated;
        value           nonuniform List<vector> 
352
(
(1003.1073376054386 -0.0117690384382997566 -0.0297931635474355458)
(880.330974343625826 0.0014695740265032245 -0.0305775791151075699)
(755.51288517441958 0.00238161973979583936 -0.0300664152705232002)
(629.88880433333577 0.00280650717379224901 -0.0298326273508494715)
(504.614273587518881 0.00277268721114780868 -0.0300715455962125115)
(382.014983992405462 0.00222664489840551866 -0.031009344257594551)
(260.896099152309944 -0.00104751649504464901 -0.0302429499238191166)
(138.629448551032254 -0.0102069325507938187 -0.0274881736542789065)
(48.4486851105282597 -0.00788624864602896491 -0.0103171774744298724)
(20.4237932304234704 -0.000585255125112995288 -0.000441597123857863426)
(15.6790163708442787 -0.000248302119015836244 -0.000171264536001808359)
(12.4066000244246837 9.12459706982419452e-05 -0.000174659667779483154)
(8.63025013088338255 -0.000645588764372735571 -0.000519656849948544664)
(2.13534672192054398 -0.00199476325677988998 -0.000880080800374276394)
(-5.97433029659376924 -0.00234186141031705961 -0.000950387510132828794)
(-9.49365200575433477 -0.00235229610601512488 -0.00108912351371149413)
(1041.13755341415526 0.000445508036699125297 -0.0200979897986724304)
(916.695202368984155 0.00164079017437167968 -0.0217766883589199031)
(789.485562794698808 0.0025570253338701842 -0.0210677030621986526)
(660.404557774626937 0.00309277150943534007 -0.0206370824233832843)
(531.313491202554701 0.0035024510246857276 -0.020637661750148837)
(405.82886223543909 0.00462493445621671526 -0.021278089927126858)
(283.125610407882789 0.00254799692944642983 -0.0211459721354898371)
(157.506976659319434 -0.00541714146048056112 -0.0202404495782412368)
(58.0590760923146121 -0.00760821082825669046 -0.0104759478634081828)
(22.0090282988402777 -0.000955060042318810545 -0.000976813432428004849)
(16.1907425271427385 -0.000360080383659278265 -0.000397120571980740596)
(12.8074813872851259 -0.000223361612865050882 -0.000270184508152546653)
(8.45501786909115971 -0.000924379697553309298 -0.000566557548062003092)
(1.15929313109018728 -0.00169292746182633769 -0.000709440957633372649)
(-7.95156510247040238 -0.00221135243287211422 -0.000775735124635195446)
(-11.4973292624370185 -0.00231516819398580468 -0.000747314810820172621)
(1054.63438523605987 -0.00620473467421271425 -0.016439370091708639)
(929.671411274227239 0.00240540788399320896 -0.017908399365865281)
(801.495612763374538 0.00390367721697762416 -0.017681512773177574)
(670.770528332213303 0.00475161454558934663 -0.0174984508901658044)
(540.772575935803047 0.00536998662120437113 -0.0174556388470775738)
(415.897082110545966 0.00585421683638054271 -0.01803959666725884)
(293.90356437508251 0.00332615888257660128 -0.0178668764065647405)
(168.877090605997097 -0.00426206273937579632 -0.0167980443103659671)
(66.6381047798199262 -0.0076487834655257006 -0.0091302861696748519)
(24.4016824898810398 -0.00149249056782463341 -0.00123189459842157974)
(17.0466262496925118 -0.000492999597354139827 -0.000345160394452929096)
(13.1072749370337682 -0.000582161889179344505 -0.000312025561073257687)
(7.87754916980254283 -0.00135967216743390997 -0.000476363612860811463)
(-0.149955887076154953 -0.00189755948185155545 -0.000545481896357840712)
(-9.23681814090132391 -0.00226668083041293772 -0.000598780209440901074)
(-12.259641865083724 -0.00239727464176380011 -0.000610348108375503916)
(1055.67976046788885 0.000535896228810421572 -0.0103047252769671808)
(930.713113261594458 0.00240186095533736783 -0.012046375135596794)
(802.496653172826313 0.00359191029784179314 -0.011866583025671543)
(671.733963552975069 0.00433354557298660115 -0.0117528300555160316)
(542.350327422304758 0.00546404442932743768 -0.0118041640262221172)
(418.499733384738875 0.00616436613874053393 -0.0118138101114911419)
(298.428156866661254 0.00354932992076245147 -0.0111871928975637719)
(175.237509649853962 -0.00386768824870743636 -0.0107340177675003656)
(72.1707664594402161 -0.00761079415010724233 -0.00681015053402893832)
(26.5802337617921225 -0.0017279599095223093 -0.00115809134455503683)
(17.7535493290401334 -0.000608629327332405826 -0.000355586943561722916)
(13.3016906472178533 -0.000702231154887891134 -0.000310778550359031729)
(7.61983938107651149 -0.00151591414612877698 -0.000482182720746723425)
(-0.605961260529616297 -0.00196682342456792067 -0.000503740383248501428)
(-9.46517862527251808 -0.00239279924194373689 -0.000528157271467840088)
(-12.3871346372130695 -0.00249210810351347062 -0.000501920893392956394)
(1053.97510374032754 -0.000315256164809661664 -0.00865952238439751838)
(929.086230695154882 0.0025393036501112692 -0.00955348034509465212)
(801.058180156936146 0.00391333952034476039 -0.00966388204136647659)
(670.988696426582919 0.00471018391238974942 -0.00985873474769161443)
(542.666456368640183 0.00614781708603173369 -0.0101836886069526164)
(419.643738977378234 0.00630159923448847265 -0.0103579293674492465)
(299.800148332783692 0.00354418210485188271 -0.0103065660944091676)
(177.461864590763099 -0.0038330899013304001 -0.00954231468477688069)
(74.0807928140508523 -0.00783202828742168844 -0.00546261518630709875)
(27.0100052759022873 -0.00190033896864931712 -0.0008797062778347454)
(17.5775814259641301 -0.000619076332490995111 -0.000216993498703826513)
(13.0633426721710073 -0.00069277834693412543 -0.000190597368651204566)
(7.36317006721265077 -0.00152181302520597306 -0.000333217013902968422)
(-0.809636949419196839 -0.00199911587372703656 -0.000375856550037974031)
(-9.39591802567068157 -0.00243528156475698518 -0.000410260145181660821)
(-12.08940245924801 -0.0025351737047861287 -0.000410376088942473669)
(1051.2123203964386 0.000732078776335182493 -0.00462467273806308789)
(926.208108952118778 0.00281023139450174968 -0.00596210569677388044)
(798.162514569162681 0.00425113086683054971 -0.00580972902273732897)
(668.925237808579823 0.00516128546249278609 -0.00578257975847349705)
(542.297746721902058 0.00649703561612391747 -0.00600131143714330902)
(420.178703863738122 0.00629959554629620343 -0.0060076498053547667)
(300.455782789679631 0.00306583573819668156 -0.00516610696838577105)
(178.129773942905587 -0.00443014113995186115 -0.00425638514959782426)
(74.4611540666781053 -0.00816166322037191992 -0.00264389940280484537)
(26.6271374044661968 -0.00199753281448295395 -0.000536804476720835976)
(16.9979228554721189 -0.00061137133845491035 -0.000180053625461010084)
(12.6463815438427751 -0.000600884778883664368 -0.000164923960545814959)
(7.14315252642867815 -0.00146246564503502326 -0.000302981278449465272)
(-0.939421868178582087 -0.00196362265222791137 -0.000323345845667136959)
(-9.26200872021672517 -0.00239772097779767735 -0.000333028466835713557)
(-11.6400107051921875 -0.00247507157871411625 -0.000310967230283266732)
(1049.9341643887451 0.000318531307536149152 -0.00292500410449430528)
(924.58783864178497 0.00290315236124985337 -0.00378022779595444834)
(796.333531400737797 0.00442263597087508547 -0.00366751651005156002)
(667.799891855782789 0.00551269564093697685 -0.00365937808953210094)
(542.448442120241793 0.00681735293650079927 -0.00383302219385127591)
(421.055218561244658 0.00646024807238486636 -0.0038702916668348626)
(301.835211251167948 0.00303455915062212202 -0.00364779930153939563)
(180.191313422497103 -0.00427980810152012604 -0.00348294910400356308)
(75.9503625894264189 -0.00824796554596186199 -0.00212370826995045585)
(26.5953736257462587 -0.00210819195242969949 -0.000345759548113295102)
(16.607067436065698 -0.000634930901739553166 -8.74303480308811544e-05)
(12.3913769712352142 -0.000536536160012155003 -6.68789756158604437e-05)
(6.88920947087748381 -0.00145827685369009875 -0.000136972653044561043)
(-1.20109604895465183 -0.00195538374873322797 -0.000152098779287764642)
(-9.21882246577539988 -0.00239894876384854879 -0.000165388088854390679)
(-11.2496133673647112 -0.00245343985638239595 -0.000167571678971008904)
(1049.10114982209711 0.000989952452985076422 -0.000935811822871273984)
(923.662527307552864 0.00296123638709243873 -0.00121013423091010622)
(795.412505096990458 0.00441600834785942521 -0.00118188138485472694)
(667.024488669526136 0.00549824603911527442 -0.00116431142993468953)
(541.867417950582876 0.00679711849568766582 -0.00119177860910731786)
(420.516794955980174 0.00647073033474863599 -0.00118457394470568105)
(301.22249313111854 0.00319721991548090924 -0.00103600949092983027)
(179.752851091343842 -0.00387632053390010852 -0.000858798053975820259)
(76.0671700838464915 -0.0078293406838640129 -0.000555026517657640191)
(26.9711840008048185 -0.00205481185972131207 -0.000117680411574628435)
(16.8870817263571915 -0.000682624525754814524 -3.68059833152018371e-05)
(12.5671782051041649 -0.000586781312353177481 -2.52478177975987718e-05)
(6.88391854849112317 -0.00153737456918307067 -4.51536425187823868e-05)
(-1.29203123543011245 -0.00198586799398592188 -4.48948011149239042e-05)
(-9.33191626375079508 -0.00241078420438607319 -4.35952754413727048e-05)
(-11.5128631075325316 -0.00247755413955782653 -4.21925098136233904e-05)
(0.0489796838779735441 0.0225474926589090789 597.060967925249997)
(0.0484483038864790411 -0.00236497821739012825 479.616741030106596)
(0.0464157072132843629 -0.00671656823164974107 372.107327848312423)
(0.0422658116149477112 -0.0119766431276100548 271.462610146104225)
(0.0341266187350638059 -0.0209438676357120122 174.142818856685921)
(0.0170078136572199869 -0.0208447292968681371 95.2328434149420104)
(0.00356043838448781092 -0.00882392916491698404 57.7539334917873219)
(0.00136067282989918068 -0.00603613522705540809 39.6726856778261023)
(0.000747580109652538861 -0.00223891625671244132 27.8796702552567517)
(0.000701709846928422047 -0.000604636671452006493 21.6478043201646209)
(0.000761423569261582647 -0.000249493457609487458 16.6049733143009419)
(0.00091274532850130674 -0.00130983799531171727 10.2734245302122158)
(0.0005364771219859998 -0.00244499616883694232 2.95068865928257917)
(-1.24905759587970158e-06 -0.00307678191715671841 -3.52361107179249267)
(-0.000499151917581450904 -0.00350163074707669341 -8.53411580290484473)
(-0.000730992850012691497 -0.00291786180228696462 -11.6557559180120673)
(0.044222132663632327 0.0122846162403040405 614.70876188125942)
(0.0441104101767320275 -0.00498123252563116396 498.50384686478958)
(0.0422322439847604356 -0.0118963640907539785 381.820360162697284)
(0.036578796786329193 -0.0226562049971673375 255.589987095848329)
(0.013714990035030997 -0.0200712420265627377 146.250794524441744)
(0.000279860810129343269 -0.00877480407000708583 88.4297249893728292)
(-0.0010051865247777392 -0.00239062385412816157 64.9202583841400696)
(-0.00113772833578529818 -0.00203485980666699186 50.9948660363818433)
(0.000689687272642230216 -0.00353887592764502495 36.9078355488039307)
(0.00180425081051451431 -0.00490844379611424676 23.343190036762703)
(0.00110326991934498451 -0.00619774818119992518 13.4569158243845735)
(0.000351893895802830176 -0.00611213518824599723 6.82925937823693108)
(-0.000111294009427727081 -0.00357542955999379545 1.24075139528920753)
(-6.66669427183447412e-05 -0.000549279175893922539 -4.46095626958687319)
(-5.6434029742192252e-05 -0.000510115174052820121 -9.28086101993257451)
(-4.70928177672992937e-05 -0.000789983795693936699 -11.0324393840662136)
(0.0449999376487893038 0.00357706892960354093 625.145790461927618)
(0.0448445673145122237 -0.00681604920335639793 500.561936192960559)
(0.0426372946940643052 -0.0174555442383972949 366.462554307381822)
(0.035479799448831395 -0.0260195050151739438 224.41481383751875)
(0.0151609891186823623 -0.0119338117928351698 119.286002907390071)
(0.00161400578340831539 -0.000883759608819283528 81.8055285435512474)
(0.00270335393607640511 -0.00018588510260570342 66.5154518737336815)
(0.00280723249971403946 -0.00303996091966421194 49.5049805649264982)
(0.00178255184095453892 -0.00656656097726326677 31.1410596184397832)
(0.00141953242788104487 -0.00808691803158968943 16.1688878202262885)
(0.000998298092607505759 -0.00780543583820705964 8.13093933026424232)
(0.000149295132835688737 -0.00228440368090160632 3.46062333738849182)
(-2.19029265051218142e-05 -0.00083334511818668384 0.367708816716258491)
(-3.61969333208215038e-05 -0.000439397462046059516 -3.42357875526797439)
(5.27613798909266777e-05 -0.000565746529012341637 -8.15601595960646897)
(0.000155066587258189515 -0.0012076800153338525 -10.4759043340607239)
(0.0570415587444204758 -0.00180455584045589911 538.997787839791272)
(0.056495120312447418 -0.0117098202915561708 413.211492605693707)
(0.053927962348208909 -0.0227347600364265837 283.745017810806019)
(0.0409043286604860168 -0.0189692299037567298 164.471093032938825)
(0.00578157185248394552 -0.00139306464412551254 96.7569161575525669)
(0.00160194587730721257 -0.000645838960120438048 70.6125508258025292)
(0.00192808572705850233 -0.00468252507821034954 51.8655361245006503)
(0.00158812696332112668 -0.00843922630837390733 30.7683580073983656)
(0.000829140844780699299 -0.0093949035507315589 14.0511494929478893)
(9.74868487782549098e-05 -0.0060464399572457651 6.24139984996359143)
(-1.12751882398384587e-05 -0.00111827843958271019 2.31798104957793072)
(-0.000110869526264193002 -0.000605066331005779776 2.65022969222278793)
(-0.000149388014195047265 -0.000481826093704211197 1.70254322159518723)
(-0.000146170124178253121 -0.00041624477766819695 -1.67150014927286339)
(6.33363921602130128e-05 -0.000702346063797854763 -6.15797246701535883)
(0.000490528952710543218 -0.00181358930442739627 -9.00139935391696255)
(-111.804356682418472 0.0206729921261822013 0.00847526173815951571)
(-54.9497068430541802 -0.00826188505772133645 0.000306259536636844848)
(-25.2700490710975707 -0.00556252275757772394 -0.002338952135533999)
(-12.3947536072431319 -0.00332468461624506112 -0.00263616426108816138)
(-7.45171344971026173 -0.000533765280882498748 -0.000880096689292872371)
(-6.01347542316050188 -4.12887760454471508e-05 -0.000720671777728745756)
(-3.80933619639199561 0.000361080493894786782 -0.000666932761135685041)
(-1.7661102720305919 0.000796236941140086949 -0.000735059573534397421)
(-0.197136915049255235 0.00100598934476253243 -0.000905091321390431099)
(-0.358367275728304069 0.00110717208291100685 -0.00122533115598981164)
(-2.40475727087012148 0.00102326287892649847 -0.0014614845913573989)
(-5.11507138676244555 0.000729952979695239722 -0.00151941548755863114)
(-7.69250099657528796 0.000478379927309968472 -0.00171276361943131761)
(-8.69748467238471612 0.000499413110748867851 -0.00172555158930828866)
(-5.19772382904541086 -0.000530698842971799264 -0.001608792463572737)
(1.71206280482469575 -0.00318633056812081018 -0.00233008177100483237)
(-83.8052847049515179 -0.0155662390346887076 0.00491367587347690989)
(-43.3812494707693617 -0.000139678152177366723 -0.00466310705122947432)
(-32.9982861884531502 0.000462741455568162804 -0.00399134117035622113)
(-22.5624074139568442 0.0010178123198908446 -0.00292848073257324752)
(-13.6929783548374076 0.00150115629074243058 -0.00233842069898097284)
(-7.45215260436540294 0.0012676610811055975 -0.00131476730320214709)
(-3.95166587484318343 0.00142593261146065488 -0.00117268262772823374)
(-2.5875502201560816 0.0014797190751856201 -0.00114402255061135053)
(-1.90795469330198042 0.00148816318150089139 -0.00118664894335687677)
(-2.26530638914576876 0.00143865394817236747 -0.00129818173714310223)
(-4.25825677195092922 0.00141123773477844867 -0.00147056449202978968)
(-6.84504514888647275 0.00119646758685960941 -0.00156880689370084429)
(-9.99174185856084662 0.000844053723987224004 -0.00153980386370907514)
(-12.3315907100224695 0.00048059467513087567 -0.00137349296112472476)
(-9.44177211359170521 -6.00291882212539894e-05 -0.00158330026295840022)
(-0.819640068848823455 -0.00312485320894148513 -0.00184859307655482969)
(-105.480988576832317 -0.0109263861744955098 0.00231373011728997196)
(-62.9002001603059213 -0.0011678378210504515 -0.00400621722551090971)
(-54.8614140135205659 -0.000616896678456626732 -0.00188667981619805277)
(-44.8103793621982192 0.001228632609940689 -0.00236565154559660032)
(-32.0624962667258444 0.00381057443897804332 -0.00299282627505507298)
(-18.6343528879133302 0.00419410500528476747 -0.00213243117378953241)
(-10.4976773038096063 0.00163159549580998878 -0.00072480334371154457)
(-6.77423304510388302 0.00174545555996081223 -0.000834505359313316873)
(-5.15315585775669227 0.00176013929299931229 -0.000947823180809876601)
(-5.4385924354160986 0.001702020203442401 -0.00108791410498698714)
(-6.77842050164229004 0.00239646546360293856 -0.00174494355456160269)
(-8.14552797545552032 0.00178620075750883208 -0.00152944151792097226)
(-10.6834462753828259 0.00124612926828414632 -0.00124536814915964336)
(-13.3851665789575129 0.000858194017323585657 -0.00114586715112409681)
(-11.3960441878689771 0.000696305454330021991 -0.000772335952096097787)
(-2.6571642773933104 -0.00230132963616533522 -0.00110784051134803891)
(-132.46638041224378 -0.00979316606999089748 0.000782850606398283666)
(-97.262523775460167 -0.00414408005979788763 -0.00483621468516476794)
(-91.8286528606043504 0.000549418548187829742 -0.00359305829062369925)
(-78.6562659338505483 0.00430372797874804553 -0.00382972843271336917)
(-59.9623367970907495 0.00608409491576903348 -0.00323424698946873663)
(-40.2885045703904652 0.00735439033815241897 -0.00284877674612187253)
(-26.2725094943759103 0.00295311579627895518 -0.000999609490997991875)
(-18.798265138209171 0.00240573231984314009 -0.000806366258918313097)
(-14.7450086351308016 0.00226660466840544229 -0.00082558899107167431)
(-12.4350522816627151 0.00600908336237964292 -0.00246327488156568254)
(-10.8876008167661666 0.0057350005979364127 -0.00280625734888085513)
(-9.61978033921325348 0.00250019661308905575 -0.0015398464121157019)
(-10.2368620713133982 0.00130097263466070448 -0.000869287063166316091)
(-11.3031895143083023 0.000828742658671439481 -0.000317956297949679783)
(-9.13601462283366494 0.00051604733954479739 0.000257867945052515143)
(-0.935387247052543724 -0.00281849374807366122 -0.000658362602331037812)
(-148.075986060333918 -0.0141632841270524952 0.0038718760942749314)
(-118.693348354333025 -0.00337200694289834131 -0.00403220260944735232)
(-98.1663845859890785 0.0061681903767975832 -0.00759786927199243827)
(-72.877018245981418 0.00717074941727135866 -0.0034571638483002036)
(-53.6502072840823487 0.00336294477986119264 -0.000729301197019877208)
(-41.3294524840657047 0.00356971226356881527 -0.00055882849772986951)
(-32.571742764843286 0.00329015442953673734 -0.000499253165133118184)
(-27.2687235106810597 0.00277717192724845829 -0.000499469889754715758)
(-22.3749452365886903 0.00678721310848397208 -0.00158420224479745623)
(-17.8500294007609881 0.0054871840986000283 -0.00178363296629190766)
(-13.1291359329734512 0.00300925904530425841 -0.00159416263721177736)
(-9.46166394422261625 0.000827370080540092948 -0.000571751320707261429)
(-8.2610658927661742 0.000313048703198122306 -6.65437920981299422e-05)
(-6.00361716718842331 0.000412683343350209652 0.00129530946528654076)
(-1.10676881030098162 -0.00182870021466503829 0.000322615483951536777)
(5.29650922779018529 -0.00369063879584444633 -0.000357715726973337634)
(-146.866696032668983 -0.00724428478433284447 0.00627182419759504933)
(-112.589830770121253 -0.00213044098722205274 -0.00101477063258105841)
(-87.262651632589467 0.0056340096863795007 -0.00669300893494510427)
(-61.6956934335222584 0.00651425645330580734 -0.00519384745404885204)
(-43.7741293063598533 0.00242537474073482558 -0.00121160492865986409)
(-35.34495040370075 0.00249241715172527755 -0.00101490455372974181)
(-31.5351240233396837 0.00204063539700417417 -0.000887849209796462446)
(-28.4991488940508617 0.00377826394548602977 -0.00194898843984596198)
(-23.2320364825873931 0.00246158671338265068 -0.00219825461902770211)
(-15.4527883870946425 0.000266166065566717609 -0.00125830981588063344)
(-9.81011283459711869 -0.000166954358338270543 -0.000473649530305735934)
(-6.92812650761917137 -0.000291791374571842143 -1.65027989370464458e-05)
(-4.21193536464561635 -0.000326540796162157687 0.00132854905359866917)
(-1.89400961540037893 -0.00124129881064248939 0.00128464566367122762)
(3.77715767099759914 -0.00343210047941965805 0.000120276295260071572)
(8.68076521878041518 -0.00392537162760571521 -0.000219716975116960981)
(-155.748999328030635 -0.00150930735252594603 -0.00336290309895425667)
(-115.952930608053421 -0.00103520003327926694 -0.00723825305309942161)
(-85.4318829967833011 0.00268166417869352986 -0.00839885132548271254)
(-59.7967817317523043 0.00681208578055542829 -0.00838541815558433747)
(-40.8553701004210197 0.00712818265590969054 -0.00607539610823532028)
(-32.5123950406443285 0.00219261429836974239 -0.00186150759467331589)
(-30.5703260768699856 0.00216816486781091621 -0.00170263247204621693)
(-25.7662703920841061 0.00462271340727469365 -0.00326233328039573448)
(-20.1039073579046459 0.00295764424748237199 -0.00189382731385745657)
(-15.2399894468920074 0.000573202148555497309 -0.000570165341060334461)
(-11.4858872635850027 -0.00031306681243677641 -0.000179395583585421469)
(-7.29919856506044606 -0.00190667475752963355 0.000789106533566186815)
(-4.14341991175656066 -0.00362770427104953117 0.000654653604607939176)
(0.31082201664810255 -0.00475784122156625543 0.000322029833898862549)
(4.21345456602664381 -0.00479473898496439281 -6.75846823665365751e-05)
(7.74409981423048333 -0.00163493716867987014 -9.59540881030983132e-05)
(-193.465496394627934 -0.0134762880517504697 -0.00343369040184656566)
(-170.37703802429624 0.00615349642711395233 0.00432983252588447273)
(-132.148430991890962 0.00966945332805034703 0.0033721836619053547)
(-85.4448191120702063 0.0130732027106908247 0.00120074302778837446)
(-54.1966910017164736 0.0106092992224015598 -0.000457093229437914627)
(-40.6516173437708019 0.00974966637446151793 -0.00113579265491883016)
(-30.076604531156935 0.00906323085071543237 -0.000915652982222842429)
(-22.1604552191176651 0.00466781446601464978 -5.61427438434350542e-05)
(-20.2793417253479582 0.00230962513468993417 0.000145404120705780026)
(-18.2760939540270151 0.00131417623650949777 -2.5671134370558756e-05)
(-13.7369393321387516 -0.00113122229454343443 3.13858928744564913e-05)
(-8.60726901204778372 -0.00373089326681758874 4.4539615443478205e-05)
(-3.25313507965862225 -0.00520983653734355921 0.000128049123722060923)
(1.09748204805376526 -0.00533992154579656861 2.72727429991751813e-05)
(6.28590022133664217 -0.00182988531407355217 -5.3931980421563673e-05)
(7.63072044642574454 -0.000373700377703114204 -1.59247117158624282e-05)
(-0.000727331151301722784 -13.3182287087013069 -0.00118502524481876089)
(-0.000868907116447113596 -18.1151380019884591 -0.000945069526098074272)
(-0.000915595841051560053 -19.2461480486633363 -0.000757590840598733458)
(-0.00092197736760276565 -18.6126587528289704 -0.000582047898411835953)
(-0.000914609215900475921 -18.1987249196161116 -0.000446203797364300126)
(-0.00086982136140610069 -17.8400346039045132 -0.000319996179258539074)
(-0.000793028009218721148 -17.7060635033223299 -0.000194281680492373095)
(-0.000860108417152333779 -17.4805646897084017 -6.03624653709976741e-05)
(-0.000261170982832072314 -16.8060152701879808 -0.00114612482626517921)
(-0.00039303927591432397 -20.7470313266666508 -0.00100304711467847415)
(-0.000277008689307668698 -21.4105918853753963 -0.000801314449292823451)
(-0.00024481176484302138 -20.6190454318434888 -0.000613536769781674305)
(-0.000242704013245390542 -19.8101252085617574 -0.000490842533242645041)
(-0.000226605483289494663 -19.3132437722909955 -0.000328902637804712585)
(-0.000234002888853705455 -19.1788398338785449 -0.000202442144001176757)
(-0.000222534614200498411 -19.082619600239358 -5.83872441274550899e-05)
(0.000303143503784744194 -19.1554709232942386 -0.00112864136701254112)
(0.000295591341547973439 -22.114146549167458 -0.00098466842093657787)
(0.000287828064302650128 -22.2614397072537535 -0.000854983515050301802)
(0.000283151467640375791 -21.8947313835365875 -0.000636030600905153646)
(0.000277578282475847622 -21.1640634117173327 -0.000494103898547879517)
(0.000271567546238351437 -20.4034228295036613 -0.000318556108333412991)
(0.000268425072822429326 -19.919129294327707 -0.00019049863466731514)
(0.000313719849001449665 -19.7682047319390577 -4.98308108006748117e-05)
(0.000716267906808621172 -15.4865216423827814 -0.00103473439372011298)
(0.000600192612331766281 -19.7506431405008946 -0.00101834340447668208)
(0.000638496777293729714 -20.7564679041064153 -0.000796339814961131097)
(0.000661351994295299758 -19.8864925210088401 -0.000599198114825892181)
(0.000596716353731296164 -18.9286692378283341 -0.000479420189670310478)
(0.000657972665683842408 -17.9895921773339502 -0.000390252903783599287)
(0.000873123288087144806 -17.6546730537368219 -0.000281751940096334824)
(0.000752471497787192108 -17.8973955119104247 -8.98329637562169926e-05)
)
;
    }
}


// ************************************************************************* //
