/*--------------------------------*- C++ -*----------------------------------*\
| =========                 |                                                 |
| \\      /  F ield         | OpenFOAM: The Open Source CFD Toolbox           |
|  \\    /   O peration     | Version:  2206                                  |
|   \\  /    A nd           | Website:  www.openfoam.com                      |
|    \\/     M anipulation  |                                                 |
\*---------------------------------------------------------------------------*/
FoamFile
{
    version     2.0;
    format      ascii;
    arch        "LSB;label=32;scalar=64";
    class       surfaceScalarField;
    location    "0.990000000000000657";
    object      phi;
}
// * * * * * * * * * * * * * * * * * * * * * * * * * * * * * * * * * * * * * //

dimensions      [0 3 -1 0 0 0 0];

oriented        oriented;

internalField   nonuniform List<scalar> 
84128
(
-9.461762848226736e-06
9.45236014157273452e-06
-9.23605040294475497e-06
9.2454531095556645e-06
-1.32427176309986265e-05
3.36980148444085206e-06
-1.07852728222287597e-05
1.11964299449355676e-05
-1.32770945412666425e-05
-4.12100446397178693e-07
-1.17356168844082391e-05
1.21820984222767267e-05
-1.14684682192499548e-05
-2.25409689292750774e-06
-1.29329910519697709e-05
1.33784660152717595e-05
-9.08761420213917396e-06
-2.71934603059117421e-06
-1.44477335384826386e-05
1.47862285013118648e-05
-6.19763200183847548e-06
-3.10381141831780672e-06
-1.63223586999105342e-05
1.65361882459467565e-05
-2.28875808063510232e-06
-4.07334546985556607e-06
-1.85751161005493921e-05
1.87395863279506668e-05
3.21022935202732438e-06
-5.53322792628237336e-06
-2.14534081145794195e-05
2.14876480347670183e-05
9.79018534586724948e-06
-6.77861638982936028e-06
-2.48740518060433447e-05
2.50727142194872766e-05
1.77870235173298048e-05
-8.14713803403059992e-06
-2.960629088004603e-05
2.97565954983328359e-05
2.73183496343986883e-05
-9.2867203560664185e-06
-3.55211525270132374e-05
3.5276552681668598e-05
3.69514763597402539e-05
-1.03088817392941581e-05
-4.34155689156412106e-05
4.40913282899388958e-05
4.76780727037678988e-05
-1.06997723231890181e-05
-5.33654642393413742e-05
5.33386403763313113e-05
5.44155154945944662e-05
-1.29993624293651334e-05
-6.99628612440099113e-05
7.62247761145032929e-05
6.77923023939041512e-05
-2.26908776675251683e-05
-8.3870196313765003e-05
9.31842789951679319e-05
6.66230097184510168e-06
-0.000125785564684563462
0.000186915557175814067
-8.42142457487386436e-06
1.77276127579317141e-05
-9.55843818915049931e-06
9.70461965688857775e-06
-1.1664650642039707e-05
6.00268909170809886e-06
-1.05019899230496382e-05
1.1112340949116609e-05
-1.29722407278548867e-05
1.80054523374110786e-07
-1.14009808622793523e-05
1.21164285124532827e-05
-1.33650327976476425e-05
-2.46438905143988184e-06
-1.27233517134025173e-05
1.33264445783521503e-05
-1.24449321329153421e-05
-4.07786197874893159e-06
-1.44401894819489476e-05
1.48786069443577765e-05
-9.89642301982177229e-06
-5.94464075869401947e-06
-1.65624506656953932e-05
1.68547688492867858e-05
-5.5898239815535139e-06
-8.5628074002438567e-06
-1.90374823583754753e-05
1.92203448389219359e-05
3.3510685616268016e-07
-1.15655322777508843e-05
-2.19957452015816034e-05
2.21031249727889279e-05
7.64109463361902089e-06
-1.43270968343458213e-05
-2.53687186780270679e-05
2.56112249345872316e-05
1.63011216416798478e-05
-1.71132160382373148e-05
-2.98049228176691204e-05
3.01109902612012401e-05
2.60503449457626169e-05
-1.93012403126695919e-05
-3.5376845673907239e-05
3.5642154053316255e-05
3.64989478967784391e-05
-2.16362094284316052e-05
-4.28058029178327533e-05
4.36845275831124484e-05
4.75253225257509421e-05
-2.28979953710624333e-05
-5.23150516785344881e-05
5.34868860657461141e-05
5.69498231424736838e-05
-2.81323418638823982e-05
-6.72447702911959088e-05
7.29532255348377446e-05
6.7768687647411837e-05
-4.68652257451805234e-05
-8.09973219080464672e-05
9.43527800480213006e-05
1.52172336653161629e-05
-0.000132015968384586145
0.000191229707100154614
-6.85650181178704631e-06
2.43354379800441254e-05
-9.14356732458284555e-06
9.3922511995401787e-06
-1.05632291991474054e-05
8.94867196681672159e-06
-1.04141884817393956e-05
1.11749430937610022e-05
-1.26138281582496233e-05
1.45273378163151994e-06
-1.15319393712944467e-05
1.23098692598264357e-05
-1.35246924243991286e-05
-2.22210852666171747e-06
-1.29228502533780895e-05
1.359144100753053e-05
-1.30049658525547035e-05
-5.04773702701543435e-06
-1.47238846681196117e-05
1.51740348323180508e-05
-1.07054688528841393e-05
-8.52420338232065389e-06
-1.69303945694407619e-05
1.72104585563964163e-05
-6.47062101539599217e-06
-1.2970253369251506e-05
-1.94527588590363219e-05
1.96253567720393943e-05
-4.29462902630366764e-07
-1.77535886522333191e-05
-2.23870067713655907e-05
2.25339101088610727e-05
6.99418809300525816e-06
-2.19945965040605894e-05
-2.57584764222122785e-05
2.60023359075852887e-05
1.57619033589534613e-05
-2.62500052889531754e-05
-3.00823156839122157e-05
3.04514026384609231e-05
2.56366809140357538e-05
-2.94914291959878144e-05
-3.56335456792128641e-05
3.59489661375018038e-05
3.58827014708453312e-05
-3.2645321310499864e-05
-4.30861969536908785e-05
4.38492879203691326e-05
4.67714556923844513e-05
-3.48767221812715876e-05
-5.25933544649790459e-05
5.36833155094749179e-05
5.72457016811961977e-05
-4.39725024178667351e-05
-6.70988734705293993e-05
7.24647687443871064e-05
6.36763499948475619e-05
-6.50664065505125104e-05
-8.13686610153895577e-05
9.31391733045760974e-05
2.02478727366972054e-05
-0.000129425145226201414
0.000188070843490751319
-5.67765769395517071e-06
2.96616785250130715e-05
-8.79155045044804598e-06
9.14297389464028313e-06
-9.70439180132627371e-06
1.23048950368405912e-05
-1.03880487753223476e-05
1.10585686789472839e-05
-1.25443676661621627e-05
3.73405226992366606e-06
-1.16877441373504974e-05
1.22464105539724233e-05
-1.41447733939706583e-05
-1.02927746370675807e-06
-1.32331825603022316e-05
1.36407635529981384e-05
-1.41469980717337022e-05
-5.27434682287741545e-06
-1.51580563680973147e-05
1.53868924729327635e-05
-1.21162947327648736e-05
-1.06482848993755301e-05
-1.75027357185912429e-05
1.7596112590073836e-05
-7.89221215140665643e-06
-1.73107182096912691e-05
-2.00771106154026385e-05
2.01934927869003746e-05
-1.78903911425527492e-06
-2.40644155610970373e-05
-2.29367512278288841e-05
2.31444095068407846e-05
6.0423107458967657e-06
-3.01631508130635136e-05
-2.62592136153337048e-05
2.65964272832458716e-05
1.49308960184174968e-05
-3.56696413478003411e-05
-3.04213471922759859e-05
3.09524089193224122e-05
2.50166412671168738e-05
-3.99884857321923667e-05
-3.59136930311609349e-05
3.63250117258390111e-05
3.51282050953041091e-05
-4.34753012784279118e-05
-4.32572194635812761e-05
4.39756344499280647e-05
4.596746781780432e-05
-4.6708965225740366e-05
-5.27116953767889712e-05
5.37046645491317536e-05
5.51101812106908205e-05
-5.80135265349957611e-05
-6.68706477544788683e-05
7.17689408116971105e-05
5.64621674924261878e-05
-7.67686298615545223e-05
-8.25856098271946653e-05
9.29358293645887149e-05
1.96343673669111313e-05
-0.000127841080969595596
0.000184916743132410672
-4.62155363142900183e-06
3.40281992740437453e-05
-8.36665284496309459e-06
8.62169107477053697e-06
-8.90643434583526633e-06
1.64793349103389255e-05
-1.02383026613357445e-05
1.03487510164190603e-05
-1.25530733602789365e-05
7.45302240438678659e-06
-1.17430782409782791e-05
1.16707550752177814e-05
-1.49180772265720002e-05
1.47152034660281294e-06
-1.35027974466552037e-05
1.33670091938203716e-05
-1.54808189209086928e-05
-4.52093147939171773e-06
-1.56338438976041586e-05
1.54431718412037263e-05
-1.3702172800706458e-05
-1.22634419866227444e-05
-1.81455687486693865e-05
1.79820787523389243e-05
-9.36726860205097307e-06
-2.17157577108574987e-05
-2.07591543043871039e-05
2.08292896533078425e-05
-2.98085045751182292e-06
-3.08024994308800961e-05
-2.35139658426481217e-05
2.38656352953449589e-05
5.11476966447301433e-06
-3.88144813335226387e-05
-2.66797492826297533e-05
2.72354673142178833e-05
1.44304142859131354e-05
-4.56819280614806299e-05
-3.06516634437174187e-05
3.13483145183601463e-05
2.49558593185843183e-05
-5.09791101618510236e-05
-3.59731858733334308e-05
3.64383709285515518e-05
3.51469288586179969e-05
-5.42157961924484395e-05
-4.30918545701057242e-05
4.36412778037686342e-05
4.51651613761587658e-05
-5.7340331393494206e-05
-5.27327986382324264e-05
5.33459214474945036e-05
4.84720338495245892e-05
-6.52458316979324915e-05
-6.73841046305078073e-05
7.13095215917528528e-05
4.32940617950905383e-05
-8.0487108567397521e-05
-8.71426945940860785e-05
9.60391307704284416e-05
7.56169852055211438e-06
-0.000128454857051060614
0.000183821578796663593
-3.51779030485876138e-06
3.7798589128603946e-05
-7.79277139058919097e-06
7.54017597484656254e-06
-8.12210246887006015e-06
2.18265486824743066e-05
-9.85876027300144646e-06
9.11586434393725739e-06
-1.26635961005025336e-05
1.27576065294955243e-05
-1.15809608111729811e-05
1.08178767970797463e-05
-1.59868304243632418e-05
5.41897892318817939e-06
-1.35944294865471674e-05
1.29702100914841363e-05
-1.71455093588782426e-05
-2.8618091600664735e-06
-1.59811201422387902e-05
1.54806782798867321e-05
-1.55394356133624845e-05
-1.35848847090497001e-05
-1.87293565603469012e-05
1.84447248821545979e-05
-1.08050326767681033e-05
-2.66065203220078909e-05
-2.14066118856271694e-05
2.15629715682040031e-05
-3.85220160513836192e-06
-3.83264287122225133e-05
-2.40247744215748637e-05
2.45958754361320852e-05
4.84230173917023229e-06
-4.81907470535371523e-05
-2.70195553918428775e-05
2.7701323613709951e-05
1.47770735952133629e-05
-5.6258020767791684e-05
-3.07639950851577908e-05
3.14053227345172876e-05
2.60041225833645173e-05
-6.23846111751197275e-05
-3.5974391325711708e-05
3.61528469855327577e-05
3.63495082670670658e-05
-6.45036085322631971e-05
-4.30646113559711097e-05
4.30070347964265875e-05
4.3637138401867233e-05
-6.44201415895995249e-05
-5.34887404746599887e-05
5.32809102340421836e-05
3.71737574680755384e-05
-6.1249981845287022e-05
-6.97161755939524182e-05
7.21836929859483525e-05
2.37233729131359751e-05
-7.50237508282107924e-05
-9.68006751391058573e-05
0.000104787689728946752
-1.93254736091094182e-05
-0.000131069193026477684
0.000181679730522207552
-2.30487301729682152e-06
4.13746053610228255e-05
-7.01355112370115684e-06
5.74241049054447194e-06
-7.4217213570188235e-06
2.81421424621147869e-05
-9.31015764438675219e-06
8.11141565056663432e-06
-1.33183012677589022e-05
1.94893507277287226e-05
-1.12654002168790395e-05
1.04302406173242594e-05
-1.76048856175896557e-05
1.03414878314462775e-05
-1.35834624629471574e-05
1.29475417327330607e-05
-1.932772794975647e-05
-7.14242768395199319e-07
-1.62321827109165358e-05
1.58074599584606924e-05
-1.76240981583220562e-05
-1.51874482919543448e-05
-1.92919629902984943e-05
1.91908962233361085e-05
-1.20156191671844401e-05
-3.2640893972191947e-05
-2.20420156052662282e-05
2.24679100039920319e-05
-4.27374699817044915e-06
-4.67521813157401072e-05
-2.45838656279817749e-05
2.52677477633147829e-05
4.79588256841310261e-06
-5.77087554074380763e-05
-2.76926918829438192e-05
2.81410746066937244e-05
1.5244300904598166e-05
-6.66578109161552383e-05
-3.17869591522218769e-05
3.17383353812648267e-05
2.67770868778893308e-05
-7.31464073272628689e-05
-3.76011886431675148e-05
3.68302003095486973e-05
3.67026460937372424e-05
-7.32188326547692062e-05
-4.53939578407825371e-05
4.41836186190344232e-05
3.95080211617198935e-05
-6.60307961687235087e-05
-5.69063235272713729e-05
5.57115934408786072e-05
2.42238930783852127e-05
-4.68292896667177582e-05
-7.48267025427648807e-05
7.56901262920292182e-05
-4.9449191046019784e-07
-5.66631584406432104e-05
-0.000110323928321769127
0.000116681710021666153
-6.68539797827789081e-05
-0.000126875022717752166
0.000173909029856719939
-1.18118061320197129e-06
4.47865681854541859e-05
-6.43429063516253501e-06
4.20350916291971987e-06
-7.39223511997516293e-06
3.51252571942970419e-05
-8.93043922151660026e-06
8.15837995717086998e-06
-1.47055364571484591e-05
2.7025499165916317e-05
-1.11345401493756724e-05
1.0911695695688328e-05
-1.9832508325419598e-05
1.55647460298881058e-05
-1.36261579642453029e-05
1.35298742169350967e-05
-2.20025863211945413e-05
1.37469747276735709e-06
-1.64722338167206144e-05
1.65533724736329057e-05
-2.04003335624993358e-05
-1.71223831243198938e-05
-1.99107375898526874e-05
2.02434190275241479e-05
-1.48051864105424702e-05
-3.89005491123481855e-05
-2.29644284913678647e-05
2.36289358545287373e-05
-7.51866175339118879e-06
-5.43426337990941629e-05
-2.63414250580191649e-05
2.66453535368414102e-05
7.45256510208999752e-07
-6.54708160527277879e-05
-3.0870348835386447e-05
3.03684933460118475e-05
1.01230915205558123e-05
-7.47873904068672762e-05
-3.67353455680880471e-05
3.54870922277187084e-05
2.02795759151995158e-05
-8.13862794646680646e-05
-4.43615441639387672e-05
4.2444931653893493e-05
2.83047344222490547e-05
-7.91664367305924122e-05
-5.35842114885142629e-05
5.15066525193151763e-05
2.69289512501786401e-05
-6.32812446826893857e-05
-6.55331533532622966e-05
6.41593761323416156e-05
1.0370396431627472e-05
-3.05397273817592085e-05
-8.38028545715928874e-05
8.4071835619584773e-05
-1.46885543923024585e-05
-3.7138796145627e-05
-0.000122474943492661921
0.000128009520742632744
-0.000116832698877875367
-0.000120913972216310685
0.000156204128784496234
-2.32504169351193922e-07
4.66574886802970448e-05
-4.56266171405194534e-06
2.92424404921666077e-06
-8.1010601693696588e-06
4.18602197467493435e-05
-8.10112639718919939e-06
9.23471807814494471e-06
-1.64959632431030516e-05
3.4068254180026744e-05
-1.04672805692821253e-05
1.18194290245780112e-05
-2.27383236803220555e-05
2.08354045632283763e-05
-1.26606428217982453e-05
1.36323458853855789e-05
-2.68802200023489192e-05
5.33300893873500399e-06
-1.61731768830589769e-05
1.63567620420940291e-05
-2.80739384664941559e-05
-1.62557243999916648e-05
-2.06011801340108619e-05
2.09282390767380754e-05
-2.71559506027385372e-05
-3.96427352769181248e-05
-2.56134097916858077e-05
2.54376071631860212e-05
-2.41958090699237498e-05
-5.64187171304567168e-05
-3.19425778415875471e-05
3.1058519518661082e-05
-1.93925532730916107e-05
-6.87409866576205912e-05
-3.94663584158381375e-05
3.79332739005382814e-05
-1.38284002230154449e-05
-7.87237684856473491e-05
-4.80947511532132829e-05
4.64669765468499478e-05
-8.95068904110711417e-06
-8.47713186689313903e-05
-5.80525763047007106e-05
5.65599026632423009e-05
-7.18644277812448704e-06
-8.06061749512167018e-05
-6.88821144477537326e-05
6.85576011886681035e-05
-1.26586547759383164e-05
-6.02769443873870346e-05
-8.10901857797371593e-05
8.3558088021194949e-05
-1.4181591248850435e-05
-3.60611648361993699e-05
-9.87413651766883764e-05
0.000105785725312100058
-1.13198057795256241e-05
-4.94728940366863205e-05
-0.00013103935309987462
0.000140511643214053428
-0.00013155256063400499
-0.000120253543200050331
0.000123653578088325219
-6.72053356034128487e-06
7.56952858410099051e-05
3.29100428635621683e-05
-5.52273105033461234e-05
-2.18350307721318385e-05
6.25224516945309221e-05
5.46443973603969776e-06
-1.10121807040998826e-05
-3.72945484022894127e-05
5.20968514476751257e-05
1.70490100686597686e-07
-2.73957244919201549e-06
-4.76352560487624204e-05
3.29470358815706858e-05
-7.72710979997430448e-06
5.95618553721441896e-06
-5.42874498533772363e-05
1.29825108552970078e-05
-1.48354959734516068e-05
1.38381872113465451e-05
-6.20750828824660181e-05
-8.04662767536529384e-06
-2.18665331460206011e-05
2.14450681065949915e-05
-7.04325066269936726e-05
-2.97230453328741189e-05
-3.12186729113310521e-05
2.96564053324310328e-05
-7.23018435434000727e-05
-5.33889320086908432e-05
-4.02602607361388063e-05
3.90998117134269013e-05
-7.22437215079028137e-05
-6.82911437988810606e-05
-4.95801947203829144e-05
4.90722293504287384e-05
-7.43558487424385425e-05
-7.83354850872630161e-05
-5.90353889600558817e-05
6.07592315608154634e-05
-8.4561091199378716e-05
-7.76772051227668167e-05
-7.15074123862540563e-05
7.46185374024924434e-05
-0.000102237220462611346
-7.14715258191798986e-05
-8.50003560485019399e-05
9.35418273440338766e-05
-0.000122637478739945539
-5.92432154664988657e-05
-0.000100962779776514084
0.000120329291185953326
-0.000105301291516487518
-9.02592823678272311e-05
-0.00012130794178872182
0.000158169827739175646
1.29192037065249652e-05
-0.000189264139861832289
-0.000139181767729464685
0.00016075241319105923
-7.14314144502111847e-05
-9.21482505998055682e-05
4.49461824906061697e-05
-5.73574074423040844e-05
0.000157652719039057341
7.22779954780043222e-05
-9.6878033054408931e-05
-0.000114719224879253874
0.000114653271951691352
-8.42376769966793753e-06
1.36547423737677602e-05
-0.000140291899050782757
7.21978069770793165e-05
-1.60963871946024942e-05
2.15680943460574736e-05
-0.000147777417816976605
3.55366021092019813e-05
-2.18108491264515483e-05
2.67067972053331785e-05
-0.000139195498177716308
1.84176685144241126e-08
-2.3965744824300091e-05
2.83479155874835542e-05
-0.000132394081453626809
-1.78293428584989921e-05
-2.76849603475952985e-05
3.06662555622653341e-05
-0.000139317171114827949
-2.38482400330974897e-05
-3.24127080271368391e-05
3.3460988774062852e-05
-0.000152996511448952874
-4.14232698125738263e-05
-3.64758018508717718e-05
3.81894761205794821e-05
-0.000169609673487458086
-5.38911591557653114e-05
-4.24148984354550581e-05
4.46280709387730378e-05
-0.00019033362840657471
-6.83554596365440817e-05
-4.85809290451592841e-05
5.93248494375993914e-05
-0.000230638453897297728
-4.94464413610842639e-05
-6.77443244566602225e-05
7.98183644219271107e-05
-0.00028031315624625912
-5.01150940051345046e-05
-8.94926150148804837e-05
0.000117810836309074359
-0.000304674757157088821
-0.000101197682110692609
-0.000116007823007692774
0.000182323785772151958
-0.000214372925131202385
-0.000278613888722844811
-0.000133583110298991862
0.000231635687348118879
-2.56556203679339685e-05
-0.00041967950788814848
-0.000128921202129860749
0.00017061897651591003
-9.4740346462786294e-05
-7.32382105216725695e-05
7.08912614912006776e-05
-2.7516988710871962e-05
0.000195250551479486889
0.000138014067367188756
-0.000148094953261036576
-0.000100292431872285338
0.000160601350348898129
-2.26001226325808823e-05
4.94274146588413409e-05
-0.000125162435078671717
7.00102727961733075e-05
-1.91080408959791426e-05
4.61655221796167557e-05
-0.000119554729066145469
8.07149107055710684e-06
-8.83969746505724064e-06
3.06970683596117616e-05
-0.000105490185396339307
-2.57005427880645232e-05
-7.14241200234252797e-06
1.87968070058480664e-05
-0.000126344348013074381
4.29938565082109946e-06
-1.90962754955732348e-05
1.78216793164690207e-05
-0.000176870651999691005
2.51170271250374967e-05
-1.56416374967586882e-05
1.72026005316139682e-05
-0.000234176427736109013
-1.55654050304986601e-06
1.02557947164934857e-05
7.18313193621939816e-06
-0.000281941341424173184
-3.01807016843536188e-05
1.40932141141813957e-05
9.96112572240102789e-06
-0.000321509423805377878
-4.90072474954064122e-05
-2.1377774573969467e-06
2.23575065274808203e-05
-0.000337429097843528511
-5.58582484345666668e-05
-2.44007967551123636e-05
4.6732044460241057e-05
-0.000337333321358456871
-8.4551949601567773e-05
-6.00617201356338435e-05
9.44024495153186397e-05
-0.000296776065429479332
-0.000205577791490875851
-9.10264344931537689e-05
0.00015484887998155791
-0.000207117493776428155
-0.000444124201690770915
-0.000119336047911540861
0.000195187459824972302
-9.34932580302078715e-05
-0.000582331298734088307
-0.000121888842157936956
0.000170916153079064278
-0.000228505384453629571
-6.63426678595914921e-05
0.000106614173070716063
5.74240686017620861e-05
0.000142225459681834157
0.000220915962740953604
-0.000225315020142816553
2.96780029949093228e-05
0.000186732274323781356
8.20822324130029643e-05
-8.04672350998040999e-05
-4.52419992459776382e-05
0.000109138704583416511
-1.74336608398184214e-05
5.32251135958329688e-05
-3.36927379547775148e-05
-3.01418741178471374e-05
-1.8900460959178392e-05
4.55644762533680679e-05
-5.14370645789599527e-05
-1.49711544566116068e-05
-3.86809963170129973e-05
4.56958332393850438e-05
-7.62117566574341298e-05
2.6557871534096055e-05
-4.62822603187571663e-05
4.8798240518636328e-05
-0.000123648971724323151
6.73009832828656211e-05
-1.13465154638403867e-05
1.65993965895196014e-05
-0.000165086608520488337
1.62626568616716237e-05
5.18554340223956168e-05
-2.8237407482725138e-05
-0.000192526091569312591
-3.73268428540958312e-05
8.02827558465752311e-05
-4.56975543458383569e-05
-0.000212014873116388684
-5.5599690236990591e-05
8.47774415268867123e-05
-5.8696786109860436e-05
-0.00021049278762429722
-5.24555329955361869e-05
7.37465567137528645e-05
-7.86721061985978299e-05
-0.000208289623593004204
-6.78695419881237844e-05
3.34925261069843908e-05
-5.23789538546567512e-05
-0.000197573496676959584
-0.000217392522178117974
-2.13981530054176356e-05
2.24960005237995734e-05
-0.000168754896057430963
-0.000481095039491497543
-8.54757552184620987e-05
9.36275577422089069e-05
-0.00011916056331121914
-0.000653426110920116978
-0.000111869322897937808
0.000133369607429941514
-0.000391538670534477529
-7.532810299734963e-05
0.000119200643227345841
9.41863469088233864e-05
3.59324108421986074e-05
0.000267054275197417556
-0.000254947660801522439
0.000122095180307415905
0.00013148492903320352
0.000145618449746811435
-0.000118280093427087246
2.58163401265851114e-05
0.000155952550346147778
-6.19466911301738221e-07
5.00843082286300551e-05
-4.15481231487347291e-05
1.16837879576422933e-05
-1.43440169846737419e-05
3.9882677248626844e-05
-0.000101800698805373628
3.33248086160429884e-05
-3.41449111433088631e-05
4.61013264772864738e-05
-0.000123543100410634254
4.24589560069368009e-05
-3.73017253811330361e-05
4.31427520553013497e-05
-0.000121794999119583176
4.9773036420807328e-05
-1.36249569196043776e-06
1.71420089988549309e-05
-0.000105959487952757145
-3.7045598439265897e-05
5.92095937544389619e-05
-2.1737190260601821e-05
-0.000113079696132992809
-8.34576974126635326e-05
0.000117824317881803686
-6.45736837875528316e-05
-0.000134638275609855407
-8.05368006052113608e-05
0.000150837225740492318
-0.000104342168840970364
-0.000149261225081851872
-4.93040859231062638e-05
0.000148449968596438368
-0.000136979360781898054
-0.000155772489626864239
-4.71826448995035872e-05
0.000123865092541941308
-0.000138041966061147137
-0.000147498057884833702
-0.000192316473222830218
7.10803514615347925e-05
-0.000104432012660696106
-0.000138663170434464797
-0.000437502136410399781
-2.47055217698012658e-05
-2.77228908759143562e-05
-0.000121359588936285646
-0.000644518862150709072
-9.66335996663064873e-05
7.0422540909643571e-05
-0.000533108912698214226
-9.13098499349607933e-05
0.000111520375610763619
6.52212912933958894e-05
-5.25988437447990991e-05
0.000284349789484585871
-0.000261039918228184859
0.000141051014389420321
1.87317480684119511e-05
0.00017392166695607227
-0.000136998319210262164
8.02605795953221428e-05
0.000146917935827963126
2.3469768477440403e-05
4.63551352386595307e-05
1.47623101291332898e-05
3.42426257089422075e-05
-1.65957794551167899e-05
5.95350172798340222e-05
-3.02050043126542508e-05
4.94401738505676234e-05
-5.0177231990954683e-05
7.90288298681221947e-05
-0.000127801479391542988
0.000127627793009339892
-6.79492667141096699e-05
8.03765238500976225e-05
-0.000145868830538695035
4.91153571771231305e-05
-4.07287707143080412e-05
5.9453493861241427e-05
-0.000121708127038739196
-9.68379359010352811e-05
6.10009829077953351e-07
3.50213679195812103e-05
-0.000108575599104938073
-0.00015668324521931262
8.50963749114410034e-05
-2.5003669382356562e-05
-0.000117382510155238795
-0.000125320893873659823
0.000155017089793333979
-0.000101426589979030827
-0.000143935899979591621
-5.89264896365555824e-05
0.000178080014835482969
-0.000141905077507944376
-0.000157041649981929434
-4.46238526962370609e-05
0.000174019432791483561
-0.000163473878750170095
-0.000137810120009302013
-0.00019728135825144416
0.000148384433364550755
-0.000162652607137072578
-0.000125119585782584229
-0.000395234747215906829
5.73384239998183949e-05
-0.00011229736894389796
-0.000107738409568073783
-0.000596414133296288692
-6.9453057070309701e-05
3.96672603280716994e-06
-0.000629263770260363436
-0.000111507439510482155
9.9923716006265073e-05
4.57469288473051402e-05
0.000283080581726737155
-0.000251812484942089598
-0.000129613930056906375
0.000130674224204537615
0.000202819577082384046
-0.000184505250665822961
-8.45099530027388713e-05
0.000142951309594345054
5.44076040382609745e-05
8.54440980292594642e-06
7.16887003358797651e-05
4.559172318392723e-05
-1.96595489949657218e-05
7.02855264773992694e-05
8.09759360925952059e-05
1.48973712409198851e-06
-2.48372176116801366e-05
6.54523799274250742e-05
5.29263534483216235e-05
-5.23042139927697587e-05
-6.4702495428466838e-05
8.74572358010061349e-05
0.000158666399058673383
-0.000101037270636686105
-8.710947209555439e-05
0.000102517127735218773
8.24403496095412174e-05
-0.000109116222491931105
-6.20707235912684399e-05
7.89904672188537489e-05
-0.000105678973891461074
-0.000103827677609662737
1.37202516343592108e-05
2.2630213163248058e-05
-0.000198322490852214685
-0.000108006096726340515
0.000122838924524771876
-7.5873723047260313e-05
-0.000168108096970249034
-0.000122575064228947882
0.000179826004504634983
-0.000135471683698985953
-8.87127434798287956e-05
-0.000148393926353898511
0.00019915380774923185
-0.000178678903258818502
-3.92815473305095609e-05
-0.000147922563001066514
0.00018997638541772444
-0.000191111789791270029
-0.000196619127530050575
-0.000147539974567218509
0.00011717742257862794
-0.000157106117016101327
-0.000355690051046549886
-0.000104246405506758656
-2.54496751950670117e-05
-4.26524145638995639e-05
-0.00057160724466749364
-0.000131164436260807691
8.17737314709432147e-05
-0.000684119802667653223
-9.80565698247307976e-06
9.42675192192514429e-06
-8.85713996048484206e-06
-1.37944963853142295e-05
3.47136011876678619e-06
-1.02677875263392393e-05
-1.41362565085095656e-05
-2.17868544818593304e-07
-1.11759814476109144e-05
-1.26867349254551129e-05
-2.02579796353067722e-06
-1.23567090681575016e-05
-1.0787442567707271e-05
-2.53823404251922541e-06
-1.38087899594924128e-05
-8.43353485343581616e-06
-3.1138798209848592e-06
-1.55623880478068944e-05
-4.97208601336478849e-06
-4.31750949309169913e-06
-1.7719056798886091e-05
-1.95536969129470077e-07
-5.80982022935927776e-06
-2.04201343334552797e-05
5.85746707174305533e-06
-7.14738191126304914e-06
-2.3779665903848888e-05
1.27595743559523768e-05
-8.3991896651434053e-06
-2.81091969640302109e-05
2.03111800572346108e-05
-9.35518086130630802e-06
-3.37175668441459515e-05
2.85557065370831527e-05
-1.07703960957688452e-05
-4.08896949012004055e-05
3.54953960110439016e-05
-1.08004192426659501e-05
-4.95047389604851817e-05
4.10962424405572751e-05
-1.39809865537491129e-05
-6.15827331512707664e-05
5.38171686365066583e-05
-2.23557290492710759e-05
-7.42354090826513764e-05
1.22880182498430379e-05
-8.42564287076027032e-05
-8.82999064509414771e-06
1.77589798680117305e-05
-9.06067170472728047e-06
-1.24291038914292788e-05
6.49935604376843663e-06
-9.93086658323243567e-06
-1.40817573351894825e-05
8.3648258565369682e-07
-1.08026709723195577e-05
-1.47976700205431022e-05
-1.88557718704432284e-06
-1.2147654399293635e-05
-1.41179081360886613e-05
-3.82532729658673332e-06
-1.3832857428309618e-05
-1.18216446804233851e-05
-6.19196024069113055e-06
-1.57806356094705446e-05
-7.9022172682900104e-06
-9.22628014536994455e-06
-1.80481382335310813e-05
-2.59685573566413578e-06
-1.23799582528191908e-05
-2.0730960564017863e-05
4.19614919623188934e-06
-1.53165664763111651e-05
-2.39925230885682288e-05
1.17358255711944373e-05
-1.77503479295738689e-05
-2.79934213101954994e-05
2.00446377915203585e-05
-1.98752727734222801e-05
-3.3165549703235254e-05
2.85153556725502469e-05
-2.23504896816206963e-05
-3.96964210131213729e-05
3.65168257825964718e-05
-2.34238769510250512e-05
-4.76930706031360006e-05
4.33389279830293046e-05
-2.94107239845104492e-05
-5.86371519310479778e-05
5.1440266618233461e-05
-4.25581181947117302e-05
-6.88962927683401283e-05
2.44905001696320616e-05
-9.27781995095869501e-05
-7.31742780836728248e-06
2.45144342427843896e-05
-8.58159077872322842e-06
-1.13902078408770953e-05
9.84108630190014516e-06
-9.68313365246427758e-06
-1.38435127568065945e-05
2.57356102081920439e-06
-1.08157063613514485e-05
-1.50728182521515271e-05
-1.27508507943751651e-06
-1.230403223066025e-05
-1.48041540397520529e-05
-4.71844497156034044e-06
-1.40994305131638535e-05
-1.27152911870353208e-05
-9.09333661561079311e-06
-1.61178824716473093e-05
-8.77357994917061039e-06
-1.42209443987486746e-05
-1.83998050733292075e-05
-3.31829263107508027e-06
-1.91836845899718277e-05
-2.10385613201390692e-05
3.44506855768414304e-06
-2.35938430318897591e-05
-2.4244548525234193e-05
1.12010715966580066e-05
-2.73281034909640623e-05
-2.82605477256388993e-05
1.95901243288532095e-05
-3.04228611054042613e-05
-3.34749974544189179e-05
2.78337354020336919e-05
-3.36131673494739034e-05
-4.00671260831702116e-05
3.60365474032336411e-05
-3.60839777804497397e-05
-4.81360718432665192e-05
4.40025677020765407e-05
-4.55913204067346162e-05
-5.88843118407085975e-05
4.81763266675333429e-05
-5.8329224788621016e-05
-6.97713307402696918e-05
3.4249043474707819e-05
-9.10073748930308624e-05
-6.30033885850299504e-06
3.01807125227110012e-05
-8.15748744619860363e-06
-1.07274505394016398e-05
1.35149166216857393e-05
-9.63476324325114212e-06
-1.39425166886775928e-05
5.12998083849626237e-06
-1.10290920016557349e-05
-1.58728638667201619e-05
8.97398991833082654e-08
-1.26676559920233505e-05
-1.61024257416681356e-05
-5.08427132413692068e-06
-1.45626671856554597e-05
-1.43042960418368634e-05
-1.17785585583941608e-05
-1.66156444062518527e-05
-1.02949234255527187e-05
-1.94449453904971241e-05
-1.88624814271478859e-05
-4.52828951804573364e-06
-2.64690443409382801e-05
-2.14180199398509456e-05
2.43379824234437276e-06
-3.22652089142364592e-05
-2.45499250456846359e-05
1.03660382004632601e-05
-3.71148415679656553e-05
-2.85668362291247034e-05
1.89391348486587382e-05
-4.1124897285323443e-05
-3.37847432182173302e-05
2.70518191062154542e-05
-4.46556093151203505e-05
-4.03274589555526009e-05