/*--------------------------------*- C++ -*----------------------------------*\
| =========                 |                                                 |
| \\      /  F ield         | OpenFOAM: The Open Source CFD Toolbox           |
|  \\    /   O peration     | Version:  2206                                  |
|   \\  /    A nd           | Website:  www.openfoam.com                      |
|    \\/     M anipulation  |                                                 |
\*---------------------------------------------------------------------------*/
FoamFile
{
    version     2.0;
    format      ascii;
    arch        "LSB;label=32;scalar=64";
    class       volScalarField;
    location    "0.990000000000000657";
    object      rAU;
}
// * * * * * * * * * * * * * * * * * * * * * * * * * * * * * * * * * * * * * //

dimensions      [-1 3 1 0 0 0 0];

internalField   nonuniform List<scalar> 
29184
(
2.81794017069754321e-05
2.77068899639067233e-05
2.7585421867216444e-05
2.74792754223711915e-05
2.75137593218778379e-05
2.7568206198584836e-05
2.76277044659738958e-05
2.74508617096418942e-05
2.67917863383445612e-05
2.57946989291196997e-05
2.47034626242618668e-05
2.34856936270745221e-05
2.22957023870291838e-05
2.07373433715678106e-05
1.9352201240487206e-05
1.82656083589735544e-05
2.7416566809191335e-05
2.75806262819590969e-05
2.76816727769687227e-05
2.73220141720707879e-05
2.71188281440746277e-05
2.69988241806977034e-05
2.69337431272664397e-05
2.69031420687397813e-05
2.63807121060491916e-05
2.52783904265370179e-05
2.41384351635502933e-05
2.2910629181746128e-05
2.1709787121818135e-05
2.01568585573438865e-05
1.83895784482815663e-05
1.78425837374510017e-05
2.68885288384588377e-05
2.7456241203794906e-05
2.76858063700918371e-05
2.73120910384366113e-05
2.69679181403566042e-05
2.66908221179585084e-05
2.64710755811708567e-05
2.63380909861811045e-05
2.5783101787849471e-05
2.46566551938172328e-05
2.34990176293794218e-05
2.22790259610380285e-05
2.11030248223931553e-05
1.94892195151240305e-05
1.76926663220806541e-05
1.78707393818832473e-05
2.64772823005485423e-05
2.72806026606327557e-05
2.75677996885245898e-05
2.73343936706669873e-05
2.68195708754309646e-05
2.63620144104681794e-05
2.59715224539402916e-05
2.57048977811603506e-05
2.51436622846361356e-05
2.40621944674495976e-05
2.28903704188618021e-05
2.17079255699431924e-05
2.05507982393353775e-05
1.89435761955292045e-05
1.73233116728375731e-05
1.80647954883271961e-05
2.61740853693152415e-05
2.70782251825877022e-05
2.73665972017486604e-05
2.73333926578647298e-05
2.67335614402541031e-05
2.60616306648209239e-05
2.54775183001191796e-05
2.50809081209778713e-05
2.45077173705307399e-05
2.34640878040219616e-05
2.22788286669613702e-05
2.11593324855900194e-05
2.00517563904296757e-05
1.8667187146475196e-05
1.72847873629016968e-05
1.85839648883228339e-05
2.59662399183161761e-05
2.68299661236993187e-05
2.70586295550244625e-05
2.71126126099997807e-05
2.67061276867822746e-05
2.57764218237110506e-05
2.49728350702064935e-05
2.44595931512006018e-05
2.38620671777020197e-05
2.28312612016688304e-05
2.16379719460645183e-05
2.06035744818141524e-05
1.96527835557681385e-05
1.88027046385217262e-05
1.75616657469800256e-05
1.87523110623211709e-05
2.58314015211679654e-05
2.65007646718252869e-05
2.65992734410476373e-05
2.66607726889648635e-05
2.66879362655742321e-05
2.54629077186086771e-05
2.44277190524140822e-05
2.38382730628647774e-05
2.32253739295761071e-05
2.21879808117800123e-05
2.09944312271519035e-05
2.00743341511598784e-05
1.94480637679191685e-05
1.93929727655496912e-05
1.83179186421500519e-05
1.85646095694729048e-05
2.56894476166746499e-05
2.60347633465793316e-05
2.59684289765243188e-05
2.60863902434232226e-05
2.65089636173261825e-05
2.50805172676525329e-05
2.37774275057151674e-05
2.30698655803392249e-05
2.26074951769774949e-05
2.17556639061997821e-05
2.0608802750511009e-05
1.98592425484129346e-05
1.97018924628489601e-05
2.06184402303190174e-05
2.197745033064786e-05
1.9635733669529044e-05
2.66625753464281028e-05
2.61272349734391798e-05
2.55303726419223288e-05
2.5547283480921003e-05
2.6074876878644184e-05
2.46556777922720594e-05
2.28922358019991632e-05
2.18327627734596466e-05
2.11475876908059008e-05
2.06713290514936256e-05
2.06175979154945232e-05
2.1267483085693418e-05
2.32268097372501121e-05
3.13916168673064537e-05
6.89662432896340747e-05
5.74619742095660362e-05
4.04482790922160225e-05
3.93810660882044293e-05
3.56298664311054851e-05
3.38571149019324354e-05
3.4339231525413788e-05
3.12939540297291113e-05
2.6181115740155665e-05
2.42362034531209003e-05
2.46490633063027327e-05
2.69565811919088126e-05
3.12687918107713346e-05
4.04348695097215272e-05
6.75340521275452486e-05
0.000176851125097993438
0.000453379022026668098
0.000618301563158977271
0.000141972043211845671
0.000120436347701337351
9.12531789166387764e-05
7.06964954075292378e-05
5.98450832449950922e-05
5.6547825915399527e-05
6.82050230689868403e-05
9.11281060696545099e-05
0.000127902938419057572
0.000177523030181500949
0.0002717182448165988
0.000398665462836160435
0.000538110358216473583
0.000474454604359821975
0.000492003550449888766
0.000858647864950400292
0.000308227593067209439
0.000548536182477975731
0.000609700635420534786
0.000772436696171419275
0.000635319455912397644
0.00142986719415170321
0.00362610370349905446
0.00508744116794828012
0.00403978314141218049
0.00332080460581178844
0.00270795385527925446
0.00207463363988202127
0.00129494327069970484
0.000581822998384873215
0.000339815943319446575
0.000640569743482835531
0.000355776211712233929
0.00072673908158135236
0.00109981271096201271
0.00121382077573294229
0.00243367060757973975
0.00476496390908015197
0.00608468798493710678
0.00626888223942957332
0.00584357841707140637
0.00517959201628768063
0.0045366880240950971
0.00419912377383353189
0.00269699697449721698
0.000831173053507267131
0.00026949171948734775
0.000329569216671808684
0.000483639052459570768
0.0007439483590962095
0.00156258280714036591
0.00221080257423276073
0.00283872373645084478
0.00276613203199584145
0.00447393405454784773
0.00580178470461731755
0.00510854794086761359
0.00465785158530698795
0.00447450380276685159
0.00545100473789899512
0.00419120730061475419
0.00160307412662493635
0.000346495952341145446
0.00027160679173663185
0.000349620097881123539
0.000436763197184050289
0.00118884642027146858
0.0027953534688787661
0.00853818201298322914
0.00863304442143040043
0.00542367375444110025
0.00351794964971962254
0.00330484792877446844
0.00347723047801247855
0.00503787101576744743
0.00675030655411459121
0.00608788914540716371
0.00340922101099421469
0.000922987733923563746
0.000285016655591531607
0.000346451476650034499
0.000455371417140539166
0.00114431182166725275
0.003929790206486896
0.00797822356667602858
0.0112486574028783318
0.0114205138254603027
0.00615949558873607819
0.00361815004236093951
0.00361106107029479564
0.00573840823635219689
0.0100600254010936377
0.00797361893180000871
0.00485932170940011048
0.00161893234148410056
0.000307879932054743442
2.81825648890801049e-05
2.77038945464251194e-05
2.75763081967304399e-05
2.74437796395607435e-05
2.74381926852530653e-05
2.74403059748707333e-05
2.74489749347870885e-05
2.74990581628038329e-05
2.71171298931417153e-05
2.6192724550394433e-05
2.51821147523690556e-05
2.40691416825758408e-05
2.30050968781495327e-05
2.17418319163379832e-05
2.03982053384984699e-05
2.06358341565411478e-05
2.74263886661469635e-05
2.75551271622185158e-05
2.76371747760748551e-05
2.72984122956497849e-05
2.70509614143691131e-05
2.68839735658592575e-05
2.67707743163729486e-05
2.67275339343665315e-05
2.64379944220219859e-05
2.56187541499767449e-05
2.4556755573319111e-05
2.34235717748793786e-05
2.23774846842037889e-05
2.10417896480173104e-05
1.96220314928010219e-05
1.98165953854194683e-05
2.68942614852514579e-05
2.74055075872838019e-05
2.75841540795034815e-05
2.73135954034502751e-05
2.68981422543885012e-05
2.65484077691032503e-05
2.62731968833080617e-05
2.61057104929635908e-05
2.57766524140997191e-05
2.49572144801092898e-05
2.3868384710482945e-05
2.27459287681544661e-05
2.16915106522575631e-05
2.0268157697923157e-05
1.88937809749306538e-05
1.96149132251603442e-05
2.64639186898538595e-05
2.71825442255096979e-05
2.74078697291758521e-05
2.73230666218669985e-05
2.67241631643726484e-05
2.61711710528842396e-05
2.57190309111228763e-05
2.5435230799507828e-05
2.51154492413607957e-05
2.43298290948806985e-05
2.32265689129504146e-05
2.21358866363285695e-05
2.10597346990737748e-05
1.96505411839527166e-05
1.8489664011788305e-05
1.96131268567575781e-05
2.61251811256859707e-05
2.69199248709258478e-05
2.71493784668656728e-05
2.71996656216162473e-05
2.65827948323831695e-05
2.58024240984937072e-05
2.51626807190261612e-05
2.47665924961106149e-05
2.44517573018552723e-05
2.37069385444696705e-05
2.25892914011341288e-05
2.15458555959655614e-05
2.04995495950246398e-05
1.93560968117608198e-05
1.83945019040511912e-05
2.00452609834729872e-05
2.58696972286437463e-05
2.66230225923929281e-05
2.68138604184363171e-05
2.68941193984359729e-05
2.6482635376667893e-05
2.54332295110528208e-05
2.45909593533655031e-05
2.41094029083705963e-05
2.37866136824461845e-05
2.30492023458936137e-05
2.19108563229467002e-05
2.09385930689246639e-05
2.00922492860635935e-05
1.95315667920901228e-05
1.85739274844309453e-05
2.11560116946350899e-05
2.5676060863445268e-05
2.626866271272201e-05
2.63787895281647639e-05
2.65047139310124517e-05
2.63880324795862902e-05
2.5028990195757591e-05
2.39873371739745681e-05
2.34543785121259015e-05
2.31142435623625114e-05
2.23617640983800289e-05
2.1223859133718323e-05
2.03673402445365044e-05
1.99563443348020859e-05
2.02819223134946085e-05
1.86194840856977789e-05
2.08893462579506594e-05
2.54862101978672055e-05
2.58072235011117817e-05
2.58166624483052984e-05
2.60239084830835356e-05
2.6251539681193079e-05
2.4554001073756629e-05
2.32749504424595522e-05
2.26334952391653929e-05
2.22321637438463492e-05
2.1712283501009999e-05
2.08133820743316139e-05
2.01444392980602078e-05
2.03345506055032235e-05
2.16556510098108397e-05
2.18654534635321234e-05
2.03755004743515845e-05
2.59801848030171396e-05
2.57574591594387868e-05
2.53578213803955514e-05
2.55328768583109861e-05
2.59443015117815903e-05
2.40041635342305833e-05
2.22278215807525193e-05
2.1262954276908664e-05
2.06380373992631853e-05
2.03715015406277325e-05
2.04210204088357879e-05
2.12444449298535145e-05
2.38427391587520716e-05
3.61409594872290718e-05
6.93238116802174641e-05
4.75401602224570285e-05
4.11581354258206647e-05
3.88260094368361906e-05
3.48665602256921048e-05
3.42366939268601354e-05
3.4805439117733301e-05
2.99745767512479513e-05
2.55904184517003302e-05
2.46118977000568701e-05
2.61978350993806351e-05
2.98570294032115607e-05
3.57367149669147988e-05
4.66811161746561471e-05
8.07719390135621816e-05
0.000217097643569055332
0.000415162377025207665
0.000360876989635943498
0.0001591131010161257
0.000122669881548529813
9.36842353420928387e-05
7.08892517396292695e-05
6.20691009831818232e-05
6.43499106746986995e-05
8.31959791570589059e-05
0.000119142082012298406
0.000171606413800751866
0.000255554303837237447
0.000317327509045446101
0.000467463022079756907
0.000543229365802056505
0.000504851649239029354
0.000454472505867862392
0.000616035045871241613
0.000330170194658128068
0.000595965271636727818
0.000704426127980516668
0.0010368765591379401
0.00126964005617757154
0.00294669212750329123
0.0055999905448859159
0.00488044232337144727
0.00395017577618479634
0.0033995829304011441
0.00275058485490845559
0.00201004117236753491
0.00134557192592399118
0.00067826117402639604
0.000352164871662284586
0.00057316521783996302
0.00038439862820412239
0.000763593878708527618
0.00134598288920476181
0.00114142663609902097
0.00160459278876615478
0.00428002667141907673
0.00647354092953423936
0.00607734296257876703
0.00594992932039707136
0.00563012707513313275
0.00528913834982844191
0.00482487131611377285
0.0032056466513789364
0.000854083593872294929
0.000278939474213392316
0.000352558560237842223
0.000492103230875315313
0.000695940209496793971
0.00145135551093092396
0.00227859624960041621
0.00384654969937817072
0.00305684714800421361
0.00326422130039023296
0.0053242308039314944
0.00655181251319578509
0.00716268849146032768
0.00777716053171240845
0.00738200369006373602
0.00524636706669098871
0.00181354155769521477
0.000322652714651056418
0.000305915773264288729
0.000356478182519344661
0.000435029596946412899
0.00112264811548685008
0.0029993190471123512
0.00965463758748529022
0.0086875836722317603
0.00638688401353272855
0.00388835985016646422
0.00400357219690600143
0.00550111296055405281
0.00761015059607097252
0.00934463034237137044
0.00724568141216153528
0.00374459853801418358
0.000676100135979718054
0.000296408216777631882
0.000361426273938648924
0.00043587764215787775
0.000934589186529642202
0.00402176887556195128
0.00926291227363645886
0.0113758057763230606
0.00953344039441124738
0.00478723161518679243
0.00434018916462007576
0.00458453670592969421
0.00801831527102269195
0.0107258341509651987
0.00872093863931997816
0.00510630726468623997
0.00138655047563833651
0.000303256161916267352
2.82116740240513533e-05
2.77067426045719024e-05
2.75735328473407255e-05
2.74179171659871517e-05
2.73916976432584423e-05
2.73787455871187282e-05
2.7369087050766296e-05
2.73988492287868212e-05
2.72797104779262344e-05
2.66716681458007874e-05
2.57233644194837937e-05
2.47076153432756616e-05
2.3762973951756288e-05
2.26586357746454329e-05
2.15825025082604032e-05
2.25869448471980366e-05
2.74405607861973605e-05
2.75149344055882923e-05
2.75899843266104713e-05
2.72549975728022673e-05
2.69747492702791792e-05
2.67894147783058828e-05
2.66694722092578356e-05
2.66316683302833236e-05
2.65990253263644295e-05
2.60582573382087971e-05
2.50472322051567675e-05
2.40050020357628425e-05
2.30801010486267611e-05
2.18805656273901308e-05
2.08035495493953806e-05
2.13377150980059083e-05
2.68678986137520998e-05
2.73157395139731076e-05
2.74878787366589889e-05
2.72671136668209219e-05
2.67959878932901043e-05
2.6419530998441776e-05
2.61412467517997037e-05
2.59837848461774877e-05
2.59056638260740051e-05
2.53472585176016362e-05
2.43079455167681278e-05
2.32660011917230005e-05
2.2312517658050261e-05
2.10118704264210571e-05
2.00814396649494769e-05
2.07895444520689769e-05
2.63811926130130233e-05
2.70271151763589293e-05
2.72622505546035515e-05
2.72603173583818867e-05
2.65866301563933471e-05
2.60050042423375358e-05
2.5568541969378291e-05
2.53087199116938796e-05
2.51680959636761808e-05
2.46381007285006919e-05
2.36282673686554186e-05
2.26033481090719605e-05
2.15968093204991112e-05
2.03372890663720304e-05
1.968003099119415e-05
2.05966038002114022e-05
2.59751568598121447e-05
2.66986359179006444e-05
2.69733269385009309e-05
2.7133679241369028e-05
2.63926453328818799e-05
2.55862180422043128e-05
2.49884385327297307e-05
2.46457219507825953e-05
2.44559490603316782e-05
2.39512201539282652e-05
2.29602555300026042e-05
2.19647560778237539e-05
2.09862503260405175e-05
2.00470815333111047e-05
1.95821517291673534e-05
2.1191613289449489e-05
2.56546139269214989e-05
2.63598778870919596e-05
2.66437296748341744e-05
2.68650927549442294e-05
2.62287299032478078e-05
2.51612356334098603e-05
2.43957975594893576e-05
2.39956182044886921e-05
2.37910382187589408e-05
2.32657630149875116e-05
2.22477850455794354e-05
2.13156035760068033e-05
2.06059002520933346e-05
2.03233944840366486e-05
1.96432109435854529e-05
2.25176997619506393e-05
2.54192428934713494e-05
2.6010555422135205e-05
2.62526074750440619e-05
2.65295247236740636e-05
2.60856540862322205e-05
2.47071726639970823e-05
2.37744063385820138e-05
2.33288214624611445e-05
2.30955142417039052e-05
2.25394055597412962e-05
2.15307870154004295e-05
2.0731605120933486e-05
2.05672620480498258e-05
2.06987451506909987e-05
1.87842293378965281e-05
2.21953116610603763e-05
2.52352716070594427e-05
2.55854564716247675e-05
2.5752748436898828e-05
2.60980815970076946e-05
2.59313868608731561e-05
2.41785531916040507e-05
2.30171494456708111e-05
2.24400381746436375e-05
2.20659382147551094e-05
2.17108826243904216e-05
2.10607812112257188e-05
2.05450006261881516e-05
2.10284571172172467e-05
2.22942631597468764e-05
2.19636203720472304e-05
2.13631272909263501e-05
2.54164557773840198e-05
2.54548563374867953e-05
2.5336848165443179e-05
2.55993103630891344e-05
2.57695913261772533e-05
2.35109075107628743e-05
2.1847790845861989e-05
2.09434169507283306e-05
2.0451246827098773e-05
2.03405298053506851e-05
2.05204308969949075e-05
2.14541542825453015e-05
2.48284644553134021e-05
4.04433435689170216e-05
6.77370070173996606e-05
4.31461993978589589e-05
4.14040216599900979e-05
3.82015031906774417e-05
3.446424722238149e-05
3.44667280090641298e-05
3.48919615477479743e-05
2.92436610566257306e-05
2.55474903760847783e-05
2.53787833317722634e-05
2.80902890222147885e-05
3.29150173802001089e-05
3.96833054888740173e-05
5.15118329331399699e-05
9.31118632778850597e-05
0.000247784005160615016
0.000344177231336086932
0.00025260067311805198
0.000150975340365625601
0.000114515053839696533
9.45759839944245785e-05
7.41477039938591187e-05
6.79136561668217359e-05
7.34608311986532052e-05
9.94297563209589993e-05
0.000149078815157388961
0.00022318079856376141
0.000314198096314944318
0.000365077249708062334
0.000484207439179478003
0.000529335217126204413
0.00051403113292531233
0.000390773555326980385
0.000484594997861263971
0.000354900319434188743
0.000655969460153868087
0.000897458090803183181
0.00138277406945393742
0.00175607808616113151
0.00482953319684460789
0.00603006589527396459
0.00506976983755505397
0.00433504719370522793
0.00362549252451149469
0.00272262885727907449
0.00186530103436177946
0.00122990873562159385
0.000669317149344269484
0.000331588949310122384
0.000423863853504449046
0.000410634385673550929
0.000837492799365906595
0.00168171757848775195
0.00126022671595015239
0.00144670418244669365
0.00402511259318495337
0.00647076312386252878
0.00637751119347807448
0.00652575259034499783
0.00637448393880829176
0.00568107074158184181
0.00488184621630245816
0.00311476097490297156
0.000771920596839770798
0.000271958007722668358
0.000327892836757796391
0.000504678237215018402
0.00073349558648339063
0.00166758463966531589
0.00215208412172316526
0.00377681346993952562
0.00320569965277795951
0.00314266528165812412
0.00537352024735733309
0.00686980529421402867
0.00809007641402647096
0.00848778145236712619
0.00793032264302728253
0.00523529377149178736
0.00152491847177986745
0.000303066904292443825
0.00030387441561716583
0.000366398954805721179
0.000567024908756325573
0.00134633634127412534
0.00222017814585040527
0.00774979922498023749
0.00888828452542343543
0.00633834258300809
0.00397007430497152859
0.00495850386806124827
0.00730696494584540893
0.00812954407354880837
0.0104633247519424228
0.00758151139359949672
0.0032311269953025812
0.000543339755543333731
0.000295954617785073877
0.000388048339065442439
0.000433371327239768806
0.000836867522812023853
0.00305825552277398357
0.00936910348743386252
0.0116555888799743951
0.00910944969675452597
0.00515355168405830493
0.00448925733049419188
0.00474707625684392311
0.00823114919400395537
0.0109764437304387293
0.00959594732223335162
0.00474883238106741604
0.00112585422141127248
0.000297283597657416903
2.82745850105343227e-05
2.77406222896810126e-05
2.75816082421118511e-05
2.7425118717092376e-05
2.73939258312208789e-05
2.73711083055195238e-05
2.73503729832963318e-05
2.73670502720430802e-05
2.74156064498828562e-05
2.71062602231382589e-05
2.63126279440727415e-05
2.5382209968568894e-05
2.45588738305339812e-05
2.35941178387433592e-05
2.26513554948361852e-05
2.39089523931788668e-05
2.74954821577682097e-05
2.75492428348205062e-05
2.75975081135473245e-05
2.72270010876788552e-05
2.69567499021716577e-05
2.67820231066827206e-05
2.66702503181149236e-05
2.66331885368508795e-05
2.66527882190418127e-05
2.63582621383057257e-05
2.55620018618387101e-05
2.46017283812713205e-05
2.37834634732313503e-05
2.26563157019205261e-05
2.17790843164436173e-05
2.25434406004548439e-05
2.69068067731953482e-05
2.73332830356999635e-05
2.75112958135055553e-05
2.72069850655505732e-05
2.674647232465819e-05
2.63899233612572404e-05
2.61313134623738701e-05
2.59775719953246561e-05
2.58938710903432469e-05
2.55585885798968958e-05
2.47589272783790975e-05
2.38065270578385745e-05
2.29326956125601645e-05
2.17002142228051229e-05
2.10392390453182618e-05
2.17626387829687568e-05
2.63996134700052766e-05
2.70223801533346569e-05
2.72875427031970771e-05
2.71842141146048364e-05
2.65092771593175911e-05
2.59583490184368673e-05
2.55579987946274384e-05
2.53016310858882124e-05
2.51254843723711316e-05
2.47948472816557653e-05
2.40243594840389338e-05
2.3090046722874929e-05
2.21389699712456816e-05
2.09823346917807632e-05
2.06446537889419849e-05
2.15222461234070468e-05
2.59614117125808616e-05
2.66685643626979518e-05
2.70077638820242286e-05
2.71633589811154642e-05
2.62878689502578628e-05
2.55233514970569782e-05
2.4975559189454907e-05
2.46397094496593648e-05
2.43982190600354133e-05
2.40667422778734403e-05
2.3310586481974373e-05
2.24029424023359813e-05
2.15007127458124509e-05
2.07191497367238197e-05
2.05728115559465723e-05
2.21330394226084303e-05
2.56049240571183167e-05
2.63222523244665235e-05
2.67029327834210598e-05
2.70132313434967889e-05
2.6096365208072665e-05
2.50830019960507486e-05
2.43870880003033728e-05
2.399942346073509e-05
2.37334375269517021e-05
2.33569395100125915e-05
2.25687376041397825e-05
2.17263808429892674e-05
2.11721853366248008e-05
2.1028675633190839e-05
2.03033321810123843e-05
2.35572572859297183e-05
2.53362814511981758e-05
2.59886936380496089e-05
2.63434342221305404e-05
2.66897597338398562e-05
2.59345163457633833e-05
2.46229502314370224e-05
2.37825547249902336e-05
2.33558445663123283e-05
2.3063682583617398e-05
2.26343889208811372e-05
2.18496988516669118e-05
2.11647326278481509e-05
2.12639117299512268e-05
2.10643262859977527e-05
1.90826366282536046e-05
2.32739239239198732e-05
2.5144559778670586e-05
2.56083583529201082e-05
2.58776840787884882e-05
2.62606580970757857e-05
2.57777890421352938e-05
2.40843920952835739e-05
2.30175832458682822e-05
2.2454076806211238e-05
2.205788634566785e-05
2.16350868185770658e-05
2.12162325713082589e-05
2.10394843886907008e-05
2.14321353811792191e-05
2.26233449347588497e-05
2.23904907916930605e-05
2.21521804813145932e-05
2.52575004877703398e-05
2.54559990982435523e-05
2.54547895728518166e-05
2.57588510993221899e-05
2.56442305374558657e-05
2.33189896533927534e-05
2.17835518163132157e-05
2.08882304469557148e-05
2.0510894418123446e-05
2.0515666092345925e-05
2.08575436495216783e-05
2.19230123211837868e-05
2.61131038430143085e-05
4.43501720047810921e-05
6.70253249104690293e-05
4.15162699790716104e-05
4.09335192724443348e-05
3.75309298300900888e-05
3.46336095659731559e-05
3.50244195569089178e-05
3.50528896996731696e-05
2.8938257023104324e-05
2.58241807790398688e-05
2.63174784746154911e-05
2.98697730404219566e-05
3.57184364348206961e-05
4.29896099842389055e-05
5.58550482389911298e-05
0.000104139507401142383
0.000274510698568080822
0.000307509065921828407
0.000219810924694618915
0.00014845311697768879
0.000115146563683222927
9.62809539026441636e-05
7.68054735588352331e-05
7.27373416273276689e-05
8.35915838048697423e-05
0.00011758486766294295
0.000176846657345190549
0.000273912376144306257
0.000346142018260616672
0.000415515094443014859
0.000515545295679069836
0.000543699687583909107
0.000537156841183764684
0.000367639171715845219
0.000438742773087433474
0.000380772363796220287
0.000686408418845023448
0.00104692845909440933
0.00207807530777428997
0.00227034940121508466
0.0062042055633078283
0.00688774021556137934
0.00574517305502046747
0.0049693653131996484
0.00397938618516568369
0.00293134509014309494
0.00192282040287554434
0.00121983334333216698
0.000722665894486863316
0.000330323567739752985
0.000402676259310117356
0.000437560100826404929
0.000890632940207698297
0.00177650462132178952
0.00194201905145933041
0.00148127122871062112
0.00380510334659771993
0.00745865005846083756
0.00747606175372013404
0.00766965085150128536
0.00775272887113332733
0.00712025338615122037
0.00569515501064996217
0.00354347043415858534
0.000827300667798031497
0.000274681370871037475
0.000317854995785077561
0.000505342008446863097
0.000738632520998547823
0.00160529376913594876
0.00205900192745461568
0.0031248705992802041
0.00331715494307578945
0.00351384914939564547
0.00619422498392202363
0.0079775898974142178
0.00959084126183182284
0.0110658289718938273
0.0109211928442491338
0.00737134978306384393
0.00172434964966384726
0.000311678154158550149
0.000298879604105992602
0.000370954142030977257
0.000670828880986232908
0.00149583493092921016
0.00198151463650319279
0.00488300043609447149
0.009862174439991718
0.00630125536054272715
0.00427464118167666766
0.0058709780761810439
0.00917875063514611914
0.0106413214439901767
0.0136020442926709194
0.0130833439973167612
0.00445498836410169324
0.000567461573323250535
0.000290317688419738809
0.000373939517656392251
0.000445786434123538323
0.000987887530112594673
0.00307556999288646207
0.00801457092174507474
0.011359096920854175
0.00987665630191165989
0.00532426848359742605
0.00447626950027785707
0.0055788419343824917
0.00834899484021778271
0.0135536831828799425
0.0168540346906477963
0.00745023212270848507
0.00113660869894954288
0.00029404389432668266
2.83602646996336612e-05
2.78126946727038927e-05
2.76352559832326363e-05
2.74847594270879298e-05
2.74649417534349738e-05
2.74409000736457337e-05
2.74178224491223784e-05
2.74369065109231973e-05
2.75010474979182604e-05
2.74512892320766285e-05
2.69562970917321298e-05
2.61293340407305249e-05
2.5417880063380546e-05
2.45204423682442041e-05
2.36226088582767015e-05
2.50119384628320914e-05
2.755380161871999e-05
2.76258412453880549e-05
2.76683380346946335e-05
2.72586076865802679e-05
2.70121329739789467e-05
2.68465374846263118e-05
2.67297887954979753e-05
2.66805891294220535e-05
2.66923618651989567e-05
2.66279434498143332e-05
2.60985028184506977e-05
2.52292205220922032e-05
2.44842863282963132e-05
2.33765776723549494e-05
2.26162723977652311e-05
2.35183836863947702e-05
2.69318248903214173e-05
2.7409258112805646e-05
2.76211856731136726e-05
2.72143400709720816e-05
2.67894858556184805e-05
2.64506713810609814e-05
2.61845394883092592e-05
2.60088457953871501e-05
2.58991221004682526e-05
2.57755601501459733e-05
2.52365292115617936e-05
2.43825385042909921e-05
2.35487850326567585e-05
2.234061041415772e-05
2.18692350886344556e-05
2.26591917498276802e-05
2.63749304037710168e-05
2.70928491209395403e-05
2.74123160442731947e-05
2.71787657527952386e-05
2.65494032493257118e-05
2.60172894944990872e-05
2.56015619842034844e-05
2.53038758041091817e-05
2.50864099545941432e-05
2.49218778738439488e-05
2.44126493945869219e-05
2.36134864863686207e-05
2.26883318034552831e-05
2.15991705970064423e-05
2.15118534265170315e-05
2.23998766590563969e-05
2.5878838145703261e-05
2.67309876895957768e-05
2.7136306748495815e-05
2.71941649014387166e-05
2.63293750903105451e-05
2.55736736108446691e-05
2.49986741176137407e-05
2.45944365838020341e-05
2.42943868522150549e-05
2.40639074845313206e-05
2.35898483279956876e-05
2.28827585626566741e-05
2.20497655349241196e-05
2.14116251730741898e-05
2.14848260335971883e-05
2.30087260108535853e-05
2.54779229334214062e-05
2.63833725085852484e-05
2.68334548074668125e-05
2.71017860839393391e-05
2.61291955545110135e-05
2.51141987754129797e-05
2.43878957001385729e-05
2.39198571453154073e-05
2.35839445863715614e-05
2.3310639059805378e-05
2.2818158718277288e-05
2.21914932228952056e-05
2.18011848134753519e-05
2.1483527155318994e-05
2.07372211729997398e-05
2.43815028898411512e-05
2.51996533239827773e-05
2.60673550536666937e-05
2.64890418902028442e-05
2.68003854665444199e-05
2.59488164467519715e-05
2.46362787102621982e-05
2.37855347152319246e-05
2.32917790932190679e-05
2.29270402364161811e-05
2.2580768567089156e-05
2.20906036591021332e-05
2.16641346429918425e-05
2.18408936227255959e-05
2.13206134280459817e-05
1.95042710198880249e-05
2.41647806552317568e-05
2.50683391843705736e-05
2.57522675925465472e-05
2.60568378002687619e-05
2.63878909349840962e-05
2.57870812650384393e-05
2.41007093980011502e-05
2.30583425546226191e-05
2.2457091297828752e-05
2.2018450741259243e-05
2.15750272951211728e-05
2.12919489749182458e-05
2.13796310422978159e-05
2.18772867604716618e-05
2.31347610988180832e-05
2.3006963938751444e-05
2.28823142632470939e-05
2.52849308723085539e-05
2.56577925162434624e-05
2.56700740852641447e-05
2.59220730196551046e-05
2.56689651516520829e-05
2.33282004942885917e-05
2.1860131274008798e-05
2.09871372641179941e-05
2.07011037129818474e-05
2.07726486071823135e-05
2.12526989815766349e-05
2.25024102877415414e-05
2.76259997283015744e-05
4.84075547520307226e-05
6.78807637140879764e-05
4.12853664932039035e-05
4.06247157807920894e-05
3.72486082584331976e-05
3.49247956505635885e-05
3.55906128930263998e-05
3.53367547366460527e-05
2.89080793241121372e-05
2.63088913904079244e-05
2.73816386359608439e-05
3.15672033206813e-05
3.82412884683600951e-05
4.58957057182340274e-05
6.00662355790403964e-05
0.000116075853345075391
0.00029901996504926525
0.000293250436653713349
0.000207382123188018747
0.000150222222066819671
0.000121823237254729442
9.92671515347140813e-05
8.09868391429712555e-05
7.83133696647463035e-05
9.31521803775408442e-05
0.000134563835323054412
0.000202759101677876433
0.000315606616899997245
0.00037362166361554856
0.000457881355425022627
0.000543195641721830737
0.000568308869201564031
0.000569956744105913648
0.000361075551412949733
0.000438855840226225224
0.000435364481797002509
0.000805817018371337125
0.00131351120451399564
0.00265498385891174476
0.00248067969619543372
0.00632436129602514507
0.00761692064722745664
0.00677320678195588236
0.00594425947122799014
0.00459197158902054352
0.00333907168510169097
0.0020206138017383325
0.00129528498925465612
0.00081545153949878638
0.000326543931870400012
0.000406572213304471535
0.000491072439025320604
0.000916390685113801845
0.0018712336298873217
0.00226768994230174383
0.00152349903759859133
0.00331037179676716645
0.00745783238823684649
0.00815471035810114674
0.00886009621036193927
0.00958261462137330149
0.00901054996901578739
0.00702876173069767306