/*--------------------------------*- C++ -*----------------------------------*\
| =========                 |                                                 |
| \\      /  F ield         | OpenFOAM: The Open Source CFD Toolbox           |
|  \\    /   O peration     | Version:  2206                                  |
|   \\  /    A nd           | Website:  www.openfoam.com                      |
|    \\/     M anipulation  |                                                 |
\*---------------------------------------------------------------------------*/
FoamFile
{
    version     2.0;
    format      ascii;
    arch        "LSB;label=32;scalar=64";
    class       volVectorField;
    location    "0.0899999999999999967";
    object      faceForces;
}
// * * * * * * * * * * * * * * * * * * * * * * * * * * * * * * * * * * * * * //

dimensions      [1 1 -2 0 0 0 0];

internalField   uniform (0 0 0);

boundaryField
{
    inlet
    {
        type            calculated;
        value           nonuniform List<vector> 0();
    }
    outlet
    {
        type            calculated;
        value           nonuniform List<vector> 0();
    }
    top
    {
        type            calculated;
        value           uniform (0 0 0);
    }
    bottom
    {
        type            calculated;
        value           nonuniform List<vector> 0();
    }
    left
    {
        type            calculated;
        value           uniform (0 0 0);
    }
    symmetry
    {
        type            symmetryPlane;
    }
    interface
    {
        type            calculated;
        value           nonuniform List<vector> 
67
(
(-4.81617078777052091e-10 3.11696566700447678e-08 -0.000459065062171505503)
(-6.8416259271569351e-09 -4.93831122811631906e-09 -0.000443356501562232016)
(-1.22569753415187747e-08 -3.50189423996483909e-09 -0.000450452882684490173)
(-1.55751942669224965e-09 -7.21470021918398846e-09 -0.000459061500036738552)
(3.10243182666420113e-09 -2.58788515285377844e-09 -0.000416428312643966913)
(7.22847831039448281e-10 9.83743236278259151e-10 -0.000392675799239519175)
(-3.26260705513889766e-09 3.37398266287114817e-10 -0.000390175266287128941)
(-3.54280279787191293e-10 -2.43902961449518743e-09 -0.000303755477646728005)
(1.39130916013310019e-09 -2.94844381717903076e-10 -0.00029817969204017406)
(6.6101619100409784e-10 1.90189681921288938e-09 -0.000300268930015936352)
(-5.09721647144951666e-10 2.28933954701518259e-09 -0.000313410947203820772)
(0.000194918025378674104 1.66903626264044194e-09 3.81839345269681843e-09)
(0.000228576560027948225 2.00400451132318844e-09 4.11246635471038376e-09)
(0.000264980080229705909 2.27597273094653607e-09 4.32490291331034058e-09)
(0.000186163501354807211 1.92075669022887367e-09 3.22795964393842831e-09)
(0.000225779946583837038 2.29517688679909427e-09 3.44851663086976602e-09)
(0.000269156899221418948 2.43323669778964431e-09 3.49892022753103683e-09)
(0.000181694472904154948 2.20979952970017033e-09 2.68611168513978515e-09)
(0.000224032143644243729 2.53961517418820958e-09 2.75972045442299532e-09)
(0.000270456547910781064 2.62636582833429248e-09 2.8858833464976873e-09)
(0.000176406639347740133 2.23990602767851003e-09 2.18705721121430804e-09)
(0.000218965670806969164 2.58076217828959923e-09 2.16796481928103446e-09)
(0.000265063371778258142 2.70558196446021465e-09 2.22347190305185533e-09)
(0.000169040180947770759 2.21609104063262817e-09 1.58581880675228531e-09)
(0.000209840190829040541 2.47498911248972464e-09 1.54102957366315771e-09)
(0.000252697503602803363 2.80200185113972358e-09 1.60233171577237191e-09)
(0.000160932645335349147 2.11771866903263303e-09 9.76715068788567807e-10)
(0.000199094612112195757 2.27732285595156598e-09 8.8601491183537024e-10)
(0.000237522655932492668 2.69048876320629199e-09 9.98416806393137264e-10)
(0.000153920620231748627 1.8432512264582094e-09 2.3765697574888678e-10)
(0.000189834631553518709 1.65620571953156097e-09 -1.3920391243195341e-10)
(0.000224502681916493717 2.19703601741503634e-09 -3.0971755121000568e-10)
(0.000147778393630626568 5.94309632249932604e-10 -5.91716733500183264e-11)
(0.000180598018383874414 -8.00588700784667481e-10 -5.92714499981043761e-11)
(0.000211392299212820073 3.12619607067478333e-10 1.30221773208114041e-09)
(-1.55696929058591481e-08 0.001645020414983187 -3.63242855098883816e-09)
(-2.30663067284052496e-08 0.00229039287022422084 -8.68964564621342103e-09)
(-2.80930050758084268e-08 0.00259238851890712229 -1.16070686789422594e-08)
(-1.70987493757337991e-08 0.00241698278140450038 -8.71594603732842543e-09)
(-9.96006063416311911e-09 0.00186338720540146405 -7.66969551367292072e-09)
(-3.81555459955901763e-08 0.00111020036452466326 -1.80505249646602251e-08)
(-8.50701545402049331e-08 -5.89505672864140885e-05 -7.723598686484783e-08)
(-4.78250844809111681e-08 -0.00157758726914241807 7.37315640226762269e-10)
(-1.47016384956848722e-08 0.00129984483666972404 1.21389028353231177e-08)
(-1.06154434309247297e-08 0.00160325197634596283 8.65419849262344783e-09)
(-1.75594120290139035e-08 0.00172352769655245925 6.72768762540175193e-10)
(-1.35513668998801824e-08 0.00157240454852928787 -1.00450547522849674e-08)
(-4.28436587606598775e-09 0.00120290097007465669 -1.60945340992890994e-08)
(-6.72970201862601034e-09 0.000809310317972922557 -1.90050368257441724e-08)
(-2.82514546284805154e-08 0.000308286933213294248 -1.45870135746839814e-08)
(-9.27421380100573369e-09 -0.000471099717979978311 3.52242395503596095e-08)
(-3.83852625527339058e-09 0.000952736194657557902 9.82567247558100919e-09)
(-1.86850134260923338e-09 0.00110038473643416174 6.80046965683142792e-09)
(-3.02404163339982839e-09 0.00116554337352525045 3.23105705326246082e-09)
(-6.46940663059591764e-10 0.00108389619082261226 -9.39513392865665903e-10)
(3.46452937091030576e-09 0.00088583024051654656 -3.74526800019939356e-09)
(1.15543305708131678e-09 0.00065892381058585978 -6.23714566138519564e-09)
(-4.93020617268988731e-09 0.000421642857380747683 -9.4292905169343802e-09)
(-9.99858516783143321e-09 5.64563844368069762e-05 2.1199589488809958e-08)
(-4.66567751308592676e-10 0.000714875571621103548 6.76726068746009729e-09)
(-7.65858009184988048e-10 0.000784768410141551179 5.20081770367097413e-09)
(-1.38481515532266269e-09 0.000817930622305764452 3.90986681290096823e-09)
(-3.76311553692797499e-10 0.000780834324971398856 2.51097844628763065e-09)
(1.76419604246356711e-09 0.000685774197658731827 1.49000358986673013e-09)
(2.1363590227597802e-09 0.000570801886989441652 -1.752711947705467e-11)
(-1.34526889012883696e-09 0.000461252746015879545 -4.20035692958699816e-09)
(-3.55429788552377863e-09 0.000303675468942525811 1.16324171859293486e-08)
)
;
    }
    procBoundary1to0
    {
        type            processor;
        value           uniform (0 0 0);
    }
    procBoundary1to2
    {
        type            processor;
        value           uniform (0 0 0);
    }
    procBoundary1to3
    {
        type            processor;
        value           uniform (0 0 0);
    }
}


// ************************************************************************* //
