/*--------------------------------*- C++ -*----------------------------------*\
| =========                 |                                                 |
| \\      /  F ield         | OpenFOAM: The Open Source CFD Toolbox           |
|  \\    /   O peration     | Version:  2206                                  |
|   \\  /    A nd           | Website:  www.openfoam.com                      |
|    \\/     M anipulation  |                                                 |
\*---------------------------------------------------------------------------*/
FoamFile
{
    version     2.0;
    format      ascii;
    arch        "LSB;label=32;scalar=64";
    class       surfaceVectorField;
    location    "0.0899999999999999967";
    object      Uf;
}
// * * * * * * * * * * * * * * * * * * * * * * * * * * * * * * * * * * * * * //

dimensions      [0 1 -1 0 0 0 0];

internalField   nonuniform List<vector> 
20536
(
(0.534070498972734509 1.59649362951615381 -0.746135618579101267)
(0.437449218502710735 0.180590727004653478 -0.476772086223053337)
(0.526500160694076236 0.451547240261278737 -0.455376830866543292)
(0.49879479919912828 0.163580126538493437 -0.424519098144012563)
(0.625173937611030794 2.43546087679873446 -0.91410232165262939)
(0.576451988452226005 2.95024449470832328 -0.908048141899803429)
(0.596430630536352702 2.53485869214396464 -1.08798425789207731)
(0.631826792617222299 2.19538860827650861 -0.727953484060456679)
(0.458329247910570281 1.13019888656420875 -0.644738789296580572)
(0.0985309723696096429 0.144086288844143234 -0.398791684957124415)
(0.398097205598635095 0.11225412167471005 -0.538703427932052947)
(0.249907633173380689 -0.0771551444874462589 -0.35699484037930046)
(0.586959774627869524 1.92127363260020867 -0.694445456604292577)
(0.713388604174797658 2.38216852478558616 -0.732817211625148457)
(0.669154654832328388 1.98656081234109161 -0.840895692485738921)
(0.722378936718814701 2.35808545152203575 -0.737485576670877552)
(-0.155813600757143067 -1.0789912525478953 0.0322836453585475733)
(0.0551103000687919037 -0.829498004848399195 -0.111239066121094354)
(0.0498967758417573418 -0.972983816881145436 -0.0527256081700374774)
(0.104309581374623497 -1.00843380103363245 -0.137746632849802236)
(-0.536733068068287134 -0.891163289209904064 0.166425512596132169)
(-0.767730800723193663 -0.997705724021437867 0.262137219234709007)
(-0.519113113287314354 -1.27287826859244757 0.318391187175997348)
(-0.280234510656720337 -1.02154098984745589 -0.0101633519457837024)
(-0.333082704254152484 -0.197888043873449493 -0.0932507744507680703)
(-1.0343799911474223 -0.518191939896809228 0.214496416296861031)
(-0.348247266167262259 -0.716116391343169401 -0.0371834564329226736)
(-0.548621664476218407 -0.705000371951377214 0.152575318790805103)
(0.0387699541411748172 0.905501239460782648 -0.448498352264835032)
(-0.700409347753397804 0.185030656963809992 -0.13147022262254246)
(-0.0685164335549636461 0.0029363867402371624 -0.483594584380777404)
(-0.222554669734993216 0.110791737376634586 -0.125760655960286877)
(-0.0240085061825829893 1.26675767630083724 -0.437433241888627367)
(0.546066203369696579 1.78953690460808201 -0.60373696999475146)
(0.417663583329961674 1.40816542340990947 -0.572757821395508904)
(0.564507944709594311 2.01727193071331756 -0.625090266794547045)
(-0.382664818802352258 -0.554674755484388826 0.118614507755065532)
(0.117504059316880669 -0.513623280481585343 -0.00485539194659581792)
(0.11222071834394079 -0.603660316988888335 0.0059632690496584026)
(0.160539764692763737 -0.679356331303962446 -0.140018305097407814)
(-1.27231123832191129 -0.315283627517626841 0.310208122935437869)
(-1.17225814608873469 -0.371667981142426551 0.3164322939224819)
(-0.903275784336203258 -0.627556747776846446 0.396318487030108191)
(-0.564665084310996157 -0.560584890449090545 0.0228799373991795396)
(-1.34346328767737977 0.0327395212033433636 0.176276968125087724)
(-1.59795310861106366 -0.15565139747253548 0.32436454366567119)
(-1.27332035380845343 -0.269647711586562699 0.124620413175403649)
(-1.27076859107129847 -0.251315720414531762 0.303067650780910969)
(-0.927063532911766131 0.560285660453536005 -0.120405112246333296)
(-1.51305206805908354 0.124233454432420024 0.0921854074038318816)
(-0.960959738912507078 0.253396204933696745 -0.158969502869516055)
(-1.12332634284217048 0.11909148372696679 0.170632587835054)
(-0.924852776724350401 0.672153077152261913 -0.2229124027023697)
(-0.199549669981399058 1.17430493113879875 -0.436948206506124925)
(-0.559149439481276156 0.732621493034657956 -0.160566140999494983)
(-0.170180631220362255 1.393324653442922 -0.422529950406991706)
(-0.38927736723814016 -0.121924875267175326 0.192962394220820149)
(-0.0348191439533781788 0.0490244647572424461 0.113852675328569922)
(0.320697123373386184 -0.275684315188218065 0.0641428113742643496)
(0.301653584722025025 -0.378646109030151834 -0.0398873842326924258)
(-1.58643857445227687 0.0393220660977679215 0.330588714652714943)
(-1.46181594731663433 0.755550339863600096 0.346079678771979982)
(-1.03911938952813609 -0.0266838364350125978 0.33345221592157881)
(-0.512565786311231952 -0.14425845602721904 0.0207861479732092541)
(-1.75692971769388251 0.141911488363803406 0.24027298294441507)
(-1.49409281281933226 0.171281262487952501 0.406609362362249205)
(-1.64856576717035819 0.000994064251255329708 0.168449725994556543)
(-1.4910942301508785 0.0767514980235150107 0.234857362184153096)
(-1.56799294842303416 0.41176299570938435 -0.0103218830522038008)
(-1.55329008566623306 0.0483468346539159752 0.262731380654339319)
(-1.63089791168544274 0.24463213009729548 -0.00779379451213947638)
(-1.61749374432297688 0.158760520533185234 0.109559537501327089)
(-1.29130746165632182 0.156363066280185203 0.0295484991618981951)
(-1.16632214102180543 0.7036131072856181 -0.278798504481310772)
(-1.39063841363536667 0.424260327316234476 -0.127547773298475248)
(-1.01099438045083656 0.848485341069559751 -0.293619645061240497)
(-0.991605936453735071 0.627154347467948625 0.266969959879730212)
(-0.542521729332787639 0.486687010949941656 0.165525205196181552)
(-0.265950825116794465 0.429280056286812706 0.297297283741341178)
(-0.439569725823676483 -0.061081361663224476 -0.190665875688204978)
(-1.37167523505128819 0.487286353442050735 0.422100326481513299)
(-1.49168551209371736 0.71464692236260996 0.245441405858837614)
(-1.43526450194598043 1.00830931440578331 0.344717485298966231)
(-1.12330387311364732 0.631135697499239035 -0.0203939308729887275)
(-1.30918440213190612 -0.0717406979121774091 0.429067760072172899)
(-1.13076711933037921 0.0305926633062436754 0.327722685910490363)
(-1.45993513889860127 0.0739637617066424696 0.348811777680752222)
(-1.26260073765543113 0.22558299875182608 0.310565795241355413)
(-1.30565123225049495 -0.221214789694429981 0.302601762868442703)
(-1.24526858291454712 -0.0578743032044748487 0.363485554184130977)
(-1.46675768026380338 -0.112862411259341086 0.249903134735509402)
(-1.21063745183854654 -0.103931514154986929 0.182230233926337082)
(-1.14655062606903324 -0.0785240461945261592 0.234637920870459649)
(-1.32801217775533198 -0.00783443227111030316 0.0970521976263841041)
(-1.16290361150670329 -0.177880750748472372 0.0502459647140181542)
(-1.1821437186298569 -0.101635072498742929 0.128323108091244309)
(-1.14456390944782571 0.615881997178386875 0.143996651175289092)
(-0.827377170025807684 0.626504960031213698 0.0541061974480041147)
(-1.13894196101374989 0.902057121428960995 0.163814701729358358)
(-1.1059483759704829 0.130767371046157432 -0.122250098289735432)
(-1.12431950389244584 0.331685993151306036 0.151063765287814233)
(-1.03840989191620525 0.330811805818015947 0.0327612808511341322)
(-1.50932241771128095 0.888710119157738232 0.189640676841066891)
(-1.36732692507548825 0.353755948508633122 -0.0482566339275201719)
(-1.11022205474180824 -0.019788628606970296 0.262140480022447664)
(-0.85823466297963058 -0.125295580654155941 0.148410172267086499)
(-1.20390336257066699 0.10585096427024665 0.227401412544410431)
(-0.997469283089680414 0.0761164257383113857 0.136006168267458177)
(-1.08456111783287601 -0.0226857181885588288 0.295521712186148755)
(-0.971246081061755806 -0.129450668054304829 0.258790081572624175)
(-1.31266059594172568 0.0203335320194764184 0.25688103319495581)
(-1.02501905965564744 -0.00901136211775687389 0.231973089635027885)
(-0.912239094171722553 -0.0603928066783862502 0.194050867191760235)
(-1.15790100818608321 0.0800179905798147489 0.122912763768033603)
(-0.929774139199908256 -0.00170673009263476363 0.185541648205877235)
(-1.0277023863195347 0.0498753093901993239 0.161784690879169218)
(-0.813946298081319575 0.352909169048465421 -0.0571291728761504636)
(-0.682518829613157463 0.467871309920952272 -0.102097828717250885)
(-1.07452096490807425 0.945058865720374675 0.00308171515221182177)
(-0.704754220276048726 0.149966047881084558 -0.0816277734263065741)
(-0.676932085921486237 -0.0109087807012835936 0.0301076878304069456)
(-0.55059257962622743 0.0218268405919528861 -0.0523782235510138403)
(-0.990168486084472499 0.319951515739581527 0.00642842356678749102)
(-0.712556881868137038 -0.102179341491675735 -0.0777741152379667761)
(-0.759494171814522834 -0.139874927768462609 0.145059773817262039)
(-0.561927443636260016 -0.110544701189654052 0.0607046472415504745)
(-0.86159391705609023 -0.0421511274012530343 0.140515106149161489)
(-0.661106282270344847 -0.169573021882025998 0.0769584157880827541)
(-0.787017033162695334 -0.100279718678475627 0.157319236578235488)
(-0.606713017457578552 -0.112900634400763658 0.09719768377853584)
(-0.935984150301984785 -0.0811149556342751349 0.137999516744512635)
(-0.692793392023397736 -0.166025000141238166 0.124567075143998854)
(-0.623326078083679347 -0.0328012041322891038 0.0769625998242443321)
(-0.883705269152177619 -0.0120656902314262432 0.0746849411041906885)
(-0.697410021717922213 -0.063603580472911897 0.125892291648526611)
(-0.750104499361099353 0.00972015683289807753 0.0859572470465046895)
(-0.455309315320845398 0.152322946119205993 -0.097346879392114477)
(-0.386772490943122771 0.156314996219848595 -0.123496696399533618)
(-0.726307679171473985 0.71042556750079533 -0.0779819838446761671)
(-0.441406460647054133 0.115120761225563112 -0.128731604238066621)
(-0.379509008581067786 -0.0676700133601981918 -0.021781264139870072)
(-0.281877255081910527 -0.117120125561342325 -0.0417330104199957891)
(-0.486455158539094157 -0.0128476777003106897 -0.0277359548372971415)
(-0.36690244127426086 -0.106416064158508447 -0.0529943813858114662)
(-0.423525069613160388 -0.0827568304283365641 0.0128425572028241959)
(-0.336055300508636468 -0.0843833218087167297 -0.00776686671287891463)
(-0.46061758131569569 -0.0277187422453451307 0.0222869904316643185)
(-0.398617889029538264 -0.0946471047520875408 0.000599824660610677593)
(-0.456342718376889167 -0.0694310129365908607 0.0168410470245449993)
(-0.358718605383099964 -0.0705245164611732339 0.00248353453178803193)
(-0.480722986497930327 -0.0838832072089348568 0.0198099349609777292)
(-0.417862576409050723 -0.0938848264644071839 0.0188891553501432247)
(-0.37732359492631673 -0.0106913945151368792 -0.00168383522737374294)
(-0.500736155664576077 -0.0409227391115249695 -0.00871287439817747082)
(-0.436003040415146592 -0.0331634138137594653 0.0147331582922028987)
(-0.44654965079278508 0.00140941822021114376 -0.00449033144584247423)
(-0.192887555372055847 -0.0702971436868509714 -0.0678828274274151378)
(-0.208374795237319638 -0.0263479796893947814 -0.0828745424762999255)
(-0.294592631206132438 0.166369379736255985 -0.065499910819774243)
(-0.234845451897812529 -0.0967483596384295652 -0.121886667555837089)
(-0.244716293549846975 -0.0974274526880701819 -0.0277186129930047202)
(-0.196882462571557615 -0.0968558887107763278 -0.0314733483147588769)
(-0.208445310805176504 -0.118371129291626201 -0.0124224710582227296)
(-0.22479928184721798 -0.123573206594436935 -0.0449846588991524091)
(-0.273696258357331135 -0.0580593066171941341 -0.0181258893839151072)
(-0.239261163416905925 -0.0671124824794698399 -0.0215790719488533587)
(-0.270498671669021529 -0.0636109975222076823 -0.00985015698247118654)
(-0.269796523159642754 -0.0841366093169573226 -0.0240964192760291379)
(-0.295400768276372072 -0.0108125171646500616 -0.0160413477201305603)
(-0.251047402235283712 -0.0369158488242145311 -0.0162995231759060152)
(-0.289290011205897479 -0.0329509498284911093 -0.0151223351019902433)
(-0.283012671380696468 -0.0413104909596986106 -0.0120085140304897701)
(-0.256230685890421306 0.00635411075430798201 -0.0184733405116837765)
(-0.306321136353777224 0.0192743844502872921 -0.0268333178588226057)
(-0.291239177756822731 0.014174921102828017 -0.0115450069191906177)
(-0.290985825866888648 0.0389073131722365503 -0.0240304127897910669)
(-0.18455987522934314 -0.0909522339769187754 -0.0464650633636435675)
(-0.183324079714150323 -0.0930271637886998376 -0.0446519291610413954)
(-0.174976492662976824 -0.0625811876231337216 -0.0431439746467962293)
(-0.208079576268763833 -0.107803826112701173 -0.0711696313600763686)
(-0.211049778515502662 -0.0822292810263863527 -0.0253338072706076611)
(-0.184917625289633347 -0.0903530696951989343 -0.0230479689470152113)
(-0.187249754603358298 -0.0939807588353632622 -0.0173965173100955467)
(-0.208879410602476334 -0.101583499564411872 -0.0366059062224055806)
(-0.220484720775163762 -0.053490442271785274 -0.0197527057408442598)
(-0.196564606022403082 -0.0667582087829840659 -0.0177622100711577018)
(-0.215869561708147112 -0.067249508966873317 -0.0157145159383245032)
(-0.221206784682055985 -0.0736895586636322486 -0.0238632424521069177)
(-0.221312248844386744 -0.0165808033093816469 -0.018731515967459221)
(-0.197822256790054385 -0.0351222109399201843 -0.0159710822639145371)
(-0.220607092715720876 -0.0344049407165366722 -0.0178979006201854911)
(-0.221857728140635257 -0.039002257831456652 -0.0174385395281720264)
(-0.192358286517532645 0.00146420815261150161 -0.0172686170580558414)
(-0.219176264045188529 0.00672982479586075027 -0.0223141996654140327)
(-0.21634208699194904 0.00241067009968334205 -0.0170101071415869887)
(-0.211674265703378328 0.0236062711017719085 -0.0212129993214422302)
(-0.172072757229007445 -0.104946766734253544 -0.0212348347444129733)
(-0.157327506499155945 -0.121631923633335901 -0.018883378454267765)
(-0.172027934228512036 -0.10506397043848284 -0.016381639183123381)
(-0.180023442643741205 -0.124045903386489034 -0.031115040661205115)
(-0.176705860724470448 -0.0836500366475910473 -0.0154763717475652693)
(-0.155789107780764879 -0.0984107589900687224 -0.0135002624567986586)
(-0.172658827631363393 -0.0948705218956010093 -0.0113907811039734939)
(-0.177993161320438659 -0.101871787214087309 -0.0208788328507350171)
(-0.17800263139884781 -0.0547945296816109706 -0.0139805865942280432)
(-0.156358508714624339 -0.071204634400007738 -0.0116673918858862559)
(-0.177504034031798208 -0.0683151741528912892 -0.0116068387381192822)
(-0.178766286253489504 -0.0729613920945032801 -0.0157233185362105829)
(-0.173822547213085377 -0.0219536007152393332 -0.0145081833545111852)
(-0.154324517698741392 -0.041306610831731011 -0.0116867370342219699)
(-0.176968018966342622 -0.0375762371716943794 -0.0135125182035938478)
(-0.176658141603999314 -0.0409994019322207637 -0.0139218284581569887)
(-0.147370912181888691 -0.00918325191042960141 -0.0126530884100402516)
(-0.169337299253718765 -0.00246320008855164174 -0.0162250914139375965)
(-0.168321797268388168 -0.00613474665424553617 -0.0139032217751937238)
(-0.163221137136800643 0.0119877548668903232 -0.0158381343792740673)
(-0.147500912575506654 -0.178956620588824389 -0.0157153347841553458)
(-0.127229481272378653 -0.203772411015095967 -0.0130743318055552803)
(-0.153141561542147503 -0.202946022853265351 -0.0220120678896914626)
(-0.141764333831021577 -0.147612071304799891 -0.0135194207128143222)
(-0.122791194132390424 -0.168812773625771878 -0.0115191232083460184)
(-0.146636422826705304 -0.168222008402241885 -0.0191439976808750814)
(-0.138286376707496161 -0.119146686768335397 -0.0111488061666535094)
(-0.119274333382966807 -0.137348234333323327 -0.00962189315454564306)
(-0.13970126240753708 -0.13072229029840679 -0.0080691432650028469)
(-0.14193816222288852 -0.137102613893191561 -0.0154514991144483905)
(-0.136904392580112444 -0.0906402737060270358 -0.00969128259511969556)
(-0.116926630171609092 -0.107424285834598121 -0.00818794546905596797)
(-0.137487018175957432 -0.104210946693858095 -0.00742078848518938541)
(-0.138866818014878268 -0.107816573012686698 -0.0121985651039696625)
(-0.134757289245014178 -0.0606952649648294235 -0.00937354232588019816)
(-0.114958401772535551 -0.0775523714252643326 -0.00764504595112158129)
(-0.136144512146853913 -0.0748217446763923544 -0.00796937848758112223)
(-0.136408678894762991 -0.0775845290628216083 -0.0102920254710945364)
(-0.130392334701703361 -0.0300130643002421565 -0.00983164208975105362)
(-0.11197400897118609 -0.0478033606216915277 -0.00777543689270947073)
(-0.133183479843303115 -0.0441402819620619266 -0.00916148555609291176)
(-0.132774059209172873 -0.0468705984415900487 -0.00961425499390719009)
(-0.106912066695389912 -0.0185698160984855004 -0.00835121588783485982)
(-0.127083938294087206 -0.0128779510110289888 -0.0106097746219867752)
(-0.126543288698324652 -0.0159494739986852756 -0.00972247515418330453)
(-0.122353955794960348 0.000610564223739550396 -0.0105514601169635312)
(-0.10148672788990655 -0.191134599127476046 -0.00887812022974598242)
(-0.0801855200783823663 -0.211282939729947161 -0.00744507263886576287)
(-0.102981298683593472 -0.211004219575807506 -0.0114241542928837942)
(-0.0993265546437708813 -0.158059842501955428 -0.00762159565007737398)
(-0.0790394101976660407 -0.177577259567416212 -0.00635788858779329745)
(-0.101333566330078922 -0.176519886324367409 -0.0099777915622581842)
(-0.0972200232732896297 -0.126654013467653537 -0.00666103245694810164)
(-0.0773057460116894773 -0.144909213487331129 -0.00547227348352734982)
(-0.0981063478731296346 -0.141234833416481298 -0.00532667342863539939)
(-0.099051798808898181 -0.143974621518478507 -0.00849167230118015939)
(-0.0953493890727346027 -0.096094639955213404 -0.00614170882505784676)
(-0.0755649615133749952 -0.113211611722491667 -0.00490985541705066773)
(-0.0962915093873595307 -0.110517356772518893 -0.00508622430336740355)
(-0.0968087855705283967 -0.112686092099880536 -0.00727549109920778026)
(-0.0930171203549006037 -0.0660747581921159871 -0.00604694051795086427)
(-0.0738000627953792065 -0.082469397430087743 -0.00471199451206016137)
(-0.0943707072185071827 -0.0801216111936403491 -0.00534313223160363948)
(-0.0944712655648576455 -0.0820788217742298709 -0.00654506766670259754)
(-0.0896792340502315377 -0.0368496613234083198 -0.00629501069079327086)
(-0.0716130218727553947 -0.0528152728941839456 -0.00479081753911602976)
(-0.091695996659030013 -0.0502295282732015957 -0.00587609223444567411)
(-0.0914711391702300591 -0.0522641283741121648 -0.00624850192951775709)
(-0.0685778566754013108 -0.0249163009643761924 -0.00505459102669427764)
(-0.0875990255519415451 -0.021297100714227267 -0.00663608580789653256)
(-0.0872696215256594798 -0.0235477188538557106 -0.00633781154400232197)
(-0.0845899984941791971 -0.00866457612954390013 -0.00664037880796084119)
(-0.0579746390930432204 -0.192943733921823124 -0.00492484099691309525)
(-0.0384737253024805687 -0.213509401579833391 -0.00343030165187059328)
(-0.0585251157432688796 -0.210685754962901928 -0.00599135860145579274)
(-0.0568830335916231736 -0.160578421303152225 -0.00420856642124328977)
(-0.0381132175032916146 -0.181336899948277591 -0.0028945699113877045)
(-0.0579004882640929835 -0.177976031639532101 -0.00522050641065927717)
(-0.0554857500618920821 -0.128810688413051377 -0.00372109644362991591)
(-0.0372496084854978607 -0.148812377415949437 -0.00250240497938004946)
(-0.0560365117621016429 -0.143808205967984021 -0.00318246531523423389)
(-0.0565753553804941925 -0.145674108060689478 -0.0045381398675333048)
(-0.0540956675186116259 -0.09791646018732382 -0.00348014110405298147)
(-0.0362160416761093534 -0.116590656784546318 -0.00227567419154072956)
(-0.0547739089779811159 -0.112420437732942163 -0.00300700463415720263)
(-0.0550599375455938303 -0.114137630229219342 -0.00401828850409507218)
(-0.0526773799217461203 -0.0682152734170423797 -0.00345587153322533813)
(-0.0351728226084632306 -0.0852826792242682846 -0.00220505527432255082)
(-0.0534830910052034939 -0.0819709664070615573 -0.00310104890365070929)
(-0.0535483060448246478 -0.0836490817743141685 -0.00371090463250779495)
(-0.0509062700586389583 -0.0400579542027135402 -0.00355039787501704)
(-0.0340728407812268402 -0.0555171166520926906 -0.00226020009272818361)
(-0.0519556146775113012 -0.0528792112650389723 -0.00337466307906892672)
(-0.0518929732935849014 -0.0545887493843521115 -0.00359632127025567416)
(-0.0327877551763179065 -0.0278236312376973285 -0.00234334506394180686)
(-0.0499666546152511826 -0.0254569671405240235 -0.00363597741341801497)
(-0.0498730893082679691 -0.0273005015269609415 -0.00357334612110946125)
(-0.0486631331113816373 -0.0136359829568656037 -0.00366581600649914597)
(-0.0188854328991338201 -0.199776074917901753 -0.00140003056634518757)
(-0.0190115168604367384 -0.216438887859844276 -0.00170253149632476099)
(-0.018510628796341775 -0.167857345561123861 -0.00118840846952445942)
(-0.0188531169287650194 -0.184884354515205074 -0.00146179930856367912)
(-0.0178952088151635956 -0.135506754671694929 -0.00105698272729087372)
(-0.0182090622253564295 -0.151033896654792332 -0.000921395188819305443)
(-0.0183467926643258762 -0.152547202500140811 -0.00127317700478050706)
(-0.0172039326646592633 -0.103431295949796026 -0.00100058836181031495)
(-0.0176065050777653061 -0.118618799660307361 -0.00087038069769551456)
(-0.0176677961691998273 -0.120138020713603369 -0.00114309924816320598)
(-0.0165568353696603533 -0.0723954102479456435 -0.0010093838338253976)
(-0.0169611186669092369 -0.0868092073698469857 -0.000899648811067552492)
(-0.0169591557784545925 -0.0883713864255076531 -0.00107420240632113626)
(-0.0159856847489474145 -0.0431995212233286449 -0.00105314728165295155)
(-0.0163506170661250096 -0.0564473515665985248 -0.000990014411737142426)
(-0.0163156095354161923 -0.0580498017040605718 -0.00106427020786321533)
(-0.0157610686929665379 -0.028325199518353248 -0.00108689415282925655)
(-0.0157112499316135919 -0.0299600124308837985 -0.00106705899387762068)
(-0.0153850304453753937 -0.0164338046124231779 -0.00111682645762580706)
(0.580175528142348629 1.80529810545344294 -0.622050841582393765)
(0.487148147790000596 0.266866610606453281 -0.510138378200168052)
(0.560196811795718452 0.550837908295187861 -0.437638025557934796)
(0.664666655015993091 2.77170736591617306 -0.728181774293525819)
(0.585506701073884028 3.24981571138368341 -0.709341086401085508)
(0.690051847464617119 2.45926787172148664 -0.590397975354116533)
(0.550356585419981004 1.36422375989608158 -0.616269310911299661)
(0.231049799674060807 -0.043107013975843593 -0.651642080541726787)
(0.480340271377285966 0.150498599498651742 -0.544268753422500029)
(0.672495032916624491 2.29537387003504545 -0.654685394015362521)
(0.7208863409788 2.73367580082152761 -0.591900348662549924)
(0.749077609051637894 2.71347989859917416 -0.632578618191653286)
(-0.238915003412819071 -1.16687083292569893 0.208636098295852473)
(0.107007194116906415 -0.800875696117763658 0.0584964084492480413)
(0.0885631744653000152 -0.941838381612417841 0.102757859377470603)
(-0.320395730357900033 -1.09783137072571502 0.0328344257382130467)
(-0.654658096900324615 -1.21816270995865183 0.386272337013097045)
(-0.307236234813654752 -1.15602094811560963 0.430461604855157165)
(-0.021580118162644206 -0.515291960729485243 -0.515665215102217189)
(-0.587187628828291897 -0.706255552263371666 -0.253012682604979)
(-0.0706657426632656127 -0.767607431709565025 -0.207907009809077975)
(0.246758995419946336 0.886972051887527035 -0.690058163645789757)
(-0.329066824714070505 0.0722125480590697227 -0.622195987763646041)
(0.107053241754028888 -0.248552646252519938 -0.798996084547496044)
(0.370525039570879788 1.74649808444041632 -0.611513125643865285)
(0.637251986784315383 2.14507917008077653 -0.60277931752503211)
(0.657337229107113563 2.37893529467268428 -0.614711208228471251)
(-0.262053421860040159 -0.676542309281347176 0.236132647166495346)
(0.315413782400446152 -0.493728866040520908 0.0462694407309139008)
(0.207729948333256698 -0.633995406823428143 0.114633073034009048)
(-0.799946640032675238 -0.581920831845781805 0.100425228669905525)
(-0.770137027775604222 -0.582646610872042725 0.364619254752079791)
(-0.344687315992806054 -0.735145424014646887 0.450768997385789738)
(-0.835498818276563027 -0.0489910278562102897 -0.359543455266406464)
(-1.32393301236774841 -0.40548484293807302 -0.120894503626436001)
(-0.644711769585741723 -0.570510375137957881 -0.0442918833869782591)
(-0.386174956795372615 0.86741547561895449 -0.543650949761721014)
(-1.07880558253886516 0.131144187873239254 -0.352014330042104751)
(-0.522141254251380804 0.0490548899972522712 -0.597659083901753818)
(-0.441019034278852362 1.10429070223572312 -0.504493658426146019)
(0.250431463352030925 1.57264214793862078 -0.591605288162450504)
(0.269467540272993578 1.88897164632204673 -0.56961702145733395)
(-0.158939247840110459 -0.180443276356055227 0.174756048316499907)
(0.0895654422099689818 0.10886841105526783 0.170517971227749754)
(0.405081741183879407 -0.384882281855026487 0.078181047836064721)
(-1.17063720678873051 -0.0650118382815254164 0.143299522455738099)
(-1.0125679441574813 0.686589526693082486 0.310219685506038678)
(-0.397289712289621677 -0.1955237568608377 0.386581033171679522)
(-1.48521708682837916 0.103714705984746858 -0.113365378402133329)
(-1.6144080932496252 0.123877785821284211 0.156613234815493024)
(-1.24778255580218067 -0.173223356060094175 0.0951661396141075533)
(-1.29636017520766611 0.536482241673530535 -0.312857038706529811)
(-1.54436550628301372 0.103583249315306408 -0.0149305431745153372)
(-1.2036486083075677 0.0841724393696102885 -0.15729426717150724)
(-1.20302685712081714 0.505519368078244602 -0.230735585017045913)
(-0.634175001354924328 0.905922162287888133 -0.483742939099812808)
(-0.616721284941630588 1.19972987179268542 -0.466332876088156212)
(-0.898379816324221481 0.810435023224648221 0.305981608417287443)
(-0.862371056797760827 0.94571955066233182 0.23245113381136312)
(-0.713861102179365936 0.243773424870036393 0.349651029790952528)
(-1.39064648505317456 0.594986722670372226 0.323533397865795436)
(-1.45290140756354624 1.08566138322372319 0.281343268952233716)
(-1.37449717469099153 0.76864047463896612 0.51624211020312738)
(-1.59409678183281489 0.0328420483594789106 0.255048070043111808)
(-1.53307138213888972 0.211054954295914865 0.314620866173887292)
(-1.64470371766545975 -0.122872271020639079 0.471538059319137171)
(-1.52897198112140953 0.100517946163979827 0.0671909105149664371)
(-1.53414969329098172 0.0639266574348979766 0.184224949281641542)
(-1.51305656589199922 -0.178985872755264008 0.218451150722498683)
(-1.3393625598723824 0.211421091804545436 0.000726992458644923345)
(-1.20522294318327483 0.146656606564351394 -0.0245091567442284122)
(-1.17164293356945004 0.429409316756699133 -0.13762673451487506)
(-1.59183000403076513 1.17488524340831368 0.207812794346309421)
(-1.38608575589601712 1.30414315911739687 0.130482901401283241)
(-1.43181253873805225 0.782589228783853397 0.197378917730488629)
(-1.50696364570325692 0.66287509027667979 0.272430737260325684)
(-1.46108101187954631 0.799757410320317663 0.18443030911774172)
(-1.53516907705165861 0.736075390947659947 0.304807679879625981)
(-1.4657816421912917 0.145973124896693673 0.243797745412416944)
(-1.20726261664712697 0.0638457891184658066 0.221352710135277908)
(-1.3308507514534238 -0.0239796431745330427 0.288935889026567416)
(-1.34490106380717012 0.123037240787850055 0.117761031225319543)
(-1.27739866518195555 -0.0209102836787635471 0.151541590454478792)
(-1.30660414234452493 -0.19223203938303815 0.205988992748822791)
(-1.12936718316653772 0.0849617228530802626 0.0275082455849304415)
(-1.12359357322353759 -0.0508870325663789147 0.0253131721712079594)
(-1.140257541190558 0.313591720571867794 -0.0793267196305273287)
(-1.30499124557988999 0.912101212411492668 0.107100416172715734)
(-1.11830981446639055 1.18305194867827357 0.0498666173952565586)
(-1.19109098179689399 0.877512591626813609 0.066961079421860345)
(-1.08446196197558842 0.288709169039612856 0.133352281992694249)
(-0.926031064997340447 0.28551204626956489 0.0631919946149872014)
(-1.10802595027368289 0.295445493880182486 0.153233826479033552)
(-1.06940157253260648 0.0166088447329343636 0.129096555177339783)
(-0.760284054735526293 0.0230656681130136723 0.0978350066489036135)
(-0.913868632927323898 -0.08314903214938002 0.154317378060998905)
(-1.03428015257166739 0.00709907281277379759 0.0612888048140902697)
(-0.809994119342336782 -0.0382268383414718915 0.0644752612571184158)
(-0.939172037304570884 -0.206288986117301482 0.118325271360913239)
(-0.761115346733074571 0.016399521767367458 0.00194081583649670028)
(-0.885893064555692833 -0.148431588087869742 0.0224092876669475249)
(-0.924051636469022664 0.145683054679045604 -0.045520780289075205)
(-0.757257658741173678 0.545254943681277471 0.00595819583752827103)
(-0.634127819434482376 0.679561990004684424 -0.00363498357225133881)
(-0.676328508143510199 0.500720297130321512 0.0286581536582001146)
(-0.548499664216824168 0.0271035934145422847 0.0276747192711961666)
(-0.41302321426235955 -0.0663581291859342559 0.00987887355740020914)
(-0.528491078229237465 -0.0484860809507608112 0.0212827925828495239)
(-0.528379189218830203 -0.0288451190259434373 0.0332137127286820516)
(-0.395060952476080474 -0.0375609426033093607 0.0238165462189475902)
(-0.483610855478158241 -0.0767608783341805212 0.0448200951499707831)
(-0.54252074605841849 -0.0553749333838689517 0.00512727227952516559)
(-0.411294392320727731 -0.0522700849405730028 0.00736346889676099681)
(-0.491193933667589289 -0.121115860354166646 0.0417401847975609197)
(-0.429733697092037348 -0.0034044926753630262 -0.0239725133342202149)