/*--------------------------------*- C++ -*----------------------------------*\
| =========                 |                                                 |
| \\      /  F ield         | OpenFOAM: The Open Source CFD Toolbox           |
|  \\    /   O peration     | Version:  2206                                  |
|   \\  /    A nd           | Website:  www.openfoam.com                      |
|    \\/     M anipulation  |                                                 |
\*---------------------------------------------------------------------------*/
FoamFile
{
    version     2.0;
    format      ascii;
    arch        "LSB;label=32;scalar=64";
    class       volVectorField;
    location    "0.360000000000000098";
    object      faceTraction;
}
// * * * * * * * * * * * * * * * * * * * * * * * * * * * * * * * * * * * * * //

dimensions      [1 -1 -2 0 0 0 0];

internalField   uniform (0 0 0);

boundaryField
{
    inlet
    {
        type            calculated;
        value           nonuniform List<vector> 0();
    }
    outlet
    {
        type            calculated;
        value           uniform (0 0 0);
    }
    top
    {
        type            calculated;
        value           nonuniform List<vector> 0();
    }
    bottom
    {
        type            calculated;
        value           uniform (0 0 0);
    }
    left
    {
        type            calculated;
        value           uniform (0 0 0);
    }
    symmetry
    {
        type            symmetryPlane;
    }
    interface
    {
        type            calculated;
        value           nonuniform List<vector> 
104
(
(-4.63465358719280829 0.00515735321038177617 9.48659708186215859e-05)
(3.54709692349290862 -0.0002477368559245891 1.93423720546854921e-06)
(1.15727050952840171 -3.2134052607952243e-05 -5.62456486661538948e-06)
(1.046167909800924 -2.32154304804131811e-05 4.87133990555139798e-07)
(0.71661485982864559 -3.63631500019230504e-05 -4.82239176725652994e-05)
(0.701935476685853654 -1.39383236603327822e-06 -5.61578199685799711e-05)
(0.814405271587090085 4.24600180978039494e-06 -6.37786414268848713e-05)
(0.950316457115566782 3.07138390058870524e-06 -5.88425975662262276e-05)
(1.0440956166219626 -9.03964812397284487e-07 -5.23518274851305003e-05)
(1.14244689090966478 -6.31674660084702349e-07 -4.78366688876967846e-05)
(1.24324241828041449 5.21908964418552589e-07 -4.73332089859242376e-05)
(1.33651084917831731 1.32029265361317712e-06 -4.4357499142616483e-05)
(1.42992048263593463 1.8092853563536674e-06 -4.30032714986696915e-05)
(-0.387005490722862222 -6.37017076678400232e-05 0.000166658732305721328)
(0.435874903302266359 -4.95176246129744817e-06 -1.14665772430715728e-05)
(0.4156127364013803 -8.06523966430935864e-06 -8.42595065778585126e-05)
(0.429928810939224693 -3.46362287356772641e-06 -7.97308689001942242e-05)
(0.557449876958941548 1.27171197972128982e-06 -3.99183111154367709e-05)
(0.644432815438071627 -3.36402216719095802e-06 -2.93711185778194763e-05)
(0.742087492701089091 -2.18309349205601811e-06 -3.124826390057809e-05)
(0.845296190913507717 -4.10263666400975954e-07 -3.23594639929724952e-05)
(0.946165950224100105 7.30089911362907074e-07 -3.19068606444544825e-05)
(1.0461503198483606 1.77958011951187669e-06 -3.08968422310014975e-05)
(1.14554671500423622 2.85008047710189663e-06 -2.96812041758992636e-05)
(1.24321823791102348 4.82590421686616899e-06 -2.83994846568370701e-05)
(1.34111355901208618 6.50628606901372028e-06 -2.68101391972369676e-05)
(-0.227272555132982279 -7.80462943969048215e-06 2.75087480859774874e-05)
(0.0335805844125968561 1.19373858281774306e-05 -2.07993910447151351e-05)
(0.220770437081422549 8.9960111563947658e-06 -2.80836092669288211e-05)
(0.345377965099483319 3.64515877626605921e-06 -2.53221334506698457e-05)
(0.461677842297444796 3.08330235927515067e-07 -3.22545638447059173e-05)
(0.568204378889952677 1.17376746625428652e-06 -3.20970956758607898e-05)
(0.675039813049335691 1.84445543563556492e-06 -3.03412261718598895e-05)
(0.781087391501240069 2.47136366563248244e-06 -2.91548966380204423e-05)
(0.885796226079495819 3.21166045324341535e-06 -2.78680510822848236e-05)
(0.98899082681734185 4.24686066194715676e-06 -2.64530513341676455e-05)
(1.09124546496366248 5.50833929705877222e-06 -2.50377168197387399e-05)
(1.19239674834109133 7.63679621560235204e-06 -2.36097217051050242e-05)
(1.29367548690123546 9.14101532491708207e-06 -2.21472856923982799e-05)
(-0.215515763298214619 -2.13736187388718034e-06 -1.13450081053389702e-06)
(-0.0234440026237830515 1.38320422685017894e-05 -2.05221227638071471e-05)
(0.142313943279917698 9.31476496656872113e-06 -2.60041786701108824e-05)
(0.273288137743766923 5.86207384715876686e-06 -2.59720312596756931e-05)
(0.396665551500057056 4.17085944494148391e-06 -2.31200338423888511e-05)
(0.514610861233199102 3.64832842897473933e-06 -2.08729294742126159e-05)
(0.628323740657016128 3.79035734181325656e-06 -1.97724100578201779e-05)
(0.739259262496973268 4.31388718255912029e-06 -1.89270653643710984e-05)
(0.84798702088722433 5.11584244287781816e-06 -1.8121261482968773e-05)
(0.954829982759318963 6.25278629106752548e-06 -1.73073136316615169e-05)
(1.06023631507704441 7.56723897443380483e-06 -1.64721863852238146e-05)
(1.16399965775970804 9.763750594485281e-06 -1.56230561821025317e-05)
(1.26754582036328411 1.12893972788823122e-05 -1.47591523632181256e-05)
(-0.202666428898709755 2.95663822513792773e-06 -7.91121043953031803e-06)
(-0.0476560411530497149 1.04235702434467618e-05 -1.59636071903877615e-05)
(0.101220627522307524 9.67487227911636817e-06 -1.75082571332210934e-05)
(0.233177757847877865 6.78518868439971812e-06 -1.71215451001026469e-05)
(0.357042595377138228 5.40219063626458519e-06 -1.71341724284924257e-05)
(0.476419393350699327 5.16628869071174001e-06 -1.68849664321451699e-05)
(0.592730722912650609 5.42012361833072646e-06 -1.62534261803355917e-05)
(0.706465220158705831 5.97790327494769582e-06 -1.54947519876772307e-05)
(0.817952793504163167 6.79480842175977806e-06 -1.47024739458596369e-05)
(0.927387411731088629 7.94322028711174824e-06 -1.3906940422762179e-05)
(1.03505053394626589 9.25794323653800869e-06 -1.31262163190071348e-05)
(1.14077741604663307 1.14287770391650401e-05 -1.23671188363512178e-05)
(1.24585097336871131 1.29937551271209931e-05 -1.16321582496405134e-05)
(-0.202163016160541553 -3.62872529498601426e-06 -6.37619488307897079e-06)
(-0.0667155259451728544 6.37102420581522357e-06 -1.01766680647465406e-05)
(0.0701252203666561796 7.72939849280918846e-06 -1.17135716523927023e-05)
(0.201229979921923596 6.9280125948438203e-06 -1.1964624852539115e-05)
(0.327128973000035517 6.40846345555005793e-06 -1.16359398025362854e-05)
(0.449138858010215414 6.39710654900474938e-06 -1.11568130888551608e-05)
(0.567887928889506344 6.69755187016260676e-06 -1.06626517608694877e-05)
(0.683871144334914804 7.26061596715127457e-06 -1.01604406948644553e-05)
(0.797424579578798753 8.06809709787992561e-06 -9.65559232187548386e-06)
(0.908720303834492316 9.19809650402564233e-06 -9.15497682550705734e-06)
(1.01800621430430849 1.04955108757752472e-05 -8.6654782848144356e-06)
(1.12518052090380505 1.26074087108199823e-05 -8.18698613767786663e-06)
(1.23136424755676277 1.41935235558739709e-05 -7.72695256416641928e-06)
(-0.207025793074379266 -3.01542943158286169e-06 -4.13662645076328377e-06)
(-0.0790539350292851217 3.77947421736964639e-06 -5.94083157819072041e-06)
(0.0514980574507297797 6.01601791139337898e-06 -6.61636869029791971e-06)
(0.180491544584886865 6.52689561242727973e-06 -6.8217428034546913e-06)
(0.30642202932625151 6.69475716745519381e-06 -6.7916951421645176e-06)
(0.429355145511970959 6.99069303545149914e-06 -6.63427488693046898e-06)
(0.549510888728811819 7.45298511595858544e-06 -6.39395657003453259e-06)
(0.667057070031823018 8.09265652437020579e-06 -6.10782852267639404e-06)
(0.782140023657960093 8.92585361890655612e-06 -5.80360782437303184e-06)
(0.894852069451179122 1.00506084888567139e-05 -5.49596304847765562e-06)
(1.00538269958124915 1.13377450748509951e-05 -5.19553158974602912e-06)
(1.11366539122179109 1.34014368056937688e-05 -4.90363874998990771e-06)
(1.2207032968708138 1.49939290964834256e-05 -4.62753065543984905e-06)
(-0.212356533159930361 -2.3982513363187106e-06 -1.48850333580405529e-06)
(-0.0866808908242608089 2.73980729309006003e-06 -1.97496492334449049e-06)
(0.041442861891860007 5.23571047541902434e-06 -2.16209652111708409e-06)
(0.169379924021775208 6.24990031781516192e-06 -2.24432249453307205e-06)
(0.295468638930477534 6.77934529331481368e-06 -2.24432053911790648e-06)
(0.419076188034366415 7.26401867827668292e-06 -2.19285554659416111e-06)
(0.540090691377118293 7.82168436282784493e-06 -2.11193160979995258e-06)
(0.658528573289609898 8.504720323429307e-06 -2.01604297536623628e-06)
(0.77445674186837099 9.3524429602532565e-06 -1.91431275153332436e-06)
(0.887936096889044402 1.04663058037529962e-05 -1.81171820146591176e-06)
(0.99912738925705713 1.17517089411604727e-05 -1.71245175139550415e-06)
(1.10799929851569812 1.37657331643989354e-05 -1.61700136257683283e-06)
(1.21547658925943747 1.53762459731883573e-05 -1.52761498441992477e-06)
)
;
    }
    procBoundary3to0
    {
        type            processor;
        value           uniform (0 0 0);
    }
    procBoundary3to1
    {
        type            processor;
        value           uniform (0 0 0);
    }
    procBoundary3to2
    {
        type            processor;
        value           uniform (0 0 0);
    }
}


// ************************************************************************* //
