/*--------------------------------*- C++ -*----------------------------------*\
| =========                 |                                                 |
| \\      /  F ield         | OpenFOAM: The Open Source CFD Toolbox           |
|  \\    /   O peration     | Version:  2206                                  |
|   \\  /    A nd           | Website:  www.openfoam.com                      |
|    \\/     M anipulation  |                                                 |
\*---------------------------------------------------------------------------*/
FoamFile
{
    version     2.0;
    format      ascii;
    arch        "LSB;label=32;scalar=64";
    class       volScalarField;
    location    "0.360000000000000098";
    object      p;
}
// * * * * * * * * * * * * * * * * * * * * * * * * * * * * * * * * * * * * * //

dimensions      [1 -1 -2 0 0 0 0];

internalField   nonuniform List<scalar> 
7236
(
7.27200683120110014
38.2423758756299321
58.833405482969475
64.8031280022808289
67.8797644614808746
71.393135099923299
76.9286538158577571
83.8796628519374678
92.2725889794569696
96.3786285574795158
96.9739308601215697
103.568298993374384
107.08454876545278
104.863897000256742
104.39519919310338
105.281760863648287
99.3915726189732283
90.5139530976800586
84.5102353518902731
78.4539481182235647
70.9739971989562832
65.2771848062552067
60.46752862038079
54.861914193176105
49.4833111930612191
44.3674816515057984
39.6248816805850979
35.0830303568225901
31.5753308005893594
28.7846129737131058
24.7934342217064874
21.0934872177233679
17.9727220412725472
15.0451717635972244
11.9739049311752339
20.0051697303135647
77.6693724710658131
187.544477511937259
-0.144874936179965275
4.1333100983131903
10.2248511516902099
9.20193529592730997
8.98812764756781846
10.4548342270801644
12.9747457740848908
15.8755518719585247
19.4437936468181647
20.1529823009980902
19.4642591353477741
22.7237568157579375
23.2286465145868846
22.0266901264512924
22.5887683172468599
24.2828064581443499
21.5175501765823967
17.5743895527359939
16.2848896401200847
14.2269617122818204
11.9761662673588241
10.6864681861480086
9.68156044337639443
8.12439085665687699
6.73789320121796109
5.81695392041740611
4.60486467317505088
3.42912188729699885
2.74902440189854591
2.43234877133689142
1.93718790473994495
1.27331531869793979
0.839848226939532427
0.652079013874251601
0.271738269653188647
2.56104493912884701
28.3971893236107533
136.84505509715882
-0.00407533162703527241
0.0691607460317298361
1.3013074109424474
1.51294348261589917
2.32027125214828489
3.06147765396395721
3.35515883436403328
3.27180158595362158
3.02273555993617737
2.88522522320905317
2.6146267509103609
2.05248131842788606
1.96890738538997834
1.69411522004485615
1.63676223220888195
1.6201443726701501
1.63709577814483254
1.472395783529727
1.1182866362902808
0.976401947986331731
0.907538851003621971
0.775106760664930672
0.647405193268398627
0.552722928624157728
0.451386679749218755
0.366780266406705691
0.311617268373802436
0.268757129094469138
0.235203467567351887
0.195743222717669307
0.161423055236025403
0.123275761169840292
0.0833120876391162946
0.0514602470062334727
0.0670962022375187761
0.655390455035524511
7.05778613679961353
68.1075196157445646
-0.0864028825624916785
0.124256013080401961
0.224917321555978156
0.151877769058922307
0.301986607221781611
0.608966924079826555
0.670006464798729162
0.634206252957909333
0.631338349506062047
0.646049729858240607
0.608386254229700496
0.509909734145084226
0.446302496208902166
0.387181608385909204
0.367782368173283025
0.346225064408515415
0.322878922032675764
0.280583311976996708
0.219769735253050547
0.177731589818322933
0.158710734570711276
0.132533905280155517
0.106770200544412885
0.0798334309482635618
0.0489137570934445876
0.0266953381665270273
0.0126930154916624627
-0.00294408176328753157
-0.0204599460633130281
-0.0434434408081046941
-0.0702892963037978769
-0.092421814332340535
-0.110836329958580282
-0.118836788734433263
-0.0798770311771927477
0.16402172916216784
1.51377987513491963
28.6996339447552735
0.0804480123416153603
0.0523902691915514307
0.103370536525446144
0.0470619325040969594
-0.0629041217045255285
0.0728761678614778807
0.102972747124584929
0.075376379442253949
0.0564298465290569151
0.0549260587644624376
0.0360685768799742235
0.00856886933949030372
-0.0196734902810491441
-0.0359707232418504663
-0.0395866899949928186
-0.0489033429967538069
-0.0591844916991217662
-0.0716501722397683283
-0.088173862044544804
-0.103970567373885658
-0.111565241823909256
-0.11849588416146728
-0.125788734576284256
-0.136790590299386228
-0.15378643595020336
-0.173441117663614919
-0.189995949567246414
-0.206318677476660328
-0.221542932715940166
-0.237016703398297279
-0.254497640338112452
-0.270721387492743271
-0.281998092861532601
-0.277215578190346146
-0.24714763788234223
-0.0966079101464946688
0.126771327213383911
12.4231034289885862
0.0240757538542530902
-0.0261375190223323006
-0.0062591552365089953
-0.016832162372922066
-0.0726021021847305104
-0.0664245095581572631
-0.0827018260602119248
-0.106314441900599355
-0.127354109743413102
-0.143659058708376364
-0.167958720361423675
-0.192323563172268619
-0.214074854523800817
-0.231328714355661491
-0.244621083054566091
-0.256461080148695619
-0.264441788398195543
-0.270507618798197624
-0.275510715953844465
-0.28045441720012787
-0.285245440524035998
-0.29215644880947178
-0.300266224703104601
-0.310868733298615196
-0.324934755756860594
-0.341294276662036378
-0.355959986797571848
-0.369827112205168784
-0.382665257944113824
-0.393862295053836076
-0.406207585494501422
-0.418958664856036944
-0.428853951129677613
-0.427506546623239447
-0.419526846042741319
-0.276068866594329998
-0.533849686180979943
4.16015953228646396
-0.0602894369914616091
-0.0983878967412582517
-0.123354506487896587
-0.130083645383549218
-0.157433722289802347
-0.172290473232534658
-0.194873278076151402
-0.221874649714299932
-0.250872843202629592
-0.277214685508182734
-0.306353616890586267
-0.331284651552396503
-0.350800374285593408
-0.370286054813234955
-0.385912858829441485
-0.398168023177525032
-0.407188020745498924
-0.412636405740318013
-0.415655700970356534
-0.418588302049601457
-0.424123341905777773
-0.43273676082287027
-0.442941689608029876
-0.454721937911993335
-0.468766722565010119
-0.481858912695185382
-0.493028411458821814
-0.503795408195440109
-0.514238447052466352
-0.525520720368309879
-0.539070785446558398
-0.553782503676281124
-0.566497439376963063
-0.569728871133927339
-0.590068192960023663
-0.429194512049255794
-0.872223562852469492
0.973241937022022441
-0.174466062300413727
-0.185096738237070957
-0.220756003330410677
-0.234546401596522402
-0.259739075187363055
-0.284158202226429957
-0.311550505617961604
-0.339760201723319111
-0.36773341537675297
-0.393479703114330337
-0.422868689144844434
-0.44863014576684046
-0.470667494962523913
-0.49042478284655594
-0.507120266599751401
-0.520242082314526622
-0.530393013532858726
-0.537476745862130012
-0.542548740597154855
-0.547195833588840608
-0.554360330387648759
-0.563952763417157055
-0.573907589250359784
-0.584537283958111775
-0.596360723788246228
-0.608085452746802257
-0.619241556641467628
-0.630231369884738157
-0.641491131989149199
-0.654306331769333394
-0.669732916784364973
-0.686936440758594724
-0.703202378977444753
-0.712373803928759042
-0.752689962750637598
-0.581645098351045609
-1.05539036269886188
0.0557993682644983835
-0.278896260821975717
-0.276523518160146753
-0.314808271970633768
-0.336731460955212891
-0.36488117805969944
-0.393839948211565649
-0.423596875996591793
-0.453654569003469454
-0.482904327541049061
-0.509991675282159829
-0.538333794873598226
-0.564396822223779626
-0.587305238214216985
-0.607720806559716609
-0.625041120722587662
-0.638776488753163729
-0.649522424486435046
-0.658069429399872341
-0.665556983691971693
-0.672576224895628405
-0.680918098455277843
-0.69071912773685451
-0.700693238101610882
-0.710976048504066593
-0.721946912761262327
-0.733114262907401004
-0.744196159756147058
-0.755483463664341603
-0.76767283273843856
-0.781920941244917622
-0.799138045887064385
-0.819246327714746703
-0.839838498279163792
-0.856574326640615835
-0.911831574595200145
-0.744345221944911817
-1.23598783734729012
-0.551258049134464301
-0.392189306851329578
-0.375030802474694891
-0.4134793947466473
-0.440563931465500325
-0.471955507748290537
-0.503646621556457341
-0.53523569156142492
-0.566400359823630684
-0.596962373638447952
-0.625768517553726311
-0.653686807527868119
-0.680049039367536912
-0.703960416191210081
-0.725322990690913771
-0.743524432530304091
-0.758119885801194049
-0.769884582606970458
-0.779708367118127521
-0.788539318140258572
-0.796981573919218089
-0.806153697502593136
-0.816146532072361985
-0.500237868422179655
-0.477620076889699319
-0.514305088384633735
-0.545457895564955608
-0.579674139489415596
-0.613422279081184851
-0.646665644053563859
-0.679191995609920163
-0.710812218530270878
-0.74094491540036711
-0.769628659986144714
-0.796612749876965731
-0.821359827403293608
-0.84341618875232971
-0.862259644014473858
-0.877750099264117178
-0.890614630485030423
-0.901650254746503732
-0.911577134831188185
-0.920998117737431787
-0.930674998628042927
-0.940707056784867213
-0.598379814807604049
-0.58032857766773227
-0.616803766181309054
-0.651217977086156141
-0.687825577432675472
-0.723387069405048599
-0.758238065589120658
-0.79221095490522464
-0.82506316064286378
-0.856378508903045232
-0.886040644473950589
-0.913809913613157998
-0.939275382996423325
-0.961954760921539309
-0.98143657738611334
-0.997713346823114078
-1.01152000894416649
-1.02360535113484952
-1.03450071001585919
-1.04466836000178764
-1.05470454076341524
-1.06479681224103961
-0.692834477685641548
-0.681325442230996225
-0.720004326948495477
-0.757433570930163502
-0.796313525345809459
-0.833700711306509024
-0.870194814975165265
-0.905595146589094013
-0.939757160667881952
-0.972240400582464748
-1.00286263500091932
-1.03142697775928749
-1.05758052927280821
-1.08087503078795089
-1.10098753998499843
-1.11805522424090631
-1.13273448823757872
-1.14570051026841746
-1.15737157914206357
-1.16810749485917631
-1.1784177457733247
-1.18858815328254064
-1.08852601885732225
-1.12008481803978954
-1.14939994466981776
-1.17622240475831741
-1.20013286213209325
-1.22089328901377758
-1.23870650779688773
-1.2541824643088717
-1.26792246479541371
-1.28022878229531667
-1.26774295436652329
-1.29519524856191337
-1.3197107346830248
-1.34110874064616969
-1.35961498065211051
-1.37580900277014728
-1.3902315020252618
-1.40308202664287318
-1.43961624086844608
-1.46162283208985988
-1.48077451730349918
-1.49760725224088809
1.2409169751624245
5.52112850907982633
13.3518389488692932
17.2624016358108747
18.563019348841987
24.995439657451719
31.1512637993832726
33.9846266120777543
37.0961073185563919
45.72154934617636
56.5555483358973419
55.4220838036836483
52.5308628865787384
55.9217826635385862
59.2834094868662973
59.1577647510112286
55.6757562304886733
53.2486443052108598
51.92769793103664
49.1304702880824919
46.6188296809573828
44.0393005857256838
42.0103373510654592
38.7150734392888793
35.2345066831929259
32.1889001891981223
29.3546509245578591
26.9741638888882349
24.2457673512610903
21.6022267687815273
19.2423797245357022
17.7147250265940883
16.080459175385748
14.0540238265114095
11.5348273697817376
13.7956210627800857
62.4152024147464459
168.536193047416219
0.472528623745225362
0.865513615197826214
2.42044753397324408
1.84747259507144568
1.84775115199192985
1.95183539959505703
2.24500759190024546
2.63907266608771929
3.3328852968133007
3.75838738911566894
3.32212758638758121
3.47958125519041905
3.46058543433595123
3.13707737819513488
3.18635348768324977
3.37531130158641801
3.29681312099461188
3.08170092662345674
3.27211128584953492
3.20625849668045504
2.77002042669568649
2.64255538290946657
2.3759040733685417
1.950936632701187
1.66388942118172878
1.30526847528475276
1.00317672073318764
0.803655774651247823
0.628722583329888174
0.559287713055527269
0.523025053767985915
0.419335055793740086
0.283657134699650815
0.14314010598655591
-0.0266177723731543803
0.889841762019021876
18.3224293155158477
114.691034082137833
0.380836155496387274
0.194452182416540692
0.456813997214118528
0.375557006844641939
0.424849965794390605
0.552406250797484288
0.666482711633740621
0.75471950426399026
0.839140171144309166
0.909637152943550964
0.894385112119212788
0.904030982131304839
0.908399921967506518
0.886243548006772963
0.86644011629373141
0.879218069973484395
0.854817979806496986
0.774343153762754088
0.688982624301922586
0.616682827505370179
0.540759979551328707
0.456360426079386095
0.401873846893437303
0.363190536052568458
0.320075260754109636
0.30062408634758031
0.281153132241701464
0.243761931150549338
0.215371041047113909
0.193020465695033172
0.173792771487771724
0.138763582744450886
0.0988572968648772088
0.0658728527145765463
0.0719952355534266286
0.339979970307205726
3.21098578206670382
50.6791268122160687
0.330694525918849014
0.186700961354509865
0.2353675860324691
0.194366965677893466
0.155037313425205492
0.163496574662791661
0.188866672578180905
0.191855198749820044
0.203800416442070031
0.226364555299932491
0.230285395329348441
0.212617710930727899
0.18779953128809268
0.171265586447841622
0.167014800730228563
0.166618506019378332
0.159535888462903896
0.143482446590566193
0.121795141070040303
0.103144991856461532
0.0826728078266202315
0.0625619237798883399
0.0533170622847569664
0.0495118540129098061
0.0401288255554148598
0.0325677899017063899
0.0207995955396860221
0.00104877583472651192
-0.0159015897223875324
-0.0334382079983007729
-0.0558878202667413282
-0.0770244367916250727
-0.0945149462494740966
-0.100774893587545489
-0.0827733911114429954
0.0476327302755975013
0.504110253586603663
19.1123536843505164
0.201192611428957946
0.137906544722576574
0.137575513158269103
0.104166613918446505
0.0723790968717972216
0.0618860645184339253
0.0548929817091319272
0.0347850410905100604
0.0212315397255441463
0.0132958922843456895
-0.000881182988011208757
-0.0238950387546653653
-0.0492510327165152084
-0.0680164638092582985
-0.0771164093902624304
-0.0842368840429192911
-0.0892007901142523041
-0.0939053449335776058
-0.101872565143912297
-0.11166271672103556
-0.121597383894834432
-0.131899805276406101
-0.139654742659121256
-0.145583422409118257
-0.155119912615397815
-0.167062272637370945
-0.179973592924871917
-0.194739715295856208
-0.208352734267608863
-0.222778488506090944
-0.238726291343552832
-0.252857657983997564
-0.26282851752344305
-0.263753375542329582
-0.254159392023888542
-0.137211549145699829
-0.241474684709215848
7.21333353261542598
0.0886182775003924172
0.0456280713104112445
0.0329738798930065968
0.0126205371501476593
-0.014970102126090401
-0.0357609533279599212
-0.0488581248875215035
-0.0697956438746825114
-0.0941190241814355844
-0.117010980150729194
-0.143053101005592098
-0.169574682822201006
-0.195445160356491621
-0.21747054784181441
-0.233440002597408602
-0.245206125184074142
-0.253379577507476861
-0.259742344528442803
-0.265825398110029809
-0.271450552363516173
-0.278073126633716139
-0.286220530786838956
-0.294570015497350124
-0.302352915201877681
-0.311542562178742932
-0.323301769044097798
-0.334467845163604061
-0.343667612376843679
-0.352486534553032027
-0.363341714371984537
-0.377294248372677443
-0.391872342429491538
-0.404491852805059393
-0.412240346510896638
-0.429991299286532902
-0.292311354250087418
-0.727208632282480338
1.78308017857338896
-0.0201507380956623683
-0.0466872639740583129
-0.0676412517128336388
-0.089893523381121665
-0.117048209465614339
-0.141875321880914118
-0.164300053826603287
-0.189999899538383366
-0.216325742017300593
-0.241832268874955458
-0.269366836415199762
-0.295558596225036996
-0.320607887861069918
-0.342824932025796281
-0.360269285512716919
-0.373952690868459059
-0.384082972108557685
-0.391421612349330095
-0.39714955410858116
-0.402553106535343208
-0.409097945202332447
-0.417068670368771932
-0.425472424129010929
-0.433543675623315805
-0.442376681243502989
-0.452488230701820981
-0.462405380782834607
-0.47177179376379702
-0.481566853499949044
-0.493970584638378007
-0.509533419990282122
-0.526608100813185542
-0.543937243761644096
-0.557545430444446266
-0.59966105362704325
-0.450200965735525482
-0.997649724379526703
-0.123010335381753322
-0.126650794206625505
-0.144227274459688748
-0.168891814836170218
-0.19447017983904169
-0.223046630988764094
-0.250750359811069412
-0.277718499747302117
-0.305750572887348526
-0.333666337116794387
-0.360699147014694188
-0.388449349961033641
-0.414638172445473296
-0.438821683798763129
-0.460242179032568421
-0.47790385327469348
-0.492208166661248947
-0.503569135931058121
-0.512495302849034218
-0.519946557357129691
-0.526845776416410616
-0.5343590147939139
-0.542656619302323562
-0.551142557886731721
-0.559614765945971371
-0.56888567148887248
-0.578846853741522893
-0.588692716609079403
-0.598516460286014906
-0.609471722798225035
-0.623148631826909161
-0.640125637894681798
-0.660215140454333937
-0.682237389260779592
-0.703258120827089495
-0.76300731955920198
-0.616604116261306068
-1.18322829983986022
-0.780036712150703693
-0.229451204868647007
-0.243767054156229124
-0.27113493493501839
-0.3001050989335734
-0.330962123808016817
-0.361320699447257532
-0.391055670136832623
-0.420759499104367829
-0.449848468497441867
-0.477926328171410231
-0.505826937197428217
-0.532162996820225165
-0.556186997067383726
-0.577667216826630359
-0.596109782808883604
-0.61137610081949656
-0.623804115815848603
-0.634062316561875727
-0.642873597774558325
-0.650996237733789895
-0.659392015162709733
-0.668158678138405349
-0.67683248025686682
-0.685478865598825093
-0.694682223245788655
-0.704407129155446121
-0.714331643853335363
-0.724720782072213021
-0.73653861412883459
-0.751086649584336907
-0.769434357306256089
-0.792277234478510617
-0.819082750688400529
-0.849096989214965348
-0.922705692150661339
-0.791067937902531493
-1.37234508290613944
-0.811535704350921927
-0.331750500709391716
-0.344774058552646645
-0.374286717269171287
-0.406347988861895715
-0.439721277573567826
-0.472506312521196015
-0.504471793643256339
-0.535761635173304107
-0.566124534147250724
-0.595298254740834754
-0.623537108124497919
-0.650105981733250959
-0.674438783541244979
-0.696244513237582741
-0.715195149912133843
-0.731225379432727696
-0.744677263109114196
-0.75610790911704151
-0.766046729765173628
-0.775153645367761213
-0.784191620485443552
-0.793309075285373977
-0.802250362110830118
-0.432530731159857185
-0.44630815892443132
-0.478027123148560218
-0.513046687658108791
-0.548962653229927211
-0.583979003657996487
-0.617897552946510498
-0.650732312026204407
-0.682359235750598203
-0.712610210238735609
-0.741461067305508426
-0.76848197644052374
-0.79326640869231313
-0.815508776625921028
-0.834972045499456583
-0.851680523443362314
-0.865990085719962055
-0.878369303200087215
-0.889259120929286384
-0.899179394519785902
-0.908718142999547895
-0.918082942052852125
-0.52993707611632912
-0.547188482405207344
-0.581929561243922033
-0.619994047210011612
-0.658473454028249638
-0.695627381224867891
-0.731385207556553785
-0.765744482914473612
-0.798641498779629866
-0.829949185016541136
-0.85956080376137145
-0.887185673731100688
-0.9125216041721671
-0.935299279055798349
-0.955343201725962765
-0.972723346212519546
-0.987800208499744037
-1.00098738539647103
-1.0126454760740502
-1.02318634867464953
-1.03311331111340499
-1.04268192381268143
-0.624864239342822758
-0.646819307366841567
-0.685750781912928264
-0.7270749514679411
-0.768222191218988715
-0.807489179203018992
-0.845042817166109628
-0.88090979346341447
-0.915091628358191245
-0.947456785133229507
-0.977891862138475232
-1.00619891662274785
-1.03215668629743318
-1.05552367783874645
-1.07616459749895443
-1.09419564040205075
-1.10997705733224783
-1.12387707616609545
-1.13617514752299997
-1.14719640173538018
-1.15741653752010398
-1.16715601703396721
-1.06522231495250308
-1.09647990439944776
-1.12549619450144966
-1.15212613422480814
-1.17611740185874281
-1.19735476733763369
-1.21599366141726373
-1.23240962525640541
-1.24694118897793804
-1.25978219165249916
-1.24511963925477076
-1.27241232411886007
-1.29704223022565923
-1.3188623364732166
-1.33806318098653199
-1.35504728219622095
-1.37013282800571146
-1.38343695739459815
-1.4182732857887439
-1.44064873836914065
-1.46037099255119962
-1.47785917714697801
0.684986412719179594
0.919116238429142141
2.01412302568275603
2.90340126001402332
3.54001812362242108
4.17476774635255499
4.81391227864654336
5.10894013742480357
6.37032353719116973
12.1717287443754767
18.9240012684146706
26.3806360498859291
26.5058922870271338
22.8091033967679522
26.1457368897824871
37.5063060100063126
43.6685010521144434
43.0834960675745009
41.1636406969910311
39.3718725261577234
36.3387976356616633
35.2217830967364591
33.2314910040132077
31.2433685907483358
29.270288929138367
27.1759358612160788
25.2918584134156177
22.8133635586256496
20.934881496284671
19.1851090249502683
17.2929493227789308
15.4547963488675659
14.0093988277810482
12.2172563414151227
10.4699588830064432
12.0072221682235245
47.5828548002170066
142.460634376963014
0.442663492336811237
0.423953634473267393
0.544022628582521595
0.595976459400986869
0.666274975744140407
0.894233115667940504
1.2488397623880283
1.4327932498641669
1.39945462254158159
1.34782203277282719
1.46292878387277048
1.17338507448580298
1.07151935126835451
1.15624610697498453
1.05755929353307665
0.849131890780632892
0.796015723788154883
0.75859955734753759
0.776577985468687948
0.756902569887150656
0.727484964678802526
0.646986569006104739
0.603240618897366021
0.541769380780797061
0.491212509512079343
0.436585131020752193
0.398186024425546514
0.389976390981468968
0.355248152463480238
0.314684179885726167
0.297180582734029808
0.274843044373052958
0.220773473973287171
0.149001933353690275
0.000527298655022018226
0.301355671097453648
11.4456970289179463
90.8364692658024921
0.367687083479277033
0.377472926321530511
0.411600601001708699
0.390490051166357488
0.377066405876846533
0.385852934241347367
0.418005687133252035
0.447043159696249415
0.442958568196657021
0.430848661836258473
0.436571696281789157
0.407088980553691471
0.374875712141905515
0.359305877222044545
0.346166294803679553
0.336730910678036288
0.326370541966194749
0.301280042763540035
0.300205193893776978
0.309984604664121921
0.306358891877452577
0.29554084479790621
0.282107691667196292
0.269057783963107422
0.254302177810436625
0.243164301612791234
0.231465440575221781
0.220729075284559317
0.20182279785812135
0.173784718992611498
0.141813168955390534
0.107369392126318186
0.072118350847428625
0.0433192939451613745
0.051608136869362109
0.142790845674779232
1.39987099480241972
35.5615658511422907
0.296731225637924589
0.272276081740530917
0.293211450618581504
0.274409604371728177
0.256280482462723891
0.238544893581136619
0.2187028789989236
0.208437675138636591
0.195969699983467804
0.183862980287979649
0.173164008824010396
0.152898529156372032
0.128122756786454794
0.112686579900751371
0.100552391915642358
0.0881431518216136967
0.0762777428564566096
0.0668869622743543113
0.0626444683935171165
0.0619058582376824651
0.0577051271869920557
0.0530279961139574763
0.0480752079373749641
0.0452564097703768153
0.0381160718598169135
0.0278316395311267728
0.017185075886217871
0.00789091644873418652
-0.00375089478354484473
-0.0213574892563791474
-0.0444806024871801098
-0.0688123886004272656
-0.0951262280985172848
-0.111731597034582741
-0.112739667191828929
-0.0364059554116908379
0.0655425438042502861
11.3345117413854837
0.208619846281926757
0.18723697564729147
0.183872786958489964
0.162829351881931816
0.141135156583845012
0.121508357918295506
0.0974159712114536225
0.0780678055979174834
0.0597318616629175514
0.0430798615907153071
0.0236960122982554644
-0.000385975211747657809
-0.0246065092500199478
-0.0425696555559925693
-0.0573424584271997606
-0.0711602356434579697
-0.0822100763101941689
-0.0910570001421743269
-0.0988972518571020753
-0.105757043154199537
-0.113430065448439477
-0.121947931269467347
-0.128827743151104346
-0.134579185955835623
-0.143117730290936884
-0.154901965957802312
-0.166583765192625299
-0.175675191656722518
-0.183432331610492383
-0.193389414078346977
-0.207951832884556709
-0.224737233558588656
-0.24533768810025347
-0.264391313051893451
-0.283849698060820554
-0.186854539993300539
-0.534631826918651298
3.43549683520847537
0.110234648788894218
0.0908106038775842173
0.0772958088479281935
0.0552442702845732381
0.0314793441705193411
0.00808524014887412878
-0.0157690323461994186
-0.0395261419273733594
-0.0628238392429820713
-0.0856433416882314003
-0.110555561560473192
-0.136858806113358322
-0.161457928731155387
-0.182363464959230281
-0.200012688519610349
-0.215489685631521377
-0.227874276413500498
-0.237884786618595578
-0.246306139012109793
-0.253082226967028867
-0.259429253845492536
-0.266425888325345417
-0.272629019543887463
-0.278511131567853676
-0.285799621272249949
-0.294928377068971015
-0.303082479292378248
-0.31101592069135886
-0.319607906395617147
-0.330735272953853632
-0.346193560880539486
-0.365227071464092001
-0.388402770493594673
-0.412362275287459779
-0.456635350214495528
-0.336446780975643456
-0.95387541910019058
0.653355309037362275
0.00848440002064754228
-0.00913639628076057253
-0.0285384726715325332
-0.0527293378631340515
-0.0788754623513513442
-0.104956316176309961
-0.13098112884453339
-0.157034488235183955
-0.182606889366070058
-0.208247332530965279
-0.234451064385085228
-0.260272143412353607
-0.284269088232306677
-0.305417890820850746
-0.323617900417952187
-0.339416042437807708
-0.352435206937080192
-0.36312264377370046
-0.3720727761599677
-0.379723239832437665
-0.386865436006878782
-0.393917353165842199
-0.400566530392702791
-0.407205163590643737
-0.414817863468827375
-0.423525263324471268
-0.431873534019451
-0.440543955072092874
-0.450445260303382389
-0.463268647442568959
-0.480472741094192468
-0.502358175608157431
-0.528995925465777228
-0.559528613508906481
-0.624612264293598507
-0.499554119323851076
-1.19129010079798681
-0.128952070690591114
-0.0942191210651338595
-0.110941775148556965
-0.134030346990276494
-0.160945261950261043
-0.189673255133291141
-0.218319536997315877
-0.24657992703142273
-0.274467563371330381
-0.301643144002550434
-0.328444407183682618
-0.355141424551758567
-0.380784030098292314
-0.404623016266341673
-0.426085019650174479
-0.444947013914012146
-0.461205841760614188
-0.474791581426655673
-0.486061956276761797
-0.495593352549734023
-0.503964904524955015
-0.511866194699392763
-0.519718697052442336
-0.52719880555606391
-0.534539312854789062
-0.542391983044482107
-0.550791310763647401
-0.559265609840646771
-0.568545896508577675
-0.579627864031048601
-0.593612828443751184
-0.611974011108288307
-0.635931401286185527
-0.666160996891138835
-0.704638817861649946
-0.787313347876538172
-0.678958970587180133
-1.40255748861949847
-0.583596045859692936
-0.196512268243443144
-0.213517689550517975
-0.239497008156549396
-0.269232208738942602
-0.30055502996483241
-0.331626245786081575
-0.362012511938848425
-0.391625043726514299
-0.420284603428054404
-0.448142589356441134
-0.475314048328552174
-0.501107084163157857
-0.525012708424578034
-0.546690667231919503
-0.565919179614484902
-0.582649799354795661
-0.596972216475807782
-0.609215848970849017
-0.619678190411188767
-0.628883345085849088
-0.637475073945899195
-0.645734160060220219
-0.653546347236865222
-0.66118413282282773
-0.669102663737613179
-0.677387814262081278
-0.686079539206333133
-0.695603838327603974
-0.706980515498693118
-0.721545169421973887
-0.740801453530773091
-0.766637839835715096
-0.80064068019560497
-0.847849268219073915
-0.945790643097428663
-0.863203436568237281
-1.59787380620819652
-0.659396156046009096
-0.297840982421503586
-0.316146791905482338
-0.344932968153922936
-0.377574136958858553
-0.41148854065443552
-0.444873827507909714
-0.477267547760997557
-0.508547278742605857
-0.538632440275375823
-0.5675777959075472
-0.595376400617065538
-0.621566202391181766
-0.645769138071116577
-0.667749133251451576
-0.687344809507295151
-0.704543401985968876
-0.719473084328720924
-0.732404873328696304
-0.74363257408921779
-0.753578168463589382
-0.76273602545898278
-0.771337643799462347
-0.77944326509170514
-0.397812458871149799
-0.418250762656686703
-0.450179906572630406
-0.485868052669212624
-0.522412945039731791
-0.558056586769106078
-0.592383752826917687
-0.625278485268530249
-0.656731270163627756
-0.686753743021919272
-0.715281935739635832
-0.742013835229981211
-0.766673887525133546
-0.789080352443692123
-0.809125459291766047
-0.826825393875076031
-0.842326283341622184
-0.855858880091588947
-0.867692086015558917
-0.878192085127169619
-0.887777698317516517
-0.896692310549527249
-0.495576215870947023
-0.519360354390254408
-0.555077713785331217
-0.594050024028566881
-0.633314982031082274
-0.67120172278689072
-0.707422977776651085
-0.741903278271313416
-0.774705441672343009
-0.805813323049823338
-0.835148775490565765
-0.862517327197258266
-0.887727119824244015
-0.910638183814089341
-0.931175904808645538
-0.949390830921528872
-0.965450121264136873
-0.979553364155786532
-0.991915163069326367
-1.00285444019425052
-1.01277715586643002
-1.02195566691862161
-0.591257057642009642
-0.619241665569003397
-0.659592262419717468
-0.702141240694373892
-0.744256848803643845
-0.784401978910963193
-0.822500782800833163
-0.858543149870156119
-0.89267017681911609
-0.924867397609379194
-0.955064542431378172
-0.983138355790498131
-1.00896801991041518
-1.03243832002268432
-1.05349091219577584
-1.07220925238469533
-1.08878940764360821
-1.10341483817224084
-1.11624485358672043
-1.12754865065091803
-1.13774120781663712
-1.14713723344811136
-1.04402517038242504
-1.07508303045872888
-1.10389699849193823
-1.13040759835328952
-1.15448052145476066
-1.1760578221915523
-1.19525767904237767
-1.21231524992675443
-1.22741324295827581
-1.24066401653302916
-1.22485884356168961
-1.25205907693509566
-1.27675713605221319
-1.29885174219409505
-1.31850520089195955
-1.33600361705178861
-1.35152965864047969
-1.36516070053740934
-1.399252284426312
-1.42184604691390426
-1.44192962508165645
-1.45983388206786646