/*--------------------------------*- C++ -*----------------------------------*\
| =========                 |                                                 |
| \\      /  F ield         | OpenFOAM: The Open Source CFD Toolbox           |
|  \\    /   O peration     | Version:  2206                                  |
|   \\  /    A nd           | Website:  www.openfoam.com                      |
|    \\/     M anipulation  |                                                 |
\*---------------------------------------------------------------------------*/
FoamFile
{
    version     2.0;
    format      ascii;
    arch        "LSB;label=32;scalar=64";
    class       volVectorField;
    location    "0.360000000000000098";
    object      U;
}
// * * * * * * * * * * * * * * * * * * * * * * * * * * * * * * * * * * * * * //

dimensions      [0 1 -1 0 0 0 0];

internalField   nonuniform List<vector> 
7236
(
(0.350347641351466677 -0.178934578348242751 0.272452955459857704)
(0.693183257820148668 -0.220549430620791964 0.42724982913571613)
(0.980022377768686059 -0.193607847951448947 0.504271983685068093)
(1.25277179770355396 -0.16204151027152211 0.552880838898068272)
(1.48289129698027189 -0.131944534872586894 0.58997218757182468)
(1.67143353083055657 -0.103279440815196036 0.619237620578407033)
(1.82301204297964548 -0.0778856734122307937 0.643960466633912931)
(1.94736665482611526 -0.0581687625532407437 0.667491727295129733)
(2.05368180836812764 -0.0444626168837017194 0.68673179611350943)
(2.14601836307999649 -0.0348098152490185081 0.700204619173899423)
(2.22436874416633534 -0.0277483804558478556 0.709382268920841219)
(2.29176439199637993 -0.0242838024283026054 0.717206728939093985)
(2.35317951151195581 -0.0228258450311508224 0.723563999708909944)
(2.40806345725436799 -0.0214063771677333904 0.7255343680737667)
(2.45670704433005938 -0.0204542574997078445 0.723895107102704882)
(2.50192307989810603 -0.0206123449753017711 0.720303089822866838)
(2.5446430560454405 -0.0208830340278880304 0.714973756373742386)
(2.58318087685658071 -0.0211612044970814692 0.706738116501825053)
(2.61743901951268976 -0.0218452128734509254 0.696037428379543299)
(2.64886518895296152 -0.0228443182561116134 0.684631744841433409)
(2.67759218715225789 -0.0239447073705708335 0.67303454731441037)
(2.70373582285568803 -0.0254959355997825821 0.660737643367876548)
(2.72758160706616826 -0.0272591209074313154 0.647827551015175307)
(2.7494030231092923 -0.0288604667049498498 0.635509616151569534)
(2.76918639504388953 -0.0303256330222879608 0.624132905852674336)
(2.78733127698605987 -0.0316102034360473266 0.613302296334635511)
(2.80403888119559186 -0.032755584956587841 0.602522281346106192)
(2.8196074558667803 -0.0335624989157355808 0.592364839225733575)
(2.83425432644352515 -0.0340624747312289408 0.583411929305927002)
(2.84899127993920986 -0.0345280216406335938 0.575112202506315007)
(2.86416213801254216 -0.0347589985974286059 0.565537588405340519)
(2.87793985109096884 -0.0347062135354182233 0.554254892425021572)
(2.89162915393394027 -0.0338726566752851899 0.54226976127072446)
(2.90563608964960096 -0.0325999348302663944 0.532137428667722623)
(2.90952995266405701 -0.0285925028342934248 0.523046069013629822)
(2.80323366576353372 0.00383053628168069857 0.529773858624571381)
(2.39452874709392516 0.149621235159863475 0.512223227097528655)
(1.33005139448977561 0.347869506884663615 0.416900252023509998)
(0.566532637789608717 -0.466976693840001456 0.355662146297021309)
(1.11352779205864416 -0.553198934671723763 0.618242837962342251)
(1.40449919323052574 -0.464195795065133532 0.736803713117069936)
(1.56553090055957722 -0.368348824245652351 0.766031514463890062)
(1.66457527716414377 -0.289881559327025862 0.766351973445780543)
(1.76094246681875899 -0.228921947620916111 0.762794563197135234)
(1.86219611118939388 -0.187741721794918437 0.758661050845231277)
(1.96584199802505855 -0.163842421877344435 0.755064743684825457)
(2.06712749375653937 -0.148838729713815981 0.746464133773500627)
(2.15048192924064718 -0.131833566603246716 0.74196907724034844)
(2.21318715356776474 -0.113884440755589234 0.738541040868940235)
(2.2639941776862389 -0.10654102471492205 0.735573519503000428)
(2.30773768619955622 -0.101304317325304719 0.73984643408464279)
(2.34199675643045113 -0.0948424858522199654 0.742358334813281839)
(2.36736888808036161 -0.0901922196864467646 0.740401037591107425)
(2.38711914219571142 -0.0899826522624703196 0.735411245979382788)
(2.39529297762034199 -0.088411287496101415 0.735077813476490483)
(2.39587337958885271 -0.0844878215447673192 0.733647331809000769)
(2.39324457286282488 -0.0821642960656565197 0.727903749958780377)
(2.38734950199814699 -0.0792971144474215184 0.724375842147920612)
(2.37593834479500154 -0.074826351312375014 0.724645816676835142)
(2.35792723584475228 -0.0717196423523864812 0.725988791147465506)
(2.33475191897030454 -0.0697663912933301489 0.727969400325689131)
(2.30888108085581489 -0.0671985240938096778 0.73251903764278381)
(2.28211289389662175 -0.0645787348201133649 0.739053286227578154)
(2.25560605369615752 -0.0626561315453706552 0.745709925742650714)
(2.22909581701828108 -0.061513035840258537 0.753070871045515067)
(2.2061700693716455 -0.0594931558085716253 0.761402499068784877)
(2.18592446319045441 -0.0578762856684527163 0.771388104467491065)
(2.16619949128206857 -0.0595011003687330939 0.781202943539774375)
(2.14507142416971375 -0.0608591993985559757 0.789810914125786523)
(2.11511732899036264 -0.0629485750373821179 0.791651546151143193)
(2.08515802903722181 -0.0645753118000702564 0.791092738423083364)
(2.05707254676038254 -0.0693044554513784355 0.79194212632864569)
(2.07013518524343443 -0.0524507979597346394 0.784892719113083559)
(2.15972509704676208 0.0738417710364192986 0.789215391442802838)
(2.15141585677927782 0.514532429479915399 0.889473727535178949)
(1.69012004021093887 1.08515791580154475 0.90737375555007449)
(0.744753177367464825 -0.636940695259363698 0.391423098361603883)
(1.15400509426412468 -0.684070890693598388 0.62230552738089151)
(1.16095631365654683 -0.555588025425180376 0.547806657795513186)
(1.14576433289384982 -0.412608666601555762 0.498327306745814769)
(1.2200498110027771 -0.3347602369875044 0.516880548540187057)
(1.36671122769007924 -0.302548644699473457 0.578171580556448461)
(1.52407790642750585 -0.287054430607884048 0.642306284679645456)
(1.64104110915542822 -0.269059176538674782 0.690920212428965619)
(1.70801884727906095 -0.254667045024111749 0.732149182757683037)
(1.73320786023238038 -0.229330152353944938 0.754710400331535469)
(1.72877981017347548 -0.198931330826415564 0.757369576089936491)
(1.70558354717471294 -0.189246275579428247 0.757134449573519053)
(1.67441511202408688 -0.179427472613176098 0.758616144789376445)
(1.6288897124502324 -0.167967906877964257 0.760046390423835372)
(1.56455612234320451 -0.159075676847045294 0.762198371081365789)
(1.47624448139838393 -0.157707419610478766 0.761475445419459329)
(1.38499415466047338 -0.151108162872529289 0.763732580544770001)
(1.3161329933676813 -0.142503291637318813 0.772919331100901719)
(1.27516611283638115 -0.140910730358427799 0.792967184416161097)
(1.26633389207030445 -0.136927366841853304 0.818125668383248739)
(1.27357821470736643 -0.128959603519281846 0.843594532542303099)
(1.28613104417258728 -0.12173064675483497 0.861412408870653623)
(1.2996167345439682 -0.116157312151278849 0.872607727340961814)
(1.31634798114556029 -0.110006424869336802 0.877055491343681326)
(1.33641369311680069 -0.104163177303841406 0.877690644607966974)
(1.35612991362044255 -0.101318805392056899 0.875730154375812808)
(1.37560528058851017 -0.099044746180283999 0.871066123140468496)
(1.39574895061231508 -0.0943368893247242407 0.858236843605623023)
(1.41389114803138938 -0.0889124472186680059 0.841740209570652098)
(1.42042457250199039 -0.086129595330521086 0.818407011886771896)
(1.41724564498481453 -0.0798610928452887364 0.784360865080688363)
(1.40828845093966248 -0.0744241284113211637 0.74515248735739259)
(1.39075081105560261 -0.0676432130277681426 0.700743652431588537)
(1.36960986002017049 -0.080383803127589637 0.649746438503643997)
(1.24644215505213207 -0.0971320504096636894 0.567409697792443546)
(1.18739657488609129 0.0818357617945481008 0.684173013249297579)
(1.37274375673334004 0.839799094943809665 0.94506914344757964)
(1.44666436489714512 1.84375456779733216 1.13473521208182571)
(0.559515829247609675 -0.734549360844854893 0.491416251930813675)
(0.544579751486975683 -0.603053406861805086 0.27143598809348235)
(0.320196196856575688 -0.377265225352589884 0.0553610897119674733)
(0.4312801056799479 -0.303395740264762293 0.10806375817751171)
(0.810952703080239479 -0.342526359780038148 0.347531970719884398)
(1.0554810259471481 -0.356214797023313046 0.501333054788757115)
(1.13455452363027631 -0.324650366523647371 0.564002159697513661)
(1.10264110793315573 -0.271791849415070841 0.573754640609298594)
(1.01619335134726052 -0.22053849355877328 0.576023097945005724)
(0.903867454705636897 -0.17260191288052143 0.578098246030145035)
(0.807403326712229141 -0.140192623431162955 0.574888517047301373)
(0.748885743744412968 -0.131645211650270905 0.591611969146138894)
(0.709007639928471378 -0.121448810213847874 0.623985275469592149)
(0.685451679418104143 -0.100447017761894852 0.659125286056135629)
(0.676139327684733282 -0.0840065752930956311 0.688750935850112378)
(0.694937573719645263 -0.083071331996848824 0.718114273154578986)
(0.744474955530155524 -0.0884423356318293774 0.748233195079642033)
(0.813527065414118011 -0.0981682532953255804 0.780700863289222946)
(0.887069087799317701 -0.11390634622358918 0.810534526833335933)
(0.952618888517612339 -0.122578579192226561 0.835981268374002329)
(1.00833342367419854 -0.119051824741686907 0.847809872578288104)
(1.0591171626619349 -0.112926107623586652 0.853221515666949704)
(1.10578721701409433 -0.106921530788301064 0.853291580960481633)
(1.14647171857008434 -0.100197698423443379 0.843680751886188407)
(1.17898339633421578 -0.0921545436416893182 0.822466940828070703)
(1.20360813804563604 -0.0854677855170793421 0.792315076507555283)
(1.21559753145250782 -0.0772999391788630058 0.751398355219426994)
(1.21292043631172075 -0.0639004550787177772 0.701627268839192353)
(1.20037240871229556 -0.0474860386659343645 0.645361755882731147)
(1.17080078402767396 -0.0311957418983174577 0.576654026336503311)
(1.12408184246033427 -0.0147348688302756693 0.500445134801023928)
(1.06513815762647468 0.000123030499808145927 0.423528167032521441)
(1.00075389548144744 0.0115737530175506302 0.346354322170671303)
(0.940838920595550854 0.0288798905284973657 0.282235804235186516)
(0.820494693988887969 0.0234438845544044615 0.203683671198818306)
(0.550863136296500966 0.169980827727355011 0.391885972589341214)
(0.603841631977523496 0.909997725015727843 0.884644804873879531)
(1.2395889066875454 2.41938441458247278 1.22036927961519015)
(-0.126267867418079716 -0.386930206914919583 -0.259665526809852776)
(-0.292488033032422545 -0.137951958027945382 -0.56628862651259082)
(-0.329870972165607068 -0.105769969269387976 -0.587456613364787494)
(-0.317563147329096906 -0.220433856188789523 -0.435818172658603065)
(0.368335641722747464 -0.372790442539437217 0.143134208729335161)
(0.423609985151602919 -0.301308150024531651 0.274516167556470236)
(0.232866997664267994 -0.175580927592016101 0.251354419875011004)
(0.0775184763653835041 -0.0907331839978698929 0.269531567211236389)
(0.0352916944436746025 -0.0643766272148959956 0.33341742739487773)
(0.0528034990534465634 -0.0732086214028103421 0.410052791808467487)
(0.120833316107069516 -0.0929975268335480609 0.485889263774238522)
(0.211192262776465134 -0.108123197153735223 0.558124358171639856)
(0.293482309697122912 -0.11190396495698017 0.608614430657624772)
(0.376156116348000613 -0.114147935427297967 0.649229857136715549)
(0.459187586869734599 -0.123526366955704833 0.662748722068451812)
(0.540430226602784392 -0.138000759884693514 0.673682863262944687)
(0.610714897741044038 -0.146829209285488899 0.684991065273990452)
(0.666603718464994 -0.148267358136787986 0.702362270637887032)
(0.710573933798401058 -0.144048183391158185 0.715554527854989408)
(0.742932649396527145 -0.13423097224325134 0.71242521903349687)
(0.768619754944222855 -0.118525567577179178 0.701916248094135553)
(0.793171730365735961 -0.101693827703128015 0.687038332387818529)
(0.813348137139093041 -0.0851049306909176656 0.664111013864494448)
(0.822987033441653693 -0.067805071206851808 0.62826483947479006)
(0.81896506133181135 -0.0481939715106785918 0.580434071832211962)
(0.805824779296492322 -0.0283374114595171082 0.527610726116577666)
(0.777350766899960188 -0.00741273091614632652 0.469962203706258741)
(0.742769815946186185 0.013413968472527231 0.411922826331463265)
(0.705415444493739274 0.0315835374441816863 0.352459921997360148)
(0.656635388161714961 0.0470914399543861037 0.287453861368798969)
(0.599577340814534065 0.0608980402398153417 0.221059369630274061)
(0.547616288893792769 0.0721503919910457814 0.159834525905222041)
(0.49919788208984428 0.0796038238473580073 0.101437044419821348)
(0.454218366400268636 0.0908855790076859987 0.0555564129262831538)
(0.361095231426705465 0.12952242958405108 0.0428090868179250017)
(0.278975751912073022 0.257777427933337855 0.228052366515302307)
(-0.0478865769033114397 0.830938587801448914 0.769406873516278456)
(1.08430711792258627 2.58909528525187893 1.26123301634475449)
(-0.0899535325412565145 -0.10017916771574821 -0.660833985948577785)
(-0.240759949983673144 -0.176518681699735808 -0.475405874378942217)
(-0.350839836052060483 -0.147162117068690257 -0.527306035780237603)
(-0.374366136391455273 -0.20333524488035018 -0.395216320528157805)
(-0.334129676342543924 -0.185006651867120842 -0.159619173210294285)
(-0.393708069147446882 -0.029885460095575217 -0.081766532505128886)
(-0.383102918805930781 0.012287512387987613 0.0140383325728446647)
(-0.320026114798394767 -0.0178874013209928198 0.120321977026690008)
(-0.230565644903605177 -0.057884368817579461 0.209771310188167304)
(-0.135862907427812735 -0.0890128157484389726 0.288848725575916065)
(-0.0507251310700188793 -0.108548349465366623 0.342927603310652529)
(0.0380365816205314802 -0.122720586453626518 0.402765575611843285)
(0.116626101025048182 -0.118261687892459971 0.426186765806809142)
(0.182536206781193838 -0.106100535789194803 0.432786138627106576)
(0.236012591021622087 -0.0921609671821900373 0.436500754803971602)
(0.277875330379876273 -0.0776394382610355455 0.450727139949363254)
(0.306011902600368035 -0.0631543289663499402 0.46021302768715705)
(0.323959544014140177 -0.0498740646125671802 0.458218424399650048)
(0.343218480051075303 -0.0389157001096656283 0.4572481879655938)
(0.361736769971941541 -0.0256967603472337755 0.452969379344115408)
(0.378000987391105214 -0.00891275231324194402 0.439458309437005645)
(0.393830704094609574 0.00729985369359970569 0.418253525588107522)
(0.406542202014948229 0.0223536419950284698 0.390272198869046405)
(0.406441688969503001 0.0378328971284118271 0.350891007891188655)
(0.397326186906952372 0.0542294191113977808 0.304642442961780668)
(0.374713507032343296 0.0707016818369920197 0.25507744760886758)
(0.344524497663274309 0.0847807371931628972 0.206864661192399657)
(0.313574789649533558 0.0964336532049177297 0.1602887053216282)
(0.281509632713088487 0.106900923267644832 0.112384654183576321)
(0.247033629541787564 0.115701230088828252 0.0647877952709659255)
(0.215059164160283339 0.121414856058003076 0.0210619658829577436)
(0.195162767584384667 0.125854859244300565 -0.017613794950282053)
(0.179229687448349356 0.128935777880128249 -0.0504418761784160216)
(0.165677076751554297 0.133982382020275598 -0.0631896779462009367)
(0.0779159494217465665 0.201318369641930006 -0.0168998199046168258)
(0.27364659837057953 0.310685790458035571 0.165116859623525208)
(-0.435209224068888956 0.818105119206313569 0.69656466642328041)
(0.982401226181637832 2.67032076166188626 1.28621662039313578)
(-0.0535528302850053067 -0.0145943690388960941 -0.704062504513864096)
(-0.243225417942593058 -0.129685123910070088 -0.419648328841008167)
(-0.328263607126999868 -0.126979779601632342 -0.401680196311631044)
(-0.397686111549004795 -0.133823600694857686 -0.327448175604658887)
(-0.419244424560328011 -0.135401360373099994 -0.225294540962680312)
(-0.423451760533226917 -0.0633826788670734387 -0.158468245752615255)
(-0.397669698424347295 -0.015055129628003084 -0.113737080600648494)
(-0.36269192514458215 0.00019621406302123591 -0.0647785077246572083)
(-0.321208194761753385 0.000897302244296165757 -0.00443026532845298623)
(-0.267839410182039273 -0.00535659347314574458 0.055435498538853642)
(-0.212299394725010304 -0.00756825889355911257 0.101430415490266254)
(-0.159125575266882063 -0.00440841490905776248 0.14213543300725226)
(-0.127122343159237677 0.0115419380577666993 0.14927323664156622)
(-0.106289730096514351 0.0274102409129185869 0.148426796108550835)
(-0.0854969187622631327 0.0360624245688131381 0.157508420563280016)
(-0.0670757778703131025 0.0413628246510696004 0.168553259028720287)
(-0.0429495579132578298 0.0425676073818845452 0.185171852389070524)
(-0.0136666903640211661 0.0441978370797623255 0.203597236248165142)
(0.0197605909521827508 0.0494870510231756947 0.217673826320507635)
(0.0512965220532416027 0.0606313658821194326 0.220515637986982482)
(0.0768101954046005453 0.0736376123643238401 0.211707820890013554)
(0.094665664162024335 0.0863260165584767425 0.193954426619763087)
(0.101729466387257689 0.0990565066166233937 0.16766614563856147)
(0.0973980010074456393 0.110334601800858439 0.13309476272534787)
(0.0857195372293466096 0.121380486696202508 0.0956730507194714364)
(0.0702115756438884686 0.131280323611838279 0.0618494103892604577)
(0.0555778706500574607 0.138753920333020891 0.0324180498365478909)
(0.0436515029867694318 0.145404489556431316 0.00380122617917151573)
(0.0310889988205269238 0.150425211878003062 -0.0256242913552560646)
(0.0188420567461603933 0.151533391716021232 -0.0536020597880068062)
(0.0121474307608079209 0.149633806110569978 -0.0789399139465286059)
(0.0147968023527325718 0.14868065068755687 -0.100621557473669562)
(0.0186006769790905829 0.149168806446033586 -0.114729456830533649)
(0.0367299161251774947 0.154104229116028529 -0.106458307576301314)
(-0.0817857659605795845 0.231492438110819237 -0.0375537873365516806)
(0.370867985626912366 0.340333546749612026 0.141478477636603428)
(-0.616368420318057497 0.809305772947193414 0.643883772924002118)
(0.907690379412465553 2.70507503495311274 1.29390060428327702)
(-0.089530019567854946 -0.0138025157560728497 -0.722792222030053888)
(-0.28326831067654068 -0.110604546072027715 -0.402505761868459933)
(-0.326851309612770036 -0.122329272299803365 -0.3341048987171511)
(-0.376175158334649928 -0.113314963471584193 -0.265733329240991967)
(-0.390128344376739544 -0.0882771911178247826 -0.200834361244528747)
(-0.393312697229551145 -0.042208987735876155 -0.160614489954034212)
(-0.382739979457940915 -0.00378010152413536284 -0.132817561379756893)
(-0.365490144876791545 0.0184361828822263395 -0.108805845127357845)
(-0.343688330819337529 0.0327137177505863047 -0.0852665113683112319)
(-0.319872617206538534 0.0424838212064267903 -0.0630886854076473658)
(-0.299570846196296758 0.0523985232338215895 -0.0465751160718831936)
(-0.283594089578271646 0.064251514230813711 -0.0311607429371951392)
(-0.269609399990291265 0.0738780895399235166 -0.0234734525996067034)
(-0.258289117048515982 0.077959609836265556 -0.0128981190507243861)
(-0.246919815885687677 0.0806166517370936059 0.00413422862738323932)
(-0.231169019898590261 0.0830128614792216835 0.0243141025498877367)
(-0.207609799139924556 0.0866084478409153979 0.043468742651255575)
(-0.178080442343881429 0.0937351437712331398 0.0600920390900764601)
(-0.146722747290758654 0.104338236497680675 0.0712853699009658864)
(-0.118238208297387376 0.117038926297134527 0.0745459394790473628)
(-0.095603809909743695 0.128235007812899038 0.0681706719929110472)
(-0.0812947878739293944 0.138034771509673637 0.0539665364897554123)
(-0.0753411903159771357 0.146640778805701116 0.0336978807991032553)
(-0.0755662179749671259 0.152425566658870831 0.0101203521463771977)
(-0.0790035672680255291 0.156495155133973857 -0.0122583776507295353)
(-0.0827663977687990715 0.15942241041610633 -0.0309543816788638224)
(-0.0849393078968471577 0.162131949482295451 -0.0476949572504381525)
(-0.0850742804569299127 0.165136363881942083 -0.0648865559589181934)
(-0.084685305791604798 0.16577352252354377 -0.0827446746510977216)
(-0.0818374611408527325 0.161409331311226339 -0.0995793845878749917)
(-0.0744771838642361572 0.15560303194422917 -0.115732865065337656)
(-0.0617046981200518041 0.152406839568258512 -0.128684969590180276)
(-0.0447920836756396518 0.151704992137214723 -0.133221309292440443)
(-0.00794571228241879382 0.160290371584557251 -0.119111713217846776)
(-0.119257451622720834 0.227365042802297135 -0.0582198841002341053)
(0.449343925911657505 0.366914811577548239 0.127353944984151785)
(-0.668449873977364439 0.824169598053228425 0.621993319286421875)
(0.851548149863510906 2.71156749141446385 1.28796077362264283)
(-0.102078890605764194 -0.0431158870247263654 -0.663672031383806593)
(-0.308941152722949974 -0.0980739798985300337 -0.377146824761026567)
(-0.327662586898117392 -0.109242628025039201 -0.303372083344735366)
(-0.367263499649818914 -0.0971440024671430397 -0.237253220438983559)
(-0.373220375898179135 -0.0733593295916532273 -0.183751165518607928)
(-0.374086539521866657 -0.0410677635688068837 -0.149658772075696445)
(-0.367200738098403479 -0.00981629149186567102 -0.127231724161790516)
(-0.356275406997268007 0.0163744866184372465 -0.109836579466868173)
(-0.342530412690917108 0.0364844043288130651 -0.0944442274145679689)
(-0.32580257178996469 0.0515029122390630936 -0.0799290204555480471)
(-0.310574545453530637 0.061959097133506856 -0.071104264333114453)
(-0.298922856203355236 0.0722238862038788315 -0.0637971615785516977)
(-0.288725818802707646 0.0802876268060183362 -0.0545780845863568231)
(-0.279430906986571637 0.0864782181998541427 -0.0452769050652977872)
(-0.270024214031679255 0.092565559839772063 -0.035826085475264835)
(-0.258961779956942861 0.0996403012665096621 -0.0244574781658142143)
(-0.245679533045830373 0.108433582092967259 -0.0110134407943214777)
(-0.229580368259036188 0.119467620672762509 0.000128511138294588878)
(-0.209854966047066549 0.131664148862080083 0.00616855997514053137)
(-0.188140206800749138 0.143391802639854182 0.00671380086257069089)
(-0.170344134232389727 0.152734546448311304 0.000772278583751003639)
(-0.158839654241037687 0.160085273508312892 -0.0105180829864684449)
(-0.152057289668052598 0.165272810131397052 -0.0249664158687004437)
(-0.148111125974791313 0.167453587292743455 -0.0399201407514672424)
(-0.145483123308222939 0.167456391286131212 -0.0526109632847459596)
(-0.143118852829232229 0.167048905854339236 -0.0639481201972237762)
(-0.140086287135760323 0.167498473227694539 -0.0753064432915966364)
(-0.135288787457612664 0.168059325689957351 -0.0871928878151948666)
(-0.128227273556939192 0.165676516476514157 -0.0995461979640267502)
(-0.118575613462781809 0.159535683625542463 -0.112973428016488436)
(-0.10592468974010065 0.152733366421376054 -0.125842684111988262)
(-0.0887831768651888703 0.148424170929224108 -0.136114031493661386)
(-0.0628876230085973209 0.146908884931974015 -0.139636695710535913)
(-0.016060762005410744 0.157679143843269032 -0.127262647370925935)
(-0.119413415722767521 0.209334306061230463 -0.0782739837644396974)
(0.485997855345382979 0.395216095837911119 0.11675177413530427)
(-0.649170688227869164 0.839420904389720723 0.60966878979400807)
(0.81525922362000014 2.70440415540493539 1.26999978747335662)
(-0.109364277490971634 -0.0328593283016419338 -0.65538420746799908)
(-0.325759916746299061 -0.0790583228794032034 -0.358009318994677028)
(-0.326381042504018337 -0.0889735265371677519 -0.280743974194815227)
(-0.359453127769410352 -0.0795344367283613157 -0.215417837188838612)
(-0.360655510676326729 -0.0610508571535142222 -0.168596747245365552)
(-0.359942882153053367 -0.0376794416263446161 -0.138724856823875725)
(-0.353556410075581862 -0.012978615237554848 -0.118520925088177437)
(-0.344578685766134651 0.00969568743240295343 -0.102841844001559796)
(-0.333485531058709206 0.0299850788164961468 -0.0909017602235482614)
(-0.320938179581811589 0.0464085090532336958 -0.0806149081006832802)
(-0.30877595653524853 0.0573273728434852969 -0.07231249854863675)
(-0.298429348276424478 0.0677767231958315702 -0.0651208339908027484)
(-0.289132380264456645 0.0772626474934815788 -0.0573131846647833496)
(-0.280520273399945896 0.0862753667822480919 -0.048913807882972643)
(-0.271977003694973518 0.0957223991683105319 -0.039513260205328013)
(-0.262181812814116455 0.106131535270791208 -0.0299800268877690075)
(-0.250309889360190774 0.117428432379045447 -0.0221878260978162732)
(-0.236286448270722399 0.129115225005311834 -0.017421299703618498)
(-0.221219664537299576 0.140284421729597264 -0.0161018738009176786)
(-0.20669725816978865 0.150447762038694283 -0.0182928439925053588)
(-0.194074147369129785 0.158404898940297051 -0.0243349467452290413)
(-0.184371765196043397 0.16408320936866963 -0.0333872174250374604)
(-0.11673186964835125 -0.0265125676183636146 -0.674323195775358153)
(-0.33645953258678718 -0.0609904743582828646 -0.347337007395044695)
(-0.327557940765156153 -0.0716341027259609908 -0.264899696922342665)
(-0.353349152602922656 -0.0657633418162746897 -0.198087958595056624)
(-0.351334779928275276 -0.0527282660392140723 -0.156737736673060568)
(-0.348777162934126084 -0.0351828223032189247 -0.12878616088705519)
(-0.34208082773734072 -0.0153878568339567909 -0.110440369363209556)
(-0.333882144169825867 0.00431548583926713407 -0.0964338915224458026)
(-0.323994959183717235 0.0224596509192590624 -0.0854453931044758391)
(-0.313243263182678255 0.0383092739487404521 -0.0760103691581731911)
(-0.302553198433997972 0.0509321995356952356 -0.0676684609764661577)
(-0.292825751241785615 0.0622548134041088705 -0.0604676683036130536)
(-0.284040915367509361 0.0728890578940676881 -0.0533338615881593647)
(-0.275757853195239211 0.0832887395541441616 -0.0456758900177786226)
(-0.267160853688011735 0.0942764794271706563 -0.037329660002777966)
(-0.257214971205990683 0.10615696150390258 -0.0294552311991121488)
(-0.245590428937138783 0.118344259605071112 -0.0237987023144830175)
(-0.232874839767855973 0.130034577855339145 -0.0214504490312111343)
(-0.220130931846675454 0.14049022969235056 -0.0223630306846807382)
(-0.208241984948943609 0.149520113779109814 -0.0259568449181369551)
(-0.197775542268102233 0.156531041137395521 -0.0319452570702848243)
(-0.189039315718017936 0.161377325578901776 -0.0395649283883220196)
(-0.124069632296569782 -0.0168182918948058535 -0.651482634872364241)
(-0.342698493044325481 -0.047917377522472604 -0.337555740659877423)
(-0.32884141300517572 -0.0571444131154857649 -0.250539048058787406)
(-0.349358568687123561 -0.0555522705325607602 -0.185671148558704424)
(-0.344446903558853268 -0.0467421095751014565 -0.147166234621193048)
(-0.339936908232314705 -0.0333380418898921171 -0.12064937733811254)
(-0.332300083219045972 -0.0170297569972562846 -0.103190338726142694)
(-0.324146129651694592 0.000232167074183824151 -0.0902990674724732517)
(-0.314968651403798594 0.0168381276525301389 -0.0797914722942409949)
(-0.305264535301326356 0.031922944447078383 -0.0707148150417897803)
(-0.295540244633340665 0.0451179025904984154 -0.0627590822097828516)
(-0.286393574097551173 0.0569856732629917956 -0.0556973690060874119)
(-0.277905536833748912 0.0681832985151921284 -0.0487973973097484137)
(-0.26958760945061172 0.0793355906714792586 -0.0415932886289682863)
(-0.260657649665874291 0.0910922870280576058 -0.0341750920476420125)
(-0.250414023826766641 0.103510896567263089 -0.0276453996105534769)
(-0.23892299630408978 0.115874097196335402 -0.0234022995337999917)
(-0.226997823179320934 0.127372319733976169 -0.0222323439763943871)
(-0.215464808975087213 0.137431721327039541 -0.0239098825620906938)
(-0.204877641702218005 0.145907454804208581 -0.0278635715374244627)
(-0.195559402164951573 0.152451119401665947 -0.033520115133123099)
(-0.187567119809864818 0.15703732526062758 -0.0402219229874650058)
(-0.147143235921312288 -0.00887834102563967234 -0.629353978933518299)
(-0.34602238929239737 -0.0366702100813228946 -0.324954564913723598)
(-0.331023689771003604 -0.0471211736444749618 -0.237862691517263442)
(-0.34742713603761094 -0.0491605527409344906 -0.175019173301674158)
(-0.339237760326161264 -0.0433000178810099834 -0.138499331402692105)
(-0.332784850742512572 -0.0326874717825451216 -0.113173573899858881)
(-0.32398584482635262 -0.0187060974426532731 -0.0966353937895105264)
(-0.315541960896665086 -0.00334830147960101833 -0.0844520331479255981)
(-0.306679617253810877 0.0119736384967243144 -0.0745156962226617842)
(-0.297629166499288556 0.0263871454687587964 -0.0658419812385540454)
(-0.28857567848475113 0.0396182395226887737 -0.0581631537861186584)
(-0.279870478798175115 0.0517639563123525256 -0.0511423238403005964)
(-0.271494515858938135 0.0633996173420657977 -0.0442892426740117973)
(-0.262993002383126506 0.0751478845307202714 -0.0373542000788979131)
(-0.253755279439161152 0.0874618447987644265 -0.0306716359922151599)
(-0.243406476633300589 0.100209249984774415 -0.0252654635831132679)
(-0.232234352201464683 0.112591159363247026 -0.0221569971896135379)
(-0.220994503722514113 0.123860681357893604 -0.021775808003101596)
(-0.210321257069444628 0.133648876644386794 -0.0238171399117026727)
(-0.20066339492917265 0.141820954659907655 -0.0277358952420504873)
(-0.192245048283142844 0.148251548526890792 -0.0329956946150917127)
(-0.185041310214076438 0.152871234425051933 -0.0391174635507061802)
(-0.290320872740629454 0.0213038813746072135 -0.0612482207623797487)
(-0.281714853804078513 0.0343300526637259351 -0.0536987940027146976)
(-0.27331143139708941 0.0467175070940546791 -0.0466156993059785515)
(-0.26494666257232935 0.0587853541996504469 -0.0397309806991041764)
(-0.256238938864300769 0.0710769651372272077 -0.0330378323838024929)