/*--------------------------------*- C++ -*----------------------------------*\
| =========                 |                                                 |
| \\      /  F ield         | OpenFOAM: The Open Source CFD Toolbox           |
|  \\    /   O peration     | Version:  2206                                  |
|   \\  /    A nd           | Website:  www.openfoam.com                      |
|    \\/     M anipulation  |                                                 |
\*---------------------------------------------------------------------------*/
FoamFile
{
    version     2.0;
    format      ascii;
    arch        "LSB;label=32;scalar=64";
    class       volVectorField;
    location    "0.930000000000000604";
    object      faceForces;
}
// * * * * * * * * * * * * * * * * * * * * * * * * * * * * * * * * * * * * * //

dimensions      [1 1 -2 0 0 0 0];

internalField   uniform (0 0 0);

boundaryField
{
    inlet
    {
        type            calculated;
        value           nonuniform List<vector> 0();
    }
    outlet
    {
        type            calculated;
        value           uniform (0 0 0);
    }
    top
    {
        type            calculated;
        value           nonuniform List<vector> 0();
    }
    bottom
    {
        type            calculated;
        value           uniform (0 0 0);
    }
    left
    {
        type            calculated;
        value           uniform (0 0 0);
    }
    symmetry
    {
        type            symmetryPlane;
    }
    interface
    {
        type            calculated;
        value           nonuniform List<vector> 
104
(
(-0.0403642335189172557 7.65694606855476608e-06 4.09821847775951157e-06)
(-0.0199474867283661178 -2.95726554056624066e-06 7.60051199845195668e-07)
(-0.00840918139856478529 -2.71697164479209316e-06 1.65572769370557226e-07)
(-0.00304753768368214509 -2.0417508529367889e-06 -4.45024423584511603e-07)
(-0.000212304631612326506 -1.25293833253660663e-06 -5.56346595296225539e-07)
(-0.000146457150855855894 -1.19011848309406973e-07 -2.86112167443642279e-07)
(-0.000428566435787854766 7.33039223470153835e-08 -2.95321242492388172e-07)
(-0.000176043325765040155 2.13902753562343596e-07 -3.03270662286990811e-07)
(-4.20494058838008091e-05 3.03933787080635811e-07 -3.73082173775546699e-07)
(-0.000450137937495785677 3.16845196402577262e-07 -4.16986470438155145e-07)
(-0.00144258428311379132 2.65580672584048251e-07 -4.24685427966842483e-07)
(-0.00250668207463521737 1.9575782566026594e-07 -4.1933820531006567e-07)
(-0.00326906010705028905 1.46254657075623719e-07 -4.87349454670951855e-07)
(-0.0250872792495805859 -4.64639236363909529e-06 2.9722393319280535e-06)
(-0.0131009441084007899 8.21212772091307243e-08 -8.54647818558203255e-07)
(-0.0101783584711082602 8.73637218379086366e-08 -1.06420093993261189e-06)
(-0.00725885523918155546 1.96497147872650499e-07 -8.46102801755663433e-07)
(-0.00477947037216105899 3.07454762265110598e-07 -5.22040779368669451e-07)
(-0.00253379325658150941 3.98275618722774567e-07 -4.54373091018058796e-07)
(-0.00119718396832300695 4.38457935550765171e-07 -3.86043882378271872e-07)
(-0.000508182858240761588 4.85836153512782453e-07 -3.91134508131307871e-07)
(-0.000453955349542334448 4.78086175679372897e-07 -3.9089544357684111e-07)
(-0.000956815599681508518 4.60854794274570733e-07 -4.15331611036705771e-07)
(-0.00199326451578815764 4.32638233897960523e-07 -4.49933302387611296e-07)
(-0.00322235443259152703 3.30672883070745791e-07 -4.45549347329401825e-07)
(-0.00455346506385288091 2.23106053272511748e-07 -4.61549525033465502e-07)
(-0.0276538616632173474 -3.89331404015691514e-06 1.87980226357758927e-06)
(-0.0161834510211564947 -1.42675095426231663e-07 -1.08313189694384006e-06)
(-0.0147095295327179052 -2.93015734135444905e-07 -5.44925176864964232e-07)
(-0.0130065416774534665 1.63413577740430844e-07 -3.39345210753908947e-07)
(-0.0104153329359983077 3.7832091845891002e-07 -3.01498837512061866e-07)
(-0.00748751418218992874 5.10605647454394824e-07 -2.85229630613347517e-07)
(-0.00504937254281130361 4.93384738593488904e-07 -2.34534365452006614e-07)
(-0.00329617675981388461 5.67612424617809146e-07 -2.63490640059952599e-07)
(-0.00244390579181208651 6.25258461384208696e-07 -3.09481113905927734e-07)
(-0.00254329791239420741 6.05471621224086098e-07 -3.46639271880261932e-07)
(-0.00322719372594456114 5.8275944775667456e-07 -3.9986703994462623e-07)
(-0.00410672878016822389 4.79502801677476243e-07 -4.04314494919828013e-07)
(-0.00551622707479527616 3.52588204480983218e-07 -3.38792350683405485e-07)
(-0.0349145236354363661 -3.48788113457796537e-06 1.79647090692306156e-06)
(-0.0246567097243442258 -3.98608931170044545e-07 -8.30416814129325339e-07)
(-0.0244980527844592538 -4.79870816472549997e-08 -6.55302489965320067e-07)
(-0.0222329561520195652 8.84307522356684111e-07 -8.86357262869059164e-07)
(-0.0177296777038888319 1.03764676399063631e-06 -5.80003096964980234e-07)
(-0.0136962705694880834 8.04683849382401034e-07 -3.44195897770237728e-07)
(-0.0101784872341177755 8.01467307591137267e-07 -2.96244003860431923e-07)
(-0.00725814175716115503 6.75570815358631684e-07 -2.30998251805415438e-07)
(-0.00542320051944018659 5.66246873276490894e-07 -1.86428174488404732e-07)
(-0.00465062974515530886 8.78231230838529913e-07 -3.27068211518086324e-07)
(-0.00468780907299371635 8.06766966911503559e-07 -3.59352569271260819e-07)
(-0.00506588751908478106 5.77042089311566291e-07 -3.03395929626108629e-07)
(-0.00595067077865524437 4.21244461913828974e-07 -2.28738108909638437e-07)
(-0.0439267882529562267 -3.94184591677349631e-06 2.62069393101369977e-06)
(-0.0342038458717943486 -1.21723365937677401e-06 -1.3292464588592373e-06)
(-0.0288678055954953647 1.28011464006353254e-06 -1.61689505333049074e-06)
(-0.0240536118079549034 9.11407832476794214e-07 -3.40288131996719003e-07)
(-0.0200428919694432897 9.55664815953899672e-07 -2.07622515393260874e-07)
(-0.0158426633634624787 1.11018729321063755e-06 -1.62400270037501588e-07)
(-0.0123207395112246033 1.0992643859205159e-06 -1.33036553634927819e-07)
(-0.00989219737286792418 1.24743692531493312e-06 -1.78761898068668031e-07)
(-0.00800693562003708392 2.68343360316234322e-06 -6.91950697668880093e-07)
(-0.00620245589780918892 1.63165066461956029e-06 -5.77413859980194735e-07)
(-0.00529628138656763545 4.37539537816309157e-07 -2.06505593999385867e-07)
(-0.00488212447179162123 3.08326854183472662e-07 -1.71459921164808292e-07)
(-0.00474332824963371279 2.31882560136022193e-07 -6.32508389262052059e-08)
(-0.0452297740424798117 -2.8191210095463296e-06 3.20844654140625374e-06)
(-0.0354049188491635039 -2.91276848111638942e-07 -4.65685993988259339e-07)
(-0.0268286845298303482 2.12118823154010028e-06 -1.80441105057332727e-06)
(-0.0202481785525997493 1.05303960519381777e-06 -4.89934995830968605e-07)
(-0.0158346594053437283 1.07966102490892552e-06 -3.48464664465379346e-07)
(-0.0125050012299694705 1.03976385639045058e-06 -2.82497632630001171e-07)
(-0.010862605228008769 9.92466840097640682e-07 -2.77761231915044914e-07)
(-0.00959169955725422234 2.24799897997942051e-06 -8.52386683762010278e-07)
(-0.00786524298531882798 1.32390287796930734e-06 -7.7174055868631587e-07)
(-0.00615279093042999867 4.21046484104604048e-07 -4.46080381012303776e-07)
(-0.00494068056260790409 1.5474943168277246e-07 -1.77297744471815935e-07)
(-0.00407418965255771336 1.31063568368505558e-07 -1.53338840852796711e-07)
(-0.00347958838300422473 1.278223256160634e-07 1.17073829147383003e-08)
(-0.0466256402948587931 -2.41546702650569098e-07 -2.79935054611240477e-07)
(-0.0363178388171727304 1.85107996950509302e-07 -1.85656520139709541e-06)
(-0.0278962330761760961 1.55215305541511603e-06 -2.39531865195031947e-06)
(-0.0199189333056239634 2.72096489851318911e-06 -2.19916318055102278e-06)
(-0.0135562687744094738 2.03191338092897557e-06 -1.1694494584455023e-06)
(-0.0108060004667025721 9.45865378743112064e-07 -4.94634454197713305e-07)
(-0.0096517405009963874 1.84200010977629424e-06 -9.62723253228093984e-07)
(-0.00860153374049321164 1.97877360820198897e-06 -1.07956765540553469e-06)
(-0.0069140616079639344 1.22747017317722916e-06 -7.05220820709434637e-07)
(-0.00577089714744222215 3.52019367362448077e-07 -1.97239703108606716e-07)
(-0.00541163353605062739 2.35477436669489817e-07 -1.93954873885863884e-07)
(-0.00477929113105779544 1.8658581144988231e-07 -1.55468199119641425e-07)
(-0.00322140211641990188 3.63111232430931102e-10 4.84393272530661399e-07)
(-0.0570681619524448167 -3.33839762626659192e-06 -9.07577085880777885e-07)
(-0.0525328978494334423 1.07928668524586726e-06 3.24526481812302163e-07)
(-0.0425943890855101856 3.19989890000723693e-06 2.89267280145772758e-07)
(-0.0276705071181917311 4.23347614016146529e-06 -7.97949274441013073e-09)
(-0.0163479428750013291 3.84446867871432775e-06 -2.23008049879957753e-07)
(-0.011112206287189905 3.13492663736037462e-06 -2.77339351184366193e-07)
(-0.00953899672718719165 3.17869896986411392e-06 -2.34617589980997622e-07)
(-0.0080754663735215261 2.42638557187905888e-06 -8.14096018075950214e-08)
(-0.00698780217699938345 1.06893034308958104e-06 6.20934981604170181e-10)
(-0.00701558946196284994 6.82387874379386668e-07 3.73068916835182721e-09)
(-0.00754737753703416114 5.18350194534084391e-07 -4.13886082908620234e-08)
(-0.00690596690770945831 1.73768855803816349e-07 2.17840897640804534e-08)
(-0.00492302405503913711 -1.10527063568387103e-06 1.00740085355794302e-07)
)
;
    }
    procBoundary3to0
    {
        type            processor;
        value           uniform (0 0 0);
    }
    procBoundary3to1
    {
        type            processor;
        value           uniform (0 0 0);
    }
    procBoundary3to2
    {
        type            processor;
        value           uniform (0 0 0);
    }
}


// ************************************************************************* //
