/*--------------------------------*- C++ -*----------------------------------*\
| =========                 |                                                 |
| \\      /  F ield         | OpenFOAM: The Open Source CFD Toolbox           |
|  \\    /   O peration     | Version:  2206                                  |
|   \\  /    A nd           | Website:  www.openfoam.com                      |
|    \\/     M anipulation  |                                                 |
\*---------------------------------------------------------------------------*/
FoamFile
{
    version     2.0;
    format      ascii;
    arch        "LSB;label=32;scalar=64";
    class       volVectorField;
    location    "0.930000000000000604";
    object      faceTraction;
}
// * * * * * * * * * * * * * * * * * * * * * * * * * * * * * * * * * * * * * //

dimensions      [1 -1 -2 0 0 0 0];

internalField   uniform (0 0 0);

boundaryField
{
    inlet
    {
        type            calculated;
        value           nonuniform List<vector> 0();
    }
    outlet
    {
        type            calculated;
        value           uniform (0 0 0);
    }
    top
    {
        type            calculated;
        value           nonuniform List<vector> 0();
    }
    bottom
    {
        type            calculated;
        value           uniform (0 0 0);
    }
    left
    {
        type            calculated;
        value           uniform (0 0 0);
    }
    symmetry
    {
        type            symmetryPlane;
    }
    interface
    {
        type            calculated;
        value           nonuniform List<vector> 
104
(
(-129.165547260535277 0.0245022274193752651 0.013114299128830444)
(-63.8319575307715894 -0.00946324972981197124 0.00243216383950462661)
(-26.9093804754073176 -0.00869430926333470029 0.000529832861985783253)
(-9.75212058778286384 -0.00653360272939772398 -0.00142407815547043715)
(-0.679374821159444697 -0.00400940266411714021 -0.00178030910494792133)
(-0.468662882738738018 -0.00038083791459010165 -0.000915558935819653667)
(-1.37141259452113418 0.000234572551510449048 -0.000945027975975641426)
(-0.563338642448128146 0.000684488811399499154 -0.000970466119318370087)
(-0.134558098828162859 0.000972588118658036555 -0.00119386295608175192)
(-1.44044139998651399 0.00101390462848824706 -0.00133435670540209619)
(-4.61626970596412445 0.000849858152268952866 -0.00135899336949389356)
(-8.02138263883268188 0.00062642504211284989 -0.00134188225699220787)
(-10.4609923425609406 0.000468014902641996624 -0.00155951825494704825)
(-80.2792935986578726 -0.0148684555636451055 0.00951116586216977158)
(-41.923021146882526 0.000262788087069218336 -0.0027348730193862505)
(-32.5707471075464383 0.000279563909881307701 -0.00340544300778435841)
(-23.2283367653809769 0.000628790873192481593 -0.00270752896561812307)
(-15.294305190915404 0.000983855239248354911 -0.00167053049397974398)
(-8.10813842106082383 0.00127448197991287767 -0.00145399389125778719)
(-3.83098869863362435 0.00140306539376244929 -0.00123534042361047062)
(-1.62618514637043599 0.00155467569124090278 -0.00125163042602018429)
(-1.45265711853547175 0.00152987576217399491 -0.00125086541944589283)
(-3.06180991898082677 0.00147473534167862595 -0.0013290611553174582)
(-6.37844645052209991 0.00138444234847347278 -0.00143978656764035505)
(-10.3115341842928796 0.00105815322582638585 -0.00142575791145408489)
(-14.5710882043292411 0.000713939370472038703 -0.00147695848010709189)
(-88.492357322295419 -0.0124586049285021153 0.00601536724344827953)
(-51.7870432677007315 -0.000456560305363940845 -0.00346602207022028447)
(-47.0704945046972583 -0.00093765034923342283 -0.0017437605659678839)
(-41.6209333678510447 0.000522923448769378003 -0.00108590467441250734)
(-33.3290653951945757 0.00121062693906851177 -0.000964796280038597749)
(-23.9600453830077313 0.00163393807185406061 -0.000912734817962710483)
(-16.1579921369961603 0.00157883116349916337 -0.000750509969446420608)
(-10.5477656314044115 0.00181635975877698615 -0.000843170048191846854)
(-7.82049853379868498 0.00200082707642946969 -0.000990339564498969724)
(-8.13855331966145279 0.0019375091879170732 -0.00110924567001683674)
(-10.3270199230225774 0.00186483023282135534 -0.00127957452782280164)
(-13.1415320965382936 0.00153440896536792136 -0.00129380638374344738)
(-17.6519266393449108 0.00112828225433914803 -0.00108413552218689915)
(-111.726475633396376 -0.0111612196306494892 0.00574870690215379711)
(-78.9014711179015222 -0.0012755485797441425 -0.00265733380521384092)
(-78.3937689102696282 -0.000153558661271216017 -0.0020969679678890245)
(-71.1454596864626012 0.00282978407154138882 -0.00283634324118098866)
(-56.7349686524443513 0.00332046964477004112 -0.00185600991028793969)
(-43.8280658223618573 0.00257498831802368275 -0.00110142687286476047)
(-32.571159149176907 0.00256469538429164156 -0.000947980812353382981)
(-23.2260536229156784 0.00216182660914761987 -0.000739194405777328823)
(-17.3542416622086328 0.00181198999448477466 -0.000596570158362896407)
(-14.8820151844969963 0.00281033993868329713 -0.00104661827685787671)
(-15.0009890335798897 0.00258165429411681083 -0.00114992822166803434)
(-16.2108400610712948 0.00184653468579701178 -0.000970866974803547477)
(-19.0421464916968333 0.00134798227812425644 -0.000731961948510845002)
(-140.565722409459937 -0.0126139069336751904 0.00838622057924384018)
(-109.452306789741911 -0.00389514771000567693 -0.00425358866834955884)
(-92.3769779055852069 0.00409636684820330593 -0.00517406417065757306)
(-76.9715577854556443 0.00291650506392573993 -0.00108892202238950017)
(-64.1372543022185653 0.00305812741105248058 -0.00066439204925843509)
(-50.6965227630798978 0.00355259933827403772 -0.000519680864120004729)
(-39.4263664359187089 0.00351764603494564895 -0.000425716971631768777)
(-31.6550315931773412 0.00399179816100778389 -0.000572038073819737406)
(-25.6221939841187094 0.00858698753011951157 -0.00221424223254041959)
(-19.8478588729894021 0.00522128212678259207 -0.00184772435193662288)
(-16.9481004370164108 0.00140012652101218762 -0.000660817900798033996)
(-15.6227983097331844 0.000986645933387112362 -0.000548671747727386442)
(-15.1786503988278891 0.000742024192435271368 -0.000202402684563856764)
(-144.735276935935275 -0.00902118723054824712 0.0102670289325000035)
(-113.295740317323109 -0.000932085913957243794 -0.00149019518076242861)
(-85.851790495457081 0.00678780234092831846 -0.00577411536183464538)
(-64.7941713683191267 0.00336972673662021315 -0.00156779198665909798)
(-50.6709100970999486 0.00345491527970856298 -0.00111508692628921433)
(-40.0160039359022619 0.00332724434044943821 -0.000903992424416002831)
(-34.7603367296280297 0.00317589388831244742 -0.000888835942128142899)
(-30.6934385832134637 0.00719359673593413396 -0.00272763738803842842)
(-25.1687775530202664 0.00423648920950178611 -0.0024695697877962124)
(-19.6889309773759855 0.00134734874913473228 -0.00142745721923937126)
(-15.8101778003452687 0.000495198181384871069 -0.000567352782309810057)
(-13.0374068881846785 0.000419403418779217625 -0.00049068429072894929)
(-11.1346828256135151 0.000409031441971402748 3.74636253271625456e-05)
(-149.202048943548135 -0.000772949448481821113 -0.000895792174755969534)
(-116.217084214952735 0.00059234559024162975 -0.00594100864447070533)
(-89.2679458437635276 0.00496688977732837218 -0.00766501968624102355)
(-63.7405865779966589 0.0087070876752422012 -0.00703732217776327062)
(-43.3800600781103469 0.00650212281897272638 -0.00374223826702560968)
(-34.5792014934482026 0.00302676921197795592 -0.00158283025343268122)
(-30.8855696031884506 0.00589440035128414343 -0.00308071441032990159)
(-27.5249079695782513 0.00633207554624635929 -0.00345461649729770798)
(-22.1249971454846168 0.00392790455416713782 -0.00225670662627019351)
(-18.466870871815118 0.00112646197555983413 -0.000631167049947541732)
(-17.3172273153619933 0.000753527797342366757 -0.000620655596434763895)
(-15.293731619384932 0.000597074596639622862 -0.000497498237182852107)
(-10.3084867725437004 1.16195594377898106e-06 0.00155005847209811862)
(-182.618118247823389 -0.0106828724040530926 -0.0029042466748184885)
(-168.105273118187 0.00345371739278677514 0.00103848474179936683)
(-136.302045073632598 0.010239676480023158 0.000925655296466472845)
(-88.545622778213513 0.0135471236485166843 -2.55343767821124103e-05)
(-52.3134172000042881 0.0123022997718858565 -0.000713625759615865284)
(-35.5590601190076612 0.0100317652395531896 -0.000887485923789970983)
(-30.5247895269990224 0.010171836703565168 -0.000750776287939192654)
(-25.8414923952688618 0.00776443383001298136 -0.000260510725784303843)
(-22.3609669663980561 0.00342057709788666422 1.98699194113334721e-06)
(-22.4498862782811273 0.00218364119801403795 1.19382053387258505e-05)
(-24.1516081185092943 0.00165872062250906863 -0.000132443546530758359)
(-22.0990941046702467 0.000556060338572211864 6.97090872450573898e-05)
(-15.7536769761252611 -0.00353686603418839219 0.00032236827313854218)
)
;
    }
    procBoundary3to0
    {
        type            processor;
        value           uniform (0 0 0);
    }
    procBoundary3to1
    {
        type            processor;
        value           uniform (0 0 0);
    }
    procBoundary3to2
    {
        type            processor;
        value           uniform (0 0 0);
    }
}


// ************************************************************************* //
