/*--------------------------------*- C++ -*----------------------------------*\
| =========                 |                                                 |
| \\      /  F ield         | OpenFOAM: The Open Source CFD Toolbox           |
|  \\    /   O peration     | Version:  2206                                  |
|   \\  /    A nd           | Website:  www.openfoam.com                      |
|    \\/     M anipulation  |                                                 |
\*---------------------------------------------------------------------------*/
FoamFile
{
    version     2.0;
    format      ascii;
    arch        "LSB;label=32;scalar=64";
    class       volScalarField;
    location    "0.149999999999999994";
    object      rAU;
}
// * * * * * * * * * * * * * * * * * * * * * * * * * * * * * * * * * * * * * //

dimensions      [-1 3 1 0 0 0 0];

internalField   nonuniform List<scalar> 
7248
(
0.000415758991052085679
7.0529215318450151e-05
0.0010165732956722458
0.000222927722572467397
0.000185714026835445478
0.00819378098395152389
0.00669520772798347721
0.00199574988395619882
0.000476542681321896896
0.000377629739789836418
0.00819366035854425696
0.00791776131795541953
0.0044301924621220571
0.000699088163331275424
0.000634028430016800619
0.0068102866987503289
0.00657484672981209061
0.00533917455877254248
0.000993658352070006957
0.00485700239392994598
0.00786555433711755118
0.00753151243617703088
0.00697077314110829301
0.00148433884094958707
0.0108413536244877078
0.00972158570123142149
0.00845385906336316474
0.00781007657167812758
0.00345163021227784051
0.0127079800966950658
0.011338740413392381
0.0102024279373370014
0.00995902941733989994
0.00738840608056029122
0.0148399902349731685
0.0133351228699431085
0.0119426014586531005
0.0108192941365721565
0.00988673229393464796
0.0171063415962332058
0.0156267611846474981
0.0142671783222420821
0.0129622260486524088
0.0129701216290081592
0.0185485284519353588
0.0176582167538498098
0.0169144558906403619
0.0164001739501428122
0.0162636506453103791
0.0198248401318841597
0.0195208798239694357
0.0194057436639029079
0.0193421616259246941
0.0193354394063450612
0.0209388020226423631
0.0210277803034302942
0.0210582984768721247
0.0211463529754806166
0.0212503938910929904
0.0214949820433516167
0.022018255036488809
0.0217751008556407305
0.0220262178781225025
0.0222818512393596832
0.0225703043337360798
0.0229308327116557117
0.0234343893708756738
0.0241881317905295705
0.0226946257527043983
0.0230829594279448082
0.0235255102395575816
0.0240352304858154862
0.0246301001831445987
0.0253403331629228103
0.0262020689178313823
0.0179700733640023383
0.0188360807696710854
0.019917506601888596
0.0212734486935713604
0.022972097159267256
0.0250791014937442706
0.0276312835617823147
0.000320375939627575747
7.8564029964669772e-05
0.000706589206202602607
0.000232380099377361803
0.000138326738031105552
0.00855751467307190074
0.006823382103302667
0.00155901995831964112
0.000337990963411641623
0.000255860423248805747
0.00809237886894869848
0.00854306635322080003
0.0041664581455084105
0.000497877588172349452
0.000677120568488235024
0.00616850640117736024
0.00570530413754479979
0.00491892717500456728
0.000719254827982052829
0.00352780939361789113
0.00624319490511497047
0.00520311292787413015
0.00421897223439184239
0.00108484603393285109
0.0091561088718662368
0.00852154777722541681
0.00701794483879551474
0.00563820307052423104
0.00259967836799253902
0.0116381079636955539
0.0107342297098282826
0.0100436371809813057
0.0102906813166340483
0.00753102696755810624
0.0141678151475871546
0.0128766113279558479
0.0117234146410312174
0.0104950874056134145
0.0112129358797300391
0.0168228491576730317
0.0153059017153876018
0.0140134481884372861
0.0124416201706027425
0.0130776889232030458
0.0186979913807841722
0.0174917730229766678
0.0165764335858517367
0.0156893696571741119
0.0158307635348431119
0.0197076053070380855
0.0192975143472640075
0.0190421469467679655
0.0189658709816346166
0.0189686017641163794
0.0209690996296448794
0.021020412299029307
0.0210999998390761952
0.0212438934255274534
0.0217238370012752535
0.0222668696680535586
0.0225264036290933334
0.0228412112851007938
0.0233067258545914258
0.0240442852127398209
0.0235297769068442859
0.024023153766962603
0.0246062268881397095
0.0253181087202521311
0.0262052752457072186
0.0199441054196169629
0.0213281616825316545
0.0230853543469650736
0.025303132686991938
0.0280468799317546841
0.000284209725943817973
9.06493539442366776e-05
0.000547604743121255649
0.000190503344148195769
8.32882615193660105e-05
0.00336712415193533062
0.00510859755828408854
0.00131799091714567408
0.000276446815210648839
0.000196496430884044614
0.0075582721766952899
0.00650005226024541211
0.00359519311162006215
0.000405435112020373334
0.00112291607721571826
0.00487002127898495969
0.00523528818413577287
0.00402415667327926056
0.000613050641810824288
0.00566721531567762789
0.00653746016315003963
0.00539421277950524053
0.00356087253232822152
0.00103813922439901216
0.00918507721381908379
0.00959873671692163845
0.00892152829210896177
0.00721395258423236131
0.00281816804464486139
0.0125663572032670458
0.0117630358414725425
0.0111119991295840423
0.010583691282467193
0.00787587439221558785
0.0153766111620127436
0.0139243772682217173
0.0125034460151313871
0.0111266508522707194
0.0106875965714718774
0.0166388404403967453
0.0155521966960107064
0.0141847838888105628
0.0125885808736268239
0.0123014723438261281
0.0177905808906210355
0.0171757280205567103
0.0163338378548592324
0.0153327966022663523
0.0149209346164902237
0.0192794373349701384
0.0189978758914629217
0.0186966639615591505
0.0185200193407850031
0.0182060588435795367
0.0207388594996826478
0.020790777064970567
0.0208958879499436603
0.0209333531750754802
0.0212395124035394886
0.022177095737315914
0.0224525456726248906
0.0227298992420566885
0.0231533839238336862
0.0238027554826181591
0.023518365039566759
0.0239989621121324444
0.0245728358591095868
0.0252882555501292711
0.0261714268230978236
0.0199608107728660132
0.0213725209725822915
0.0231887875865647956
0.025521959873990599
0.0284722072826185009
0.000247982519053282667
9.60529669460241805e-05
0.000452218107152110806
0.000171581544290313499
6.9180684697034867e-05
0.00109208275587937046
0.00320874328194531997
0.00112625143313818958
0.000243852147564029974
0.00017449125320243632
0.000922357059757509114
0.00442031396968294542
0.00283463891007991985
0.00034484678552673361
0.00185910573635941008
0.00116694843692772654
0.0052929089705648644
0.00502523278612646007
0.000538590760393726858
0.00759607486246910088
0.00627717255134842625
0.006915062704850654
0.00461201092380421427
0.00101946861157580252
0.0117676501228980313
0.0120671133927152847
0.0116665523957515185
0.00896926008411373828
0.00250995426029496614
0.0149289345554724454
0.0139262317227313703
0.0136094565800946674
0.0121514421779882389
0.0080120257806746524
0.0163500620839983797
0.0151681773199130593
0.0139427263589439691
0.0126787145005064529
0.0116372305725559472
0.0170013737127214515
0.0160677175570930648
0.0146406935717126475
0.0132975888169450437
0.0130144871130991064
0.0176636176730375211
0.0171271069856876769
0.0162018910559701239
0.015118164722873903
0.0147480721239794232
0.0190859897944896453
0.018800664343490963
0.0184205487784830091
0.0180489685413991428
0.0174459092767241947
0.0205694691857455474
0.0206030935298087241
0.0206697506656291149
0.0205813854920224269
0.0206564989929156582
0.0220670472410336854
0.0223603747018950791
0.0226082140144968254
0.022990203394463532
0.0234152533855566843
0.0234845596423643513
0.023964829234358026
0.0245348900632178547
0.0252594965331039596
0.0259070827078117551
0.0199679250940615546
0.0214062184615995132
0.0232806284599678913
0.0257314263875792169
0.0284636180345945559
0.00022319894323227969
9.26095823858169202e-05
0.000407228297925444878
0.00016722511332616582
0.000125320951097550732
0.00119475294891442196
0.00299388437526100244
0.00103782971788899574
0.000239302504471726295
0.000392703311004546495
0.0025028624326595382
0.00550836287957013043
0.0026255014978883418
0.000332686067514628443
0.00567751273149046196
0.00583927096396015012
0.00755266477129066301
0.00490763706995021431
0.000523352228916336556
0.0107967893144089045
0.00853403932360939296
0.00856105950262576326
0.00599568655547014044
0.000986584227450545579
0.0141600148728956328
0.0124675322434029713
0.0129243355748877124
0.0109400485299466256
0.00231382088547381999
0.0148433407265453812
0.0147533445166717816
0.016254671213710048
0.0158761202188122535
0.00594695916558946307
0.0154420109836834601
0.0149997036941717909
0.0147143387613530904
0.014320595715116239
0.00990963864723584664
0.0162138174787330412
0.0156586139292893417
0.0147381539835014144
0.013941994721496466
0.0144435280762448028
0.0174471274375690641
0.0168920211142754226
0.0159657639017753844
0.0148641416749635685
0.0152516070832408035
0.0189187378866343195
0.0186070847063380534
0.0181149888315015259
0.0175681100700051385
0.0170528123471553536
0.0204402101134609354
0.0204334080227999253
0.0204392105792266555
0.0202516407552621562
0.0201395303826999127
0.0219777829568472624
0.0222555318999089723
0.0224980139123679319
0.0228533084961517891
0.0230534721538646209
0.0234393949004573464
0.0239291606302881564
0.0245021231871534496
0.0252444415489059652
0.0256601515397196882
0.019968858207988615
0.021430580622722975
0.0233588850751703277
0.0259232554293283741
0.0282747189058522308
0.000213118391416743081
8.08965543976140992e-05
0.000399644258098200633
0.000174793011583857671
9.2687478563469657e-05
0.00102429215110440178
0.00277182763854845254
0.000998668642766793214
0.000250651546329894637
0.000240268160826516978
0.00211246971310132155
0.00546867100070609277
0.0024447072299270409
0.000349084048209066507
0.00509429254478998943
0.0107772492413455972
0.00904147984124681163
0.00538550355790456178
0.000551301852749740313
0.0134964581095383535
0.0136510428424544139
0.00637094070696087728
0.00749564653724437129
0.00100550447065954666
0.0139701931827264265
0.0119966857849926733
0.00977196821047575902
0.00941314991919543417
0.00223384877875326768
0.0142447120737150875
0.0142401172448338477
0.0157726074234986781
0.0150322459096611013
0.00518594204120599676
0.0149143747731945893
0.0148126414807374356
0.0150891907314279605
0.0159967960791699802
0.00934379774825875621
0.0159797563640827929
0.0154793782889951579
0.0146760653822892474
0.014163089226826334
0.0146568303452857523
0.0173800456102821133
0.0168270342682025099
0.0158133039431560159
0.0146206586132706408
0.015117193767223017
0.0188363150102605313
0.0184843405032336129
0.0178943044310588481
0.0171200314572869557
0.0169641711177747866
0.0203649813650384759
0.0203086489807411015
0.0202304899646766449
0.0200358810348583161
0.0199135963795415219
0.021918016288176443
0.0221583716849614899
0.0224139292465854768
0.0227693994906113528
0.0228678663682459343
0.0234034878040401267
0.0238975059647698607
0.0244801979095752228
0.0252491457102577213
0.0255129114486462964
0.0199660883437012028
0.0214467553878882021
0.0234196507628338692
0.0260811986580626563
0.0281413848161803058
0.000200840640666220956
7.19511348589652657e-05
0.000388610720149777276
0.000169904857872513768
0.000138031427793103235
0.0010704980957611293
0.00318884641923374186
0.000888633172366658816
0.000265385241921599162
0.000492893325427269657
0.00307309335369704414
0.00778997681494683798
0.00213275916838241231
0.0003751060082218911
0.00499995636296864804
0.0113578600575279919
0.0148402481769694949
0.0054625270317530724
0.000586523430379887255
0.0132652773614655613
0.0157709916653886138
0.0138735086660237636
0.0101007028947679173
0.000997677205578524672
0.014061301941915955
0.014281723263877253
0.0134800289790751385
0.0128517751289056979
0.00216353290531425381
0.0142518088366626969
0.014923201218525339
0.0157834538539854408
0.0166236422007394781
0.00578171204389568184
0.0147003715547442838
0.0148692743954537375
0.0148619958815509844
0.0155357323640289199
0.010863997886741741
0.0158653353684151052
0.0155605557211231146
0.0147800904295835589
0.013973224348877343
0.0152277059796199123
0.017414357722124213
0.0168732270647255038
0.0158903607828906404
0.0146081959022269208
0.0145444236789425922
0.0188410729937268824
0.0184532572202535869
0.0177900915701681116
0.0169008818459507534
0.0166825896090687618
0.0203441920755898856
0.0202493751013749258
0.0200977817240278363
0.0199031379926663705
0.0198575662183370395
0.0218897377765351654
0.0220971970077512118
0.0223636430487937979
0.0227417618172303
0.0229171756920446522
0.0233823001340821811
0.0238741855570772273
0.0244711991325504176
0.0252706814262224806
0.0254923433072426417
0.0199617601272471558
0.0214556951953992249
0.0234601734422723446
0.0261912156592389242
0.0280773216783852218
0.000190438315040378356
6.7935318279340823e-05
0.000369638087009165376
0.000169435932989802284
9.72833922108187104e-05
0.000805306317489426124
0.00243132078521973325
0.000784905811266631802
0.000263501742754098539
0.000233901891474328665
0.0014416879664179128
0.00366299249925010817
0.0018375029392306225
0.000359590108000303272
0.00303125233161217079
0.00354938088383502165
0.00909249099009058932
0.00524337842403281486
0.000535430352680275651
0.0126620066771218464
0.0143784778903734978
0.0182495148069977894
0.0132523575607286122
0.000895503654830336949
0.0158410968329992623
0.0153312333025545037
0.0168806903891002627
0.0166058532676328641
0.00192572407198460444
0.0148395219334320917
0.0150183173441609061
0.0151953327996367776
0.016119320122422412
0.00584488785334581415
0.0149814597918031638
0.0151932336545524752
0.014833806697555435
0.0150981192904703024
0.0127601105998903681
0.0159477384290028466
0.0158610707802026817
0.0150606876977999148
0.0140490583905496895
0.0151190585460478991
0.0174855112710172803
0.0170652200003387072
0.0161943951610253115
0.0148335848273340992
0.0141417505869721478
0.0189004970670619589
0.0185194931321727083
0.0178826844585764852
0.0169458305267263624
0.0163407184739334486
0.0203516392870905505
0.0202412426036776179
0.0200680011607111686
0.0198463524018916183
0.0198632849387828068
0.0218699147234420535
0.0220556303246344891
0.0223195872777376889
0.0227272996308741163
0.0230906759218995825
0.0233531292613830578
0.0238366657255682374
0.0244486919379305959
0.0252759206615557966
0.0255336205720184603
0.0199410268316051742
0.0214390967771414115
0.0234576207276518504
0.0262215058126547933
0.0280451908426026068
0.0015275778507202113
0.00538085318435402825
0.00593506028259750424
0.0125963908600399601
7.32603108325350852e-05
0.000709892219151084269
0.0026150723378070128
0.00593256350154277613
0.0132238501260698062
0.000192343139970882525
0.00111209352942033112
0.00428785548112399582
0.00625962537176189601
0.0115348444483850451
0.00351028330705739763
0.00631015986732586746
0.011680181140254705
0.0170392527070748236
0.0136511732502455595
0.0097997415931662113
0.0119863293472558148
0.0130544861823719618
0.0144322586745573907
0.0175180113024539959
0.00799635771097734205
0.00654679761212467563
0.00661161565653903271
0.012043915229400487
0.0206244430623554117
0.0128664164596291077
0.0122175355746320831
0.0150167382867097913
0.0188698071745375048
0.0182197236211135392
0.0168249972926878787
0.0166822081087925553
0.0173061095665023278
0.0179287254839324735
0.018467049980730843
0.0175625885917856141
0.0178075692319523728
0.0184633218924924805
0.0195771639800608049
0.0203820563779490357
0.0187780273878253093
0.019027138323768112
0.019715016595350715
0.0206658785763701031
0.0217216199583016231
0.0201042303339387766
0.0204281511038925494
0.0210147970923091273
0.0217999121811440731
0.0227707628877736809
0.0207168684221110851
0.0209195737995393274
0.02121397704676296
0.0216371032637612017
0.0222278442348364594
0.0229975410119165682
0.023901441249265503
0.0217183893424891181
0.0220373956884759373
0.0224335610926350293
0.0229209761113215206
0.023525321360362457
0.0242733362047936885
0.0251172228861174622
0.0226734436488430051
0.0230894540890702986
0.0235860076097444901
0.0241654275849626718
0.0248289118589581914
0.0255918966590702526
0.026412254347534931
0.0178944172980983231
0.0187280178893469637
0.0197330595224527033
0.0209299149914707258
0.0223325435616293956
0.0239619759043719592
0.025773655665038489
0.00194507460029235833
0.00867377683742099996
0.00810984511066231185
0.0166508792716040382
9.54994645707950702e-05
0.000914854548876851406
0.00346267466558961966
0.0134268960327744852
0.0160318900946187747
0.000201721253690388821
0.0012387786817044436
0.00503719887641678951
0.0166139581271982223
0.0131212142581389225
0.00280767483293150938
0.0049240584757117966
0.012226760133367728
0.0155643865088310879
0.0133661678783043841
0.0113076864145022389
0.0134815621772743192
0.0114272071828352383
0.0117213035680521077
0.0146880246908246588
0.012710705168481707
0.0125042760271556006
0.012947560957531733
0.0130239925038163808
0.0141132692200082108
0.0141884259106049102
0.013957483312248763
0.0139320871181637159
0.014563481284370107
0.0158526200790533658
0.0154581706314147228
0.0154534557872797965
0.0159277311179728369
0.017254295257535409
0.0182121971615433129
0.0169119924052401407
0.0170863325461159607
0.0178197105663321261
0.0190485546417858941
0.0201018649867508795
0.0186360042845073112
0.0188620854453618661
0.019482776660670921
0.0203858180183761999
0.0213764087137516302
0.0199810341142824775
0.0203623184705035709
0.020892928956314144
0.0216010147588173614
0.0225113499775223443
0.0207126045315688262
0.0209219977373895187
0.021215699300280548
0.0216278348595580934
0.0221743869148151827
0.0228648866217258384
0.0237172757095196821
0.0216972341063671262
0.022011360479636928
0.0224038741014201508
0.0228900010684738899
0.0234804632413322771
0.0241793169493201981
0.0249926924048077051
0.0226553521406727618
0.0230695116294984126
0.0235643596680200317
0.0241426526018500703
0.024803983107407699
0.0255422583114072767
0.026346662914623311
0.0178814564275568064
0.0187166247310881703
0.0197264966200891602
0.0209335407654734316
0.0223529453480557881
0.0239873508010011796
0.0258114322878643318
0.00164962759643940467
0.00671440835681529503
0.00696477232219066839
0.0152506830935422444
0.000122549095032154626
0.000897238542812315134
0.00383452170943039726
0.0101109909160920618
0.0140596034521302538
0.000374122844218449007
0.00174030264116704545
0.00679778474465277203
0.00931401932306773726
0.0134584555504234267
0.00237682191741895579
0.00737720995455021667
0.011850068496937316
0.0112449148260926439
0.0123784735705314303
0.0106301780440384054
0.0115481375597297781
0.0104083771098709144
0.0106301428371538779
0.0115322638255940749
0.0132178896379793083
0.0129534207831097786
0.0122970579756846131
0.0130888853900861524
0.0129724363001493693
0.0155425025275555302
0.0151808967206021554
0.0140942989429521624
0.0145267366551812393
0.0154538435010288019
0.0156557198190567584
0.0157842483639756906
0.0158502285797639322
0.0166868478535667462
0.0179283407583105715
0.0171371995811175695
0.0173050807174812797
0.0177137718466401327
0.0187112470237923538
0.0196297681893484385
0.0186614406012255846
0.0188910744556536649
0.0194200346063472737
0.0200748691867349387
0.0209102275787761901
0.019991237423887049
0.0203043339594471198
0.0207537153379779883
0.0213693292529001898
0.0221918361844371248
0.0206858777657287635
0.0208954362494922219
0.0211824506796360959
0.0215677030113171284
0.02206851503348458
0.022704125863417423
0.0235049612136872497
0.0216736501028108285
0.0219855471192083041
0.0223713757403101419
0.0228420996700804541
0.0234077466725059816
0.0240760028997253038
0.0248625329190730431
0.0226416493485275226
0.0230540653238117781
0.0235454927211686052
0.0241175611367138339
0.0247689865691674838
0.0254937321859509541
0.0262875907331985431
0.0178828061448452168
0.0187212463159212236
0.0197372275411574205
0.0209545161980479282
0.0223900291123697963
0.0240473868786061917
0.02590347372321012
0.00140373874785722891
0.00360709433039018128
0.00549385492553241487
0.0138734420692428126
9.16145994682652641e-05
0.000893950373615245856
0.00321538969570727079
0.0095687134991747011
0.0191554999093679727
0.000272068470361213558
0.00204647237334339583
0.00616024838651660356
0.0107402373100943232
0.0171864780610638118
0.00322785210947057607
0.00959406034910490098
0.010627881471255372
0.00843619951134640111
0.0135837016781103336
0.0107823552683341296
0.0114682465460965426
0.0103065203520953212
0.00780105868753333802
0.0117636360227370597
0.0115621431502322628
0.0114045037676667148
0.0111358687277997599
0.0120497678307956036
0.0120397235535070583
0.0133554313133043227
0.013135186330416021
0.0129766535027327386
0.013683363473614046
0.0148807659021755589
0.0148856662442428782
0.015041040378988485
0.015277074567036017
0.0159542173887632747
0.0171111773834885898
0.0169246862015362057
0.0170555331173195546
0.0174259078829258028
0.0182539969130982062
0.0187870579179932572
0.0185171569400159955
0.0187231274830877391
0.0192187830184117163
0.0196718948320587193
0.0203402480485189198
0.0199250192997912495
0.0201944502499257945
0.0205714867545023841
0.0210904519510640431
0.0218238137354620811
0.0206459000228725459
0.0208537226489197459
0.0211277314899154418
0.0214834987231448775
0.0219378335959063767
0.0225187200630944176
0.0232723526909707351
0.0216480351645037192
0.0219561862390737529
0.0223325088065422193
0.0227853299882440907
0.0233250141695029965
0.0239655722115279975
0.0247297675169967993
0.022628531669933085
0.0230390673481617493
0.0235263419552653626
0.0240916707502391303
0.0247342675958008504
0.0254501716705824096
0.026240479020096151
0.0178872228100362234
0.0187297783754256028
0.0197540181790319437
0.0209863514313693884
0.0224472883664252644
0.0241438907749988753
0.0260552191034629579
0.00112783835035864827
0.00157623622121857163
0.00355932631445421768
0.00459361777722788918
0.000124450406824308144
0.000962349906897860992
0.00286511490083395321
0.00695253729934184554
0.00913960350716455996
0.000473093015986520977
0.0029164072719251059
0.00565422815442650616
0.0110986584447872027
0.0137819961362748381
0.00640353375768051934
0.0109489515017989758
0.00618069693912081525
0.00997239318268788519
0.010865349513402605
0.0112384445924440645
0.0123529328351202339
0.00747481338615579079
0.00835973659159898637
0.00974555429658567098
0.0115051682570992703
0.0115606215999793458
0.0105516839824230328
0.0104895216406877857
0.0100377891486163866
0.0125044560094126761
0.0123478908251659237
0.0122847943569810349
0.0125652141596874246
0.0125371723780104104
0.0148627966112415671
0.0146540605360776198
0.0145880137148146245
0.0150136470203802875
0.0154698768901416865
0.0169243259420074725
0.0168710711061604672
0.0170188785962976236
0.0176065208447740117
0.0177060160849304149
0.0184597436347867794
0.0185655944834907521
0.0189534711819397024
0.0192019323494346493
0.0196510166518490681
0.0198698867294480608
0.0200845402333640483
0.0203716272323678227
0.0207800767205199195
0.0214145276929798428
0.0206097129293675019
0.0208170996692891852
0.0210741732272382125
0.0213941595681838917
0.0217965628654205879
0.0223205148532948927
0.0230327120100958724
0.0216260190023971899
0.021930724738644148
0.0222960762868443935
0.0227283566837951437
0.0232400696813410725
0.0238534351527019337
0.0246018775818819535
0.0226191048620625473
0.0230280293297940551
0.0235109780635943504
0.0240692662595842106
0.0247037000824922165
0.0254144041856851979
0.0262068151583346592
0.0178957661951491716
0.0187434797413933082
0.0197779068054709101
0.0210297841197477561
0.0225252445339180797
0.0242771564264543417
0.0262673220641192508
0.00110824396003504741
0.000514256935455916983
0.00327648661745884697
0.00109557295600473561
8.09262886678223023e-05
0.000713114460623158583
0.0023152626136536316
0.00505372781532836303
0.00206507573439549189
0.000232988487460150803
0.00138026487140095917
0.00390694347521671446
0.00767935924556057206
0.00490849127061632889
0.00768551282616550865
0.0048441005211959428
0.00559813333685517476
0.00986088517094444242
0.00757258613942945503
0.0120720201105449405
0.00901891385559852078
0.00441654260269472992
0.00896033355954099428
0.00731250586558051911
0.0116512469801821096
0.01048180356919199
0.00964434404990197579
0.0093515995149514794
0.00763643974115446426
0.0124932744709129427
0.0119826777735352226
0.0114980172041569701
0.0111656103034413669
0.00982939547913845926
0.0148113922146229284
0.0142642078103799724
0.0137528030985466249
0.0136679811790888766
0.0133525592473374994
0.0168531855066804716
0.0165491841518288774
0.0163939854403029189
0.0166910415437927263
0.0163000920823704806
0.0184019099823158859
0.0183724036813032801
0.0186054511398791485
0.0186703212508363102
0.0188359161920821985
0.0198227394043005954
0.0199764670508528197
0.0201653242901545585
0.0204479426560586833
0.0209665257830151212
0.0205835061627253103
0.0207942949499982307
0.0210326255635801505
0.0213104481646548653
0.0216540447030714074
0.0221179285243958655
0.0227946077640470007
0.0216129404607381843
0.0219168805910557978
0.022268713821340172
0.0226764160253003187
0.0231572340996090593
0.0237440723992027973
0.0244853088799089937
0.0226173372989683166
0.0230249992722602811
0.023502646245967488
0.0240527953119864801
0.0246791458431934521
0.025387332262459459
0.0261888544917529449
0.0179096047667799893
0.0187626816320444756
0.0198086297273919569
0.0210837488912688394
0.0226219010827714527
0.0244443638997828561
0.0265384118712171518
0.00124104480262628679
0.000204115687952741262
0.00523993040310043266
0.000395469479488117252
0.000104619527790541993
0.00125072643278699241
0.00815901146904381147
0.00871650128214110018
0.000702771325312263277
0.000297530429563100537
0.00242670455202389232
0.00944349905969600091
0.00863866781647005567
0.00135032652791425875
0.00233343140131873168
0.00539512289115197212
0.00765799964569226135
0.00739874160230189013
0.00280723156114869813
0.00848318311854113181
0.00491710453242378848
0.00467539151573178463
0.00743018060723642151
0.0050176784723646459
0.0109841195693587846
0.00901400960854714661
0.00863506652637007627
0.00818713908093418249
0.00569948183596454862
0.012455489487046752
0.0116533779504504279
0.010698680859722854
0.00992984966244218371
0.0082249088634567865
0.0148998864630314511
0.0138944219747352202
0.0127763634200707913
0.0121020375629182723
0.011148600460512267
0.0168764048392994609
0.0161940018465625869
0.0155382309182935628
0.0154159451843764415
0.0143162768933241293
0.0183914750500345156
0.0181236264121649969
0.0180664913042140225
0.0180895045280727203
0.0176979129476653868
0.0198160347141651053
0.0198670592578602707
0.0199499974798646972
0.0200861335523998437
0.0204638564565305658
0.0206031189511420264
0.0208107741083358652
0.0210166778414490121
0.0212391025243886984
0.0215148170843104218
0.0219148031817977783
0.0225623829387588751
0.0216285698085276999
0.0219257506085448022
0.0222571250930900001
0.0226335673601462534
0.0230791049378986507
0.0236412686720771405
0.0243821467228145621
0.0226290463083752523
0.0230337039367802428
0.0235035402242169539
0.0240433289318462938
0.0246607794013307159
0.0253689415242060144
0.026183730791395729
0.017928460583169447
0.0187866369133530102
0.0198446282257200256
0.021145526907505225
0.0227330206160520215
0.0246397862470104402
0.0268625123426917967
0.000849235851017289241
0.000131583304046698846
0.0022307936618014626
0.000330508874843881177
9.03438755108780414e-05
0.00357090935082884356
0.00924252468774816247
0.00350943884350521417
0.000539694210451916487
0.000198651597897219059
0.00513939158129368516
0.00865203206198243355
0.00590473914826142917
0.000898930176205190888
0.00087890122726079305
0.00300717254084757225
0.00651006983087721192
0.00523503666208305785
0.00145687337959968396
0.00799819874529971234
0.00647849699615432421
0.00829427347649438172
0.0056164373696068878
0.00229431991164719693
0.0103328468718919628
0.00967694866758224068
0.00917135562252299578
0.00699786707382288927
0.00444249111094002867
0.0126375977388206422
0.011550410109121733
0.0104343306526879873
0.00952451578658738279
0.00800824537551182367
0.0148724079184677765
0.0135569967093172074
0.0121488041967233815
0.0111866057665337866
0.00999159750024239054
0.0169294618992060428
0.0158519475009032372
0.0147590326897608821
0.014036794654705035
0.0128965713637170278
0.0184228016685050941
0.017856937821381702
0.0174286166417886509
0.0173299546742532139
0.0164871087475496544
0.0198366923673882062
0.0197152510007230428
0.0197243155778868556
0.0197153642089070644
0.0197956802983251384
0.0207170971472105947
0.0208881505323577771
0.021036960638829403
0.0211858559192910911
0.0213818952679219951
0.0217102548996759639
0.0223304667238306519
0.0216841469730606196
0.0219643467953610505
0.0222640941155181071
0.0226003577489094255
0.0230055906724847027
0.0235402476959167758
0.0242900730125711166
0.0226562703112819196
0.0230547414000290586
0.023512891652999756
0.0240390191890244645
0.0246459490734923514
0.0253551491473863189
0.0261932874629853298
0.0179500799122744893
0.0188127124242562782
0.0198825691514649926
0.0212106041122666969
0.0228521942778725576
0.0248547284518073654
0.0272331027243888912
0.000814563564968694902
0.00068340804500783745
0.00119489747592103901
0.000907438747788262621
0.00250658460392385153
0.00178195432336522509
0.0012259882144746517
0.00532975048296186089
0.00452838371230017498
0.0027192230623839268
0.00167531692904769667
0.000546501402685556901
0.00046073210585252395
0.000741212481273776464
0.000559561808371656809
0.00166075033712983437
0.00101355035443127231
0.00066666253106360178
0.00450374611369330421
0.00290463008441586411
0.00143113215630667062
0.000796613163851487335
0.000297290242673646607
0.000197729095961805753
0.000365810166557438139
0.000224561452798556374
0.000832021199872967632
0.000442537578635689936
0.000247712726030427323
0.00266371213900218904
0.00125824406717941453
0.000531436592874806688
0.000270821100385446403
0.00011081648981069613
8.70477718405524042e-05
0.000131009500182426556
9.8621918830680896e-05
0.000291382779954079752
0.000148398237759998102
0.000111163798378573274
0.000979112646438169568
0.000362261723013347062
0.000162214107199817967
0.000125718367414123843
5.94414498714464194e-05
8.06396011105104326e-05