/*--------------------------------*- C++ -*----------------------------------*\
| =========                 |                                                 |
| \\      /  F ield         | OpenFOAM: The Open Source CFD Toolbox           |
|  \\    /   O peration     | Version:  2206                                  |
|   \\  /    A nd           | Website:  www.openfoam.com                      |
|    \\/     M anipulation  |                                                 |
\*---------------------------------------------------------------------------*/
FoamFile
{
    version     2.0;
    format      ascii;
    arch        "LSB;label=32;scalar=64";
    class       volVectorField;
    location    "0.149999999999999994";
    object      U;
}
// * * * * * * * * * * * * * * * * * * * * * * * * * * * * * * * * * * * * * //

dimensions      [0 1 -1 0 0 0 0];

internalField   nonuniform List<vector> 
7248
(
(0.589005627976709967 0.75251852336396019 -0.407090254541413732)
(0.501325233428016825 2.91669058567116224 -1.05611291693823173)
(0.377973496994379266 0.835720264604177254 -0.535055382271321434)
(0.524636677321396405 2.50773256174230053 -0.826637806233200934)
(0.140867814736398173 -1.0458305770395544 -0.0436013323425161609)
(-0.403232203192422589 -0.204101859821284287 0.0587009193280309677)
(-0.164228670149286576 0.225696769325081037 -0.402945729756660931)
(0.123925412395771165 0.476042486060805514 -0.693227378193377541)
(0.498983484255245524 2.06422059985308248 -0.724284543982995799)
(0.0885538478883008406 -0.661060116228918138 0.0131450114724402344)
(-0.602500321878281619 -0.128985606022459981 0.181922253648547)
(-0.401289154591483732 0.154743369773181427 -0.0620089127738607665)
(-0.075453966276249923 0.340741363826765342 -0.536960811450819864)
(0.4274530802230459 1.71562616844666738 -0.661213520523399545)
(-0.13232377842663301 -0.34114694556604952 0.0858445449740663918)
(-0.782964966269881879 0.154881386910378199 0.154722627991237149)
(-0.603860437212105916 0.24973663568438656 0.0804792758436857492)
(-0.380295450658280298 0.505000470311546823 -0.220082571997383569)
(0.189263992363301464 1.33653246083760813 -0.568292478864315109)
(-0.806356577669148367 -0.248968214553745071 0.185770686249305234)
(-0.990998384885866668 -0.129825441863448188 0.267037308869559509)
(-0.695492524674016233 -0.303147882454182338 0.321735563933268798)
(-0.550334026142318078 -0.0395164304822297335 0.130187728730457863)
(-0.233379632680691923 0.644573100658250242 -0.315615725237745226)
(-0.871231630301669946 -0.467051161341838494 0.26528301297427942)
(-0.770539703130165732 -0.502089757975627049 0.314196417812452833)
(-0.599151507228960378 -0.493538049044779548 0.34413625058970021)
(-0.5472212409959607 -0.250348707031909923 0.304919074432085935)
(-0.413068509088886981 0.232152780512360213 -0.10220889406079435)
(-0.624759989160075691 -0.444017876096659991 0.200218112440576024)
(-0.606639413057078136 -0.622069086560385509 0.252903217398628977)
(-0.584789678252455314 -0.604111312984135451 0.297551171295970251)
(-0.579716891455597128 -0.373043820375144775 0.250691779132147574)
(-0.5245585911656514 0.21913757385152266 -0.0754572143976413034)
(-0.446700819693906404 -0.422078591831116623 0.107073277841468167)
(-0.474311425688322796 -0.545585395017332719 0.145622433941316409)
(-0.572943894788321417 -0.508709444495203278 0.177057080080774976)
(-0.662715791218002503 -0.394944058799560738 0.154478597491290448)
(-0.644213188755178079 0.121052559456022113 -0.0154296091060601714)
(-0.307074060822624506 -0.448173329389345287 0.0473317488433529637)
(-0.393682361821798776 -0.448547783149042645 0.0758492561582949365)
(-0.517096930066834437 -0.405929320472368516 0.0943500133388865264)
(-0.652044476464454625 -0.297791310189535086 0.0979955286997955949)
(-0.736655425915170303 0.0580832101146221969 0.0239199101297814659)
(-0.278950911688244985 -0.360594475405412007 0.0105363443552311184)
(-0.3534570379226325 -0.333804237438949047 0.0293579820892296423)
(-0.440437204504480539 -0.288690452684044363 0.034880470422739826)
(-0.544343991596456855 -0.206632887786551867 0.0268593334485775874)
(-0.618405154865689366 -0.00937635048331680876 -0.0180257304990955811)
(-0.243756886985930787 -0.301485015325883343 0.00468245350226636874)
(-0.290083836418291552 -0.262760402052552133 0.00816236901699281779)
(-0.343022108949057436 -0.206863203026773634 0.00409436952545988962)
(-0.399898037362833303 -0.128380747250627203 -0.0111240908397253827)
(-0.438970274241064051 -0.0102241430193944216 -0.0445764814982132912)
(-0.154129973691128686 -0.325645562396731647 -0.00593427100481409061)
(-0.170736520115993828 -0.298346178503794857 -0.00252885277597236519)
(-0.194364546563781826 -0.264147377762051605 -0.000551905133270901363)
(-0.222038108459314987 -0.219985453527906549 -0.00197590965251113332)
(-0.250776900835286809 -0.164057398736273341 -0.0081047622867961161)
(-0.27578791374836964 -0.0930477229150099283 -0.0208663721586444285)
(-0.28658479473637799 -0.00461177036268587033 -0.0423988723217648689)
(-0.111122849178017707 -0.31430014553645591 -0.00353012489939824332)
(-0.1232316751310914 -0.279643595028217007 -0.00254185797668435558)
(-0.137780449374726 -0.240154607623843136 -0.00284773414585675917)
(-0.153702944065326724 -0.194210596912643113 -0.00523943408218950461)
(-0.168904732121123446 -0.141007632456774917 -0.0104210472817042512)
(-0.179843214076782859 -0.0800044205858976426 -0.0190611600812819054)
(-0.181067081002068919 -0.0120397561610917844 -0.0314405144630442446)
(-0.0664879673655651565 -0.304272372204995756 -0.00217459148041619209)
(-0.0734619915546776692 -0.267475035690497021 -0.00201757171000114827)
(-0.0810152279059886127 -0.226047789288854717 -0.00265225480718842693)
(-0.0887476624651881846 -0.179662898385352238 -0.00442650561145261582)
(-0.0957276014999311892 -0.128577264403292979 -0.00765925784332589614)
(-0.100312500090121673 -0.0737323382031413593 -0.0125415412047420426)
(-0.100241719442361765 -0.0171516444146081887 -0.0188854323450442785)
(-0.0224876531963073868 -0.301807509214617131 -0.000624347872044015047)
(-0.0248936038829046455 -0.264820492423299803 -0.000648798013699607222)
(-0.0272346627190707749 -0.223115481612323141 -0.000939907589979406283)
(-0.0293839560300143549 -0.176794090430756612 -0.00158156177712330168)
(-0.03110746745616743 -0.126510806675056181 -0.00265141507360123346)
(-0.0320431820112768578 -0.0737453969934837444 -0.00419172736229233255)
(-0.0319008224557606052 -0.0209451206440102594 -0.00614456187267229011)
(0.586034707983885572 1.06529535349618953 -0.492467337436881314)
(0.496170991040042364 3.34490418422719582 -0.791560852884965693)
(0.409734679782011668 0.943728177385505185 -0.629418547165704001)
(0.536207862518508493 2.91208601564877823 -0.702668995346760084)
(0.186434794760697381 -0.96416355263232667 0.0506792122370759573)
(-0.372407163145882403 -0.412542464791968433 0.00739109031541430178)
(-0.0341967483365295394 -0.0585899557678116745 -0.578573605309080863)
(0.165735720193284669 0.378072801792096624 -0.778994665852689394)
(0.521770221958444136 2.53675201953839125 -0.688888910288679601)
(0.232305431850425792 -0.645197530089056115 0.0738820702593003947)
(-0.471878628637625142 -0.374759673348976696 0.0909117459656706012)
(-0.176586192161601291 -0.217385669941534798 -0.312348785714570087)
(0.00167249691639882042 0.0665543250943352871 -0.723142597679673593)
(0.482515006788420409 2.14016492175777051 -0.686568576455256041)
(0.227417451684776062 -0.337444117084256812 0.153702577898036846)
(-0.785763827316671937 -0.188673766077196658 0.167446151623399736)
(-0.575833208549256681 -0.285918889436366841 -0.0268596586655019537)
(-0.405744784223732946 0.143396665158187497 -0.361211041478055273)
(0.310194196205111739 1.61818040981696898 -0.634101373598454754)
(-0.805183238730407314 -0.0334595384801895657 0.334280204757042398)
(-1.040612129475323 -0.068397195680842196 0.34162084422266431)
(-0.821255086946094615 -0.524814642218171423 0.25458168406981424)
(-0.835075718478339057 -0.234479035059713459 -0.03736810334299491)
(-0.212118162550593514 0.704867469427260196 -0.45204992645331854)
(-1.06794546799124013 -0.247591325296382447 0.343288944379583127)
(-0.903274643059679305 -0.390770018866031299 0.359105061559138017)
(-0.753052461455495981 -0.474146380181741822 0.277489785739899963)
(-0.736794376100656789 -0.314358337644086161 0.0744886761314765278)
(-0.441299229155142747 0.0317524462688869857 -0.325007242958216258)
(-0.867120222869482649 -0.318970479057188672 0.221529021476652155)
(-0.72490021565966789 -0.566554716240040834 0.256698976833975689)
(-0.604189611202815779 -0.595018996480121798 0.257471037918989676)
(-0.541362766358949754 -0.469958603098208083 0.117310597325059635)
(-0.451161122493479672 0.0425711753065475818 -0.237485575320439901)
(-0.583295293017826122 -0.344322868161329121 0.0942780489834207369)
(-0.523824679660621184 -0.583579339263551322 0.139853269877015129)
(-0.566765689500975833 -0.55859370906077066 0.169864902487872449)
(-0.639694103536092795 -0.483295819385798242 0.133008114752560386)
(-0.627755536949451631 -0.0635341811862812911 -0.0415096796088091913)
(-0.32559633803282062 -0.387324252369004973 0.0627822913979210889)
(-0.383912141043201205 -0.490112998087510965 0.0863289501004364801)
(-0.501092639725368771 -0.446249699028661184 0.109428136433913636)
(-0.634509483429456567 -0.375373534952485377 0.109828062771531676)
(-0.71985675109410252 -0.0573854525644836855 0.0438145256063252539)
(-0.237665623702049578 -0.376261085060151268 0.040694416775265238)
(-0.338335189630577793 -0.356545287717110193 0.0437217998069691222)
(-0.435265626281030715 -0.318869818371077307 0.048366459613271677)
(-0.547097641094516973 -0.254411012083515575 0.0452906016556786847)
(-0.637513015478946565 -0.0715002796279731456 0.0139511294527449245)
(-0.238740863673405385 -0.304148218975839824 0.0174982970660000417)
(-0.290196566491564667 -0.273541419951247422 0.0161362628899573944)
(-0.349829289158600898 -0.222422856371035788 0.0111630504655131496)
(-0.416461518682577303 -0.149684133563127542 -0.0010640395346322995)
(-0.469786587464809502 -0.0333792157859406843 -0.0278869329422383981)
(-0.194510389572060516 -0.267238851209638972 0.00539405171969816084)
(-0.225505353701369426 -0.225175458437470305 0.00224959566803348363)
(-0.258896277988093559 -0.169952116545865006 -0.00454197825193324283)
(-0.290115708861982791 -0.0980974187867743597 -0.0171326661325139698)
(-0.308237676472199795 -0.00582169320477547714 -0.0383201365131727797)
(-0.139053494129939392 -0.241516721512536808 -0.000279216473180873923)
(-0.157131014307513223 -0.195574667975092681 -0.00318035071418200366)
(-0.175105927742816747 -0.141450980363314355 -0.00869312430531130054)
(-0.189295193280771934 -0.078088240956336416 -0.0176492672689264295)
(-0.193499882243872517 -0.00563016698065956726 -0.0307609999292374481)
(-0.0820215969326910516 -0.225824397942761462 -0.0015294274438260461)
(-0.0909541882942758867 -0.178737952965659919 -0.00346246206144111036)
(-0.0993597960459487312 -0.126231284172648145 -0.00688648182169532708)
(-0.10541337952820086 -0.0690358197605959595 -0.012042111696389227)
(-0.106458912800407562 -0.00897966443098707073 -0.0188291707754856923)
(-0.027631805168921008 -0.222175190867003242 -0.000659520617323974953)
(-0.0301328975701261118 -0.17492929536141244 -0.00132866177081237408)
(-0.0322667222692861744 -0.123137843481319842 -0.00244230025655546232)
(-0.0336177890187070449 -0.0682031987381017113 -0.00406339702696678282)
(-0.0339008715006007683 -0.0126166138040420209 -0.00617268870873935623)
(0.611340340420691741 1.26591437396100215 -0.478725236201135274)
(0.466471992177123873 3.66570593165080227 -0.681835511201098754)
(0.460365286960198905 0.992640458153862815 -0.619200166033413213)
(0.547985516931755234 3.23687784942972545 -0.633488906918234229)
(0.217384747086449004 -0.998474343358360494 0.106777458481624427)
(-0.0512958568830865838 -0.663556325816445525 0.0882837286715781322)
(0.0150763006846874464 -0.205418266190359161 -0.467951819346688724)
(0.218286195747264794 0.344640874321113122 -0.727220200520675042)
(0.544180113251914621 2.83520662294859793 -0.625469852429543338)
(0.254863919548155959 -0.79907041756039876 0.143436537264421182)
(-0.229587261079715582 -0.548516199401161919 0.225307982382536964)
(0.00890464693427908682 -0.522633834008244924 -0.194011215884610261)
(0.0750555734297076449 -0.0821668449286512143 -0.74562566674569053)
(0.507455227587612301 2.3891392172196122 -0.628503898599973576)
(-0.1423050919084827 -0.581413078613756573 0.257396023941007301)
(-0.765362393238335992 -0.524218712445064905 0.303392961793210292)
(-0.595868891346841956 -0.778349866082346353 -0.0568857588190229274)
(-0.409512591254082237 -0.193758548331492586 -0.35859952366732345)
(0.353858512317093366 1.78466123558360534 -0.594976078593515534)
(-0.987917025754798894 -0.317204942383893518 0.429601989150188546)
(-0.960231902969320039 -0.523427553700099635 0.364681921057241731)
(-0.770051144195524562 -0.899875003148116082 0.160780593658752746)
(-0.776875892613834829 -0.645097025361924148 -0.0948462573772195922)
(-0.103861990716229688 0.740575418640908922 -0.437376445040236039)
(-0.950571746316960509 -0.430106197498326848 0.345167777583335111)
(-0.737996661488237504 -0.643958858444761972 0.297595660070216539)
(-0.516035157392202848 -0.851597164379633287 0.145979941706168959)
(-0.364244232507371368 -0.963073113607329501 -0.134225832434452741)
(-0.381930828311333403 -0.159104581004404333 -0.355143432116005409)
(-0.636845207929635615 -0.531968915852550239 0.128601701989354944)
(-0.57823044197939133 -0.705649496963545619 0.19892187764359659)
(-0.473752033773014447 -0.794166557686792673 0.17254775562794053)
(-0.434272075837803473 -0.730106635430870954 0.00239123006409935803)
(-0.398631991020174714 -0.169043136244615644 -0.316605180115571927)
(-0.350172292150509157 -0.582849435931906967 0.041206450683266907)
(-0.422727192079014324 -0.639245861540527871 0.092415857219736039)
(-0.47498974734006133 -0.671140530027609428 0.129507435706239654)
(-0.564560187125254576 -0.66456482705679587 0.0923873989164390313)
(-0.576748672822306685 -0.275042715083246903 -0.074094391103671331)
(-0.292689991743045996 -0.515435350975859574 0.0586534969310040372)
(-0.373909904438307183 -0.512627217530398749 0.0688117248855094898)
(-0.464539156635985329 -0.499525078918713172 0.0906256564657629549)
(-0.594151078440442793 -0.453498602901758918 0.0869331451261365351)
(-0.687103621694298394 -0.183778932820714391 0.0233720872013028769)
(-0.270875369327741145 -0.399437778649128161 0.0558796491648760052)
(-0.347767986335206281 -0.378699645769714932 0.0452720732535683845)
(-0.432026814040218088 -0.35361892566501163 0.0473217218199795397)
(-0.540936990175550636 -0.303206089796164702 0.0443235163455607123)
(-0.637919625282747149 -0.138494613352837748 0.0158502362358770646)
(-0.244815921248485641 -0.325886941321524404 0.0257387095979805525)
(-0.295703182337784365 -0.290274159671978782 0.0200734268237071078)
(-0.357689956829915334 -0.241921552129487905 0.013230785535513441)
(-0.431360526406377676 -0.173599803080998483 0.00038003752913212327)
(-0.496337724097377975 -0.0603742322601212508 -0.0270017544777712976)
(-0.197637222336651819 -0.276059049637094045 0.00964556974185277333)
(-0.230818072048172063 -0.232991345231739394 0.00503697107246992709)
(-0.267674432011435537 -0.177542751621712569 -0.00249748512764222125)
(-0.304753824856084043 -0.105137943151535102 -0.0158435047670143388)
(-0.330628431357626984 -0.0101195121956739464 -0.0389603952614172161)
(-0.140985333275119973 -0.244910486697001162 0.00191130281806227865)
(-0.161040218539233226 -0.198108010954267777 -0.00141213666846588164)
(-0.181636074333389241 -0.142702607874600873 -0.00720957644505484767)
(-0.199211595740836633 -0.0769848262018387741 -0.0165318578265690082)
(-0.206958657952274028 -4.26800479636467445e-05 -0.0306894284532207295)
(-0.0832092647453964163 -0.226310987677140751 -0.000492394249374187047)
(-0.0933376859405571635 -0.178347259941380204 -0.00251961322382300091)
(-0.103193441881381895 -0.124338845431772649 -0.00602425601012830832)
(-0.110820460350067707 -0.0647375992196245198 -0.01133410740253127)
(-0.113179244589475814 -0.00104565177698642386 -0.0185099746449151337)
(-0.0280600898688676235 -0.221541826885682636 -0.000395149127000013933)
(-0.0309241411119612238 -0.17336545617732102 -0.00106371924313971092)
(-0.0334823346526310003 -0.120050530470895561 -0.00218060317133418353)
(-0.0352938369979287903 -0.0628833240712244057 -0.00382622311894966882)
(-0.0360999669066349727 -0.00437608009586534959 -0.00603699556800786109)
(0.634655002150776193 1.40094055167380249 -0.434167625899247123)
(0.459915046137045314 3.87144647545623188 -0.519173904226072902)
(0.513131114896131946 1.07663026755645608 -0.550455005990984403)
(0.558045240476710558 3.43524515253021479 -0.512085609466576441)
(0.220854167751357744 -0.980333135651442311 0.0160811218538091487)
(0.205365456492219739 -0.747696048094654619 0.0602214377020066152)
(0.120176747937017145 -0.244951680225470675 -0.314468037620107221)
(0.274476444369435801 0.393445150276710343 -0.614289040745002679)
(0.560765747918749891 3.02094177176391732 -0.519308877140399083)
(0.143969597173343844 -0.836524453627233266 0.0694627169930541327)
(0.272470443248596095 -0.661100796315609029 0.135207087254299418)
(0.337912965070019944 -0.367672143081577529 0.00259518411759961098)
(0.152567747091969547 -0.0113589582514202897 -0.530725327732037067)
(0.522823988228607206 2.54606687749209781 -0.522375901697683664)
(-0.299646000775058485 -0.841176787552725735 0.226638182294120444)
(0.153373167312006009 -0.560941562808349614 0.157946140878063468)
(0.126201863549128962 -0.399146203857005111 0.0604866494213357059)
(-0.113213078193343517 -0.173365105484762583 -0.320778308921881361)
(0.398757471539371522 1.91351017666565748 -0.498868032294076114)
(-0.918448739310229856 -0.753984526647637043 0.34938059367403923)
(-0.850773581990772354 -0.807952077539644709 0.195206517982463607)
(-0.620413689478380714 -0.544949703673955343 0.00533279987513911487)
(-0.52222604344657797 -0.0164955839088491291 -0.125228600520744499)
(0.105687988643669697 1.12374995435807778 -0.392673197355815518)
(-0.691735742077829951 -0.400867256243148229 0.190596851017409114)
(-0.489345073874564607 -0.657000452198074347 0.0840091179409720029)
(-0.354161555963812158 -0.859189106707480943 -0.0469399086733856483)
(-0.297823074477745198 -0.714677798471358594 -0.18688974729746427)
(-0.197698527119801792 0.16624654951382356 -0.28478110541917584)
(-0.405078990587449284 -0.450076060096573194 0.101873572047714703)
(-0.338787635113515562 -0.700851863992286606 0.0822212423131865044)
(-0.32155983287419132 -0.754100180386570784 0.0153216756416494956)
(-0.281590419556486782 -0.724301655608524553 -0.167384211586386278)
(-0.293987013961980514 0.0176885458313966459 -0.352375176638527798)
(-0.318518405192198595 -0.477678468307846771 0.0777006545575413127)
(-0.293957475658017997 -0.592506197607559848 0.078174075397609108)
(-0.38310662311649879 -0.656053836903311871 0.0606705802879697886)
(-0.476567057064288424 -0.58719464002759536 -0.0148962057659648012)
(-0.466917874197298466 -0.169450702649933588 -0.159673083781891489)
(-0.270996468546316982 -0.517381115580748396 0.058755697499095684)
(-0.336391496036723636 -0.495549625715104691 0.0559566394118584803)
(-0.443127438894199366 -0.513277872587525108 0.0571235415228218829)
(-0.559210507073627183 -0.456003236180436811 0.0365834064604047063)
(-0.628713904046271699 -0.160016267873013762 -0.030045472721161065)
(-0.288268689782782639 -0.402045014212720764 0.0462433460577970079)
(-0.350905433109347076 -0.389714000482180356 0.0389728769977362027)
(-0.432649825081833306 -0.370438466682727507 0.0370638239705957453)
(-0.549309281354769641 -0.320867164348369038 0.0307195458331088606)
(-0.635630541076465994 -0.132085619545594474 -0.00171603536097760662)
(-0.251056401853710032 -0.336880701627388313 0.0250168048558947684)
(-0.301979939133303066 -0.300663354354017975 0.0190305897197934754)
(-0.367035000408303058 -0.256953113441827752 0.0116947146479951646)
(-0.449891252254317586 -0.192966920053819879 -0.0028833145067030351)
(-0.527411596257966853 -0.0708276282842531801 -0.0350345051686133668)
(-0.201212872510933699 -0.283796897498033163 0.0106048355435526404)
(-0.236346233149448554 -0.239849235135229238 0.00595354419684498374)
(-0.277111295037914318 -0.184199044073296819 -0.00173997308586941284)
(-0.321646490194085977 -0.111429196663815927 -0.0159334043059022705)
(-0.358131809757851471 -0.0124123094055396885 -0.0418914950388922583)
(-0.143158362866122463 -0.248449595756149055 0.00305823881275715977)
(-0.165155648951211625 -0.200754310631282462 -0.00024372337426680022)
(-0.188422792966105007 -0.144013946742741816 -0.00594577807436227294)
(-0.209838382493459763 -0.0757196154407824423 -0.0153653560375703498)
(-0.222194668745429508 0.00617634824130776187 -0.03038920733932381)
(-0.0844517477027868224 -0.227202813748449611 0.000236550918848353825)
(-0.0957728430739055586 -0.178328688711277161 -0.00170607990736917924)
(-0.10708659191658651 -0.122776617861087511 -0.00507836080200943941)
(-0.116422001516362728 -0.0606702764401683553 -0.0102741933041914785)
(-0.120371076968443208 0.00698048247140671974 -0.0175711135043200434)
(-0.02849278390389446 -0.221193614601349259 -0.000187257810884683672)
(-0.0317178790753262288 -0.172110360350674618 -0.000814075720025699478)
(-0.0346977968220273519 -0.117313414143987188 -0.00187227474184828804)
(-0.0369965043506121638 -0.0579353769233816249 -0.00345295169831529372)
(-0.0382551456165101528 0.00361462651741286008 -0.00562924827044205232)
(0.625190830211926341 1.50184111138046505 -0.359984936148477874)
(0.440384224920678802 3.98289927465817284 -0.400509061294142432)
(0.533593708606608375 1.18849542048789369 -0.448058812596637379)
(0.550568425651182358 3.54065590329891577 -0.398371078848568538)
(0.232091946687642409 -1.07204287876049564 -0.015040155614500568)
(0.240708313009660974 -0.70989597011215777 -0.0457275761679846182)
(0.114324720260212759 -0.162261974446475943 -0.406549181727653808)
(0.292153381438483239 0.509967411702474505 -0.50660575201543312)
(0.55932167324141524 3.10465148362281163 -0.403564339152652385)
(0.277351332600782929 -1.09521476084176106 -0.0264241017351155641)
(0.293557933664479687 -0.648431898330325773 -0.00851064357518022466)
(0.261213892830092109 -0.180671977097132813 -0.105187443919665363)
(0.106205891164722732 0.13049359646635994 -0.543060900226942311)
(0.511475488506173859 2.59312263604224746 -0.411369704516011847)
(-0.0175907052984177643 -1.17455015689846909 -0.0155420298028146574)
(0.0837533184030676003 -0.418818089338347022 -0.00492582323683121368)
(0.264662825830846882 -0.155718096817744789 0.00160789580181707609)
(0.00855019065238987394 -0.0372559858606835853 -0.295835940555035259)
(0.395352135991369702 1.94121873621964114 -0.394561904212390846)
(-0.387178134108139615 -0.739934193720508393 0.150076033368523626)
(-0.183033047507776464 -0.301566214696885326 -0.0418482752304066355)
(-0.536892858957099817 0.00465124192374942458 0.0367077466797516294)
(-0.287745785303264889 0.264993023244156189 -0.253824704068819629)
(0.184621785120082371 1.31339664859900718 -0.371448777185681756)
(-0.30712939470508599 -0.540734758908059887 0.172741375326155633)
(-0.18278949900689373 -0.657183472281600456 0.0572162863980744535)
(-0.302242473726835104 -0.420775846242332663 0.0640271543871400312)
(-0.34208199730817046 -0.150217133549866516 -0.105624323555586777)
(-0.0775807820817658172 0.643049275855072766 -0.334787826906909558)
(-0.336206152343989206 -0.64005813288572988 0.149749617407043734)
(-0.287690190966771064 -0.658691398603330369 0.121752008185735353)
(-0.240830455388498149 -0.591945205798093954 -0.00184060724287472203)
(-0.196757754959670239 -0.314639963226473252 -0.147687377854110402)
(-0.214870550196009646 0.35493491691851764 -0.320468789375971896)
(-0.321931248902939338 -0.640257276144945875 0.0729339685354922634)
(-0.3719486311894451 -0.605389441145831597 0.0588500774220129946)
(-0.407648378703312053 -0.564236299796183394 0.017730184609194434)
(-0.403674426323402391 -0.368359518071654957 -0.064184810982168411)
(-0.34474551480705784 0.167954963361687526 -0.189834949726559232)
(-0.307448740528864173 -0.530824977793553421 0.0748583416214487485)
(-0.376094147386194733 -0.517717063496644259 0.0580849209750662551)
(-0.452135835003786568 -0.501226241152610608 0.0462807960618435085)
(-0.531924038165609958 -0.407652597613747836 0.0182835858318842887)
(-0.551204613847368852 -0.033397750023763273 -0.0460038089374446568)
(-0.298210202016000347 -0.423513689425912276 0.0427383087235470027)
(-0.359532420759708427 -0.404704409148411048 0.0372820437429166665)
(-0.441568458959652355 -0.386481950117510131 0.034364634956940053)
(-0.552866352814516016 -0.317306243591182258 0.0281464027101376475)
(-0.632855435952112688 -0.0682137402884717969 0.000205447001481853797)
(-0.256036084742060688 -0.349273064156463531 0.0230506831800354091)
(-0.308051061463101794 -0.313165731501126809 0.0179842414130540612)
(-0.377190679502059756 -0.271158670415223235 0.0122094746377296986)
(-0.469420830492807473 -0.206518417426717366 0.000742536863007448728)
(-0.553967344340545509 -0.0570721797683496623 -0.0280905538514230925)
(-0.204379796937525143 -0.291093260340466786 0.0101479505383734112)
(-0.241732770211071701 -0.246184373797204176 0.00621371334386670599)
(-0.286826383675584051 -0.190355645067786294 -0.000465474988095446185)
(-0.340521003625170904 -0.116856552192269508 -0.0130714859939074207)
(-0.390567349444112089 -0.00984156119254758766 -0.0371548365417406837)
(-0.145147080884568264 -0.251921352527339271 0.00333640523667036665)
(-0.168980039719916098 -0.203350360884345133 0.000532205544564503521)
(-0.194888471127155516 -0.145225138573020662 -0.0044045209231741338)
(-0.220509470739213953 -0.0742623948392718974 -0.0128283434812037859)
(-0.238677870824283628 0.0129269586050900775 -0.0268357416862354398)
(-0.085593944101454239 -0.228196312771927201 0.000607509154318060934)
(-0.098019646500651661 -0.178496216412057429 -0.00103824917353621555)
(-0.11072863375283723 -0.12152644849008136 -0.00395407577964988332)
(-0.121815908454098745 -0.05696576916693738 -0.00853208351247606786)
(-0.127595755958732848 0.0146766736684102572 -0.015229532946886018)
(-0.0288847493076261827 -0.221038869506257507 -4.5642969917427035e-05)
(-0.0324470456962989567 -0.171156947494047446 -0.000588224796836352582)
(-0.035826131363505688 -0.115016860757419889 -0.00149369703942528204)
(-0.0386254242177450219 -0.0535825750674208123 -0.0028746048246515968)
(-0.0402460460670455572 0.0108822339353600757 -0.0048305929690944209)
(0.592364676643407639 1.53198999862799234 -0.286761860939368451)
(0.417336834956292424 4.00042941149682374 -0.26440570838692784)
(0.532171868650547442 1.23578975459217322 -0.324153470001348198)
(0.531643838686659542 3.53703153006555526 -0.273610656045021661)
(0.216053209280104713 -1.08949724996516872 0.00186529187262085908)
(0.241964152825068113 -0.841800508972057826 -0.0537818550235307224)
(0.118559728766262182 -0.192873397723305084 -0.357999160424555707)
(0.291345715671764482 0.579249152573926951 -0.361944446394580233)
(0.53968444802129667 3.07935796784391957 -0.277243908898600178)
(0.305066821609696837 -1.10960621096641399 -0.00459875092541958599)
(0.402189070694220663 -0.878305640298543522 -0.0111018256709033598)
(0.256410703819433483 -0.268142027441093778 -0.10212394670073667)
(0.12430236225563461 0.193449695656530252 -0.421632452234555921)
(0.483861480648512698 2.54185599591520583 -0.290658799320006656)
(0.376386532015348052 -1.52204376701345501 -0.00790260879524762316)
(0.127496493197743144 -0.671525066336350451 0.0194635490603533509)
(0.243561239692951154 -0.16462352223433574 -0.0127941590486808782)
(0.0540551533707589876 0.129264543430557294 -0.364500678913292131)
(0.374464153619951834 1.94772059935864172 -0.302361564008918338)
(-0.0273824850599880959 -1.09528087716929212 0.146973516942309118)
(-0.098547696860128764 -0.509809699901723867 0.187097923588731702)
(0.114301869879668005 0.0744553323514121623 0.174460618612423846)
(-0.0848025296229414915 0.288076347853167047 -0.263829067779164428)
(0.209548620973925848 1.39289767561772004 -0.320772267781878118)
(-0.27227741708371217 -0.714978550477837205 0.137735902052352505)
(-0.23726536264446324 -0.547019617530181357 0.187450361286322725)
(-0.244128283874841756 -0.207565272189330685 0.199553879360121117)
(-0.217834466215360512 0.30334318341631461 -0.144307954644981695)
(0.00106964050198207067 0.868549700779479017 -0.365177729047632016)
(-0.361113258378785607 -0.731928551193294141 0.0589505556116224558)
(-0.365248856834744284 -0.591111997313525928 0.0656922436487863554)
(-0.304047985594576187 -0.374728182915419483 0.00579518883058158761)
(-0.248107927944130197 0.0176267746235863054 -0.0970021070275479819)
(-0.166007430762916491 0.511937971744421572 -0.318060084471745164)
(-0.391513546688471548 -0.629044645580576933 0.0521764859751562976)
(-0.42151086092016421 -0.589657874626871692 0.0369364955440911261)
(-0.404367522543316316 -0.503033735977676311 0.0181522580460377336)
(-0.361785454325719846 -0.276125696978991642 -0.0305408941515628862)
(-0.292851316534060491 0.270342821790441556 -0.156750000217537683)
(-0.336434123881057867 -0.54709759050865181 0.0619155736796642014)
(-0.40058434767304657 -0.524025914500806267 0.0512130840857546246)
(-0.456646765442497438 -0.516087270370660378 0.0474849442789774534)
(-0.509137452736798668 -0.380410642204624727 0.0382345614179469204)
(-0.507999594557514422 0.0192562247514415641 -0.0143595145827836515)
(-0.303231715723758788 -0.439003081904150494 0.0337677841851825103)
(-0.362176182773162159 -0.417868096630586827 0.0316578423107061677)
(-0.442267659478052022 -0.396399471967228689 0.035304688786529731)
(-0.548480713415027465 -0.33855216154408535 0.0412408499626191194)
(-0.621247510970102113 -0.0435930334725483926 0.0261519405543645042)
(-0.259182768111202833 -0.359279303689176932 0.0186922323515159895)