/*--------------------------------*- C++ -*----------------------------------*\
| =========                 |                                                 |
| \\      /  F ield         | OpenFOAM: The Open Source CFD Toolbox           |
|  \\    /   O peration     | Version:  2206                                  |
|   \\  /    A nd           | Website:  www.openfoam.com                      |
|    \\/     M anipulation  |                                                 |
\*---------------------------------------------------------------------------*/
FoamFile
{
    version     2.0;
    format      ascii;
    arch        "LSB;label=32;scalar=64";
    class       volScalarField;
    location    "0.119999999999999996";
    object      p;
}
// * * * * * * * * * * * * * * * * * * * * * * * * * * * * * * * * * * * * * //

dimensions      [1 -1 -2 0 0 0 0];

internalField   nonuniform List<scalar> 
29184
(
2907.45884775827517
2897.77257833019894
2875.1793955942735
2840.95207766320527
2794.47624436740944
2733.855107069327
2657.34707843685828
2563.52094423251492
2449.30965005282633
2313.98970200799704
2158.0383449069559
1970.45923352671048
1772.22125665895101
1595.29072449584874
1480.73553607669464
1459.07843466696863
2785.57853531892079
2775.64457198913669
2753.22140803266939
2719.05916986079683
2672.50944774219715
2611.87954839090344
2535.33466995195431
2441.2720249323238
2326.67075874867805
2190.42362204649453
2032.30027646589656
1842.26735866047966
1635.57563766340604
1442.83153387798166
1336.50900690112053
1355.21203317225832
2664.30383335997431
2654.01399634171867
2631.78544227327666
2597.74474850247316
2551.16854577380718
2490.49900849790902
2413.78884281902583
2319.2905941136305
2203.74965893820672
2065.67554568320747
1903.85511322630578
1708.2498771838732
1489.0763511392388
1278.97541486180899
1172.32879681535564
1177.29794171166805
2543.57011977094498
2533.0304054784142
2510.97282069886114
2477.0753203542813
2430.50697686176909
2369.77718525602268
2292.82685215935226
2197.740080149802
2080.85889992504826
1940.26641156640994
1773.34726590377886
1570.01409047275206
1333.63069484925586
1108.83411894276287
1000.57809792499324
991.141160568498094
2423.42832628117048
2412.75926239138698
2390.83280064365454
2357.0849062280322
2310.56384344975868
2249.78345535361996
2172.55808074939887
2076.78073389424117
1958.30456898138232
1814.64233122498217
1641.8027909038683
1428.43028619977758
1168.82466766645348
937.679089766258812
830.721620534325211
827.367304526096632
2303.93531624211118
2293.21068377485062
2271.4105531352343
2237.82880187695946
2191.40321352073033
2130.61135539956376
2053.12521538728834
1956.63013013906379
1836.42108816539803
1689.44307059322841
1510.3369341268035
1284.61918575622622
1001.66426365691359
775.083434779954928
687.275776288901625
687.074948019666408
2185.14480451934514
2174.41620971452085
2152.7583196046071
2119.37006401412918
2073.10096099638531
2012.36856802759121
1934.69028291320501
1837.54709912445787
1715.6466108535692
1565.29477680120999
1380.02669385136801
1140.69316433737004
840.621800554899323
631.75348958490224
573.022123487736053
575.053240688422989
2067.11123437710785
2056.41768535503843
2034.93093670549092
2001.77710394860355
1955.7426261346277
1895.17295713624048
1817.43006815623812
1719.80009495832292
1596.40685611099434
1442.94981601068457
1251.87480487548555
999.156301881509307
691.018272453512736
507.089998887278171
471.62770416001365
475.825690977710337
1949.89050222511446
1939.26318970996135
1917.98413683694935
1885.11812147127398
1839.41519517801862
1779.14334812220773
1701.52009019714592
1603.66127560456084
1479.13040790876084
1323.10481229357379
1126.89155598485081
861.808869724691021
552.642777470361011
401.669830409028975
381.225479028682571
385.38348637261447
1833.53505897084005
1823.00158923884919
1801.97369990949437
1769.45883285619198
1724.20431979612727
1664.39564615813811
1587.12961814901246
1489.3862362089933
1364.22453260645057
1206.40362303554343
1006.24626786926206
730.728937304735382
424.549461387452311
314.871689009129113
304.428458383516841
311.840088682446435
1718.08939999993117
1707.68780504845972
1686.96933948150786
1654.87573131246245
1610.20820993525035
1551.05722413706462
1474.43462079844949
1377.23375395028324
1252.06314596559014
1093.36490787447383
891.086345785399999
606.452208797946923
315.090636131802512
242.410657518152135
237.389565120975732
248.169608959018149
1603.62130712542989
1593.38762407508671
1573.04651833780531
1541.45041748149924
1497.52787987151623
1439.25277359596953
1363.60412098601319
1267.4657593290176
1143.01201321173016
984.507378775703955
781.871026981490104
488.626420426807044
231.240457570897661
180.121120692701993
177.365471967277472
189.00822467660015
1490.27923723611548
1480.14894877300435
1460.20960248686788
1429.19899475996681
1386.18775454026741
1329.01940015315222
1254.71094253200886
1160.25712124859319
1037.39221734867169
880.578619351012776
679.056122384886066
377.614665741595672
167.999581524491418
125.819878688412842
124.520645282619313
135.734708602453395
1378.17592474131948
1367.99878975427987
1348.41693135224273
1318.08157540430921
1276.16327750848859
1220.33634327100867
1147.74400443130594
1055.64330457287861
935.239558423007111
782.393718096735711
584.363123352167122
282.67727044037315
115.018947630907007
79.5623507043588774
80.2120728988658271
91.8049102349474282
1266.92991273955408
1257.05240428954335
1237.88814544776642
1208.22365854587883
1167.67676334429598
1113.39010246444445
1042.85297482497526
953.699853003403405
836.154891968133143
689.914694954078641
497.108167406570146
196.749157223532848
68.8877002035663395
43.0444475147541112
46.4820561378383701
58.4497819174582673
1155.72378211401497
1147.41892972486903
1129.00126353917608
1099.84949307409693
1061.12712519409183
1008.473635504914
940.336383732052127
854.635855300538651
740.146711555150432
601.229930076884102
410.818310989944848
118.85630694204815
32.2781624933876969
19.9443743105176665
24.5481159845043422
34.8758068945097648
2909.52897008846139
2900.02441674990177
2877.83803950976835
2844.28191208193221
2798.8243094680065
2739.71375692051015
2665.42959478744024
2574.89086316977546
2465.61063621559015
2337.83765386240202
2193.61188493976488
2025.12111768773434
1858.85583806555246
1730.55349346555204
1677.9089482330412
1781.89620982428937
2787.63962442552702
2777.88789257543249
2755.86700767300772
2722.3701036130924
2676.83142919263855
2617.69888448848724
2543.35488497949837
2452.5437368251014
2342.80127109473779
2213.97813161305476
2067.33525156676615
1895.981808293119
1720.05107430962971
1574.28868213563351
1535.99767517110763
1661.94075103998125
2666.34744831390844
2656.23963227196055
2634.40629781316602
2601.02051500232528
2555.4403590050988
2496.24334502358624
2421.69306971552987
2330.37958303625237
2219.57672644565992
2088.72948919745795
1938.0343125267118
1760.43147901576413
1570.65366974037397
1407.11129878751512
1360.63760782201894
1474.99146393202705
2545.58849688424198
2535.22869598361331
2513.55675447835074
2480.29944895302697
2434.70475136142795
2375.41153115152702
2300.56210946172359
2208.5628906122738
2096.25012576964446
1962.61405837261418
1806.31087017988011
1620.07090312496257
1410.93388914329171
1233.45388928864759
1175.26263379259854
1268.71889222310574
2425.41384998096646
2414.92060796132682
2393.36772172019573
2360.24163677269144
2314.66501271074048
2255.27470373250344
2180.07442284274703
2087.25944850884753
1973.13620385930653
1836.09415081904217
1673.19265810709385
1475.9005104934854
1241.40158623580601
1054.42649208956891
995.522128606351657
1079.50071643181832
2305.88039510307499
2295.32594825402293
2273.8846230894469
2240.90340538975761
2195.38691727106061
2135.92911850452447
2060.37692431385904
1966.69423272658014
1850.58107932738403
1709.81800730623149
1539.86402211628092
1329.218192988591
1068.02336759039099
882.503577250264925
839.105277603324566
917.0093910364983
2187.04199181618378
2176.47671450105963
2155.15990416944169
2122.34931354813398
2076.94850393327624
2017.48655158582005
1941.6382261737117
1847.1361830566068
1729.03932981350135
1584.42846704113572
1407.47161393462738
1181.9685005282463
899.946243579002271
729.433142455516077
707.05999877685008
776.030332344741737
2068.95340689060413
2058.41536064846969
2037.24857220192393
2004.64985241184718
1959.4377702042143
1900.06999910119066
1824.04318506725758
1728.86566746354333
1608.95225297731213
1460.71937194807424
1277.09344411467464
1036.27600365059106
744.18956322940403
595.133930738712593
588.561521258137191
648.939344622088583
1951.67129327924931
1941.19111943347639
1920.20672738194298
1887.87612110546934
1842.94436135268484
1783.80425458604077
1707.77669159788638
1612.16743209721722
1490.7643996250481
1339.41297554087055
1149.86583082060474
894.707208607443135
599.484463135603164
479.52966261870921
480.899920749317744
533.431404101313206
1835.24918806254959
1824.85461984687709
1804.09013465748717
1772.09843681277084
1727.55738694852744
1668.81372755264601
1593.02108950283582
1497.30997399846342
1374.88925899107539
1221.16356164855529
1026.9207906403974
759.814162530172553
465.148303164721369
380.545378937472776
385.880730286813446
432.682704413648366
1719.73353870163055
1709.46183132664623
1688.96605118372736
1657.40084601439912
1613.37938767853711
1555.23800382921468
1479.96968829043067
1384.55952406574079
1261.70932565631915
1106.53155587480614
909.028133216874267
631.12198592333948
350.510757538155417
295.093843292263728
302.28584304631903
344.379735125661341
1605.19505305743769
1595.08119583229063
1574.90893975044605
1543.87227620270983
1500.51087436791477
1443.20979635214167
1368.80482292887132
1274.18019100231481
1151.61566058328799
996.089956036835702
796.858690568941029
509.151730280364291
264.005093298847214
221.30934612738659
227.664732509431786
263.876762397570019
1491.78679193539415
1481.7732979406062
1461.93482353513332
1431.52614363530733
1388.96590835864367
1332.75950969117139
1259.60618418517674
1166.37937756034262
1044.959259951381
890.584950902923765
691.857758161895163
395.861530387082212
195.47549807037251
156.305702079440465
161.608271250862686
191.277908487901129
1379.62909466970473
1369.58362218479647
1350.01059061835736
1320.32917040166262
1278.72389004421439
1223.88341476778669
1152.40963962763453
1061.22591386135446
941.80481679980835
790.790041674843451
595.271504403512836
297.715272906024893
134.177696435046812
100.226705055762807
105.682507835679573
129.964814575810607
1268.34411910727704
1258.60524932873432
1239.2961963889411
1210.51547658779236
1170.04584698554027
1116.89962743999536
1047.50458857076865
958.567497122681743
841.800189103463254
696.756512842702932
505.611391834624328
207.449283124960857
80.3607907159197339
55.6753211106863262
62.6406194657130726
81.7595032016140664
1157.10383851396409
1148.87759748669305
1130.08674790587634
1102.48568966307312
1063.2863660883163
1012.24539636915324
945.25102211565877
858.195479097349107
745.07858457721909
606.904896267046752
416.993827415980832
125.597358971314861
38.2380892666030832
27.4648852404952279
33.9532397446208947
45.8062018587681621
2911.48258014299608
2902.15257041898531
2880.35114838053551
2847.42881003739103
2802.92911796565522
2745.23131583646773
2673.01045388443026
2585.47971327110599
2480.62954286937475
2359.44841330788904
2224.96914869967895
2071.68086470734215
1927.63381038964621
1831.65835784068486
1820.27005246623025
1943.25004196174996
2789.58459655905608
2780.00786083942739
2758.36774098608112
2725.49909814561215
2680.91151811327109
2623.17942080842522
2550.87817031611939
2463.04561947743241
2357.68467193853576
2235.36780029963256
2098.39096621986528
1941.98061216444739
1787.45262081104283
1674.5949785612363
1673.80806981322007
1821.82273159050874
2668.27570253847944
2658.34270617357561
2636.88367074153075
2604.11618859029932
2559.47268946598206
2501.65262211046365
2429.10807496235793
2340.71648913586296
2234.2085897438792
2109.7260710145456
1968.47632919759553
1805.48469150956225
1636.04521524666416
1505.15206968665007
1492.01212623502215
1638.80503611881659
2547.49256519925621
2537.30552554188989
2515.99939598699621
2483.34616777838437
2438.66639999468225
2380.71552339161917
2307.81801054847483
2218.65758116030338
2110.51484162624547
1983.03973598979201
1835.88403474992742
1663.85547924347179
1473.95368739993637
1327.18128710654673
1298.8777200024083
1438.0679568335604
2427.28628699396268
2416.96177840671317
2395.76455558322732
2363.22436240061006
2318.53410917536939
2260.44064246137441
2187.12231087163218
2097.03835737974259
1986.92252977081125
1855.78752725771619
1701.71300925770561
1518.16370080987872
1301.99196602800976
1142.53871803719312
1109.06097116234673
1245.00178928292576
2307.71355730742152
2297.32229629704307
2276.22517548036967
2243.8077651375138
2199.14277331773474
2140.92593175373304
2067.17053700868246
1976.08831137969446
1863.7884015375846
1728.63265231272044
1567.16455724703974
1369.60439219322393
1127.0115730153675
966.273046485798659
943.695607667483728
1069.86217499274676
2188.82792397251069
2178.41918374871739
2157.43454870159439
2125.16169584041108
2080.57191654353301
2022.28491450613888
1948.13404877349012
1856.08099600499463
1741.57716675904794
1602.23663410295148
1433.37649974140959
1220.29878064699869
957.065080269887858
808.183070282804692
801.860620381799777
909.936882628577564
2070.68350406172385
2060.29486337251637
2039.4488461773808
2007.35739264860194
1962.91145147249335
1904.64224497712894
1830.2003020190341
1737.301638655744
1620.73968659252432
1477.40972088297849
1301.43222073882816
1072.49544410731437
795.462632141966083
665.01917406540224
670.649719136829731
761.299680188276398
1953.33557091804914
1942.99839048028048
1922.32570418130922
1890.46652010874141
1846.25340100832523
1788.12431332445726
1713.5567130886925
1620.04016702082208
1501.73199433261493
1354.89620292745531
1172.48242438685429
928.2058793304966
643.916120802745354
537.772009306680729
549.457645074434822
627.747973150845837
1836.8344805471861
1826.58016595597428
1806.12275543760802
1774.55938773804951
1730.68904370899509
1672.8550292172738
1598.38571900785723
1504.57219241487428
1384.98472476117945
1235.37252400218836
1047.71563775214099
790.383298625109319
504.896019303137564
428.246585632678602
442.309126503505354
512.238129699800652
1721.22147990574126
1711.09580242849984
1690.90922493485596
1659.71969449545554
1616.32331977868421
1558.96946635029713
1484.87765834037123
1391.17698191635463
1270.90037885775178
1119.42298471412118
928.11545247519166
659.503854717778495
384.805174946642637
334.733246120602018
348.7791583395815
410.07058167850937
1606.55966936954815
1596.61438346182581
1576.76153394579751
1546.03727303441951
1503.2643994827074
1446.5991553985416
1373.21600872925433
1280.13200408721946
1159.88574978022734
1007.66518452903915
814.114770059120247
535.471336611848301
291.59305413008633
254.356762229755901
265.609632500516796
316.219542485356044
1492.98844358165115
1483.19768129674139
1463.69813298994404
1433.52353666213071
1391.5351725380367
1335.78482071661915
1263.48341363867803
1171.62587828179335
1052.29783142384872
900.866635906121701
706.999781238658443
420.521142178430864
217.65640289288217
183.206027104435947
191.673689891857094
231.061775596751943
1380.60286075488125
1370.89355464977871
1351.68757984323042
1322.12775687700969
1281.09283014271477
1226.50571666533574
1155.67630703963187
1065.70767604027446
948.208800709238403
799.79829354382764
608.652435952410087
321.306014020954535
152.567976790098783
120.025199616291957
127.167474479294881
156.896932813817841
1269.01717232265491
1259.80779584969991
1240.88674390677193
1212.08246128095084
1172.1671448750094
1118.97980454261346
1049.99583418261864
962.460088206794126
847.297194290118341
704.45413065519665
517.934800031749774
230.155532098843878
96.0501005956314202
69.0107282376745701
76.3874145113777416
97.8423968800272803
1157.44984437985795
1149.97519514087867
1131.53995358466136
1103.90477581410937
1065.24164837871967
1013.59982874668412
946.883841895504474
862.175286066193848
749.674996193708466
613.265637195823956
429.591104421508589
149.1882863238759
50.662284634162063
36.6447068735780661
43.5470853878740556
56.6276052962269176
2913.24316060260799
2904.06864699718153
2882.61234059175831
2850.25625508348776
2806.60727463668309
2750.15495566695608
2679.73150116691977
2594.77892737464435
2493.6237262436025
2377.74269873528601
2250.88642894124951
2108.09998591146632
1977.0022572081707
1901.43281341360307
1907.50212546285957
2025.42012630697786
2791.33756620765416
2781.91674749394542
2760.6176693362163
2728.31015075579671
2684.56729284366475
2628.06997136454447
2557.54891124439609
2472.27208634698991
2370.57114192832842
2253.51204684414415
2124.12027650951086
1978.1718736771993
1835.50723735680322
1746.25158835479806
1761.83647833051464
1901.96787131149813
2670.01388159057751
2660.2366919772121
2639.11238897346902
2606.89692329367517
2563.08520384844905
2506.47935379924002
2435.68291132353988
2349.80295407042604
2246.88454048808762
2127.56902465737994
1993.78458081656981
1840.90727934703
1683.55609705558072
1576.3508108256533
1576.07775574215339
1714.84506443898613
2549.20946524930014
2539.17641649835377
2518.1964785871005
2486.08242232350631
2442.21494851401394
2385.44829598739443
2314.2516051263251
2227.53660706829442
2122.8813957115517
2000.42769763911906
1860.58434460372973
1698.2300331115141
1519.86003570012417
1395.11637570322455
1377.61499583216141
1511.72264041582412
2428.97568193380175
2418.80158398458025
2397.91964012474773
2365.90258616151732
2321.99902079702042
2265.05089129800035
2193.37141898008576
2105.64733319191237
1998.88312458694531
1872.56842141079687
1725.66837973432348
1551.28865018324177
1346.64413297675719
1205.73108765449933
1180.82223625001097
1321.90618461533131
2309.36955822288019
2299.12370364829576
2278.32802885705405
2246.4152299460452
2202.50557225167859
2145.38680784729013
2073.19533461094306
1984.36820602310991
1875.25702031259152
1744.67439696811562
1590.15074767463057
1401.27320983330219
1171.51056102368784
1025.7185703482653
1009.86362370547317
1145.76789599586664
2190.44537819978268
2180.17569789785875
2159.47493991285501
2127.68686078503924
2083.81545764469411
2026.57193933724056
1953.89830836288888
1863.97660391644786
1752.46011145492207
1617.42920689389234
1455.15820388392603
1250.27633195988028
1001.62601211817343
865.425929783891661
862.608250011972359
977.854514578630074
2072.25859639816963
2062.00107105056304
2041.41634337820915
2009.79041084442679
1966.01997864739133
1908.73407836066144
1835.67185197456047
1744.76572383864413
1630.9595761780156
1491.63911177320506
1321.80105740674389
1101.14180864734271
836.681035966030777
718.226253252785909
724.114874195651964
822.78616945976205
1954.86688579805059
1944.65011838750547
1924.2093912455407
1892.80003905972421
1849.2127228539307
1792.00362556361415
1718.70863084140797
1627.03312881123134
1511.21742965478347
1368.07954715313667
1191.13799779270107
955.388608729523412
677.999861368053985
581.405622519703911
596.730272964867595
685.270129737355319
1838.32552068041673
1828.17433000012056
1807.91108496515062
1776.78921382695421
1733.48608468161729
1676.50892260901264
1603.19645632357333
1511.06333119378269
1393.68551164632527
1247.44984941792677
1064.19350091591559
814.325487372069801
534.914673317957522
462.039005984107746
484.362863812501246
565.970555945114825
1722.68428546540781
1712.63108429628687
1692.59079276919215
1661.84434844337147
1618.94426570624205
1562.38909714013039
1489.33155623140942
1397.14446674515216
1278.8054686097405
1130.35901031270578
942.322148571530306
680.54745971629859
414.965672131242627
363.451233032978735
384.146184937984231
455.690853011221861
1608.01911047318163
1598.09139165282204
1578.3258060076771
1548.05787386546513
1505.69512617230953
1449.78394980092617
1377.30732236996619
1285.56977525197453
1167.00338050586538
1017.41649123939897
826.941902684428669
554.505783159185739
316.393383191671319
279.108105611330245
293.589765658603596
351.36429806997819
1494.48739004909885
1484.6123600745284
1465.12963120261679
1435.44811561427264
1393.76833017251647
1338.7513810170617
1267.21987551991833
1176.54303056434992
1058.64403771935713
909.455111134177059
718.216982929391861
435.677969719248949
235.337746744988067
203.932626914848441
213.893444005204856
256.658185593968142
1382.21639409800991
1372.21884316068849
1352.96804083622305
1323.96827650361138
1283.13217414016344
1229.27439358597712
1159.0749751601254
1070.10485264825047
953.822887618660388
807.273279723992573
617.676090903256636
332.683796802899451
164.766988327741672
136.053423163492084
144.464585872787694
175.504606071530191
1270.86052751329885
1260.9973157833806
1242.06342242840424
1213.81230952070473
1174.02473631919725
1121.53644566356411
1053.10665126191793
966.29362514392983
852.233608946768754
710.687665356792195
524.49775163796653
238.04430206193615
103.927670065159077
80.751001882112206
89.7091900629717145
112.991977323435663
1159.64664697545231
1151.04629392252468
1132.85047995975719
1105.41443191668691
1066.98143345093013
1015.96430856308234
949.839660370579395
865.351217170684095
753.962466285664959
618.004070407330346
433.979565286481375
155.154940615549322
57.0548895588059963
45.7400775549541336
53.2335193319884894
67.5699916003819254
2914.74267782796414
2905.69469811602085
2884.52874608108004
2852.64682513960952
2809.70597853012077
2754.27974899591754
2685.31838411743911
2602.41730963657938
2504.1554344047122
2392.27239677918806
2270.93051347004803
2135.7373768400571
2014.85531795006295
1949.63047547675114
1963.38369514313695
2076.08370642460659
2792.83063091310169
2783.53688081601649
2762.52492989109896
2730.68732136502194
2687.64720672502108
2632.16697022251992
2563.09411372863997
2479.85097326171035
2381.0134314100037
2267.92123117617484
2143.99474337194852
2005.52926771592934
1873.79640294918954
1792.80643053327003
1813.35841378850273
1952.14455291227455
2671.49453099794937
2661.84440937999852
2641.00212770580765
2609.24850962585288
2566.12831541703508
2510.52223203359972
2441.14869555093765
2357.26453518327025
2257.15687244976652
2141.73364327814852
2013.29550280290414
1867.88726402542625
1720.41092311835087
1620.35467503338782
1623.24742881434554
1762.24900010612055
2550.67226352825674
2540.76483758940958
2520.06030445141096
2488.39638497510441
2445.20371448253672
2389.41152858935129
2319.60094978156394
2234.82459304595795
2132.90126891196769
2014.21576036375973
1879.53991125578273
1724.486866230533
1555.6997070722141
1436.38422953659642
1420.44208066121291
1556.44580453851177
2430.41530451274957
2420.36400963245887
2399.74982461174159
2368.16761539107711
2324.9170523790699
2268.91059826416313
2198.56978680537213
2112.70890005237379
2008.570516426533
1885.85073504058937
1743.84630980896509
1576.52882201135708
1380.59497260799549
1245.32494373718941
1223.11557489165261
1364.81717740751992
2310.78064395004321
2300.65389628039111
2280.11794696168909
2248.62082124886183
2205.33792446114148
2149.12118835897991
2078.21130878766417
1991.1552955652819
1884.53591858063169
1757.32837256967832
1607.35407017847001
1425.02625577558001
1202.35660885994412
1063.64395364297775
1050.38754059622215
1187.67617120130785
2191.82231145910782
2181.66776287691982
2161.21953044900329
2129.82334682511373
2086.54908218129731
2030.16175049865478
1958.70482347477309
1870.44705553064773
1761.26651101238986
1629.3503161486492
1471.1781822825767
1272.28303722245346
1028.89265451765505
900.822749491825221
898.93419026067852
1018.44728686204746
2073.59491044070273
2063.4493842609495
2043.11275187568822
2011.84886112233903
1968.64427886865406
1912.16305650880918
1840.24710058583128
1750.88400559201341
1639.24219066870228
1502.73318134715691
1336.50182105279828
1121.21087434378524
862.164575265376243
751.22627535379911
757.270552387189355
861.82599827451395
1956.15392038621826
1946.04950390426279
1925.85789640510006
1894.77224307678671
1851.72062928949367
1795.25903085757977
1723.0368850442012
1632.77242681903635
1518.93401544022072
1378.25204638801665
1204.58029584441238
973.304726575085397
702.47855508357577
611.548087931436498
627.465478859606492
722.459217086479271
1839.54971780341862
1829.5204690657763
1809.51535136149846
1778.66768464104348
1735.87505320242326
1679.58214043190787
1607.26927347587457
1516.40493561429753
1400.79335060232484
1256.65627052137734
1076.48093829728259
829.63611733462858
555.296559762298216
487.010195950309594
512.097930071495625
599.607539313007806
1723.82314717692248
1713.92034753678968
1694.15517878200058
1663.62171756758858
1621.21493237087316
1565.27566976114872
1493.14771852633748
1402.07452043860667
1285.26540342665885
1138.60449435025953
953.118233468520884
692.816725190038142
431.050828067187922
383.675260814060039
408.186224057611184
484.855003664257424
1609.03646309322858
1599.32133525463632
1579.85374462447589
1549.72710535439296
1507.85160989519341
1452.48289430036766
1380.87221947270655
1290.07866120187373
1172.80349426542875
1024.72884045939736
836.014462566991597
564.221517206921817
330.393864612371772
296.45951401920189
314.211910547838613
375.828617776841497
1495.32566689039845
1485.78923367902985
1466.63720481632959
1437.00899130742732
1395.83563271852108
1341.26617519679553
1270.55009667224158
1180.6300428644563
1063.78990227145187
915.848353833494912
726.133076189354597
443.031061046897776
246.353088411253111
218.462557819415622
231.127437608725387
276.563882366536006
1382.77581307850323
1373.37890152677369
1354.47792949972086
1325.44875747365677
1285.15805861812009
1231.62591353587572
1162.19077914609215
1073.77035915028932
958.259324126448973
812.804843472810717
624.519218680474523
336.037800039367994
171.630462582786151
147.389155560068957
158.641511700840908
191.922624307163971
1270.9928793752315
1262.23204356588258
1243.44477739419199
1215.29958295590768
1175.9270238785582
1123.80792113716734
1055.95742245490283
969.516657160768318
855.755392487863901
715.786993588411178
530.16290452856083
236.473854187515371
106.877586171813334
89.657522873228956
100.620580427372872
125.751793799581208
1159.24740606710566
1152.49302400978877
1133.71192439346351
1107.05185818186715
1068.36702049845508
1018.3720620116369
952.258385117385615
868.142541473273013
756.457026145392547
623.588847607720936
438.456517570432425
150.026179727333101
58.3799071526779585
53.0314825919230586
60.9507609411795954
75.5156954187505391
2915.92265333634487
2906.96742748287124
2886.02650010607522
2854.51012281943622
2812.11049185053889
2757.46049835098984
2689.58886516266602
2608.18183501650583
2511.95650821365234
2402.75449736189603
2284.78448593186931
2154.0107117607231
2037.28944347442598
1978.6939283286506
1997.61113435310835
2109.34195717871944
2794.00548315108881
2784.80461048778852
2764.01483771402127
2732.53948662100083
2690.03652374261628
2635.32575389263593
2567.33146757521718
2485.5681522640607
2388.73562078415489
2278.29442066673892
2157.65657461530827
2023.53661594541677
1895.08844455479857
1821.46685625461055
1847.17303506697772
1982.37465933408771
2672.65967487739317
2663.10212174023491
2642.47718427657401
2611.07928693665508
2568.48720569407305
2513.63693027658837
2445.32108942238983
2362.88503036994325
2264.72933853568293
2151.88321466346679
2026.60778721401834
1885.30619711073996
1741.37719449640076
1647.79177297377441
1653.43068097387777
1789.01473011944813
2551.8236747548367
2542.00725026428699
2521.51313224556816
2490.19553861700388
2447.51736844977131
2392.46110194118592
2323.67800207193204
2240.30313863312131
2140.25570684208651
2024.04030317307934
1892.34793845787772
1741.24683753561976
1575.57611852521541
1461.98681716104375
1447.11443358544693
1580.49092709954584
2431.54936382691039
2421.58621225159504
2401.17299755707518
2369.92537252008606
2327.17136341905825
2271.87538767812794
2202.52364952346852
2118.00452651097248
2015.64765545236514
1895.26009456584893
1756.02896350643573
1592.4330554799144
1400.26982324105893
1269.47887211082252
1247.64311503356339
1386.5645078769885
2311.89439478197119
2301.85175956169132
2281.50385307701208
2250.32792896228057
2207.51937241149881
2151.98327631026405
2082.01709115988706
1996.23334615401563
1891.28376979820086
1766.24756982266035
1618.80506974642026
1439.90828181282768
1221.07902465557845
1086.47447282802068
1073.22153455903413
1209.52711499060069
2192.91396177413026
2182.83812181229223
2162.56006129159414
2131.47129618810141
2088.64466550737188
2032.90536401497184
1962.34148426862498
1875.28106373176365
1767.64838221558284
1637.72613028917203
1481.81284463451038
1285.99969895000049
1045.35925448242051
921.522119636689467
920.121129871108565
1041.89633303645132
2074.6646795187844
2064.59036364186204
2044.39877077652568
2013.43014731110725
1970.64106959860283
1914.77491053666927
1843.69802818436847
1755.45618678677897
1645.23908881801935
1510.54400840987682
1346.25117566162407
1133.61737019491693
877.150262591514888
769.515898766889222
777.152142814433091
885.837304630867266
1957.20569624872019
1947.16086670497202
1927.07841520959732
1896.28051796026489
1853.60479194925983
1797.72867097210496
1726.28966038557201
1637.07368803777604
1524.55317374144283
1385.49800278394787
1213.47644348093149
984.399618392061939
717.495655909603215
628.418927742678534
645.070427379747116
744.062794995532045
1840.59387088508993
1830.6029841110219
1810.65762854213017
1780.09760362589645
1737.63188666959036
1681.90268027359275
1610.31523384600223
1520.43520830255466
1406.05847591010865
1263.33667674113917
1084.79282680287679
840.182880162123865
569.20419354342755
502.205859896677282
526.182839212608428
616.414533846928407
1724.8797350316861
1714.97292313430057
1695.20792991676444
1664.9685460119515
1622.83212009855265
1567.44413559048439
1495.98165624846638
1405.84402055397686
1290.2036714531439
1144.70825026283296
960.838817670402022
702.524273349235727
441.803042903409164
397.10406899300267
420.408843500242483
499.105740398736032
1610.13820541778887
1600.34075884115964
1580.80880561005119
1550.98688313216326
1509.31711753238437
1454.49823871870058