/*--------------------------------*- C++ -*----------------------------------*\
| =========                 |                                                 |
| \\      /  F ield         | OpenFOAM: The Open Source CFD Toolbox           |
|  \\    /   O peration     | Version:  2206                                  |
|   \\  /    A nd           | Website:  www.openfoam.com                      |
|    \\/     M anipulation  |                                                 |
\*---------------------------------------------------------------------------*/
FoamFile
{
    version     2.0;
    format      ascii;
    arch        "LSB;label=32;scalar=64";
    class       volScalarField;
    location    "0.0899999999999999967";
    object      rAU;
}
// * * * * * * * * * * * * * * * * * * * * * * * * * * * * * * * * * * * * * //

dimensions      [-1 3 1 0 0 0 0];

internalField   nonuniform List<scalar> 
29184
(
2.82688907822399199e-05
2.66820883769795217e-05
2.52381893023395657e-05
2.38770166694794177e-05
2.25727475782090032e-05
2.12972386843472227e-05
2.00292437719313357e-05
1.87634489238692154e-05
1.74790456270921278e-05
1.61432873657395325e-05
1.48939575787146113e-05
1.39216601997648244e-05
1.4009457831889534e-05
2.05897647188783858e-05
3.52679298518296822e-05
4.12484898394781992e-05
2.67987254268324685e-05
2.52911134241220629e-05
2.4000708790488159e-05
2.27367404999506479e-05
2.14952180692887923e-05
2.02585604869461903e-05
1.9020710332247955e-05
1.77730369002717285e-05
1.65149006231048731e-05
1.51704581658830509e-05
1.39719468041137709e-05
1.32989048217265572e-05
1.41517669497758221e-05
2.24899537078641952e-05
4.01867154119470813e-05
3.74242986784463006e-05
2.54691411811945999e-05
2.40598551395212715e-05
2.28832908402204418e-05
2.16857974333430046e-05
2.04906091551435825e-05
1.92918788158418879e-05
1.80851504888247137e-05
1.68579699237230752e-05
1.56294306277928297e-05
1.4294496578550658e-05
1.31493645944688555e-05
1.26060136581739732e-05
1.41848558965829844e-05
2.59130468637580464e-05
4.77500233273980121e-05
3.93092260011403274e-05
2.4272180838502407e-05
2.29696138196288056e-05
2.18823510146849577e-05
2.07488857234770367e-05
1.96017617540458356e-05
1.84429207455370759e-05
1.72700305607179635e-05
1.60727531841073251e-05
1.48736081425205334e-05
1.35661322735256882e-05
1.24779051384120191e-05
1.18636428366389951e-05
1.41096061977108316e-05
3.032829238057168e-05
5.60291087196335851e-05
4.31047364305856811e-05
2.31954043373025287e-05
2.19978326025377363e-05
2.09848659051241648e-05
1.99120333881174476e-05
1.88131696314957067e-05
1.76953316033446393e-05
1.65583744569494124e-05
1.53961343035777462e-05
1.42229309690502517e-05
1.29593711848244583e-05
1.19285698356466999e-05
1.13124855015090561e-05
1.44534544847086128e-05
3.64659705445930952e-05
6.64885067548900895e-05
4.98707595414108271e-05
2.22262234716627415e-05
2.11272488464418855e-05
2.01797662320125461e-05
1.91639450754152238e-05
1.81126825509720667e-05
1.7036236250299906e-05
1.59367441493921663e-05
1.48110066304780636e-05
1.36746786656243562e-05
1.2465698405320618e-05
1.14725836178615403e-05
1.08845000279614696e-05
1.56246909458926518e-05
4.45168487876097693e-05
7.88484891505359818e-05
5.77842095445897294e-05
2.13530423411726081e-05
2.03450033579709134e-05
1.94569552969602786e-05
1.84947807376017316e-05
1.7489953352495375e-05
1.6454829550755557e-05
1.53933803918987761e-05
1.43056287361758236e-05
1.32065091267929981e-05
1.20452868847352271e-05
1.10847672886624629e-05
1.06034238599323057e-05
1.7742837374639393e-05
4.97695137102745523e-05
9.34137908998114306e-05
6.68385957749838305e-05
2.05654835248455259e-05
1.96408062198361425e-05
1.88075377508693953e-05
1.78960089070229254e-05
1.69361705487191751e-05
1.59418170952523924e-05
1.49185212116670896e-05
1.38692523257434706e-05
1.28071626319712017e-05
1.1692648114185249e-05
1.07667737155820984e-05
1.04392290410986816e-05
2.06819870508232107e-05
5.55413147264086535e-05
0.000112424831433562209
7.88024005455133784e-05
1.98543540844103044e-05
1.90061020106571751e-05
1.82237627672217482e-05
1.73602255461179523e-05
1.64437675356312315e-05
1.54894138751624168e-05
1.45040046263297576e-05
1.34931677248086624e-05
1.24677510625893825e-05
1.139755488185499e-05
1.05090826573407859e-05
1.03774706281490438e-05
2.5014305321776296e-05
6.42493909698894531e-05
0.000136559735730784176
9.44708871132844512e-05
1.92115208774059211e-05
1.84336257321077245e-05
1.76988991341273164e-05
1.68810203550614777e-05
1.60062341988068107e-05
1.50909268356425421e-05
1.41429042676311294e-05
1.31702425529055129e-05
1.21811851996250474e-05
1.11540669484892382e-05
1.03022944530380874e-05
1.04539569458480716e-05
2.98302875750569554e-05
7.57914298493133091e-05
0.000164187811930796947
0.000103335131609284139
1.86298013652903058e-05
1.7917166548220644e-05
1.72271013282797e-05
1.64528578818598541e-05
1.56179797847307274e-05
1.47406406772460978e-05
1.38291932373349444e-05
1.28945445660366757e-05
1.1941234616783837e-05
1.09552805541333132e-05
1.01396962202647629e-05
1.07515874338535298e-05
3.60512819638878098e-05
9.23258898366503356e-05
0.000204332315929650979
0.000113758136081302711
1.81028384828989918e-05
1.74513649362008156e-05
1.68032754720863428e-05
1.60709602703073222e-05
1.52742063346467221e-05
1.44336639292596642e-05
1.35578555337282973e-05
1.26614254815263675e-05
1.1741998005513129e-05
1.07951351299930471e-05
1.00150144237724552e-05
1.1224898529706566e-05
4.4147031954450075e-05
0.000115823553887311917
0.000261124695266702123
0.000135836712677554766
1.76252348571162256e-05
1.70317275606624466e-05
1.64230223368299176e-05
1.57312288091890934e-05
1.49708485780777777e-05
1.41657776169921205e-05
1.33246154251811564e-05
1.24668723701494009e-05
1.15780543991687125e-05
1.06730445538209963e-05
9.92719248307065902e-06
1.16322960987164768e-05
5.453803069402638e-05
0.000148027742029453518
0.000341796203830500281
0.000163439628465487257
1.71934740663724272e-05
1.66552858377766917e-05
1.60826158840790294e-05
1.54303710787911788e-05
1.47046789883699556e-05
1.3933410361324152e-05
1.31259820609672734e-05
1.23072076025421408e-05
1.14452191423056759e-05
1.05887841789825177e-05
9.87201843387829264e-06
1.29296392619517464e-05
6.85715692759504807e-05
0.000194111457124690814
0.000462388619651567787
0.000196421840613046953
1.68086361650362607e-05
1.63200021702508425e-05
1.57780049726280768e-05
1.51668409723018573e-05
1.44735713986795504e-05
1.37343382973960703e-05
1.29601161182356641e-05
1.2178905301115183e-05
1.13416414280502806e-05
1.05455285568025958e-05
9.86311117374713922e-06
1.36884843269212707e-05
9.41668520123784209e-05
0.000267413449614991216
0.000676819385933551771
0.000209828070448957768
1.647576857333124e-05
1.60199159695201184e-05
1.55049004362023654e-05
1.49429043043768306e-05
1.42782007067622921e-05
1.35690239908483348e-05
1.28293801000474742e-05
1.20804911198689917e-05
1.12712527198562445e-05
1.05518525227178351e-05
9.90433660663998866e-06
1.4940726652319697e-05
0.000123150892274592223
0.000421259029491862511
0.00108338828290981712
0.00020754739865107413
2.82738759078171924e-05
2.66896077381543685e-05
2.52480951368561223e-05
2.38893279082811397e-05
2.25876324955942387e-05
2.13150553800864471e-05
2.00504594906073293e-05
1.87890641970821925e-05
1.75120088361653752e-05
1.61854989654777798e-05
1.4962934392826991e-05
1.40501693412602096e-05
1.39633073573960058e-05
2.09127992147122486e-05
3.84629491622494335e-05
5.22696106663438645e-05
2.68039512837960906e-05
2.52986755534250499e-05
2.40104261273980895e-05
2.27486570788307241e-05
2.15095133513404271e-05
2.02756292052789587e-05
1.90409237668779032e-05
1.77973453973243307e-05
1.65456319345549756e-05
1.52087220990263838e-05
1.40391240817101376e-05
1.33598121397110559e-05
1.41472888235004744e-05
2.35042462865728964e-05
4.35223954494514924e-05
4.50365902486227313e-05
2.54745370822420399e-05
2.40673976945458997e-05
2.28927942123705627e-05
2.16973507402523485e-05
2.05043995248863786e-05
1.93082851588133905e-05
1.81044786786937268e-05
1.68812295674762888e-05
1.56583602768053659e-05
1.43315312773125744e-05
1.32132807769088341e-05
1.26570099496880301e-05
1.43096615371933549e-05
2.79527134092585677e-05
4.9010467998626499e-05
4.48945915429821741e-05
2.4277693881512935e-05
2.29770756907422621e-05
2.18916065727090372e-05
2.07600298018813313e-05
1.96149858444889618e-05
1.84585911243746064e-05
1.72884278311520375e-05
1.60949604001637124e-05
1.49010324277631268e-05
1.36028453053909421e-05
1.25385833515191719e-05
1.18916372078281862e-05
1.43454936226904056e-05
3.37267386446124838e-05
5.56716852403271842e-05
4.67482989180932065e-05
2.32009981203911558e-05
2.20051856185464565e-05
2.09938596916724343e-05
1.99227333684889766e-05
1.88257673271784444e-05
1.7710137255622356e-05
1.65757874242100065e-05
1.54170192835191394e-05
1.42493768457928407e-05
1.29949079348906306e-05
1.19877941950119068e-05
1.13338170580785467e-05
1.45839850855748326e-05
3.98396959880469961e-05
6.35187312961280347e-05
4.97578654911833788e-05
2.22318875179679292e-05
2.11344952349555744e-05
2.01885106140750671e-05
1.91741826896693953e-05
1.81246064320810226e-05
1.70500862705997417e-05
1.59530602159133251e-05
1.48303220651765234e-05
1.37000096242631438e-05
1.2498961197850354e-05
1.15337314176418673e-05
1.08782616163406921e-05
1.52298260604038293e-05
4.78926242743312323e-05
7.2985659083919338e-05
5.46704184136227224e-05
2.13588036700215209e-05
2.03521710120328302e-05
1.94654944379251974e-05
1.8504544037218061e-05
1.75011738300266608e-05
1.64676414020652391e-05
1.54084805740319365e-05
1.43232240133776684e-05
1.32302510654551642e-05
1.20754505551995509e-05
1.11481815627252043e-05
1.05528311591010223e-05
1.68576402924222267e-05
5.32672264852783705e-05
8.49649328398022923e-05
5.87555836201235785e-05
2.057142308975007e-05
1.9647956144762205e-05
1.8815962698553774e-05
1.790528044005314e-05
1.69466441517929713e-05
1.59535356881636524e-05
1.49322960564463892e-05
1.38849343412942209e-05
1.28291744139857991e-05
1.17191107288060096e-05
1.08250911757427782e-05
1.04000653382683976e-05
1.99494803438985797e-05
5.91809032636797058e-05
9.85636318167082707e-05
6.47707553804811252e-05
1.98606364031410683e-05
1.90133492333965477e-05
1.82322370425403655e-05
1.73689704492308189e-05
1.64534384075662042e-05
1.54998688813589773e-05
1.45162706352534396e-05
1.35066661071681646e-05
1.24873887626765673e-05
1.14198798114237734e-05
1.05561745356971254e-05
1.0412462183310471e-05
2.49420828044098127e-05
6.72905611919134025e-05
0.00011582201072479844
7.16635560505624009e-05
1.92184441567228496e-05
1.84411753839325747e-05
1.77077008714086411e-05
1.68891711098257175e-05
1.60150172797939711e-05
1.50998489387794043e-05
1.41533861054815643e-05
1.31810540904865891e-05
1.21978803515005102e-05
1.11720560911410219e-05
1.03382566315709134e-05
1.04920385071489725e-05
3.00599351241451153e-05
7.85280227021851746e-05
0.000136109231636409443
7.71854558027323365e-05
1.86378639154180764e-05
1.79253655012757385e-05
1.72366670207998768e-05
1.64602864274303391e-05
1.56257126304627447e-05
1.47475798667190705e-05
1.38376244394474169e-05
1.29020718474625136e-05
1.19547274351718585e-05
1.09692236372148203e-05
1.01661463063170478e-05
1.06168721576048235e-05
3.56518584813079139e-05
9.4194959489233467e-05
0.000163990924153339175
8.79058468472415617e-05
1.81128372537907306e-05
1.74607703127416456e-05
1.68142102037614358e-05
1.60774245510272772e-05
1.52805893751112823e-05
1.44378633479678347e-05
1.35638552377183864e-05
1.2664860383981621e-05
1.17529330575160079e-05
1.08065208873644993e-05
1.00293998979165608e-05
1.11682972973431145e-05
4.30120153461450302e-05
0.000117896228270499356
0.000205740960549095008
0.000105132054717348446
1.7638431262044064e-05
1.70431867134767713e-05
1.64361000162234559e-05
1.57363334198205409e-05
1.49754183539880671e-05
1.41660057707813912e-05
1.33276368967303128e-05
1.24653228291411898e-05
1.15886901506513596e-05
1.06828027610788992e-05
9.92589246211178473e-06
1.20654157457966323e-05
5.72501663921187815e-05
0.00015291315912353823
0.000268157366379892883
0.000131447851478849401
1.72115840866375682e-05
1.66700565137103557e-05
1.6099006234341693e-05
1.54334463482194183e-05
1.47067906738295382e-05
1.39276036331227539e-05
1.31248699295410872e-05
1.22996093804598522e-05
1.14590334354164448e-05
1.05976533551654328e-05
9.86285895411289765e-06
1.35394043637332444e-05
7.42064898472027452e-05
0.00020507955808116317
0.000371185938122362404
0.000166115067204036597
1.68331951576183943e-05
1.63397873844915347e-05
1.58006429033088242e-05
1.51656456031073339e-05
1.44723394084151267e-05
1.37184554959189148e-05
1.29514343364851909e-05
1.21647378414586761e-05
1.13616948113134173e-05
1.05526193186584093e-05
9.85796049135685015e-06
1.38800578102943892e-05
9.64891127390153929e-05
0.000286900297727094478
0.000544977005916197745
0.000210066435527848287
1.65068266931261158e-05
1.60479688456323837e-05
1.55400483552212218e-05
1.49313714285841004e-05
1.42706690982973813e-05
1.35359035745572188e-05
1.28044132690946351e-05
1.20622304812176725e-05
1.12966453900708061e-05
1.05524329913555589e-05
9.90132581446845688e-06
1.47485323798385543e-05
0.000128679603840745153
0.000465568103146062301
0.000858105949932487554
0.000257783277327888229
2.82810656717882919e-05
2.66990924439229759e-05
2.52599019653531378e-05
2.39035699752065432e-05
2.26045479602120044e-05
2.13350460614379465e-05
2.00741564862549924e-05
1.88177318977308398e-05
1.75486717646607186e-05
1.62336768675757572e-05
1.50287507045927908e-05
1.41642180727929086e-05
1.40646929026909545e-05
2.12924855498398593e-05
4.28398095304593983e-05
6.41054447365702133e-05
2.68112288684100344e-05
2.5308036143702979e-05
2.40218684472310315e-05
2.27623044518144568e-05
2.15256217228832877e-05
2.02946259347799182e-05
1.9063340992020824e-05
1.78244660415516778e-05
1.65798569753881729e-05
1.52518452065451844e-05
1.41021778466045526e-05
1.34436575390612159e-05
1.41981613472082299e-05
2.39542220243725179e-05
4.75467589376504178e-05
5.37112975075963118e-05
2.54818299903574914e-05
2.40765871124336799e-05
2.29038561339719612e-05
2.17104477910782116e-05
2.05197986344091012e-05
1.93263895109717327e-05
1.81257495706677491e-05
1.69068242740318732e-05
1.56906512658472618e-05
1.43715671786203609e-05
1.32756808760391747e-05
1.27104614504530409e-05
1.44468525230115039e-05
2.891442618019537e-05
5.20328618422139069e-05
5.20621057367575766e-05
2.42849613560520735e-05
2.29860553750282931e-05
2.19022769094095069e-05
2.07725715536515178e-05
1.96296655181527276e-05
1.84757655293015048e-05
1.73085481312524715e-05
1.61189701607297709e-05
1.4931414733647781e-05
1.36401256407435534e-05
1.26016944114824278e-05
1.19637919457856311e-05
1.43825880096565168e-05
3.50069678369400975e-05
5.74887914597938644e-05
5.3225111753774196e-05
2.3208215577669965e-05
2.20139461707446053e-05
2.10041365328278707e-05
1.99347283243036001e-05
1.88397340747356498e-05
1.77263628325925632e-05
1.65947975199424613e-05
1.5439431028081041e-05
1.42781591620162874e-05
1.30301097114414094e-05
1.20531858631921936e-05
1.13923906081912763e-05
1.45871078160080367e-05
4.18257796158923989e-05
6.45179216630945777e-05
5.27439774926779595e-05
2.22390485171277933e-05
2.11430552390583131e-05
2.0198397426335543e-05
1.91856482559227069e-05
1.81378832087067411e-05
1.70654399987849587e-05
1.59709213472210488e-05
1.48511902107097442e-05
1.37268175301047046e-05
1.25311318712062994e-05
1.15954233631930084e-05
1.09456263969036032e-05
1.56479115590596682e-05
5.23218249255069415e-05
7.12365631682779151e-05
5.6244097020329493e-05
2.13659206907080257e-05
2.03605789010019964e-05
1.94749929794316479e-05
1.85155091436416603e-05
1.75137826287955444e-05
1.64821521467636216e-05
1.54251567513021397e-05
1.43425691024576888e-05
1.32547296921560743e-05
1.2104267633167738e-05
1.11995923708321577e-05
1.06452514284072746e-05
1.77927482248629491e-05
5.94789184870613596e-05
8.02001173680585207e-05
6.11226033606780857e-05
2.05785302347579104e-05
1.96562961621599982e-05
1.88250591709802563e-05
1.79157925013670518e-05
1.69586213252180812e-05
1.59672891299636214e-05
1.49477728086193826e-05
1.39028453407832232e-05
1.2851083759274252e-05
1.17448962926544173e-05
1.08665446171885635e-05
1.04515789210590747e-05
2.07628642885705444e-05
6.57169871025683908e-05
9.15523741498908453e-05
6.61890652450347025e-05
1.98677848589368867e-05
1.90217560984417568e-05
1.82408821422067192e-05
1.73791051003640273e-05
1.64648246259635832e-05
1.55130213247406272e-05
1.45306132970316626e-05
1.35233000224560833e-05
1.25066589767911342e-05
1.1442490239388191e-05
1.0589845247769566e-05
1.03654196376336119e-05
2.54901449884787136e-05
7.42524251820881253e-05
0.000105016849512044056
7.11360906738245596e-05
1.92256836841905224e-05
1.84498590587220453e-05
1.77157814544671037e-05
1.68990479012181029e-05
1.60258561309199143e-05
1.51126438031152436e-05
1.41666734966888079e-05
1.31967312878453125e-05
1.22144459275490101e-05
1.1190956841614379e-05
1.03638412456286443e-05
1.05122060943177002e-05
3.05026244969233344e-05
8.48522145908090777e-05
0.000119665880886185664
7.56926789032412347e-05
1.8645209695785667e-05
1.7934641121652642e-05
1.72439678222580934e-05
1.64700959356915671e-05
1.56360508082146919e-05
1.47603941857940635e-05
1.38499931260923014e-05
1.29174395864551629e-05
1.19685471460165209e-05
1.09848271059359907e-05
1.01851695055835398e-05
1.07243288991202303e-05
3.6584297362284848e-05
9.92880203628848288e-05
0.000141351193951573208
8.17469327584671306e-05
1.81202277301597209e-05
1.74711210621176798e-05
1.68203940993247226e-05
1.60874683807278831e-05
1.52904218897404968e-05
1.44512654132923939e-05
1.35755388345310066e-05
1.26807893906144178e-05
1.17638049091644454e-05
1.08206475042060041e-05
1.00470383587712736e-05
1.09494176623162733e-05
4.26378657804586561e-05
0.000120243466620027008
0.00017309562904453709
9.58677731395175987e-05
1.76457695505799012e-05
1.70554189401704288e-05
1.64407558439969987e-05
1.57470486329362606e-05
1.49844849691022278e-05
1.41809170605281035e-05
1.33391137975034254e-05
1.24828855781258728e-05
1.15965174639370922e-05
1.06979348467235441e-05
9.94445126093862182e-06
1.15559046173722336e-05
5.34257809747775279e-05
0.000149148509788663231
0.000224786229327478596
0.00012087655006684575
1.72189052007015218e-05
1.6685629994036221e-05
1.61015657313603418e-05
1.54453844460915711e-05
1.47143505060898947e-05
1.39459407981736771e-05
1.31374616593151665e-05
1.23202065382713123e-05
1.14635247551318277e-05
1.06152944010964315e-05
9.87992006779088239e-06
1.31412921984262928e-05
7.00744050551357342e-05
0.000192521968667418598
0.000310293121012033461
0.000159393331919269708
1.68416245068059997e-05
1.63609491714671549e-05
1.57997434120877239e-05
1.51794660799971267e-05
1.4477478583622292e-05
1.37447121429011788e-05
1.29688429884429753e-05
1.21891168714988082e-05
1.13624475482892939e-05
1.05744193535907294e-05
9.87521615112474906e-06
1.36851737907163356e-05
9.01464003710707835e-05
0.000255964564383455895
0.000446967150902162177
0.000203028173285603052
1.6520441796107335e-05
1.60771766460576704e-05
1.55337350007871163e-05
1.49465477008210678e-05
1.427364608510257e-05
1.35779954181930739e-05
1.28337476421905099e-05
1.20872890834966796e-05
1.12939154911414426e-05
1.05818044028119613e-05
9.92411047689156642e-06
1.46314969698104707e-05
0.000114191448388306497
0.000385172550118828235
0.000691360997745401836
0.00021336768087195336
2.82901054810539131e-05
2.67101179684797961e-05
2.5273161854789076e-05
2.39192452119809042e-05
2.26229023626023587e-05
2.13563643099859059e-05
2.00987378316615785e-05
1.88453937178190758e-05
1.75783530305045896e-05
1.62630738832231275e-05
1.50448174662385626e-05
1.41961973507181878e-05
1.42993535146943582e-05
2.21098439215282928e-05
4.51426486974629903e-05
7.10888564299082411e-05
2.68202033453686474e-05
2.53187684221079033e-05
2.40345946653530389e-05
2.27772013142271079e-05
2.15429659786001435e-05
2.03146918554178408e-05
1.90865212208533362e-05
1.78505702262641091e-05
1.66086310331385516e-05
1.52841558095508537e-05
1.4114997486634575e-05
1.36010661428286755e-05
1.46799463777668662e-05
2.51396299406700255e-05
4.9516492388531415e-05
6.02098375131708541e-05
2.54906624598328477e-05
2.40870081139004291e-05
2.29160751385080784e-05
2.17246592519707533e-05
2.05362850300300598e-05
1.93453627423112101e-05
1.81476287873199456e-05
1.69309736777886532e-05
1.57179148175802046e-05
1.43997278078762227e-05
1.32866845723072118e-05
1.29179241180224447e-05
1.48966218339358695e-05
3.04959187636681439e-05
5.33150681401128965e-05
5.85116581638968122e-05
2.42936160106815609e-05
2.29961294245453011e-05
2.19140013322816197e-05
2.07861247474427094e-05
1.96453192509342646e-05
1.84936821136308416e-05
1.73289900678028179e-05
1.61409115913468229e-05
1.49569284258775414e-05
1.36616521634583941e-05
1.26133101805880908e-05
1.21280779076614823e-05
1.48665327897337009e-05
3.68277434699475984e-05
5.83708193497877703e-05
5.93103372510398656e-05
2.3216685069904399e-05
2.20236597314531926e-05
2.10153975851626087e-05
1.99476568430190496e-05
1.88545995150955122e-05
1.77432955347774087e-05
1.66136755792657764e-05
1.54593408950431158e-05
1.43006565674925215e-05
1.30441322690766296e-05
1.20594295773826862e-05
1.15571986095989899e-05
1.51935150796452092e-05
4.52362754856253788e-05
6.45636743118308719e-05
5.8132515675352373e-05
2.22473584125371834e-05
2.11524056890113459e-05
2.02092508797380783e-05
1.91979870372014966e-05
1.81520204376448575e-05
1.7081405243283054e-05
1.59883548410586258e-05
1.48693956398204093e-05
1.37433921889431886e-05
1.25372674567391344e-05
1.15909847478629744e-05
1.11341839422724927e-05
1.6811931799226803e-05
5.81597188222457621e-05
7.08773029408300609e-05
6.05974060483942449e-05
2.13741386393360164e-05
2.03695636601209729e-05
1.94855331384230986e-05
1.85272864831341893e-05
1.75272734110734277e-05
1.64972257553148105e-05
1.54413665723658356e-05
1.43589773058797905e-05
1.32674273089518522e-05
1.2107067331507902e-05
1.11805608459875255e-05
1.0909601792897712e-05
1.97885307746555819e-05
6.55302671257835336e-05
7.90018337389613044e-05
6.53630186664493583e-05
2.05867922847992657e-05
1.96648945947486925e-05
1.88354484627264764e-05
1.792701333544531e-05
1.697157186917288e-05
1.59815819480698842e-05
1.49630656810782627e-05
1.39177468906419995e-05
1.28603019883791399e-05
1.17447276450168769e-05
1.08337760914641869e-05
1.07807237483464934e-05
2.28681150924449148e-05
7.23915428925074166e-05
8.92540384568247435e-05
7.01168097353030781e-05
1.98763440484371574e-05
1.90299038018168619e-05
1.82514087569827279e-05
1.73897204974293329e-05
1.64773807996230439e-05
1.55266366111221181e-05
1.45453736814330043e-05
1.35372101644588197e-05
1.25141018838007709e-05
1.14428825047839733e-05
1.05556696566034657e-05
1.05790379911414995e-05
2.60008912830600193e-05
8.2118413142334175e-05
0.000101224619220759566
7.41807174294898915e-05
1.92349843550608675e-05
1.84574130803885354e-05
1.77269595990721557e-05
1.69088992915798746e-05
1.60382250656815064e-05
1.51256609783063426e-05
1.41814403287891544e-05
1.32101916154691825e-05
1.22220234854979101e-05
1.11944005663237238e-05
1.03392660242206426e-05
1.051483323524252e-05
3.0449727517250896e-05
9.39169514691115607e-05
0.000114207560110281072
7.76345802521807182e-05
1.86560023610260735e-05
1.79413248907188505e-05
1.72566823048893512e-05
1.64788168491429666e-05
1.56485419065179229e-05
1.47728563620103553e-05
1.38654721915828452e-05
1.29306987114151535e-05
1.19781497600365078e-05
1.09915078104747229e-05
1.01654669025659077e-05
1.11252079055797585e-05
3.74353146330463113e-05
0.000109421331596378822
0.000132587211770129654
8.20597932069893981e-05
1.81338132317971336e-05
1.74764108234814824e-05
1.68360484604336295e-05
1.60943256169170444e-05
1.53035290179297049e-05
1.4463173812762218e-05
1.3592600458634962e-05
1.2693871793585322e-05
1.17773201286098316e-05
1.08289063503237505e-05
1.0027213960599774e-05
1.17089943638827549e-05
4.72426114077120966e-05
0.000134308403334589308
0.000159547959457352688
9.38367269894012016e-05
1.766417124284315e-05
1.70582589751552329e-05
1.64613292692019856e-05
1.57507345950357948e-05
1.49990511567131801e-05
1.41921844292409855e-05
1.33588176466106554e-05
1.24959148123571989e-05
1.16151500573294109e-05
1.07046681516464381e-05
9.93556695396355766e-06
1.1880658312124585e-05
5.5900536955102706e-05
0.000166905062346626033
0.000202235831881964699
0.000117413775080924974
1.72448225383607766e-05
1.66837672243538581e-05
1.61296171933174067e-05
1.54438875146535129e-05
1.47318011164470737e-05
1.3956212124038932e-05
1.31611254927519237e-05
1.23335888915511021e-05
1.14885562285210528e-05
1.06205003525346766e-05
9.8881006117521763e-06
1.27998863925296614e-05
6.75281353801282448e-05
0.000216425052459260205
0.000279515487960301922
0.000152060229614464084
1.68769197919942672e-05
1.63506370789570437e-05
1.58372815099519538e-05
1.51707543474522997e-05
1.4499675220608709e-05
1.3753051918278916e-05
1.2997995440084729e-05
1.22042365944548791e-05
1.13963396449113345e-05
1.05804718616241981e-05
9.89284128700411226e-06
1.34145729848708461e-05
9.08600682319400844e-05
0.000282467928968880124
0.000365510274509042005
0.000151415078951030568
1.65648647916450218e-05
1.60533563985547387e-05
1.55799250143917451e-05
1.49316354982970283e-05
1.43018632534726561e-05
1.3583466876555154e-05
1.28701416838138432e-05
1.21086222815052825e-05
1.13393118075677647e-05
1.05933080253477719e-05
9.95099588684934175e-06
1.46166055152931494e-05
0.000116225602999641978
0.000426222016092377782
0.000543118355190022454
0.000157022074182255379
2.83005722692109178e-05
2.67222763649633943e-05
2.52874258672708916e-05
2.39358978736700099e-05
2.26422838741202124e-05
2.13787972558430943e-05
2.01244715279895284e-05
1.88745119747546097e-05
1.76115743309508613e-05
1.62987621848895317e-05
1.50921892797724287e-05
1.42285126849484618e-05
1.41848784002928243e-05
2.18731240856657762e-05
4.58452837875769059e-05
7.62871864863735134e-05
2.68304393307889917e-05
2.53304486594063117e-05
2.40481391521756364e-05
2.27928882751691328e-05
2.1561118328193573e-05
2.03356259937818566e-05
1.91103251981024774e-05
1.78774917024806574e-05
1.66380261233570436e-05
1.53163703523434689e-05
1.41537935490814279e-05
1.35927324523240916e-05
1.45143882865125214e-05
2.48921465104293157e-05
5.16777888959235964e-05
6.65626488080066733e-05
2.55005719172252311e-05
2.40982347035823768e-05
2.29289819720497196e-05
2.17395422019165634e-05
2.05534398604865668e-05
1.9365055053689006e-05
1.81698223263438039e-05
1.69560612117640662e-05
1.57444278912852367e-05
1.44295283126256574e-05
1.33188144578742597e-05
1.28909632282975745e-05
1.48212663523414642e-05
3.05401796936005847e-05
5.64880341339591601e-05
6.52349132606080533e-05
2.43031418567697027e-05
2.30068751162761902e-05
2.19262813099396402e-05
2.08002618780555879e-05
1.96615619694539092e-05
1.85122359034651023e-05
1.73497304849584747e-05
1.61642687093439465e-05
1.49807210840160981e-05
1.36899405812034104e-05
1.26377143099207844e-05
1.21005588708158019e-05
1.48638006672865926e-05
3.77136805122268878e-05
6.13398304789608588e-05
6.41059699017989951e-05
2.32257755091353284e-05
2.20339152610140873e-05
2.10270544915205898e-05
1.99611114973825047e-05
1.88700190885395265e-05
1.77608186802502189e-05
1.66330627411606774e-05
1.54810697858465348e-05
1.43221168781171541e-05
1.30714475448928494e-05
1.20768899552919397e-05
1.15272617360775999e-05
1.53289061871329778e-05
4.76029356546144245e-05
6.7066125767374933e-05
6.31302023801369141e-05
2.22559455638472049e-05
2.11621718198789474e-05
2.0220262083997543e-05
1.92108291191462989e-05
1.8166705767633553e-05
1.70980116829484502e-05
1.60064881274042251e-05
1.48895973089386054e-05
1.3763666258514444e-05
1.25643526044722691e-05
1.16046232757849781e-05
1.10989582438309785e-05
1.70121265185481531e-05
6.25637074569275844e-05
7.36992354440564634e-05
6.62097589596584419e-05
2.13821088814766493e-05
2.03788476606938378e-05
1.94958148160485826e-05
1.85395989515893888e-05
1.7541307114916096e-05
1.65130478251577974e-05
1.54583794401842627e-05
1.43777911809395666e-05
1.32866537978797041e-05
1.21340139754283443e-05
1.11960399094920328e-05
1.08562406149179547e-05
1.98710811544585602e-05
7.06636616923839747e-05
8.19753728308080562e-05
7.00365024088200097e-05
2.05939424773579241e-05
1.96737148064253062e-05
1.88447946740621988e-05
1.79389089778907764e-05
1.69850151131243115e-05
1.59967738842979333e-05
1.49790150187227666e-05
1.39351692106874129e-05
1.28791431476062952e-05
1.17704400222590884e-05
1.08545239441967781e-05
1.07111163296692993e-05
2.3064040864871916e-05
7.82320243072480334e-05
9.07711719549778468e-05
7.36598130179842828e-05
1.98823153491205318e-05
1.90383076098577075e-05
1.82593857666421842e-05
1.74013814481869084e-05
1.64902483308367897e-05
1.55413988970063372e-05
1.45601736349101875e-05
1.35531703711767007e-05
1.25323047815063509e-05
1.14647326634796368e-05
1.05810307018385705e-05
1.05672697527212816e-05
2.61964889100513984e-05
8.8589593231674994e-05
0.000100580794984096242
7.71830415302096466e-05
1.9239168022362208e-05
1.84655116478027222e-05
1.77327314055947357e-05
1.69206560382637055e-05
1.6050436088307684e-05
1.51402739238777134e-05
1.41948515258929985e-05
1.32248325692554582e-05
1.2238400422159069e-05
1.12108742914964906e-05
1.03652053029005327e-05
1.04572952440583952e-05
3.05885867105997535e-05
0.000101521710028186412
0.000113936321391817417
8.05010632229374585e-05
1.86573712375421934e-05
1.79493445782911193e-05
1.72587679611319694e-05
1.64912811802267548e-05
1.56598322794172834e-05
1.47877206299255166e-05
1.38770844453439579e-05
1.2944358542411015e-05
1.19913955655254315e-05
1.10036386950085833e-05
1.01883162886817397e-05
1.07990340806046013e-05
3.67159808818437897e-05
0.00011807829150034371
0.000131990640145303697
8.48208853666448302e-05
1.81307757951003214e-05
1.74847613823581795e-05
1.68320333360710904e-05
1.61085727421976177e-05
1.53133167773380074e-05
1.44788741432882558e-05
1.36017865549665977e-05
1.27070463192151282e-05
1.17864721153335068e-05
1.08377932764459556e-05
1.00423836353473003e-05
1.153650293056925e-05
4.63473262374043077e-05
0.000145752201600488849
0.000159920407803129156
9.80838406587730243e-05
1.76544150859755578e-05