/*--------------------------------*- C++ -*----------------------------------*\
| =========                 |                                                 |
| \\      /  F ield         | OpenFOAM: The Open Source CFD Toolbox           |
|  \\    /   O peration     | Version:  2206                                  |
|   \\  /    A nd           | Website:  www.openfoam.com                      |
|    \\/     M anipulation  |                                                 |
\*---------------------------------------------------------------------------*/
FoamFile
{
    version     2.0;
    format      ascii;
    arch        "LSB;label=32;scalar=64";
    class       volVectorField;
    location    "0.0899999999999999967";
    object      U;
}
// * * * * * * * * * * * * * * * * * * * * * * * * * * * * * * * * * * * * * //

dimensions      [0 1 -1 0 0 0 0];

internalField   nonuniform List<vector> 
29184
(
(0.0270436205866983817 -0.0118766079185801832 -0.00204454991275003798)
(0.0832269319390928075 -0.0130452372880291694 -0.0022075855501767533)
(0.142641066682204887 -0.0132947332583667546 -0.00246873039150958488)
(0.204935344180831785 -0.013990636820158317 -0.00288841963527692452)
(0.269503539100966583 -0.0149447536502851641 -0.0034906201529424875)
(0.339996081424475571 -0.016325515056030724 -0.00432253492026878853)
(0.41695622668329646 -0.0182680000407159336 -0.00546276715624006808)
(0.506997645605441027 -0.0206169460104163454 -0.00698783117132241362)
(0.598831377614798988 -0.0238814639658619446 -0.00919316407722319331)
(0.733752703921419558 -0.0291152742122344627 -0.0121178005598845812)
(0.828292069506192052 -0.0298692465822895034 -0.0175729647006042308)
(0.985541448478436055 -0.0451372135159320564 -0.0232076014743036463)
(1.23112294012725099 -0.0616380898368208696 -0.0318515675327582445)
(1.48176833057681501 -0.0449285918497824149 -0.0931955039562688964)
(1.59308706804189515 0.025855226153940751 -0.226094875841935883)
(1.197283924242873 0.134589842853325092 -0.952527265285416203)
(0.0271250643481657089 -0.0360710391944039574 -0.00205875157789574877)
(0.0831084043046519949 -0.0391736150152113966 -0.00220782366914504778)
(0.141289177404165744 -0.0396315821884189318 -0.00246329665154845258)
(0.201335513466251503 -0.041669083955363187 -0.00287162463606736949)
(0.265177251358784227 -0.0446699651860119687 -0.00345852143259405605)
(0.334592388473023639 -0.0488465776271876997 -0.0042674620708587057)
(0.410597215043850161 -0.054443611952378887 -0.00537108303390778329)
(0.497364420121035045 -0.0616297428545468928 -0.00687205397932128415)
(0.590302143344887065 -0.0708044841368218186 -0.00894638140081394778)
(0.713773908245749489 -0.0857428204426015084 -0.0118979679549003018)
(0.816320832978132405 -0.0936309769612306692 -0.0168592420526882218)
(0.974030848969213991 -0.128977489464171285 -0.0211294365164431362)
(1.20832290915065199 -0.164939896183190965 -0.0411226885105096668)
(1.47647623610320755 -0.116682494960282102 -0.116011677219798368)
(1.64859360777288377 0.0920715808272267872 -0.35512209663692218)
(1.46752443089957763 0.48108636868628174 -1.24798665282477517)
(0.0271445932954535278 -0.0605972766793786491 -0.00206392176322608024)
(0.0826331339751197325 -0.0646764148915957016 -0.00221053361999700489)
(0.14009707424889814 -0.0656097172201681594 -0.00246004450207899187)
(0.19974046768015849 -0.0690250299310909837 -0.00285977721368840159)
(0.263084236469862232 -0.0741331752300024432 -0.0034346682967052863)
(0.331813348347882675 -0.0810529888552896927 -0.00422478913457246912)
(0.406932880052767176 -0.0900985807783875464 -0.00529680920630677156)
(0.492663571231889641 -0.102049484695097198 -0.00675385054946921887)
(0.58380973975936723 -0.116591782446216236 -0.00873632669205377278)
(0.705684087625604417 -0.140335911047663325 -0.0116613971768920639)
(0.802796928372988994 -0.15733699790228281 -0.0159835403610475643)
(0.958263083201998156 -0.210375402844470899 -0.0212712124809878132)
(1.19733948473972029 -0.270286845752147009 -0.0485752639111688353)
(1.46719647645125173 -0.197843148710219824 -0.147158098364357059)
(1.57313688570974231 0.0796295163380005139 -0.43079033611636397)
(1.34366307872678847 0.839415572838078772 -1.38523594843166653)
(0.0269906648095873426 -0.0849317119675895432 -0.00206281266255511127)
(0.0818050666300147999 -0.0896334103552014622 -0.00220542736069506045)
(0.13840263976017167 -0.0913863887857917917 -0.00244785198202128983)
(0.197339056185650397 -0.0961680461976362894 -0.00283726585146101915)
(0.259876725796570729 -0.103280500943063291 -0.00339753694821821883)
(0.327585528842410989 -0.112839183284057828 -0.00416520317644970741)
(0.401371287887077655 -0.125282604324278068 -0.00520112268640412177)
(0.485600136619127098 -0.141663317392691029 -0.00660434865885037477)
(0.573833957936824124 -0.161692260822479922 -0.00850003111431384475)
(0.6944332409699433 -0.19331279475704119 -0.011337648545236334)
(0.785177398686108585 -0.216654658591279026 -0.0153036430797283286)
(0.932667001369656412 -0.293837295553185496 -0.0217371683569274055)
(1.17271092894793982 -0.380137596865925964 -0.0538005071884160163)
(1.44682589854303556 -0.276243250206716084 -0.176793652385001193)
(1.49063805807235394 0.0652989147585821827 -0.485179127929554199)
(1.21730128162642681 1.14263829117533744 -1.44743459001620756)
(0.0266733312613970548 -0.109022546684758526 -0.00205627608383063265)
(0.0806433472000455953 -0.114241860695937975 -0.00219334351503568895)
(0.136244715721139997 -0.116829178420827504 -0.00242760258576938271)
(0.194217842626449949 -0.122928328454780689 -0.00280530605236520075)
(0.255665248290094571 -0.131950361095502344 -0.0033488855919109454)
(0.322042129176608904 -0.144031245367547633 -0.00409067574164205094)
(0.394132810261501376 -0.159729860924302303 -0.00508665269569302976)
(0.476312475848615968 -0.180195264600137461 -0.00642087643169113147)
(0.561178454520785852 -0.205757355112454632 -0.00825851520594526878)
(0.680580342420432194 -0.243996819196844961 -0.0108958084373398465)
(0.761602536648388395 -0.27310589216279002 -0.014930014616078513)
(0.903552776271579594 -0.377728664639798761 -0.022110796207227456)
(1.14271440608696673 -0.481665272968784808 -0.0575280946544934405)
(1.36505801449393527 -0.33855890366317698 -0.202927411930013762)
(1.39781957226321629 0.0649915637991595463 -0.533895619582047787)
(1.11895774136826365 1.3986417127039934 -1.50839439480133208)
(0.0262310121283023251 -0.13276504462454905 -0.00204530476392187363)
(0.0791785350057130494 -0.138359334440903925 -0.00217515968025840676)
(0.133623914224805407 -0.141811911830745957 -0.00240016039415977527)
(0.190402143818295427 -0.149192277423671082 -0.00276506737319076254)
(0.250497091761703594 -0.160022289588762634 -0.00329047757962285621)
(0.315248986125987618 -0.17448512329258653 -0.00400381361356082471)
(0.385317926425226165 -0.193238688602003772 -0.00495490352306410427)
(0.464866699047932652 -0.217532247210044355 -0.00621152477969514564)
(0.546718235541432063 -0.248038732239572096 -0.00799670974524802416)
(0.659101442230520473 -0.291912677210428129 -0.0103592800265207979)
(0.734813988178128596 -0.326726904293842824 -0.0147545825021897312)
(0.870159912112135614 -0.460326025604982259 -0.0216901232966766333)
(1.09935518598379778 -0.566804763514162202 -0.0581077670503738139)
(1.2763447715745273 -0.38417216025965123 -0.215726808548655058)
(1.27884305330347336 0.0678303863641578908 -0.571421236151648748)
(1.02590484878014387 1.62703389252822617 -1.55669264012798525)
(0.0256831115302841168 -0.156055051076193829 -0.00203128194019985223)
(0.0774329494902975257 -0.161939676864685883 -0.00215174800712497095)
(0.130555716614861955 -0.16624526109879631 -0.00236649993989974765)
(0.185927148791420915 -0.174850115505363557 -0.00271794230683407474)
(0.244428314226646015 -0.187377535502504494 -0.00322457614356073518)
(0.307288582821221734 -0.204065701883132306 -0.00390855156861586069)
(0.375012970176495042 -0.225653349941330267 -0.00480985973499733002)
(0.451687118456291836 -0.253465303731174818 -0.00599144927653516828)
(0.52954232462347206 -0.288286223235413031 -0.00766312201857453825)
(0.63774216214952939 -0.337050714181909905 -0.00970640522321105856)
(0.706533098082852917 -0.378141984663080299 -0.0144644519251343265)
(0.83009980917321502 -0.538629982130755081 -0.0194900435273988835)
(1.04557457775725804 -0.635168663857899385 -0.0546310906464982649)
(1.17696710795134352 -0.428034215557831832 -0.20595884423573535)
(1.16608688058859666 0.0633589944602679644 -0.579578229804941669)
(0.936656713496171522 1.82783794004486011 -1.57495637969870694)
(0.0250434587325081767 -0.178805769677817972 -0.0020160790314209592)
(0.0754284261887575719 -0.184916687517571149 -0.0021238710545632717)
(0.127063079352959879 -0.190041408258567024 -0.00232771917699129685)
(0.180832422270377824 -0.199800184964433997 -0.0026654525478208989)
(0.237520240313520176 -0.21390695849933658 -0.00315398773110162154)
(0.298245666565355894 -0.23264873417055848 -0.00380824854772145779)
(0.363365070918847732 -0.256835615801329797 -0.0046571441034244411)
(0.436825974758406566 -0.287796648809208688 -0.0057620019122446289)
(0.510498644462970996 -0.326591902856637473 -0.00728598009874448227)
(0.613597470387300614 -0.379673996260268543 -0.00904959594647349388)
(0.675800765783758473 -0.426499403529971899 -0.0136475592816112899)
(0.784730305390035188 -0.609322968433443246 -0.0152321835020105528)
(0.98779962314106029 -0.688950809454378255 -0.0486463763309802066)
(1.08997122357573328 -0.460765085811245534 -0.191777804626545978)
(1.07098333557164538 0.0712501314783643702 -0.578120472854032896)
(0.853817130071701347 2.00686629351530899 -1.57321272544970081)
(0.024324154919478605 -0.200940844637955501 -0.00200180850812646787)
(0.0731879029272686776 -0.207223755302899215 -0.00209198275114311737)
(0.123174525154736286 -0.213122082561156473 -0.00228517895299882234)
(0.175161954459535196 -0.223951419043032451 -0.00260909540956250942)
(0.22983885814306465 -0.239513571997899299 -0.00308223376513532855)
(0.288214359545398369 -0.260126473696901561 -0.00370820740513994182)
(0.350503180171159612 -0.286659551419191305 -0.00450452628117514048)
(0.420482881656461693 -0.320418127657531249 -0.00553728808424343993)
(0.489684123335437871 -0.362743894220851015 -0.00686139855887238533)
(0.587487563935249368 -0.419585986952588419 -0.00844296859417927731)
(0.642413319099051305 -0.470652653050957936 -0.0120084853123091917)
(0.73684221377725978 -0.672999536732547199 -0.0103417049054746399)
(0.928660624481284613 -0.730526988400422295 -0.0429997824571141593)
(1.01168402872510943 -0.479927654555813099 -0.180815957519459697)
(0.98344182634087729 0.0987936913519580628 -0.574011565732500229)
(0.779796186521636514 2.17109069674337718 -1.5733468079717563)
(0.0235376199367291171 -0.222398451271938413 -0.00199014326044781326)
(0.0707355487097977575 -0.228803028098082506 -0.00205615008710985717)
(0.118921331622149407 -0.235423381085053673 -0.00224076507329907647)
(0.168962373674096444 -0.247229199649667108 -0.00255032146919768497)
(0.221452953828183419 -0.264119952487587129 -0.00301420976940344667)
(0.277291793025189581 -0.286414080437127572 -0.00361603328918564965)
(0.336567400842436248 -0.315032879470818206 -0.00436588828181480593)
(0.402829903728947725 -0.351220262750356615 -0.00533043172214552746)
(0.467342886180881101 -0.396633009637532619 -0.00640563633819305617)
(0.559590995875846708 -0.456546835796218187 -0.00794291220762247813)
(0.605972615538254322 -0.511637665312536405 -0.00963575380361349036)
(0.689516078638153784 -0.72542816093887863 -0.00702373989974537476)
(0.868547459207360761 -0.762766583403732712 -0.0395176857983750643)
(0.932828508902038167 -0.492404431180332558 -0.170275514372564163)
(0.903046055026197947 0.114634775285672258 -0.548548595280023532)
(0.717276945649235276 2.29253290136878851 -1.53722134932129428)
(0.0226957181472833107 -0.243148195689534358 -0.00198136143516817326)
(0.0680949592028945172 -0.24960199587419199 -0.00201713091587894626)
(0.114334210846939205 -0.256880620065690568 -0.00219758023088922113)
(0.162281290630576142 -0.269558781956801052 -0.00249122135479200183)
(0.212432851585010019 -0.287648589643220598 -0.00295655524687559162)
(0.265574916030243968 -0.311425376641363605 -0.00354430542504421053)
(0.321697581612100714 -0.341865873427806444 -0.0042604178330564518)
(0.384054558914258604 -0.380101156526355399 -0.00515437498777372282)
(0.443728511043204654 -0.42813379604991636 -0.00598752372183884371)
(0.53020450797711427 -0.490537133967968331 -0.00758253699921144966)
(0.567597451585350798 -0.549194635087837946 -0.00705381046508720896)
(0.644186906788433267 -0.769074065185672007 -0.00614080822549671786)
(0.807441179573236467 -0.789415399920916805 -0.0392034785871777647)
(0.851690276055652062 -0.50010419889163571 -0.162523830509327671)
(0.823274080913085959 0.152026362045852348 -0.529070793596497557)
(0.655321449496145125 2.41400213638883487 -1.49396016276029764)
(0.021804861436767433 -0.263166974878654536 -0.00197812154946847788)
(0.0652874240772222669 -0.269540909438319543 -0.00197858876784983047)
(0.109442162748513677 -0.277394735023196171 -0.00216053929800074989)
(0.155168691974470307 -0.290830780576662562 -0.0024370718415135089)
(0.202852463583134884 -0.309988536130559933 -0.00291795748206750364)
(0.253159694042309591 -0.335044755305098974 -0.00351687442140152448)
(0.306036410589345609 -0.36704453506936352 -0.00421468984988749695)
(0.364349476648253012 -0.40691703756717118 -0.00501788096685231496)
(0.419065235437624417 -0.457165055283508426 -0.00565917692283260734)
(0.499822499262273845 -0.521653920111388669 -0.00730348467985456745)
(0.528485316330907007 -0.583003909076005744 -0.00532893682997201586)
(0.598703510799659555 -0.806543173724600382 -0.00778255762292167936)
(0.74241363366724733 -0.808914874302122056 -0.0443404933902011161)
(0.772275052356589331 -0.50677569785825316 -0.156721630748673291)
(0.747866500714753357 0.184129273335020216 -0.501055299432788814)
(0.601461419732403413 2.51701396519730247 -1.43544624650976904)
(0.0208306974865521063 -0.282305146618317737 -0.00198870183494057615)
(0.0623010404779321958 -0.288549587161877841 -0.00195023457617729545)
(0.104268654992950988 -0.296924057324685742 -0.00213191847856834859)
(0.147680650897545979 -0.310984850661965517 -0.00240335326951794225)
(0.192786958562769117 -0.331095512989145246 -0.00291282603054694895)
(0.240138849256819609 -0.357241401968512395 -0.00358504276179228906)
(0.289735755568878761 -0.39055315015025649 -0.00426263999088191681)
(0.343909097142106601 -0.431613492758886774 -0.00492006069734390698)
(0.393588438627248127 -0.483799521769552598 -0.0054213088371849634)
(0.469053174337541512 -0.549749913476387353 -0.00701943710478775476)
(0.488164131568938786 -0.613119172330839679 -0.0049153335630053932)
(0.550920223863822445 -0.836696348216111385 -0.0106466689971992465)
(0.679026488600639411 -0.827771822248333455 -0.0528129569293354223)
(0.704319187575783379 -0.518470514039272579 -0.150886074934240888)
(0.68608676012708969 0.206366836803462711 -0.466084237479517216)
(0.556152083477594039 2.61079367537540596 -1.36437580024611926)
(0.0196178895232148598 -0.300314460317481324 -0.00202008007739064993)
(0.0589775889075316306 -0.306739156234418386 -0.00193770927608938521)
(0.0988199770457367788 -0.315669451129447998 -0.00209261733297705669)
(0.139876337007970808 -0.330185322891279165 -0.00242984108575408598)
(0.182291682898162027 -0.351162758170426859 -0.00297285551428785617)
(0.226588281573870481 -0.378220413995061511 -0.00384658616981983434)
(0.272948721929352101 -0.412616184391358776 -0.00444404358550917668)
(0.322936494517209682 -0.45444049422320254 -0.00483294411796405046)
(0.367700322615245323 -0.508417251630158051 -0.00519934954333904978)
(0.438270005606909152 -0.574435831736085811 -0.00675180607026099923)
(0.445524797304700626 -0.639431942771324313 -0.00630624707322458185)
(0.505061320205931308 -0.859389845058988855 -0.012889081171369084)
(0.626886477230983674 -0.849496159631388692 -0.0577216746806386294)
(0.653243171401660216 -0.534685020060030047 -0.145824679695929216)
(0.601633565159911954 0.228062533275000673 -0.434956005003483859)
(0.517036400184942124 2.69383667713704344 -1.2936223435825871)
(0.0179131859136031739 -0.317573129303342083 -0.0020653420980488676)
(0.0549959079832048892 -0.324199495303533758 -0.00190223820483580598)
(0.0931082268400079682 -0.333665575740633713 -0.00197590124480967553)
(0.131814033513861562 -0.348399244774416139 -0.00254326244470512268)
(0.171383990657739155 -0.370096904791128001 -0.00310992773619338811)
(0.212555997803208496 -0.397888900789248545 -0.00436907731070138635)
(0.255791406837295343 -0.433176821197464812 -0.00473322727944447408)
(0.301605789962359594 -0.475480802318610729 -0.00464739657643882965)
(0.341951961589029463 -0.531337875864523967 -0.00480456781543619517)
(0.407670115585987758 -0.595373145908578483 -0.00652608250770166272)
(0.401243347145667451 -0.662089031779334314 -0.00785180505875264501)
(0.457393776491505033 -0.877149262813029851 -0.0136089426664746348)
(0.577141895409428285 -0.874622213025400552 -0.0568512298977183611)
(0.610613094963180392 -0.547658921007278865 -0.143348071302457747)
(0.489185921060484863 0.261596182399930377 -0.426786371620899774)
(0.47690936029921871 2.76467110147967965 -1.23273610122507482)
(0.0158737076162979614 -0.335749796344560258 -0.00223121684581749835)
(0.0504222645031349309 -0.340486252721264149 -0.00179213422628904211)
(0.0873160303424372064 -0.350094402107324121 -0.00175957513414207959)
(0.123577139230467731 -0.364508696180202318 -0.00267272052851121045)
(0.160086261044256079 -0.386851233674108841 -0.00337022147947321944)
(0.198039505924141879 -0.41515660221329137 -0.00505602437748699229)
(0.238391761539116176 -0.451083305622734465 -0.00498529245589845061)
(0.279944404050149254 -0.493716657936846937 -0.00426385407886157967)
(0.316602759054919303 -0.551441116314191015 -0.00422882670100373399)
(0.376747862709968795 -0.612599007757367642 -0.0061880218848216163)
(0.354355701235818943 -0.682397421440977703 -0.00843430864578522711)
(0.410571880229619879 -0.893967654525443245 -0.0169342392529187348)
(0.527368642383721276 -0.908577224608220435 -0.0556376971805475212)
(0.561329255279559458 -0.534617518930702973 -0.15086513719256997)
(0.372272625573548732 0.305429727978003662 -0.456754238221335485)
(0.414061441064968005 2.83904642270138741 -1.17638787769216857)
(0.0269919264764701579 -0.0118726130536140825 -0.00194105773447750523)
(0.0830634383571865059 -0.0130392148597177175 -0.00210061584157575192)
(0.142350912409380526 -0.0132871289448229426 -0.00235613046219556796)
(0.20449018552797768 -0.013980205052268076 -0.00276706337279376694)
(0.268870106196332559 -0.0149302837775053127 -0.00335722543019410877)
(0.339117168895272658 -0.0163047701076560712 -0.00417760708103947272)
(0.415739352644244775 -0.0182369516791133432 -0.00529944476906481221)
(0.505251958389983713 -0.0205758083618092016 -0.0068247765727248175)
(0.596211755294231871 -0.0238126999081253905 -0.00901145350240595625)
(0.729580695605636431 -0.0290650007533771286 -0.0120982070234547066)
(0.821334405620794406 -0.0294832289874016433 -0.0171519480614071365)
(0.972746823921070702 -0.0450569698359220838 -0.0232222799925428346)
(1.20895212721786072 -0.0640414831038941812 -0.0374275405401290964)
(1.42687889332879725 -0.0467189495351714862 -0.0920673889598078721)
(1.45292048234601912 0.0258153948038850611 -0.224039772886681754)
(1.20111415316145465 0.153112343165523135 -0.484885134508008742)
(0.0270736911123870168 -0.0360571231314711013 -0.00195291168719148329)
(0.0829467450764220238 -0.0391529475004071398 -0.00209897874616170148)
(0.141003574339720633 -0.0396066357989068307 -0.00234901060543478771)
(0.200905831946011748 -0.0416359528414644159 -0.00274873954033789036)
(0.26456805510150827 -0.0446245650426570564 -0.00332403565774296549)
(0.333750812410836817 -0.0487820776454638075 -0.00412142750631929941)
(0.409432559128319162 -0.054350055489329599 -0.0052079626561917277)
(0.495717122774115282 -0.0615032165546362253 -0.00669365051573268116)
(0.587786735976231656 -0.0706049130847621331 -0.00877922309579374366)
(0.709977856104334282 -0.0855480234962304326 -0.0118212924247537588)
(0.809440853484683198 -0.092668565903613484 -0.0165856926610576695)
(0.962781024532994856 -0.129412383134014874 -0.0235518632145739829)
(1.18319603488532898 -0.170315556002441276 -0.0435304195230122731)
(1.44294671076707592 -0.109854535750929544 -0.110437713072738058)
(1.47453003075220401 0.123167186035723825 -0.294419394889167962)
(1.30955848108495743 0.532921941648640152 -0.701868338800745395)
(0.0270936332229438775 -0.0605733444303758195 -0.00195511147748848868)
(0.0824739208024337922 -0.0646426236059644416 -0.00209916500989359815)
(0.139816974062020399 -0.065569077843606452 -0.00234336789978698695)
(0.199319667124498917 -0.0689715075546014494 -0.00273452870291837928)
(0.262489529371629504 -0.0740596868435100947 -0.00329775353331988787)
(0.330995574299814577 -0.0809480146893487434 -0.00407612304787206663)
(0.405804771303770739 -0.0899490049555772553 -0.005133516228874614)
(0.491076209728825264 -0.101839540706162107 -0.00657193933181723401)
(0.581371842564431862 -0.116278624778141243 -0.00858855117118728119)
(0.702068457392406087 -0.139946385500622078 -0.0115074078996554412)
(0.795733852000575781 -0.155949152444163935 -0.0161710484281634842)
(0.946989752452912947 -0.211825461843996615 -0.0234029326674154298)
(1.1761534800563842 -0.277043182153260625 -0.0479767032740938126)
(1.41094793698425747 -0.178313900532557745 -0.13254717386685419)
(1.41901225966143829 0.163365035492840677 -0.33827830000431236)
(1.23367435210311949 0.915649944963920381 -0.774162340350934342)
(0.026940494752316517 -0.0848977958861009269 -0.00195024528742142496)
(0.0816490955320750278 -0.0895875830176202231 -0.00209097995895411682)
(0.138129081696713701 -0.0913309935962344221 -0.00232863125135386725)
(0.196928835443896888 -0.0960958830132789127 -0.00270977367337949405)
(0.259299390114866857 -0.103181909357704188 -0.00325838200502477551)
(0.326795278471858797 -0.112697208329407828 -0.00401367249316421284)
(0.400286913340988759 -0.125082181577721274 -0.00503680350440826284)
(0.484076103175889838 -0.141371664748521919 -0.00641770646115063723)
(0.57151692981265656 -0.161274745949498893 -0.00836160699748601105)
(0.690930411558515201 -0.192660768986295472 -0.0110730840532202134)
(0.778100173889279212 -0.214946269791065042 -0.0158006143490299136)
(0.921271531030216861 -0.296291367654584914 -0.0222241986109813841)
(1.14927409042575679 -0.38635530953820324 -0.0501840017873140393)
(1.36797009973187267 -0.243590561058750321 -0.151596673816998095)
(1.34773290217671393 0.196909645959500418 -0.387278288511287039)
(1.15723960040854945 1.26981664123700955 -0.838364876083581123)
(0.0266243715769094794 -0.108978934121909343 -0.00193865865678270678)
(0.0804914747153215038 -0.114184351820129787 -0.00207488348475592943)
(0.135978603090196964 -0.116759590472237926 -0.00230534237919470053)
(0.193819439758262768 -0.122839319597331159 -0.00267530952716403016)
(0.255107749852170551 -0.131830011126806368 -0.00320724968062187886)
(0.321282737548957309 -0.143859577217867823 -0.00393636325639586549)
(0.393099144337612838 -0.159485938735798499 -0.00491938465242220714)
(0.474856956407972763 -0.179835993448246495 -0.00623442681261280121)
(0.559070110612844839 -0.205224159487134628 -0.00808773935543881731)
(0.67702440602166758 -0.243086701519258958 -0.0105502372432527622)
(0.75515418361098785 -0.271247131901674932 -0.0153107362211849264)
(0.891776131380448089 -0.37941604307585991 -0.0202848859149614216)
(1.11009873990377383 -0.488243141142503723 -0.049571120545473274)
(1.29611272212385731 -0.2984974464883835 -0.167599887073086928)
(1.25183120412941107 0.223985468216614275 -0.433998905339991192)
(1.07853415833769528 1.58150178198078795 -0.906886002295075433)
(0.0261836472285929406 -0.132711867269742073 -0.00192055343654094464)
(0.0790315552329137194 -0.13829035728594169 -0.00205130913246449539)
(0.133365834289137175 -0.141728598727097033 -0.00227403083925685609)
(0.190016175387131891 -0.149088767418986717 -0.00263197817522820314)
(0.249960122210213298 -0.159884667366980648 -0.00314584063503919919)
(0.314523014366832554 -0.174295045396318765 -0.00384724153390469037)
(0.384338773763857611 -0.192962615173425556 -0.00478442468541017199)
(0.463504208274760243 -0.217127276281872339 -0.00602850204185118987)
(0.544808853838829932 -0.247388286812782326 -0.0077571691913133449)
(0.655709805276093682 -0.290821977293657163 -0.00997953862749818149)
(0.729095859362145271 -0.324518351632628543 -0.014479920250316863)
(0.857421123438763866 -0.459480341951154059 -0.0177217616019131885)
(1.06119391460919599 -0.571781731992789033 -0.0480252423647159546)
(1.20321621140406476 -0.337088332668263879 -0.183495007676513389)
(1.14405793892222274 0.25039512190611446 -0.477699484459006896)
(0.999111346852330495 1.84284271426152313 -0.970445877450339944)
(0.0256377125053400545 -0.155992150301839827 -0.0018961349070971197)
(0.0772915953801391054 -0.161859077753888608 -0.00202055308983363664)
(0.130305737483867701 -0.166148249553066563 -0.00223524552695143503)
(0.185553255323741756 -0.174735094077313607 -0.00258077582047148068)
(0.243910751944469317 -0.187228202506104363 -0.00307603306495070079)
(0.306597222458779184 -0.203865630442961854 -0.00374870970862252635)
(0.374090354441988016 -0.225356783882840056 -0.00463628890279496955)
(0.450432960417456063 -0.25303711678340457 -0.00580530319217169733)
(0.527818172245436701 -0.287543435975523343 -0.00737887577360591372)
(0.634765314514950107 -0.335846638644403339 -0.00938148810603658609)
(0.70149214554276007 -0.375167523166642647 -0.0132545712073028378)
(0.818095110754860633 -0.534049986577027402 -0.0155254636714034847)
(1.00818762716215193 -0.631755929817204853 -0.0467785710413980149)
(1.10820499148418516 -0.371706667896081755 -0.191077768692793026)
(1.04297893068991954 0.272292435847833525 -0.511204887762970683)
(0.924894075211518008 2.0702385625389832 -1.02224284585052905)
(0.0250002658596515312 -0.178732202508882776 -0.00186539460745454135)
(0.0752932687926419625 -0.184823763421904014 -0.00198272067253964408)
(0.126820439323940048 -0.18992974943344143 -0.00218952121071640813)
(0.180468851265829427 -0.199677845836411905 -0.00252283622503404357)
(0.237020473067044157 -0.213752762110653499 -0.00300012266363651643)
(0.297589630841488484 -0.232449367260187861 -0.00364361938698624195)
(0.362497238040946634 -0.256533516119278326 -0.0044799921462096888)
(0.435690424506485485 -0.287373273043263266 -0.00557105539518074587)
(0.508954636376882874 -0.325782981386237624 -0.00697118327806431522)
(0.611121107835406852 -0.378406524906000186 -0.00878597263006940764)
(0.671506252678335303 -0.423114720014514667 -0.0117557461580732048)
(0.777134000528789115 -0.60142817890373268 -0.0140758028441598654)
(0.958600396028470025 -0.670735797826281566 -0.046645300145572513)
(1.03193122788262293 -0.402500537547623605 -0.192344632198850563)
(0.955682144972144432 0.291247462670481294 -0.527220834793931337)
(0.856566776249066075 2.26917150997162853 -1.05828340315807945)
(0.0242828501991278305 -0.200854055975207474 -0.00182900727670101378)
(0.073059043669966614 -0.207116303108659083 -0.00193613024439456827)
(0.122937067370726863 -0.212992427832718684 -0.00213752777888059518)
(0.174804826180193579 -0.223828065207648003 -0.002459363869479478)
(0.229353095646464888 -0.239363476566293643 -0.0029212332657056455)
(0.287593195718766015 -0.25994623907477693 -0.00353635409427527966)
(0.349684363658781583 -0.28637761243327986 -0.00432217801592722339)
(0.419476346004646894 -0.3200378247488877 -0.00533501479898475933)
(0.488290425025431241 -0.361911003732212799 -0.0065495340055128819)
(0.585831570249968792 -0.418315651928942933 -0.00819868475043195044)
(0.638343192888776501 -0.467356313114351607 -0.0101074901300577877)
(0.735102018164499604 -0.663566724289270105 -0.0128490876616993311)
(0.910428923126056389 -0.703955445662705959 -0.0472537459556022776)
(0.966381269004510379 -0.423146090823037002 -0.190033992272036822)
(0.879100434511764561 0.314338717204333318 -0.530009167799695313)
(0.791950189470569499 2.44484974972451763 -1.07910427794022556)
(0.0234960996257108749 -0.222292913633670347 -0.00178704239911542471)
(0.0706118294163854132 -0.228675971314783066 -0.00187717550261980344)
(0.118684415987533126 -0.235268153949791919 -0.00208077417552056474)
(0.168604697663654185 -0.247114244388537657 -0.00239151600796164371)
(0.220974237524553557 -0.26398522104699218 -0.00284436295999745264)
(0.276703255758062372 -0.286279030561351566 -0.0034325551839132825)
(0.335786467745123274 -0.314802895552658391 -0.00417037958654936126)
(0.401947898034430318 -0.350937347546819545 -0.00510627958797260813)
(0.466110575708770791 -0.395836656527859043 -0.00613406645092450138)
(0.558620954002707393 -0.455387796541822376 -0.0076191706394549974)
(0.602414826144871185 -0.508382658642792418 -0.00846506361369868746)
(0.691218901352616988 -0.717202986313288049 -0.0118511128797875939)
(0.856162678650659648 -0.734159599681528552 -0.0474165563952135966)
(0.899196769112113325 -0.437232738531156406 -0.183720251188898565)
(0.806159253267671128 0.343140816433091189 -0.522561919370781114)
(0.729216875356828997 2.59785246121410962 -1.083315996437338)
(0.0226464892081876742 -0.243013136313582956 -0.00174022105415810391)
(0.0679718763514753771 -0.249447392376507593 -0.00179918472691828306)
(0.114089195455525538 -0.256688181194485165 -0.00202348782911463895)
(0.161912843763979131 -0.269465151984223994 -0.00232030632215583874)
(0.211948817250016963 -0.287543257671845742 -0.00277883086394985906)
(0.265019209639605402 -0.311372642067156091 -0.00333960099760876282)
(0.32093468108008405 -0.341725357613613223 -0.00403166272537552536)
(0.383281177318684108 -0.379996154135381015 -0.00489005391882024829)
(0.442623559340053041 -0.427445798008503797 -0.00574743366489342995)
(0.529848896466214025 -0.489591412951944305 -0.00709461618006962391)