/*--------------------------------*- C++ -*----------------------------------*\
| =========                 |                                                 |
| \\      /  F ield         | OpenFOAM: The Open Source CFD Toolbox           |
|  \\    /   O peration     | Version:  2206                                  |
|   \\  /    A nd           | Website:  www.openfoam.com                      |
|    \\/     M anipulation  |                                                 |
\*---------------------------------------------------------------------------*/
FoamFile
{
    version     2.0;
    format      ascii;
    arch        "LSB;label=32;scalar=64";
    class       volScalarField;
    location    "0.0299999999999999989";
    object      alpha.water;
}
// * * * * * * * * * * * * * * * * * * * * * * * * * * * * * * * * * * * * * //

dimensions      [0 0 0 0 0 0 0];

internalField   nonuniform List<scalar> 
29184
(
0.999999999999999778
0.999999999999997891
1.00000000000000044
1.00000000000000311
1.00000000000000444
1.00000000000000444
1.00000000000000333
1.00000000000000133
1
0.999999999999998224
0.999999999999980682
0.62812300248079822
0.0750055842185400889
0.0443855992262486149
0.0294600880221655911
0.0245715019068319107
0.999999999999994893
0.999999999999999334
1.00000000000000711
1.00000000000001155
1.00000000000001155
1.00000000000000888
1.000000000000002
1
0.999999999999998224
0.999999999999980682
0.999999999999715006
0.56555069358693999
0.0560151329522210611
0.0347754635179219965
0.0222967882450907998
0.0193592072575105301
0.999999999999996558
0.999999999999999778
1.00000000000000511
1.00000000000000733
1.00000000000000244
1.00000000000000044
1.00000000000000133
0.999999999999994449
0.999999999999957367
0.999999999999712119
0.999999999997542854
0.474414909411278563
0.0414028843981143757
0.0242802765836311815
0.0131854202768303987
0.0215078913367591426
0.999999999999996669
0.999999999999999778
1
1
1.00000000000000044
0.999999999999999112
0.999999999999985456
0.999999999999914846
0.999999999999537481
0.999999999997540412
0.999999999984887644
0.394350739588232579
0.0269027276746823668
0.0136811037762594439
0.00573746775133225639
0.0146388710444293399
0.999999999999981348
0.999999999999994116
0.999999999999997002
0.999999999999992895
0.999999999999969802
0.99999999999991851
0.999999999999770295
0.999999999999223288
0.999999999996526112
0.999999999984904298
0.999999999924586991
0.338860478589044223
0.013637529158807022
0.00509596132188085832
0.00107218827386521107
0.00258130555166232378
0.999999999999814149
0.999999999999920508
0.999999999999917621
0.999999999999857225
0.999999999999603428
0.999999999999069966
0.999999999997931655
0.999999999994535926
0.999999999979170662
0.999999999924792826
0.999999999674217488
0.294131994808901287
0.00350950456274771658
0.00138486696241325738
0.000857441785868575529
-0.000247610362270686318
0.99999999999844047
0.999999999999339306
0.999999999999266143
0.999999999998860911
0.999999999997102984
0.999999999994118927
0.999999999985232479
0.99999999996777722
0.999999999893645297
0.999999999675538875
0.999999998734117712
0.241328175303560433
-0.000206444105585226073
0.000894026990463073776
0.000341273137888776091
-0.00258864774655294004
0.999999999992137067
0.99999999999577649
0.999999999995744071
0.999999999993607336
0.999999999981205256
0.999999999964049646
0.999999999910606951
0.999999999834013886
0.999999999517968474
0.999999998740544793
0.999999995460853386
0.197767907347440125
0.000498831229236413958
0.000641795955793081742
0.00033611197104845735
-0.000186346228243940967
0.999999999971014963
0.999999999981506793
0.999999999980636378
0.999999999968245401
0.999999999889566338
0.99999999979923615
0.999999999529080585
0.999999999235769321
0.999999998006615876
0.999999995486941518
0.999999984693249244
0.193023890910855256
0.00219294531497713071
0.0011596019449343826
0.00062850515603827292
0.000222621307909034582
0.999999999852084542
0.999999999927789984
0.999999999897325909
0.999999999826304165
0.99999999939596862
0.999999998990163008
0.999999997771205962
0.999999996801974045
0.999999992337072818
0.999999984787158902
0.999999950819127625
0.193831338422398525
0.00342556037836777572
0.00221252080460883696
0.00112828309592625576
0.00327850372531749996
0.999999999243207705
0.999999999650055371
0.999999999449938892
0.999999999102270776
0.999999996964647142
0.999999995339496905
0.999999990299541897
0.999999987630783016
0.999999972264602688
0.999999951143240473
0.999999848183294016
0.192931577720952041
0.00475196469737347669
0.00385271057575721585
0.00401679910232200475
0.00443019952517474495
0.99999999637548509
0.999999998311387417
0.99999999726319011
0.999999995688978682
0.999999985810268832
0.9999999799893321
0.999999960523437204
0.999999955184520894
0.999999904535311623
0.999999849313498279
0.999999547292957924
0.259811960137557252
0.00518928428777796526
0.00305407408671025133
0.00233878369955279036
0.00391667288244079096
0.999999983615645682
0.999999992375980251
0.999999987226043663
0.999999980580090764
0.999999937634104774
0.999999919232547496
0.999999848189486062
0.99999984651513163
0.999999684796965882
0.999999551093749717
0.999998692220127383
0.251798890756436911
-0.000423929000432275715
-0.000141639226327186962
0.000659670726501792432
0.00243012184062696554
0.999999929620278616
0.999999967520317057
0.999999943579807926
0.999999917256764514
0.999999740254815528
0.999999690894377791
0.999999443193679394
0.999999499066497322
0.999998994555029386
0.999998704238492908
0.999996332367703578
0.133402776675684703
0.00883918695666324403
-0.000256138401046187734
0.0015463525398529453
0.00136952762182335273
0.999999711138082947
0.999999868518929302
0.999999762683524418
0.999999664250532883
0.999998967632503399
0.999998870614977386
0.999998038305939141
0.999998433167876843
0.999996884579729572
0.999996368730886154
0.999989976164390448
0.162669641295581119
0.00921680724913681582
0.00484275941026446246
0.00287366894455728765
0.00154733891440953755
0.999998860934967482
0.999999491111446481
0.999999042995217469
0.999998693729210686
0.999996126150438425
0.999996035424013607
0.999993318954341515
0.99999527813810829
0.999990571799570738
0.999990078592366327
0.999973226003074034
0.159191083337698325
0.00042224555612086379
0.00205617407046717856
0.00383078292270036666
0.00454011574754339953
0.999999999999997669
0.999999999999998557
1.00000000000000333
1.00000000000000777
1.0000000000000091
1.00000000000000711
1.00000000000000355
1.00000000000000044
1
0.999999999999998224
0.999999999999962585
0.623904898433438992
0.0765399619416407412
0.0461716045176705503
0.032573861146049779
0.0291693215066863576
0.999999999999995559
0.999999999999999778
1.00000000000000711
1.00000000000001088
1.00000000000000955
1.00000000000000466
1
1
0.999999999999998224
0.999999999999964362
0.999999999999579892
0.566558125810829205
0.0604914580169299415
0.0395973778363667012
0.025752750396492767
0.0243505285293715845
0.999999999999996336
0.999999999999999889
1.00000000000000377
1.00000000000000577
1.00000000000000333
1.00000000000000044
1.00000000000000044
0.999999999999994227
0.999999999999964362
0.999999999999616307
0.999999999995371036
0.462043473826829976
0.0452548637654455743
0.0279950594848266746
0.0148431053256551614
0.0388526907451095319
0.999999999999996891
0.99999999999999889
1
1
1
0.999999999999998779
0.999999999999989564
0.999999999999925171
0.999999999999620082
0.99999999999711231
0.999999999970307529
0.37660402726688158
0.0277220379572599845
0.0146949154286019172
0.00671328351058448833
0.0255885549754861705
0.999999999999994893
0.999999999999977907
0.999999999999979128
0.999999999999977129
0.999999999999967915
0.999999999999941935
0.999999999999831468
0.999999999999326095
0.999999999997168265
0.999999999982794208
0.999999999857229649
0.321474589200368033
0.0138915788572016915
0.00673364774214111391
0.00324840687892353694
0.00669746233522852154
0.999999999999966249
0.999999999999748201
0.999999999999722
0.99999999999969913
0.999999999999655165
0.999999999999331646
0.999999999998337552
0.999999999995238587
0.999999999983206322
0.999999999913190774
0.999999999421270491
0.284822180697958005
0.00610504906572437341
0.00286253207701101745
0.00166987231645766582
0.00103418633730577476
0.999999999999711231
0.999999999998085309
0.999999999997889022
0.99999999999778777
0.999999999997555511
0.999999999994731548
0.999999999990458965
0.999999999971645126
0.999999999915439419
0.9999999996125295
0.999999997896259485
0.247318187656407007
0.00192014772237545446
0.00120330506998572598
0.000820278404005317504
-0.000134174794335919882
0.999999999997987388
0.999999999990710986
0.999999999989093946
0.999999999988987698
0.999999999988165023
0.999999999966045161
0.999999999945402784
0.999999999851338472
0.999999999622061431
0.999999998426671421
0.999999992881861033
0.209699780560514415
0.00157176490409643467
0.00122599076574214432
0.000333628265175849525
-0.00425692232724674685
0.999999999990064392
0.999999999958436692
0.999999999950774709
0.999999999952709384
0.99999999995079647
0.999999999804026762
0.99999999971763498
0.999999999298342601
0.999999998457344219
0.999999994069170728
0.999999977077710822
0.184847253860421307
0.00130953633600860726
0.000831373159581991227
0.000489945269975942954
-0.000415712278983102184
0.999999999958035568
0.99999999978154186
0.999999999733832912
0.999999999755618596
0.999999999758876434
0.999999998982859628
0.999999998696784242
0.999999996969523797
0.999999994153802474
0.999999978952710311
0.999999928358724643
0.178819354872828795
0.00247393823593968247
0.00206646565495777939
0.000830440831260135593
0.00100730611962715532
0.999999999781494564
0.9999999988805226
0.999999998602535634
0.999999998769785181
0.999999998852277083
0.999999995152821008
0.999999994512320467
0.999999987843194327
0.999999979180459686
0.999999929063353221
0.999999780671573357
0.180027152024445469
0.00331011272887628185
0.00281261861773629898
0.00253807488120526498
0.00453373171887325351
0.999999998880072738
0.999999994628185895
0.999999993198936066
0.999999994249881619
0.999999994918496338
0.999999979065352762
0.999999978567745362
0.999999954094754617
0.999999929650998154
0.999999771481466015
0.99999935267018103
0.184571959166429544
0.00385618728571627666
0.00379775840448067338
0.00400908668815147876
0.00483223964094287722
0.999999994627338129
0.999999975672700714
0.999999968994191302
0.999999974778668754
0.99999997886907166
0.999999916998887239
0.999999921427788374
0.999999835114561808
0.999999772754390115
0.999999292568661713
0.999998112907263481
0.264090136010093346
0.00558164316555294793
-0.000517797499204683195
0.00326169973640180874
0.00439916608654984578
0.999999975668967811
0.999999895317842391
0.999999866541901761
0.999999895272885242
0.999999916747711159
0.99999968804473105
0.999999727513042114
0.999999431841110731
0.999999294584312026
0.999997887485478465
0.99999470787876743
0.671032593353616091
0.0496724875792740328
0.00135962446164498009
0.00281410657861648787
0.0028954462386362621
0.999999895255872184
0.999999569405447986
0.999999453750844869
0.999999585674155811
0.999999687136075011
0.999998875173295887
0.999999101634173382
0.999998110509711324
0.999997889960049902
0.999993899779385575
0.999985843121098283
0.23507438502410169
0.00556201892456517286
0.00547204212223153207
0.00482457918342325213
0.00292691642209359651
0.999999568779119774
0.999998296836423717
0.9999978594266139
0.999998427164669579
0.999998870620234515
0.999996082337434866
0.999997169030582223
0.999993894684231166
0.999993888904723516
0.999982901538126301
0.999964837662118522
0.0704898061065916542
0.000160026491282121771
0.00118641672370490094
0.00800459433616827233
0.00956999076214108853
0.999999999999997891
0.999999999999996336
1.000000000000002
1.00000000000000622
1.00000000000000644
1.00000000000000377
1.00000000000000067
1
0.999999999999999334
0.999999999999995559
0.999999999999964695
0.646162435217168318
0.084853386309679979
0.0523276789191981506
0.036182113075222247
0.0305745993458183159
0.999999999999991895
0.999999999999996114
1.00000000000000555
1.00000000000000999
1.00000000000000755
1.000000000000002
1
0.999999999999999334
0.999999999999995559
0.999999999999964695
0.999999999999484634
0.635689215012133158
0.128522346492936757
0.0490996632451271148
0.0287057623633655799
0.0290867800912548713
0.999999999999993339
0.999999999999996558
1.00000000000000266
1.00000000000000555
1
1.00000000000000067
0.999999999999999445
0.99999999999998801
0.999999999999922284
0.999999999999482969
0.999999999995600408
0.569068668009377165
0.0530915185341977319
0.0262268274925412243
0.0144500274450190605
0.0397167746619399714
0.999999999999993117
0.999999999999996891
1
1
0.999999999999999556
0.999999999999996891
0.999999999999979572
0.999999999999856115
0.999999999999158007
0.999999999995598854
0.999999999973219644
0.473241462652637779
0.0253423219500175032
0.0108801582586700481
0.00835049484273659229
0.0392036321884312866
0.999999999999980904
0.999999999999989675
0.999999999999984679
0.999999999999981126
0.999999999999952704
0.999999999999875211
0.999999999999734102
0.999999999998702815
0.999999999993670619
0.999999999973240739
0.999999999868320777
0.39733218633200118
0.00933203733249123209
0.00828271204303793196
0.00623054024918748631
0.0172327252205327318
0.999999999999838352
0.999999999999902078
0.999999999999774847
0.999999999999734213
0.999999999999429345
0.999999999998741229
0.999999999997608358
0.999999999990762056
0.999999999962172037
0.999999999868643186
0.999999999442271692
0.313171017518638961
0.00982666241937824557
0.00536248451989017327
0.00339669448450101007
-0.00571884895641231079
0.999999999998697819
0.999999999999178213
0.999999999998311351
0.999999999997962408
0.999999999995867861
0.999999999992373656
0.999999999982777776
0.999999999944547024
0.999999999807927864
0.999999999444420973
0.999999997884145397
0.220861404613049511
0.00452195247445646813
0.00211529655538220812
5.46040313212023398e-06
-0.00523933793326917391
0.999999999992748911
0.999999999995182742
0.999999999991146082
0.999999999989827915
0.999999999973194442
0.999999999960551555
0.999999999895346825
0.999999999708470977
0.999999999135788853
0.999999997894748693
0.999999992609970745
0.164721012374220932
0.0020719477663394552
0.0022694828179428291
0.000996984242427874237
-0.00987107295871541418
0.999999999966410869
0.999999999979700682
0.999999999951739049
0.999999999959120922
0.999999999838897091
0.99999999978982812
0.999999999447386267
0.999999998629590214
0.999999996457322071
0.999999992652985004
0.999999975731294732
0.113116622586977703
0.0019015676985138653
0.00147920511263292158
0.000470319487121738746
-0.00111801469547283239
0.999999999811070461
0.99999999990369659
0.999999999724810795
0.999999999794886074
0.999999999117417659
0.999999998966067061
0.99999999737994516
0.999999994132235059
0.999999986520958228
0.999999975886765036
0.999999923930747325
0.117576026975083431
0.00139076961386565539
0.00151848921376820196
0.00142398112551620154
1.0405466412749195e-06
0.999999998953377656
0.999999999497656056
0.999999998513996236
0.999999998982853633
0.999999995552630305
0.999999995347027548
0.999999988561885655
0.999999976698372595
0.99999995177419998
0.999999924476268176
0.999999770199664129
0.114426913479153167
0.00166955212518249798
0.0015743349693540618
0.00116456195559255142
0.00215763315712731761
0.999999994676883386
0.999999997515155004
0.999999993222536521
0.999999995330524305
0.99999998012223501
0.99999998056743733
0.999999953247517115
0.999999912985440553
0.99999983597968034
0.999999772073202231
0.999999326888005413
0.144601736100385625
0.00221148957302354319
0.00153418538987307521
0.000851221676934756175
0.00499433217342277851
0.999999975661674201
0.999999988483671109
0.999999971359390449
0.999999979965499053
0.99999991915101627
0.999999923931974344
0.999999819093900788
0.999999691368521959
0.999999464597203347
0.999999332900346927
0.999998083058553311
0.207756491014172595
0.00212851726227571538
0.00172270621337947995
-0.000424677763471926779
0.00497651837529376403
0.99999989521395094
0.999999949579801983
0.999999884686068707
0.999999918978868529
0.999999689870414432
0.999999718819487793
0.999999331593254714
0.999998951949657044
0.999998312391785049
0.999998100876627216
0.999994701947899189
0.429683532657434197
-0.00122803470357496589
-0.00138073577384241605
0.00326539698217008772
0.00301627731170836435
0.999999568692263918
0.999999790016448342
0.999999555406322793
0.999999689159499994
0.999998874130652915
0.99999901275992964
0.999997626797259898
0.999996574650160008
0.999994849798492957
0.999994753343764975
0.999985827093088031
0.189432681908425826
-0.00293554067418272131
-0.000447528920816049267
0.000376457828308459979
0.00326872834873725288
0.999998293635645297
0.999999162555460064
0.999998347799698095
0.999998861140518835
0.999996078272217259
0.999996687009617524
0.999991846390920536
0.999989161945835869
0.999984714309194
0.999985969134056463
0.999963142212391021
0.0588069252232152964
0.000742597665403337578
0.000649414777558581283
0.000825462560390934508
0.00270444378156282222
0.999999999999995781
0.999999999999993783
1.00000000000000044
1.00000000000000555
1.00000000000000622
1.00000000000000355
1.00000000000000067
1
0.999999999999999556
0.999999999999998002
0.999999999999969136
0.628125727052630145
0.0804227338369084971
0.0493226079492086883
0.0309224178967575092
0.0252929914064882917
0.999999999999991007
0.999999999999995337
1.00000000000000511
1.00000000000000977
1.00000000000000711
1.00000000000000222
1
0.999999999999999556
0.999999999999998002
0.999999999999969136
0.9999999999994994
0.642452074906381121
0.120340810367306747
0.0480962931763958962
0.0301574376608240852
0.0225959123371984177
0.999999999999992339
0.99999999999999678
1.00000000000000444
1.00000000000000511
1.00000000000000111
1.00000000000000089
0.999999999999999334
0.999999999999991451
0.999999999999958034
0.999999999999536038
0.999999999995667688
0.625999597510348282
0.104945345145703195
0.0432137479222204496
0.0234538916452110974
0.0211097962296901143
0.99999999999999245
0.99999999999999778
1
1
1.00000000000000044
0.999999999999996225
0.999999999999971467
0.999999999999885314
0.999999999999527711
0.99999999999642597
0.99999999997356126
0.559603200217397401
0.049835199118359777
0.0238025563818861606
0.0110960870570790855
0.0174266307045154306
0.999999999999976796
0.999999999999989009
0.99999999999999889
0.99999999999998046
0.999999999999944267
0.999999999999886091
0.999999999999629186
0.999999999998911093
0.999999999996479705
0.999999999978941068
0.999999999868298128
0.488278586923790114
0.0229477992312611123
0.0101179549681678083
0.00674117913590019033
0.0088736987658629661
0.999999999999791278
0.999999999999878764
0.99999999999993594
0.999999999999668931
0.999999999999358069
0.99999999999868705
0.999999999996730615
0.999999999992824407
0.999999999979368503
0.999999999895300862
0.999999999430403186
0.373715632826607969
0.0204863463576629747
0.00967688880929166648
0.00378709884187356134
0.00744800736852404242
0.999999999998370748
0.999999999998979483
0.999999999999432232
0.999999999997642774
0.999999999995974331
0.999999999989765853
0.999999999976902698
0.999999999959693908
0.999999999897766778
0.999999999540505113
0.999999997777450189
0.251511916758410059
0.0100605017685740025
0.00328952701993775803
0.000924474894197649735
-0.000688713664539700263
0.999999999991223465
0.999999999994131805
0.999999999996542543
0.99999999998841993
0.999999999982050136
0.999999999934320316
0.999999999861828748
0.99999999979870946
0.999999999551275609
0.999999998166229864
0.999999991963424595
0.184680516839076936
0.00156000201223399008
0.00128640712798177518
0.000273071691529086329
0.00263493381073894506
0.999999999957072561
0.999999999976019183
0.999999999984867438
0.999999999938084971
0.999999999908646187
0.999999999623505165
0.999999999280558716
0.99999999909961923
0.99999999820207619
0.999999993198395165
0.999999972530761339
0.162410908502722051
0.0008437723209112596
0.00128034503467643794
0.000410209409290941771
-0.0054706230594317156
0.999999999755677216
0.999999999888633306
0.999999999935309081
0.999999999682398943
0.999999999530767902
0.999999998055556283
0.999999996644592271
0.999999996344155706
0.999999993298588796
0.999999976183450268
0.999999910013705584
0.165540114781669745
0.00139051681798539779
0.00133212336853859043
0.000707315043948306067
-0.000115204854019536367
0.999999998647651545
0.999999999427433894
0.99999999968208475
0.999999998488260267
0.999999997774499549
0.999999990767334368
0.999999985654624224
0.999999986310581068
0.999999976450486328
0.999999920429278877
0.999999715054607607
0.170524889796375867
0.00133208461679310518
0.00110174541630568622
0.000940517430403468597
0.00013437952206533509
0.999999993066358006
0.999999997181851841
0.999999998485071484
0.999999993248756214
0.999999990228839453
0.99999996030178373
0.999999942842274447
0.999999952126492064
0.999999921140220516
0.999999744331021567
0.999999124454181487
0.152749104703194916
0.00144422692405334627
0.000968246393598155017
0.000967214731072246672
0.000471602168943293927
0.999999966730463985
0.999999987009059232
0.999999993230450634
0.999999971467826931
0.99999995988229573
0.999999845299345269
0.999999785434949162
0.999999842261314442
0.999999746144582868
0.999999204367256422
0.999997527393067021
0.0914166897379052046
0.0020485449048877136
0.00119398097276468291
0.000472066244045273183
0.000410425762005255947
0.999999849366266846
0.999999943432142269
0.999999971389946118
0.99999988520042149
0.999999844828930007
0.99999943287764681
0.999999234607708787
0.999999506717476727
0.999999208819854268
0.999997588090406397
0.999993192165611555
0.0692824648758416373
0.00227319411168216187
0.00220269108149640956
0.0012106710576687313
0.00100313852693478638
0.999999352062204139
0.999999765747248581
0.999999884840220954
0.999999557830969721
0.999999431116648463
0.999998019198451105
0.999997388281249622
0.999998528850523205
0.999997600037518586
0.999992844036960093
0.999982034340062276
0.0664753115079605161
0.00222738145896691359
0.00172615875955955478
0.00524788660825072865
0.00433039015974960324
0.999997335208875349
0.999999071672943662
0.99999955553258002
0.999998357037199637
0.999998010815902783
0.999993375442530752
0.999991429997372339
0.999995793561970658
0.999992873754042888
0.999979139763673031
0.999954026966932696
0.106753979426729512
0.00108751602504906413
0.00101349037479489274
0.00219508104835260121
0.000974452666008543888
0.999999999999993561
0.999999999999994893
1.00000000000000178
1.00000000000000644
1.00000000000000644
1.00000000000000355
1.00000000000000155
1.00000000000000067
1
0.999999999999997669
0.999999999999963807
0.595721065413514772
0.0696342190323825938
0.0389739327473740613
0.0248071859806126976
0.0215820466397731447
0.999999999999993339
0.999999999999999112
1.00000000000000733
1.00000000000000955
1.00000000000000755
1.000000000000004
1
1
0.999999999999997669
0.999999999999963807
0.999999999999414024
0.565719675351117557
0.0574995552302556695
0.0337863760616995412
0.0221673261056059001
0.017567897829163525
0.99999999999999567
1
1.00000000000000511
1.00000000000000644
1.00000000000000178
1.00000000000000044
1.00000000000000089
0.999999999999991118
0.999999999999926503
0.999999999999414024
0.99999999999492073
0.530558549559807635
0.0486225148970856336
0.0301975995296554847
0.0189828239267568824
0.0140049681176851286
0.999999999999996003
0.999999999999999889
1
1
1.00000000000000022
0.999999999999998335
0.999999999999987121
0.999999999999864442
0.999999999999167111
0.999999999994921396
0.999999999968669839
0.47420586364912326
0.0385411890054539324
0.023137163675879667
0.0109205753252467272
0.0117164363502146786
0.999999999999975131
0.999999999999989564
0.999999999999986788
0.999999999999983569
0.99999999999997824
0.999999999999936717
0.999999999999797717
0.999999999998739675
0.99999999999369904
0.999999999968701481
0.999999999843808496
0.391223087206896358
0.0228753097879871164
0.011106982863591415
0.00421364813416200135
0.00382550282781461606
0.999999999999735323
0.999999999999838129
0.999999999999769962
0.999999999999757527
0.999999999999683253
0.999999999999319211
0.999999999998167688
0.999999999990922483
0.999999999962278063
0.999999999844232157
0.999999999328369471
0.315925527454682886
0.0101328428883261344
0.00423561196820677541
0.000616744660086253685
0.00370065847217406017
0.999999999998003375
0.999999999998631761
0.999999999998226974
0.999999999998113953
0.999999999997733813
0.99999999999467426
0.999999999986905364
0.999999999944936602
0.999999999808300011
0.999999999331179001
0.999999997408497321
0.271648099267840504
0.00360913243669287601
0.00116585295993890895
0.000707896632807991297
0.000909234537793478671
0.999999999989709565
0.999999999992618349
0.99999999999071143
0.999999999990600186
0.999999999986545762
0.999999999965394126
0.999999999921240779
0.999999999707249843
0.999999999137113349
0.99999999742241108
0.999999990782782344
0.244950159304726606
0.00146832428658922416
0.000672690481233743269
0.000382122267499967691
-0.00103844162386908332
0.999999999946026286
0.999999999969593434
0.99999999995377753
0.999999999964334196
0.999999999923356642
0.999999999803605322
0.999999999588177868
0.999999998607500995
0.999999996464747354
0.999999990839574582
0.999999969197423955
0.220737080983171102
0.00173220704871093322
0.000772666252696685386
0.000376983224935001945
-0.0010747072028325544
0.999999999688459873
0.999999999838487419
0.999999999743019119
0.999999999824930264
0.999999999586720145
0.999999998999738682
0.999999998069461271
0.9999999939630968
0.999999986582406297
0.999999969404631206
0.999999901965319182
0.167466460565155517
0.00081601087021066724
0.00103565263842857061
0.000819125434747142449
0.000393127893105858208
0.999999998276703383
0.999999999137387352
0.999999998624744313
0.999999999138942108
0.999999997947905284
0.999999995322412349
0.999999991691095547
0.999999975703298905
0.999999952225134159
0.999999902711377398
0.999999699979681411
0.109220723402660008
0.00156277721768314625
0.00128359108333780318
0.00108303397267544318
0.00124494999742326027
0.999999991170547053
0.999999995728999114
0.99999999331629974
0.999999996081567089
0.999999990508650294
0.999999979619619728
0.999999966623184355
0.999999907973028179
0.999999838730857626
0.999999702638037391
0.999999109931362207
0.105875597157069373
0.00216107555747262464
0.00115423166559222752
0.000966531341453915997
0.00156754785160548998
0.999999957672313533
0.999999980191248472
0.999999971347374839
0.999999983331548714
0.999999958706273562
0.999999916409433198
0.999999873484270774
0.999999668601884384
0.999999479199605412
0.999999118817241794
0.999997427348211954
0.112403134687328946
0.00303675388323742905
0.00190893989484952967
0.00122172823056147144
0.000900976856315256281
0.999999808569768445
0.999999913229217441
0.999999884620212276
0.999999933175048761
0.999999829603337997
0.999999674682772399
0.999999543635031296
0.999998855918090013
0.999998379790873027
0.999997454967809452
0.999992735222774987
0.139925625181355567
0.00335058982747209622
0.0028814732014077922
0.00177533928340843075
0.00195384583988250215
0.999999177595123134
0.999999638497892196
0.999999555025144815
0.999999745968721099
0.999999328583404345
0.999998790527049208
0.999998423255647584
0.999996192599459599
0.999995123206237624
0.999992816570326903
0.999979941636506275
0.147393048621251743
0.0030663621019730177
0.00214006157954702275
0.00157091493262031504
0.0020177251133629559
0.999996622771535448
0.99999855789264136
0.999998346151193207
0.999999078379262607
0.999997455809693458
0.999995674820725933
0.999994747577586773
0.999988662055085964
0.999985742943949818
0.99998016815368973
0.999945755789886759
0.120456154574787436
0.00251401391015280582
0.00114221204707861171
0.00108790973691668129
0.00169156332036634292
0.999999999999996114
0.999999999999999778
1.00000000000000444
1.00000000000000688
1.00000000000000533
1.00000000000000311
1.00000000000000178
1.00000000000000111
1
0.999999999999997224
0.999999999999962585
0.604446680246958912
0.0665381096244647141
0.0363931721907995651
0.0217141367880685776
0.0179281848656643525
1.00000000000000022
1.00000000000000622
1.00000000000000955
1.00000000000000866
1.00000000000000622
1.00000000000000289
1
1
0.999999999999997224
0.999999999999962585
0.999999999999399813
0.529069125051535805
0.0493194428160219703
0.028472746725618496
0.0174889779634192361
0.0140818117345913561
1
1.00000000000000533
1.00000000000000777
1.00000000000000422
1
1.00000000000000089
0.999999999999999889
0.9999999999999859
0.999999999999909295
0.999999999999399813
0.999999999994837463
0.460987635954960839
0.0392147746015207715
0.022299581403194213
0.0139923802734954108
0.0103210905086927977
0.999999999999999112
1
1.00000000000000022
1
0.999999999999998446
0.999999999999996003
0.999999999999962808
0.999999999999794165
0.999999999998981037
0.999999999994838351
0.999999999968387621
0.404699043657235857
0.0310052254692526931
0.0175139418033048166
0.0107019530114952216
0.00279468772034267973
0.999999999999959588
0.999999999999988232
0.999999999999998224
0.999999999999985345
0.999999999999928502
0.999999999999881761
0.999999999999475753
0.999999999998119948
0.99999999999232303
0.999999999968421927
0.999999999843119269
0.345365106022478829
0.0213337250263859329
0.0121541554512981029
0.00489625154535408905
0.00436132401446485355
0.999999999999498623
0.999999999999791278
0.999999999999916067
0.999999999999778622
0.999999999999259481
0.999999999998688605
0.999999999995178301
0.999999999986701416
0.99999999995411315
0.999999999843558474
0.999999999327130351
0.293763355291405015
0.0137264443842331982
0.00566969469001123855
0.00249165227134562784
0.00188446347932956395
0.999999999996605271
0.999999999998288147
0.999999999999300115
0.999999999998249844
0.999999999995243805
0.999999999991104671
0.999999999964825359
0.999999999921253879
0.999999999766892023
0.99999999932993977
0.999999997406293084
0.250552602120203416
0.00711523969197487387
0.00252750195639716169
0.000706547550319594551