/*--------------------------------*- C++ -*----------------------------------*\
| =========                 |                                                 |
| \\      /  F ield         | OpenFOAM: The Open Source CFD Toolbox           |
|  \\    /   O peration     | Version:  2206                                  |
|   \\  /    A nd           | Website:  www.openfoam.com                      |
|    \\/     M anipulation  |                                                 |
\*---------------------------------------------------------------------------*/
FoamFile
{
    version     2.0;
    format      ascii;
    arch        "LSB;label=32;scalar=64";
    class       volVectorField;
    location    "0.0299999999999999989";
    object      faceTraction;
}
// * * * * * * * * * * * * * * * * * * * * * * * * * * * * * * * * * * * * * //

dimensions      [1 -1 -2 0 0 0 0];

internalField   uniform (0 0 0);

boundaryField
{
    inlet
    {
        type            calculated;
        value           uniform (0 0 0);
    }
    outlet
    {
        type            calculated;
        value           uniform (0 0 0);
    }
    top
    {
        type            calculated;
        value           uniform (0 0 0);
    }
    bottom
    {
        type            calculated;
        value           uniform (0 0 0);
    }
    left
    {
        type            calculated;
        value           uniform (0 0 0);
    }
    symmetry
    {
        type            symmetryPlane;
    }
    interface
    {
        type            calculated;
        value           nonuniform List<vector> 
352
(
(32.3221310715768126 -0.0011987679114036432 -0.000776610934223227484)
(24.6454230247064956 0.000594106536009731128 -0.000910836062869116209)
(17.3174030571523616 0.000742752381832925256 -0.000738851466332213084)
(12.4344417091064141 0.000673285899902321093 -0.000555261596784048647)
(9.59254781640234633 0.000553585613560100072 -0.000371045091362522876)
(8.32559175711442201 0.000379695127776916532 -0.000212183384073365272)
(7.97137947515559908 0.000292012621729738516 -0.000150702801107063941)
(7.76080739466372993 0.000311167586555814659 -0.000161911082722020249)
(7.56486412034374656 0.00021799408093679397 -0.000132216519150522616)
(7.31178335893415099 0.000145270625132319604 -9.86482780345556868e-05)
(6.69069637524588234 0.000158931248521724237 -0.000108137583945134812)
(5.85115520384294285 0.000164394505544212394 -0.000102728365063980019)
(5.11856535640332133 0.000182451111230892503 -0.000106470565551020514)
(4.51775262921574328 0.000140524107657139007 -9.03122418605431884e-05)
(4.01644233929117878 0.000107760044098923743 -7.47048763484516867e-05)
(3.44088089425636978 6.76900505426355852e-05 -4.4571467532733215e-05)
(43.5026577976694924 -0.000566204780513422721 -0.000475817224481779697)
(34.9919923936288484 0.000698871970806420276 -0.000470075434416390042)
(26.293688650104972 0.000970663769432246514 -0.000404525080528552611)
(19.2626709753335099 0.00101800206428650651 -0.000322277842302855656)
(13.8946081908057693 0.000932290169230571837 -0.000203180243766248739)
(10.9163037324084797 0.000852423942859375583 -0.000182917661633870003)
(10.0814577000070447 0.000825826252257745499 -0.00019651937929020827)
(9.70740652038991492 0.00109389687162400931 -0.000311719766305576626)
(8.97908057272051785 0.000700406283062311535 -0.000263929797668992531)
(8.25518497785137839 0.000400060275621847436 -0.000203020887462129057)
(7.35070041756055037 0.000261969042340044745 -0.000160877702835249579)
(6.26143785969329691 0.0002407737442085366 -0.000155301947437910457)
(5.26559166911637977 0.000272968209166792345 -0.000183301552389108764)
(4.39509051610880785 0.000263659022344380108 -0.000209467790116770532)
(3.84192161405688859 0.000144028634525809998 -0.000124756315426916475)
(3.41740978049989952 7.96929058428647838e-05 -6.6486070111980322e-05)
(51.3054898194539746 -0.000797885264350358574 -0.00010936238716797532)
(42.9040904514718022 0.000709313984195909602 -0.000146978867053339907)
(32.9978011773352691 0.000947577569228336028 -5.4251759591658032e-05)
(25.4908377395889154 0.000895333750986038331 -2.80665960211594139e-05)
(20.1516709408235926 0.000545455790133262232 -4.55933550312544788e-05)
(16.1863922866409915 0.000355669611330281291 -6.07978625858385325e-05)
(13.4338974044493149 0.000277399794598206086 -6.96605756286258407e-05)
(12.0341993904753135 0.000283385967935652675 -9.49048833925695016e-05)
(10.6710529825672733 0.000403116617380170174 -0.00017004051845904015)
(9.46076128566041419 0.000209506249954178892 -0.000112159594749862974)
(8.47134837709749533 0.000150771172159551436 -9.5450369501248015e-05)
(7.13262969952261461 0.000195722300756443466 -0.000136681851315671564)
(5.91621281466703408 0.000268944057858910824 -0.000218540095118875455)
(5.03321385536876242 0.00023890334580347296 -0.000237596633111831183)
(4.21734691793775518 0.000207820021062430363 -0.000224066985453980251)
(3.37742514148633122 0.000229915197877360002 -0.000225556070884832773)
(50.1839086313096345 -0.000598085805086361554 -5.62353185788689461e-05)
(42.5220825321103746 0.000683891915168600463 -0.000103870222202953716)
(33.6446744185062627 0.000816480483042546137 -0.000148785335577077132)
(26.7122661707484959 0.000619607825609216727 -0.000128541485267003882)
(21.7832400058110984 0.000795797634962956777 -0.000200173736848448112)
(18.1557152519323246 0.000393624288122437012 -0.000116563099486486054)
(15.7642707412737 0.000484192705867352567 -0.00016573334926240946)
(13.9836226436143409 0.000368371350739264008 -0.000152368749450177186)
(12.6903531369526608 0.000295531744916595557 -0.000140970127699341417)
(11.7123199215608373 0.00011346085410797105 -6.24969282219779379e-05)
(10.7957819417775305 0.000188977494162115446 -0.000119651406355101284)
(9.69474416813741691 0.000310725369031043873 -0.000224169665649376359)
(8.70073005441288316 0.000256681797635553613 -0.000218467143316768467)
(7.79543006712350994 0.000189463889205941855 -0.000182430213473061005)
(6.53517686588692204 0.000187648343378070935 -0.000180364639532282569)
(4.81543544250170097 0.000250697009744929719 -0.000194039314048728337)
(48.5534447606299935 -0.000518676384178223663 4.695705269644949e-05)
(40.7048100997823639 0.000670532071182559138 1.64383720289539528e-05)
(31.732239285663514 0.000838401747113527414 -3.09467013149443621e-05)
(24.9365200022031956 0.000658442037869796893 -4.89893316203119278e-05)
(20.2591895614775517 0.000608084947803621883 -7.53700112689633203e-05)
(16.8841500967495222 0.000268227006061725075 -4.86709098177932342e-05)
(14.775975448524564 0.000226077755575999375 -5.84885585839490534e-05)
(13.2873126220312958 0.0002288661102096009 -8.1003697186533816e-05)
(12.1006177155386307 0.000203788996455511523 -9.14415547128420741e-05)
(11.4093084819447412 9.46342882128561712e-05 -4.59921630129867315e-05)
(10.847770295746809 0.000212568910323757755 -0.000113309752123377463)
(9.98908707881362368 0.000311337330330017914 -0.0001920824666141354)
(9.40911128760247273 0.000272034746253147918 -0.000186939405018179998)
(8.84143273360993298 0.000197268454440591639 -0.000135627424026525271)
(8.15828592552546361 0.000185886081640623937 -0.000111764505729485561)
(6.76860381127938293 0.000326104275094462963 -9.71036796051591037e-05)
(47.5936584277407917 -0.000454811500227058946 0.000104585270381214233)
(40.0410331640760262 0.000671658988993030157 8.37133373248579094e-05)
(31.3715907231140108 0.000971987168286171676 5.83382199623397272e-05)
(24.5070501019815303 0.000808915238058927825 1.57108706643131516e-05)
(19.7480523151865874 0.000636071409560213315 -1.21335816109804874e-05)
(16.4279121772230212 0.000510999854909824293 -2.6380434749024932e-05)
(14.4453688644787981 0.000235153401125128166 -2.82258241711676004e-05)
(13.5182502220454399 0.000124483481793730204 -2.277677555125777e-05)
(12.7801772708371679 0.000151372118499624515 -3.49976779878916151e-05)
(11.7343195827174149 0.00024748610481331037 -6.29494439087773005e-05)
(11.0509514130070379 0.000354762677695337025 -9.68760716901080995e-05)
(10.4231675409963014 0.00033191138514412162 -8.91707135019919201e-05)
(9.50372682956606418 0.00030358140282815021 -8.62834768514613262e-05)
(8.40835455031717416 0.000269816179685341076 -5.51052101051525704e-05)
(7.55950384852093116 0.000263759496162317524 -1.82830069441607727e-05)
(5.96250911718871546 0.000283282524582428483 -1.39687059712476008e-05)
(48.0344701893594674 -0.000603102670925820001 3.70397961269111088e-05)
(40.5220930317865182 0.000705146364893246397 -5.75282017416796401e-06)
(32.2548777773974464 0.000995059342946616595 -7.41971539605841036e-05)
(25.2950678848097894 0.00128518076422237952 -0.000182210737759902383)
(20.4705097086940668 0.000320277123120310601 -6.5256165899711747e-05)
(17.2612776484810198 0.000152531765618268105 -4.37920774729572455e-05)
(14.8512454846453092 1.23182010330881405e-05 -4.77280948685800728e-06)
(13.4994448880693962 2.24483892095351548e-05 -1.0018615133690153e-05)
(12.5003366798301929 5.97577071499378332e-05 -2.84699890390196672e-05)
(10.8987651177948557 0.000225733059562602045 -0.000110417160397132882)
(9.59562077804141289 0.000354206431517688799 -0.000172783821923987505)
(8.61496666911261144 0.000336022536550545532 -0.000159115623489299859)
(7.6249779013283856 0.000303008059878352232 -0.000141171098551901687)
(6.44616442752984486 0.000262476896151400143 -0.000133689756435777257)
(5.24675241883102839 0.000176905500488918255 -0.000114234769320903712)
(4.23559646907548171 8.21676583479436125e-05 -0.000125835730053900258)
(44.6245539582442134 -0.000448105149989787212 -0.000104893388775001694)
(36.7881418563623726 0.000734594145407575067 -0.000172136239488595194)
(28.428544261562088 0.000868853917377250822 -0.000183057220989766423)
(21.8476369901862597 0.000863519194159003095 -0.000163839965233173054)
(17.5535569742584556 0.000598982711775247647 -0.000109899828843056972)
(15.0119146231149134 0.00021154633503674597 -4.68517396713438508e-05)
(13.5258061242218162 0.000118685412197076703 -3.0331672201516358e-05)
(12.6261259808227244 0.000246490356352020137 -7.71420276090109037e-05)
(12.1274874840589746 0.000137337289962288355 -4.74280992273512237e-05)
(11.6681676524547591 0.000176416648138086806 -6.43489848328863582e-05)
(10.811709302305065 0.000215862974379520687 -8.72721192069320729e-05)
(9.83415697877916628 0.000281438515494838071 -0.000105643876288424504)
(9.29842979616364218 0.000365939917462537604 -0.00015973410408238133)
(8.75777892346517461 0.0003324438830986763 -0.000163822265007746804)
(7.99104287530508728 0.000309954432183925455 -0.000150340059039031937)
(6.99458028705626589 0.000201633626241909131 -0.000152214054716593659)
(0.00173968742030407492 0.00031262504013330561 1.993213576525664)
(0.00107402329091462823 0.000143051506405027717 1.41926153511435715)
(0.00047183939971502881 6.63658018134540305e-05 2.27859062362155385)
(0.000248475906981679494 8.28013775582270691e-05 3.07098127895010498)
(0.000156031687552217441 9.3744347999507658e-05 3.62238779205771033)
(0.000113707330909207412 0.000104755384766267115 3.92009177863293568)
(8.91270296830278072e-05 0.000116259950878640244 4.00070236489070741)
(7.13904818870169359e-05 0.00011134043118894314 3.93556485877426487)
(6.32592887176061772e-05 0.000102800391431446438 3.72514014489019862)
(5.35224449492264167e-05 9.10457635460557886e-05 3.4278634357884159)
(4.68922364704174501e-05 8.17621665061986884e-05 3.14921837094923163)
(4.21802472618273386e-05 6.8752029952392124e-05 2.88833508276197426)
(3.93222998904464268e-05 6.17731595370511787e-05 2.62351521992551318)
(3.69400529860216189e-05 5.25090245538717209e-05 2.34594532696991065)
(3.87854070543458123e-05 4.68890398481479182e-05 2.05352538157440279)
(3.91284116700098373e-05 4.42484324386007368e-05 1.7471158365172319)
(0.000972393017017322229 0.000159526159100830984 4.75630579354443039)
(0.000502618559567002358 1.51401264606013451e-05 4.13665289499465416)
(0.000203319010655259291 -4.12018647297078837e-05 4.10408095545510321)
(0.000102695024083741842 -1.12399629698515169e-05 4.10940810736016005)
(7.04357033933422551e-05 8.70370088814896772e-06 4.12073540906126112)
(5.61577505481823045e-05 2.60505263786406259e-05 4.08352287850663398)
(5.25680277416070145e-05 4.18030363030476781e-05 3.97403487724602478)
(4.88541711608964676e-05 5.05934945080191499e-05 3.7628089844033652)
(4.63363621652746222e-05 6.0727746227725076e-05 3.488974228232399)
(4.44951663038983732e-05 6.34020842210355416e-05 3.20453221049810555)
(3.9779939645758954e-05 5.99287304154045777e-05 2.89796886965816869)
(3.51298969747579733e-05 5.84978731366384767e-05 2.58925351063766174)
(3.2664077678617903e-05 5.48313777229621381e-05 2.28577967376853586)
(3.13495739662138795e-05 4.96992136963969559e-05 1.97847264871223172)
(3.1315553701803538e-05 4.53083071743699725e-05 1.66365528335091195)
(3.01374131356134267e-05 4.21151423112161349e-05 1.34051658157212517)
(0.000576610206651650514 4.41856319688491709e-05 5.5773623494809712)
(0.000280170174404484448 -1.12108922520771282e-05 4.86120834301092497)
(0.000122323820613647077 -2.96832165404409231e-05 4.51694706258328793)
(7.7196223152385592e-05 -2.76466663759384503e-06 4.26980793083145294)
(6.64860436694865653e-05 1.29833021669797642e-05 4.06428050262775109)
(6.00008372091132149e-05 2.14426202592786063e-05 3.86131670853398878)
(5.9413753947294782e-05 3.09216781081537328e-05 3.64045047774650277)
(5.80999763527850386e-05 3.96296973094877628e-05 3.38706219576123857)
(5.49644655667086703e-05 4.42648127520861879e-05 3.11286994097537262)
(4.84495595916999803e-05 5.01055110556469544e-05 2.82442720241378931)
(4.37426118746456389e-05 5.03303054208271663e-05 2.5275720914562938)
(3.85294171178910593e-05 4.9529937968973575e-05 2.23068982609861255)
(3.41124091705523067e-05 4.70788210685168252e-05 1.92680294793500528)
(3.08611054341556974e-05 4.3581818199982967e-05 1.61544428198997458)
(2.83059328368502496e-05 4.14213711955989456e-05 1.30708590610499509)
(2.67310343778752366e-05 3.83154574875855494e-05 1.00095360048962556)
(0.000353327941864518629 3.14578641327709981e-06 4.6468695529718822)
(0.000200198596403866516 -6.53976726700180545e-06 4.16532363416239448)
(0.000111387490890126612 -1.09581876771206086e-05 3.90248043119822574)
(8.42130678166823116e-05 4.73083134761932675e-06 3.70959320067289511)
(7.51443039563174427e-05 1.61952579775083673e-05 3.52777801008404479)
(6.88487546936306978e-05 2.34733754924019595e-05 3.32909979643895415)
(6.49061438645069687e-05 3.00287981785639345e-05 3.11291268369160745)
(6.16983508844976637e-05 3.56057186375344516e-05 2.87540583639429537)
(5.65538263718626613e-05 3.86077779466789911e-05 2.62279930062152911)
(5.08872599401410019e-05 3.99768824761450472e-05 2.36067749939690108)
(4.57404895594631442e-05 4.06878899518014331e-05 2.09387601204934937)
(4.23620898164053629e-05 3.97385243513172264e-05 1.82299405640557399)
(3.88543748285549378e-05 3.78193544418121006e-05 1.54549077008996805)
(3.37773676893121015e-05 3.63791470092253617e-05 1.26428887162103099)
(2.99879360743710138e-05 3.5291429331154766e-05 0.985663470475785952)
(2.63373818156774148e-05 3.32716538968636855e-05 0.707485924205848993)
(-2.55947075873103325 3.46982736081493805e-05 1.88350532597322518e-05)
(-2.41570405197962534 -8.59913303139896653e-06 1.64929799054773689e-05)
(-2.31676250063462064 -8.08024025258574875e-06 2.38354475190386973e-05)
(-2.21788809970374245 -1.49341776970144487e-06 2.75265660120913601e-05)
(-2.10144273224962586 1.98492482067283139e-06 2.83303923031492874e-05)
(-1.96744198661618697 4.5212763850225925e-06 2.83896024400605506e-05)
(-1.81764976581683579 7.89304155523088566e-06 2.71788570976959812e-05)
(-1.65298442964217696 1.12505668838148115e-05 2.55130473751198805e-05)
(-1.47872833822728955 1.3093269007677736e-05 2.44448087171755005e-05)
(-1.29902802490571689 1.44408963413937376e-05 2.36269571129401561e-05)
(-1.11583054203719612 1.50112901685638703e-05 2.26779346434303145e-05)
(-0.928473491271573304 1.54383201049229459e-05 2.18906297559533946e-05)
(-0.736811725924023442 1.57804261607237191e-05 2.05359527909083001e-05)
(-0.543197984343682716 1.55102185861973998e-05 1.89954986072565877e-05)
(-0.350265254589440633 1.47651524166297257e-05 1.71984710720518671e-05)
(-0.162729662896983429 1.50131354016056483e-05 1.49845702662665231e-05)
(-2.44410680744358544 3.85664515445641127e-07 2.06342411349329095e-05)
(-2.31334728587659066 3.55398018671051982e-07 1.9064369432809379e-05)
(-2.18359634790272317 8.06631590744042385e-07 2.28156858353419662e-05)
(-2.04818086888985862 2.45206349123389546e-06 2.46219097990853532e-05)
(-1.9062785259164774 4.45999544312223041e-06 2.52754520332135722e-05)
(-1.75754761618542465 6.41964391611575719e-06 2.49931251203971459e-05)
(-1.60069509702881385 8.40357683628702954e-06 2.39258031642862604e-05)
(-1.43643304699148389 9.99670441121700259e-06 2.25724114337068333e-05)
(-1.2660551096793311 1.10943495036906075e-05 2.12417045325393967e-05)
(-1.09068242990142772 1.20156612389590084e-05 1.99850157998145707e-05)
(-0.911416425731491064 1.26785777025521586e-05 1.90115220101896024e-05)
(-0.728822428582695303 1.31285064957043665e-05 1.82465696369294004e-05)
(-0.543912040289106335 1.3282034225870262e-05 1.73795588084484354e-05)
(-0.358268497143726217 1.30579742230201428e-05 1.65694627738971755e-05)
(-0.174495940648695252 1.23652440949436013e-05 1.58483483016575772e-05)
(0.00316073860769723689 1.26294718562319883e-05 1.53443414570565358e-05)
(-2.27881741761871925 5.70076197688512533e-07 1.76972852420618465e-05)
(-2.14984511129325062 1.54559998398098201e-06 1.73596482945210369e-05)
(-2.01631525943082712 2.87375439337700247e-06 1.80156688462377969e-05)
(-1.87711494903258025 4.21546889536066076e-06 1.85346431726950641e-05)
(-1.73143863385277408 5.61249603059733552e-06 1.86748642280790993e-05)
(-1.57915408044026595 7.0147836699112805e-06 1.86061574727484414e-05)
(-1.42076760094210619 8.24956201736768804e-06 1.83195307736531702e-05)
(-1.2572489283095678 9.25535681205121074e-06 1.77586329967378559e-05)
(-1.0890470465198101 1.01235889277432808e-05 1.70624787511031604e-05)
(-0.916504782181948419 1.08423513766238427e-05 1.63982111722090878e-05)
(-0.740355834973107085 1.14220637070542923e-05 1.58238529193320422e-05)
(-0.561144313329948075 1.18157149105293349e-05 1.52697801701995031e-05)
(-0.379687841235758994 1.1961426624726116e-05 1.47377735727557093e-05)
(-0.197166886938628022 1.17780161958662709e-05 1.42272142789121895e-05)
(-0.0161796033071512496 1.15465080006947031e-05 1.3929086363990954e-05)
(0.160686190239653026 1.18853230890880005e-05 1.37979219197209098e-05)
(-2.11334119795234132 1.05243347097316795e-06 1.53100951334782782e-05)
(-1.98501570849741804 1.80359595633107143e-06 1.53521283746320151e-05)
(-1.851589458168452 2.97777063683890767e-06 1.5259623990190421e-05)
(-1.71287614336825134 4.09161729587207175e-06 1.51614207181721241e-05)
(-1.56852140858924427 5.22647542911298697e-06 1.49978227756465495e-05)
(-1.41862523074804381 6.34994388213276872e-06 1.47315365697897916e-05)
(-1.26339282740597159 7.36023388153795977e-06 1.43780063282594533e-05)
(-1.1031208445778542 8.29407569805716759e-06 1.39778192841672825e-05)
(-0.938127499583831015 9.12416676996540906e-06 1.35341352675454162e-05)
(-0.768678257262067177 9.8515817001544276e-06 1.30761143071277126e-05)
(-0.595124776305394843 1.04932764685316476e-05 1.26469122261761219e-05)
(-0.41811198343295175 1.11361353572633089e-05 1.23393273276477408e-05)
(-0.238801523666659216 1.16834301685603351e-05 1.21255244846833486e-05)
(-0.0592471920997438214 1.21055193049149812e-05 1.19275378451912792e-05)
(0.117652434237572739 1.13486876423460851e-05 1.16120119870765196e-05)
(0.295344969413050829 1.16352264876361404e-05 1.17555829364463149e-05)
(-1.98427213307750705 1.2341412322998696e-06 1.15079622055191615e-05)
(-1.85647208988409806 1.61625684550786077e-06 1.15768854174866713e-05)
(-1.7236009070269338 2.68655034789329812e-06 1.14602212019527021e-05)
(-1.58567839113134745 3.71668911146911471e-06 1.13265897693850567e-05)
(-1.44262914679264087 4.73249999599836734e-06 1.11521545624333893e-05)
(-1.29444432407067378 5.73180693724888621e-06 1.09304639707351892e-05)
(-1.1411767847224743 6.69221899508540341e-06 1.06679284249918558e-05)
(-0.982886160426962641 7.61182541329948658e-06 1.03803136692629071e-05)
(-0.819784885041972666 8.53658863853111952e-06 1.01123139801696963e-05)
(-0.652237859911914186 9.44868349364872475e-06 9.87278094549464391e-06)
(-0.480672927063012678 1.03282826992892489e-05 9.65672910089964165e-06)
(-0.305824033442774534 1.11670233400894453e-05 9.4847699875960468e-06)
(-0.129131990079218051 1.18791901379973176e-05 9.31876922974718016e-06)
(0.0465585302757680064 1.21273403383216416e-05 9.13020664915580423e-06)
(0.217608009206649106 1.04650281204289698e-05 8.74080870673418555e-06)
(0.394213415599626527 1.08752751424289143e-05 8.30988054387825467e-06)
(-1.89102130117180933 1.19110760233884914e-06 7.81852634037813247e-06)
(-1.76350391580071464 1.49209505971157231e-06 7.86348298997237878e-06)
(-1.63105787413953229 2.48602799668409082e-06 7.79161601424597322e-06)
(-1.49369127581400707 3.46528670564928341e-06 7.70343642895194837e-06)
(-1.35136725897077192 4.43755299131758815e-06 7.59289584717514486e-06)
(-1.20409771698783641 5.41067849352045552e-06 7.46673870624633627e-06)
(-1.05195225204957943 6.37708985937300034e-06 7.32699554346418076e-06)
(-0.895046050152601746 7.33472401229418441e-06 7.17130917607818505e-06)
(-0.733573795898967096 8.28518574788755496e-06 7.00237385542756762e-06)
(-0.567774755258313779 9.23869337426228635e-06 6.83145455888768995e-06)
(-0.397989669604952967 1.020633236006757e-05 6.67579505125644647e-06)
(-0.224861028772674776 1.11459174727825654e-05 6.54495706450011124e-06)
(-0.0499887432767562104 1.18831592542968255e-05 6.36773986099449397e-06)
(0.123225516478602345 1.2124990148868137e-05 6.11859634293244418e-06)
(0.29140351769140671 1.07344185081966284e-05 5.86157386106450989e-06)
(0.468497937519180174 1.08715910225327499e-05 4.94719976049847531e-06)
(-1.83016193636388591 1.09934268463412935e-06 4.53872959346632503e-06)
(-1.7027659236882331 1.42465219041316668e-06 4.56141915276478105e-06)
(-1.57055259036364991 2.37806149191186052e-06 4.52916610418688305e-06)
(-1.4335357752301976 3.32930511059754802e-06 4.48853835163061538e-06)
(-1.29173129026233435 4.27797262124727693e-06 4.43447916661567064e-06)
(-1.14518479761810532 5.22280961243744839e-06 4.36532067827955072e-06)
(-0.993966081807601376 6.16545959548804064e-06 4.28167024787529185e-06)
(-0.838173596741815019 7.10913745688860339e-06 4.18645089457868319e-06)
(-0.677954340677323186 8.05797065467845924e-06 4.08225667058100406e-06)
(-0.513529333257930265 9.02092389163561337e-06 3.9691843322131918e-06)
(-0.345250328789736771 1.00221822301197591e-05 3.84398995494393832e-06)
(-0.173519125749283937 1.09924370108207252e-05 3.71167113167216635e-06)
(0.000362725338184945482 1.18493904495138e-05 3.44317096868745115e-06)
(0.173527551953049503 1.32586265189705984e-05 3.09694605399863409e-06)
(0.34736588602022872 1.29957807869672902e-05 2.73556225484974831e-06)
(0.528290210143622319 1.58939242807143888e-05 1.26245170697579119e-06)
(-1.80031185733462928 1.04209613921208987e-06 1.49683871958192451e-06)
(-1.67297381328686012 1.38409591082037258e-06 1.50523561400977754e-06)
(-1.54088425827180142 2.31054213318030578e-06 1.49549843341068842e-06)
(-1.40406524287407519 3.23781335924603725e-06 1.48176067866501004e-06)
(-1.2625464453408195 4.16521904347026093e-06 1.46315304006633235e-06)
(-1.1163779351450156 5.0929558378512359e-06 1.43978069497463531e-06)
(-0.965635569554602391 6.02109045396050893e-06 1.41180587624195592e-06)
(-0.810431262670626706 6.94968106546559194e-06 1.37906645348205134e-06)
(-0.650937828387209594 7.88055441571342103e-06 1.34085341819687455e-06)
(-0.487430803093045262 8.81461976852660884e-06 1.29522919745003986e-06)
(-0.320349902105574569 9.78683647909598993e-06 1.23892961150961172e-06)
(-0.149877740832729311 1.06288034225220236e-05 1.17391047349152758e-06)
(0.0228453873918837355 1.14133731091357646e-05 1.03589998092599446e-06)
(0.195073007604213422 1.2995484487295399e-05 9.09847002261713582e-07)
(0.37110628958321501 1.41777137391179262e-05 8.92986914094941097e-07)
(0.552398210242996957 1.81589218774003666e-05 8.07610049848512538e-07)
(3.20409117567548173e-05 -1.3158889237949658 -1.0164963642399842e-05)
(4.45721203271700277e-05 -1.2489491417550258 1.50883987955286115e-05)
(-9.41123123588910349e-07 -0.915417373641059795 2.81067021470761974e-05)
(-8.29350110304064513e-05 -0.237043304762194124 1.83042378644811801e-05)
(-0.000211931932514587332 0.560817092190503241 -2.6167304052798332e-05)
(-0.000223642066198888328 0.0940474504899317387 -5.35829527102148328e-05)
(-1.45158569366686799e-05 -0.669518888581398297 -5.24102819179434319e-05)
(9.52434420876171475e-05 -1.40964969726088762 -2.77981200322079522e-05)
(2.80855922298538581e-05 -0.781061752076272264 -3.29005907602974933e-06)
(2.6780181377745591e-05 -0.672059753623615808 1.33369115899301275e-05)
(8.02888920176077155e-06 -0.399661641060888029 2.80027996218819265e-05)
(-3.38603217662402232e-05 0.154027889155653519 2.70979116880517548e-05)
(-0.000108587956789448487 0.781728975502772205 -4.76424299035000877e-06)
(-0.000133879275329983066 0.907348681998946804 -3.4078572239087883e-05)
(1.4547691042198262e-06 0.44880184584078836 -5.9049241451742765e-05)
(7.29189910123542056e-05 -0.143456456059074949 -2.77418260258353726e-05)
(1.9698314552728845e-05 -0.412160923818013392 3.24297168125998511e-06)
(1.9047039109946817e-05 -0.262280888298325687 1.32441487284700513e-05)
(7.8204821324675282e-06 -0.0171388654271868134 1.92476400492446571e-05)
(-1.7273593986220814e-05 0.345522002788015037 2.12623397866540516e-05)
(-4.73912472331203702e-05 0.765721371275939422 2.77932890514725789e-06)
(-6.13862855044227545e-05 0.959461769918386942 -2.05439457267443565e-05)
(5.60300019377780043e-06 0.766635535893307796 -4.34000557882364347e-05)
(5.49487541708358583e-05 0.500923456771965592 -1.89744455927280513e-05)
(1.45618830395223054e-05 -0.155224296984259102 4.75416954388454581e-06)
(1.32310561454117477e-05 0.00345676735565886468 1.25180387439902881e-05)
(7.78246423694875302e-06 0.219473554244028424 1.6030033157783706e-05)
(-3.85197533231907775e-06 0.481040715667285679 1.58281938134328404e-05)
(-1.95326757440607495e-05 0.749059021099574451 7.41865780353417047e-06)
(-2.96865674534170596e-05 0.915347566208208896 -9.69731167223227198e-06)
(2.38651281760331589e-06 0.843697818810914879 -2.47077721016619523e-05)
(2.97148748291578428e-05 0.721077460666284198 -1.0445585371188746e-05)
)
;
    }
}


// ************************************************************************* //
