/*--------------------------------*- C++ -*----------------------------------*\
| =========                 |                                                 |
| \\      /  F ield         | OpenFOAM: The Open Source CFD Toolbox           |
|  \\    /   O peration     | Version:  2206                                  |
|   \\  /    A nd           | Website:  www.openfoam.com                      |
|    \\/     M anipulation  |                                                 |
\*---------------------------------------------------------------------------*/
FoamFile
{
    version     2.0;
    format      ascii;
    arch        "LSB;label=32;scalar=64";
    class       surfaceScalarField;
    location    "0.0299999999999999989";
    object      phi;
}
// * * * * * * * * * * * * * * * * * * * * * * * * * * * * * * * * * * * * * //

dimensions      [0 3 -1 0 0 0 0];

oriented        oriented;

internalField   nonuniform List<scalar> 
84128
(
7.42165525372620012e-06
-7.44313051932554886e-06
-3.39582541598074698e-07
3.61057807996747256e-07
1.51228602383204695e-05
-7.72759901080544949e-06
-3.7676174818153693e-07
4.0313317446317229e-07
2.31053918519564646e-05
-8.0164767250926421e-06
-4.38667104728675789e-07
4.72569732440380777e-07
3.16222915568854085e-05
-8.56134313724599507e-06
-5.29786352634480865e-07
5.74228766773061134e-07
4.09265669544211963e-05
-9.3635786934887754e-06
-6.58146998855024825e-07
7.17507281689282756e-07
5.13959329033665822e-05
-1.0548279950000696e-05
-8.37015782621058175e-07
9.1593254939670471e-07
6.3591977066793746e-05
-1.22965510730006395e-05
-1.09159334704485078e-06
1.19210121891944088e-06
7.83528839935094808e-05
-1.48756563562494591e-05
-1.46763074765756394e-06
1.58245328047509784e-06
9.74086436581025384e-05
-1.91500776463414079e-05
-2.05719424415404253e-06
2.15150423330541093e-06
0.000124517711302752417
-2.70568869984063003e-05
-3.19163612905435426e-06
3.13941705503500713e-06
0.000168761043414353837
-4.32041804789090342e-05
-6.183821653833342e-06
5.14471145936528827e-06
0.000304298866276073979
-0.000134296862807846521
-1.27731424195757863e-05
1.15321054710905852e-05
0.000394056398680131276
-8.73237112171722501e-05
-3.54345416631623552e-05
3.30005497926254775e-05
0.000446803512411066226
-6.15008056434113355e-05
-6.94901401183993734e-05
7.82439099947408593e-05
0.00039225972679221338
2.65251374115151271e-05
-9.49162648361910469e-05
0.000122934825192277491
0.000238449045976652342
-0.000160372372138408185
0.000314182707828360955
7.39739094707635661e-06
-1.48643870756709172e-05
-3.52442374309849927e-07
3.76231366595757771e-07
1.50226503971159484e-05
-1.53814568609507841e-05
-3.89218113494662872e-07
4.17731646729811222e-07
2.29112757701919515e-05
-1.59409667923491158e-05
-4.51412911215040504e-07
4.873105879831333e-07
3.13259918309835228e-05
-1.70228688173803381e-05
-5.43448889200571002e-07
5.90398941063715687e-07
4.05231799765350161e-05
-1.86237901560681266e-05
-6.72698420460328652e-07
7.35752457064299568e-07
5.08362667799943147e-05
-2.09460128191061272e-05
-8.51734156592936674e-07
9.36392827016902722e-07
6.27690270597903299e-05
-2.43381518922023068e-05
-1.10469841852731969e-06
1.2136854645659003e-06
7.72011651092051522e-05
-2.94326959007023472e-05
-1.4768158988811407e-06
1.60174753054594015e-06
9.56819645509027661e-05
-3.77398427551156514e-05
-2.04902600095562307e-06
2.15793645578712984e-06
0.000121472074675433255
-5.28044193654869621e-05
-3.11454855574040383e-06
3.07202391118139761e-06
0.000154441142589826184
-7.54468955776491589e-05
-5.40828485135233326e-06
4.68187894338270936e-06
0.000231270812698770964
-0.000212266508100346292
-9.153022233383683e-06
1.029291046256361e-05
0.000292545156898007565
-0.000159853171727125307
-3.13690526317976059e-05
4.2624297735012206e-05
0.000319356416833753518
-0.000100948593940617672
-8.51357536740872818e-05
9.77720890462822412e-05
0.000300820192006934315
3.14378385948850655e-05
-0.000145351083328809942
0.000158974254812690411
0.000407006807909869768
-0.000268720538396255708
0.000400982562876359594
7.34259957166187159e-06
-2.22330783534311367e-05
-3.61300673725230184e-07
3.87357976737278771e-07
1.48699612285965961e-05
-2.2939411618130004e-05
-3.97173598647607223e-07
4.27781414375570574e-07
2.2679918407880173e-05
-2.37889606904349081e-05
-4.59358305692164988e-07
4.97464353991922456e-07
3.09897220227149089e-05
-2.53825661760698014e-05
-5.51594661022876717e-07
6.01555738842901272e-07
4.00386229538943393e-05
-2.77402551345670566e-05
-6.80717827346559695e-07
7.48263981559648532e-07
5.01341026431560103e-05
-3.11329429534248217e-05
-8.5861028021113582e-07
9.50093387738695061e-07
6.17207313943894415e-05
-3.60442072422293005e-05
-1.10746703903473508e-06
1.22700773472355477e-06
7.54981192986673409e-05
-4.33510761367203809e-05
-1.46780185952236206e-06
1.60877465539124497e-06
9.24341478262017356e-05
-5.48047664878458828e-05
-2.00920917836054403e-06
2.13807175109461742e-06
0.000114014646219865281
-7.43862331079604813e-05
-2.97499183818817486e-06
2.97634157367673583e-06
0.0001415446192264095
-0.000102205293565888776
-5.08874717698993938e-06
4.31715825252994077e-06
0.000182582329542777677
-0.000255269972046246688
-6.41040605774266654e-06
8.37620302429144404e-06
0.000232686006068600444
-0.000226902937487075265
-2.81740089720523135e-05
4.51201768604758308e-05
0.000226170436447910512
-0.000112857043928754061
-8.97145804770008463e-05
0.0001081384862116902
0.000174873301932290833
6.10260912751323581e-05
-0.000143001149752281154
0.00016471014241823694
0.000450003508978166506
-0.000259990802660863755
0.000391867326392772626
7.252356715173275e-06
-2.95138004948484065e-05
-3.66424169547981934e-07
3.94849053315617947e-07
1.46571040683209033e-05
-3.03770385239543079e-05
-4.01274750407395284e-07
4.34239583212592113e-07
2.23473581687177219e-05
-3.15199762701122584e-05
-4.63197968217980335e-07
5.04004577640540866e-07
3.05042079659356081e-05
-3.35929614596185849e-05
-5.55197512167419949e-07
6.08762254151124525e-07
3.93421902755595809e-05
-3.66510032864615962e-05
-6.83520911593971946e-07
7.56279100077610516e-07
4.912868450855278e-05
-4.10190221154350815e-05
-8.58912086199922807e-07
9.5856081941310462e-07
6.02268716348026132e-05
-4.72754531309658657e-05
-1.10086360071395137e-06
1.23399997688196022e-06
7.31470170731108519e-05
-5.64347208347368596e-05
-1.4437613463412787e-06
1.6072258067905429e-06
8.85382549250311832e-05
-7.03569526160713007e-05
-1.9442083626823041e-06
2.10516401411881573e-06
0.000106777551927247271
-9.26812883734116731e-05
-2.80603241579208281e-06
2.86185254955155165e-06
0.000129119507360968039
-0.000123744630326514846
-4.63317747907903252e-06
3.83058250612746498e-06
0.00015328325221912524
-0.000280841550392337599
-4.88517858369351687e-06
6.29300361626170959e-06
0.000205647166484600403
-0.000293364640104059064
-3.60332564440879282e-05
5.01310017625294246e-05
0.000199014393714958248
-0.000108235207322969593
-0.000129608936271846534
0.000131620065933568437
0.000119169954270806062
0.000125532956237466844
-0.000157281556898288796
0.000172619198843766588
0.000458718211292449515
-0.000273910573946581381
0.000384365418899935583
7.12841175649314268e-06
-3.66730038630218403e-05
-3.67861139797014979e-07
3.9876798791945492e-07
1.43879169020109695e-05
-3.76720278951417099e-05
-4.01661356097031125e-07
4.37208235492874005e-07
2.19207557728017026e-05
-3.90967159216305381e-05
-4.63164587623183146e-07
5.07069752744494263e-07
2.98811652077127282e-05
-4.16110336218614038e-05
-5.54658019732857597e-07
6.12350099256060908e-07
3.84532761552669949e-05
-4.53018634653506647e-05
-6.81703329037754881e-07
7.60491162845539293e-07
4.78556856767599267e-05
-5.05309094987600694e-05
-8.53612409929696992e-07
9.63181123420982969e-07
5.83606516336253656e-05
-5.79310929196741436e-05
-1.08685929603145866e-06
1.23758389633282195e-06
7.03053057355029803e-05
-6.85742605958806063e-05
-1.40938052430059577e-06
1.60423291488593462e-06
8.40471496005311175e-05
-8.43090688643984861e-05
-1.86452331650506413e-06
2.07482741007267726e-06
9.95143667652950378e-05
-0.000108278563445944235
-2.63636979761421016e-06
2.76649925263267849e-06
0.000118290633193568318
-0.000141701547846663587
-4.11343599379272277e-06
3.29411945138652091e-06
0.000137453120386009565
-0.000298406187106043633
-5.45400412687316279e-06
3.85613681588078345e-06
0.000197225639066772628
-0.000362343171561908394
-5.79768798141617125e-05
6.71826134753742142e-05
0.000161935834342229299
-6.98793372514457502e-05
-0.000181907496025746388
0.000178841094352829536
2.80093102292696642e-05
0.000269451572956208064
-0.000230004014312907862
0.000220011161996708113
0.000405523917424621054
-0.000330594994220627402
0.000411798576972623219
6.97532208348229686e-06
-4.36817627156577731e-05
-3.65698876274835931e-07
3.99220901991650466e-07
1.40649788657283872e-05
-4.48000603207934699e-05
-3.98452068559188026e-07
4.36813654227406402e-07
2.14077263072795173e-05
-4.64867790005826835e-05
-4.59508107700361124e-07
5.06843324002745226e-07
2.91338827149248402e-05
-4.93993750116594678e-05
-5.50362584649061299e-07
6.12642194773613749e-07
3.73944700242580212e-05
-5.36481411638651214e-05
-6.75754102565130751e-07
7.61536028284905745e-07
4.63553086316680866e-05
-5.96133297142573275e-05
-8.43523692301836403e-07
9.65200956073278264e-07
5.61969111502153782e-05
-6.79457470481460008e-05
-1.06733731262565302e-06
1.2404175971226076e-06
6.70985824900496299e-05
-7.97122856365390102e-05
-1.3698436097542262e-06
1.60618394135242887e-06
7.91617371687088707e-05
-9.66529671656816985e-05
-1.78140068148867558e-06
2.06216990089475225e-06
9.19716705507855968e-05
-0.000121344721273652088
-2.47540974766615916e-06
2.73167790509776225e-06
0.000107680149452110124
-0.000156708876741136591
-3.60511948575250647e-06
2.90399675749957204e-06
0.000124463429449024062
-0.00030947986517101592
-8.83998706052453037e-06
3.13027553669765414e-06
0.000184451664308633682
-0.000435797108395855959
-8.5067921577820408e-05
9.85330911417489467e-05
0.000176961597831739193
-6.33017620344146915e-05
-0.000238387375870208445
0.000239299249397494898
-2.11136556283518875e-05
0.000453204321632954665
-0.000392647787939820144
0.000406969381059422324
0.000309777207383192771
-0.000340279126671196508
0.00041491331987620532
6.796432944132381e-06
-5.05146583874608741e-05
-3.59919455046468483e-07
3.96378786171942603e-07
1.36923637205057474e-05
-5.1737604203780103e-05
-3.91729336873802578e-07
4.33289361520185057e-07
2.08168111423264993e-05
-5.36622793568036424e-05
-4.52396773698399995e-07
5.03542313998068127e-07
2.82771734877500453e-05
-5.69269775734170016e-05
-5.42524662033572668e-07
6.09911604342326283e-07
3.61907429700585677e-05
-6.1655532929622719e-05
-6.65913653182738916e-07
7.5983681408916339e-07
4.46703282122193021e-05
-6.82290248308780223e-05
-8.29192554736149164e-07
9.65355018158343694e-07
5.38095809063251376e-05
-7.72855358700294645e-05
-1.04367432232139488e-06
1.2441990516060249e-06
6.36473717508212163e-05
-8.98382433656851509e-05
-1.32901570992264718e-06
1.61715786378727e-06
7.40736306798086641e-05
-0.00010744832363242341
-1.70552416776239246e-06
2.07461421817597292e-06
8.4580320849151521e-05
-0.000132228839594877856
-2.36940205078290085e-06
2.74687152518625434e-06
9.6614415758569628e-05
-0.000168315920847520676
-3.40225642848985645e-06
2.97527080512763939e-06
0.000112541021069473821
-0.000316135234234117665
-1.35111980464235836e-05
4.23990848217673248e-06
0.000247180844034361447
-0.000598203708544055627
-0.00011910217907450132
0.000146868808208852657
0.000272549156237218064
-0.000141968685172566219
-0.000389886259817026387
0.000443185244528901488
-0.000108229027658313977
0.000748320482853293933
-0.000494641392737626149
0.000580305483567219397
0.000133182524056162154
-0.000350773759367918072
0.00041914068451494031
6.59470484874328872e-06
-5.71495548193106973e-05
-3.50382253679067331e-07
3.90499431490852797e-07
1.32748979228663729e-05
-5.84631928301318526e-05
-3.81435668569280853e-07
4.26813427475211939e-07
2.01571112742373527e-05
-6.05997600188425251e-05
-4.41884344964485519e-07
4.97307676343349872e-07
2.73266146667185404e-05
-6.41693687698483185e-05
-5.31226149536301961e-07
6.04251872507820169e-07
3.48678788899085135e-05
-6.92997917063827051e-05
-6.52347207779674156e-07
7.55410777154115129e-07
4.28432005287634988e-05
-7.63569083838996476e-05
-8.11055687912695401e-07
9.63622554591583741e-07
5.12673268228247802e-05
-8.59424943643855943e-05
-1.01643074600235736e-06
1.24923366624383027e-06
6.00601969338256016e-05
-9.89815662298723631e-05
-1.28791540116766154e-06
1.638353773907009e-06
6.89698332055596651e-05
-0.000116833862706893388
-1.64154985926743519e-06
2.11747919477213339e-06
7.74688087574796719e-05
-0.00014122431738941308
-2.29131318725984309e-06
2.78793119489883949e-06
8.69079821438503784e-05
-0.000177556841774589099
-3.46800882682485775e-06
3.26983784137738533e-06
9.35767263988448832e-05
-0.000308236553859558837
-1.96124861748389343e-05
5.04508367082161734e-06
0.000172157607968711248
-0.000710201176643306684
-0.000189142973969272528
0.00022255961823540915
0.000233026644474060681
-0.000196370961408797969
-0.000358943414197678999
0.000352475410565161176
2.14185500826028174e-05
0.000929931662443760488
-0.000621648498481521396
0.000651648953897695431
9.34943447790909072e-05
-0.000334779397352807126
0.000395887614002398715
6.37298364350844409e-06
-6.3567593445276464e-05
-3.36805281566099903e-07
3.81781752261920452e-07
1.28177776825759558e-05
-6.49578798580119777e-05
-3.67516836282402699e-07
4.17467239302179939e-07
1.94380221062086001e-05
-6.72800584167844234e-05
-4.28047503399274622e-07
4.8825539923808163e-07
2.62978814148328095e-05
-7.11081856871634103e-05
-5.16637619995782777e-07
5.95686392140431231e-07
3.34511716783623717e-05
-7.65657889719023328e-05
-6.35361511165687395e-07
7.48099063801422524e-07
4.09139459864799791e-05
-8.39897503809519533e-05
-7.89441639248451357e-07
9.5948285794674339e-07
4.86308040556638742e-05
-9.39286746926746668e-05
-9.85128155873644246e-07
1.25443147482373726e-06
5.6417961015952789e-05
-0.000107192418018705357
-1.24432858687661899e-06
1.6680538921358842e-06
6.39324937301428807e-05
-0.000124962833588687335
-1.58571148908794995e-06
2.20023621969575319e-06
7.06128057244358003e-05
-0.000148619772216540964
-2.23100111071263329e-06
2.94628689685943432e-06
7.79211811385169479e-05
-0.000184868752002814192
-3.87289116761239513e-06
3.87646367747691377e-06
0.000119473537554974207
-0.000327533956678181467
-2.50137881874604612e-05
2.75890765945480831e-06
0.000191877427025469475
-0.000769544266214773902
-0.000356610307380555297
0.000343548662584207713
8.24401726589284992e-05
-7.47695652423376923e-05
-0.000310590177876790899
0.000298424339323761514
0.000219038811182903359
0.000831823181177926158
-0.000618360007324785617
0.000579873118509492648
0.00024870955894984437
-0.000327129682229918071
0.00039095325352035042
6.13414526133259514e-06
-6.97532368556419462e-05
-3.18908019694269869e-07
3.70391356117595932e-07
1.23263524731223752e-05
-7.12053412377110684e-05
-3.50000743041343181e-07
4.05371575430419665e-07
1.86689324191139023e-05
-7.36882429809319818e-05
-4.10997923156940485e-07
4.76722500666093487e-07
2.52060556963128628e-05
-7.77306075140627134e-05
-4.99015468395503614e-07
5.8436256146205933e-07
3.19642907351881428e-05
-8.34467415173084529e-05
-6.15157641140719519e-07
7.37845424268887621e-07
3.89187636137266492e-05
-9.1131992987903443e-05
-7.64274059274546097e-07
9.51987027393606051e-07
4.5953900896722977e-05
-0.000101272790132018504
-9.48308437691144892e-07
1.25729231296729582e-06
5.27880299004150264e-05
-0.000114533494909085118
-1.19334873828802599e-06
1.70034058462126785e-06
5.8976930978165482e-05
-0.00013193898077635104
-1.52745600568252365e-06
2.3147463461363158e-06
6.40627712307912501e-05
-0.000154711497097177606
-2.14295258249429773e-06
3.14886390766968636e-06
6.69035467820407528e-05
-0.000188252438019020793
-4.4229922637143133e-06
4.96591028399512173e-06
0.000107664167549789518
-0.000339211219555327222
-2.50143353365521645e-05
-4.06888763645454812e-06
4.87420826629534698e-05
-0.000720104494747262963
-0.000231370575906929515
0.000240850939124196404
-0.000170242612186328486
0.000129387687712615763
-0.000276081251330236098
0.000290909775354436582
3.73783774948360564e-05
0.00071559335046263617
-0.000499519646168684992
0.000408127824887051559
0.000268496245288705592
-0.000343851455380897702
0.000361442799933369991
5.88119782752333631e-06
-7.56946284035386885e-05
-2.96462161409313478e-07
3.56724457447263362e-07
1.18059026012107608e-05
-7.71918646073275192e-05
-3.28891899408838857e-07
3.90860695258288272e-07
1.78588223411010515e-05
-7.98136212770345549e-05
-3.90680775317373618e-07
4.63237700182089563e-07
2.40649930838140812e-05
-8.40286818642715911e-05
-4.784648197274082e-07
5.70335601230265206e-07
3.04284307217395257e-05
-8.99433825894836969e-05
-5.91409933694290244e-07
7.24489582642499071e-07
3.68888701162565559e-05
-9.77967784759723482e-05
-7.35147976793283233e-07
9.39420199391382755e-07
4.32829129565949223e-05
-0.00010801684358408814
-9.04237135685791847e-07
1.25425373167058855e-06
4.92297991790106469e-05
-0.000121079211350419246
-1.12780103241078468e-06
1.72662823987960344e-06
5.41578151492365389e-05
-0.000137862635893464853
-1.43564841721956137e-06
2.43127359187898678e-06
5.73807682316640434e-05
-0.000159418358798896068
-1.97868581084244943e-06
3.46259111744746841e-06
5.90110044116265355e-05
-0.000190927302334916783
-4.90649033136885588e-06
5.95112980857920642e-06
0.000137812891338577126
-0.00037636526349956763
-3.27606475066003714e-05
-8.88726110119776255e-06
5.54439983671042836e-05
-0.00065916480376079366
-0.000231443338812288839
0.000252872909566099319
-0.000246274359205467177
0.000347939776838400048
-0.000245162219039501755
0.000328329162204425164
-4.5048403736660416e-05
0.000655306398178688186
-0.000427088493266434427
0.000286148382445994645
0.000211611296073959055
-0.000318375100359062288
0.000330211588307805046
5.6172823565663952e-06
-8.13851825994379242e-05
-2.68143806289798565e-07
3.41536030937998964e-07
1.1261234402211006e-05
-8.29058978753643565e-05
-3.03788588977271419e-07
3.74024117796778021e-07
1.70158358682502244e-05
-8.56495273335929768e-05
-3.66747824328252021e-07
4.48083187114423768e-07
2.28867674184783408e-05
-8.99978787628718223e-05
-4.55065860740329006e-07
5.53169770214280578e-07
2.88617408655529207e-05
-9.60630741814078612e-05
-5.63242134357160248e-07
7.07828599895279209e-07
3.48490869618374007e-05
-0.000104001415427619086
-7.02171039458466645e-07
9.19422054065572205e-07
4.06572245157139906e-05
-0.000114215167173896054
-8.51648860171705463e-07
1.24186033216169352e-06
4.58122708292781538e-05
-0.000126924317339355795
-1.04368130162088287e-06
1.73382601420410185e-06
4.95548891487791878e-05
-0.000142862368603215877
-1.2573757012227348e-06
2.51457907177888113e-06
5.02339749334613391e-05
-0.000162273483152620528
-1.65019598678551796e-06
3.82626435733713466e-06
4.5369500358246012e-05
-0.000189078480884609986
-4.44478892250025389e-06
7.46044516858298664e-06
6.35522782105389476e-06
-0.000311890439487490397
-1.70151768962539339e-05
-8.44520573703272089e-06
-0.000360752014810312039
-0.000385948816454939245
-0.000184732902575205201
0.000278624759203798238
-0.000571635702332309523
0.000306712739900028833
-0.00012644952034565496
0.000378560241565861343
-0.00015752879188126137
0.000332403712168667783
-0.000317537617108772075
0.000226333874924045542
0.000110770165215239328
-0.00031464997203954799
0.000257961370253284702
5.34701204636023515e-06
-8.68257118567589603e-05
-2.33295249000241301e-07
3.26925698186717073e-07
1.06969953816435023e-05
-8.8336115763815691e-05
-2.75108017907188049e-07
3.55446133596688414e-07
1.61476230615670817e-05
-9.11927589008532688e-05
-3.39995644798605534e-07
4.32511117240638012e-07
2.16821663231588047e-05
-9.56355582207687105e-05
-4.30160545532331038e-07
5.33125231423450797e-07
2.72801411455289361e-05
-0.000101819686975753582
-5.30470726118129913e-07
6.89092587093096543e-07
3.28184686006563622e-05
-0.000109762846180215832
-6.6746180871654235e-07
8.90529947248706331e-07
3.8112036962005983e-05
-0.000119936610511749755
-7.90153937596654619e-07
1.21809802623235201e-06
4.26303806505845426e-05
-0.000132199412451919297
-9.49713634239370769e-07
1.70665922466607135e-06
4.53655273337441053e-05
-0.000147116393100385988
-1.01303211337631747e-06
2.53197925824291592e-06
4.45031765704955538e-05
-0.000164120904530431615
-1.45043418998164549e-06
4.16016564320031015e-06
3.04054023546221179e-05
-0.000182741794604962006
-1.22659113150092464e-06
8.98776661076562498e-06
-1.85103843447736831e-06
-0.00028261475586591981
-3.85942211314637635e-05
4.15750851584079616e-05
-0.000361902634537169762
-0.000237939583401640853
-0.000206439144851021822
0.000418481387349782952
-0.000786108066919232406
0.000131576418186515963
-0.000167520459968694015
0.000766861884062223142
-0.000455070112926621306
-9.94094374822350729e-06
-0.000126631608913008544
0.000137938760535030616
-0.000116925529284188969
-0.000361874276385342928
0.000134500090406957816
5.0745785981413166e-06
-9.20294560864616572e-05
-1.85916428832645986e-07
3.15144714238449571e-07
1.01139085330674477e-05
-9.34673820922283995e-05
-2.41515791527362488e-07
3.33468946672444497e-07
1.52569206183844492e-05
-9.64442306931066805e-05
-3.09444704576750095e-07
4.17777863616193073e-07
2.0456421134395252e-05
-0.000100942627860164843
-4.03646117119847632e-07
5.11182592625054657e-07
2.5691007658578126e-05
-0.000107233751480017192
-4.91784256416671237e-07
6.71218255464202716e-07
3.07998496365231592e-05
-0.000115089511624665182
-6.3423588755031122e-07
8.51990437651436726e-07
3.56526010328701308e-05
-0.000125257080278318617
-7.1748048533042369e-07
1.18531204553060206e-06
3.97279527503372501e-05
-0.000137058981178616289
-8.56435415238096623e-07
1.64075466201627287e-06
4.22577503449573361e-05
-0.000151289982193058203
-7.94247336277576647e-07
2.43794730863582324e-06
4.06541766519929001e-05
-0.000165760797987294555
-1.02089267393809686e-06
4.26425129255304889e-06
1.52230754241193967e-05
-0.000168556262890586081
1.16351097158209591e-06
1.00821216684033874e-05
-0.000164222409247818252
-0.000189171210761002043
-4.81619301839937564e-07
8.64837333007444726e-05
-0.000647228448164959154
3.74185448361773676e-05
-0.00015092635162200095
0.000358574701012003179
-0.000916177102600188985
0.000223181966923278129
-0.000236772098704057869
0.000414114626661977016
-0.000661902681312210011
-0.000281110583082580913
-8.97808523271436212e-05
0.000106675050368740745
-0.00038753770913702273
-0.000361807284482459847
-2.94821541330894432e-05
4.80374842186220717e-06
-9.70171541095934096e-05
-1.22872332171953753e-07
3.0684245286431958e-07
9.51753073970414077e-06
-9.82825715368911023e-05
-2.0121168323534742e-07
3.02573750352520382e-07
1.4366466288797873e-05
-0.000101423784913360254
-2.70420774497866389e-07
4.00988282186991266e-07
1.92365290748393798e-05
-0.000105911921796992262
-3.76561879094945318e-07
4.75895291941212249e-07
2.41405320844596453e-05
-0.000112348780404568444
-4.38055276675089874e-07
6.49067200927784286e-07
2.88396992011751954e-05
-0.000119966866224438556
-6.03129866075342011e-07
7.81475847951106407e-07
3.3341394525272943e-05
-0.000130259539602941513
-6.21130023389116065e-07
1.12209119103440345e-06
3.70600337240551114e-05
-0.000141507465841914603
-7.54485793622616929e-07
1.48441711606359944e-06
3.95287199978822562e-05
-0.000155362445002873344
-5.62827248021166812e-07
2.1666463768524741e-06
3.93223554880141346e-05
-0.00016865051054257502
-6.71355172360974691e-07
3.76743949878641466e-06
4.18625571765259864e-05
-0.000178577392288282988
3.46278087956598985e-07
7.13471724045963176e-06
3.16927973356142482e-05
-0.000246397482836896475
1.86035662689852866e-05
4.87926633869943273e-05
-5.58175537218975822e-05
7.33736978884234328e-05
-3.53708275114997619e-05
8.69259285412608877e-05
-0.000143739632131625514
0.000312349196430020701
1.41970332389814726e-05
-1.54424592308829273e-05
-0.000380088048174239226
-0.000103832640000888756
-2.43580796552296368e-05
8.34292587736155629e-05
-0.000485237053650499749
-0.000197057485315856127
-8.5330799584831056e-05
4.46468891232242417e-06
-3.30005854724234634e-09
2.87558218009306414e-07
-0.000101766101395606458
8.86956677425515738e-06
-1.09405112503728113e-07
2.88925186053674666e-07
-0.000102866944242439555
1.3414168215240752e-05
-2.14639699189713716e-07
4.20503967271376364e-07
-0.000106174094016591309
1.79829471497235991e-05
-3.40398419916133829e-07
4.92321513468862422e-07
-0.000110632469488109502
2.25603916693095755e-05
-4.05183645356804602e-07
6.67964068726069754e-07
-0.000117188838598933029
2.68896391873787829e-05
-5.82513268396437349e-07
8.04406416289157841e-07
-0.000124517882494180773
3.10588313595716589e-05
-5.57795999992171166e-07
1.14227244011243392e-06
-0.000135013051128187421
3.44651361116888309e-05
-6.54053430759005642e-07
1.49816862413818454e-06
-0.000145757866284489205
3.66540622912820687e-05
-2.21895583562335022e-07
1.99403361933071128e-06
-0.000159323584015988218
3.6491979804155399e-05
1.07206883609720667e-07
3.1036086113887494e-06
-0.000171699359195261409
3.84405727504755646e-05
2.96520650792641941e-06
3.50844093570439016e-06
-0.000186999618279020866
5.51889898135136643e-05
1.24948988203601194e-05
1.50664507119207961e-05
-0.000290707053047056406
-1.93094584049403572e-05
6.4121403839023018e-05
5.4582183274468925e-05
2.91685456108895129e-05
-0.000149416539067814401
3.02222880489798606e-05
0.000173190893696739429
0.000239044088109363064
-0.000406451950790206334
4.018860066130756e-06
0.000158497473227800978
-9.31040806651520702e-06
-0.000138888009967094684
-9.67022551609652702e-05
-0.000656099246275482044
7.40373452890097268e-06
-7.43748531503925631e-06
-3.05866780028160343e-07
1.50849046728558829e-05
-7.72139578475964905e-06
-3.36580975796411509e-07
2.30436869320475428e-05
-8.00949060573777146e-06
-3.87965322463683223e-07
3.15307339064451492e-05
-8.55372242995488554e-06
-4.63019600363608061e-07
4.07941620120949453e-05
-9.35455427772079987e-06
-5.66962711458947733e-07
5.12013740551875673e-05
-1.05356688958539093e-05
-7.08563817218992549e-07
6.32914350404532069e-05
-1.22754646174946633e-05
-9.06141230152879231e-07
7.7856745941618473e-05
-1.4830743167704095e-05
-1.20218445494350496e-06
9.65207034723099765e-05
-1.90415463329542043e-05
-1.67963546983998161e-06
0.000122886735475550608
-2.67323316065417669e-05
-2.82528539882479457e-06
0.000166359881466066788
-4.27078130902378692e-05
-6.94918509920479027e-06
0.000295928816971378883
-0.000125480962209530015
-1.68612247599319016e-05
0.000383159804414981778
-8.30815379647515892e-05
-3.95838904621035185e-05
0.000431563664130537499
-5.68225436630158707e-05
-6.1071652708768502e-05
0.000354895599004897641
5.47878500179951075e-05
-7.30364302364454115e-05
0.000269052565696622397
-7.45299688162605507e-05
7.37851798051402635e-06
-1.4852526511016129e-05
-3.15930418922215305e-07
1.49829873642182396e-05
-1.53687366434609239e-05
-3.46318545973177233e-07
2.28472590458515012e-05
-1.59268619531900635e-05
-3.98208003121891031e-07
3.12316136178297178e-05
-1.70073691160763085e-05
-4.7404797780950823e-07
4.03875399132829236e-05
-1.86049030495787902e-05
-5.7830443342349098e-07
5.06378807085371824e-05
-2.09187739977605729e-05
-7.18992616183107792e-07
6.24641720185600715e-05
-2.42924305170182453e-05
-9.13938701932179918e-07
7.67043278568153484e-05
-2.93448414794654082e-05
-1.20282252800282351e-06
9.48243434611448455e-05
-3.75520785115985784e-05
-1.65842953745790386e-06
0.000119960933669076443
-5.2291932040373894e-05
-2.69144789406895363e-06
0.000152725262713657373
-7.4434112258513831e-05
-6.44635235589937014e-06
0.000226350758823270007
-0.000198110455029218419
-1.01490628602273287e-05
0.000284902049119318222
-0.000150790595974584663
-2.22113371008915544e-05
0.000313249995957251928
-0.000111968206779066196
-5.83383557862823151e-05
0.000280432059145891907
6.50696876683503332e-05
-0.000122814816544478361
0.000453187646305055775
-0.00017242348691759511
7.32294619342266602e-06
-2.2214380736518401e-05
-3.22332735002316129e-07
1.48289129079969467e-05
-2.29197744888907806e-05
-3.52005051584883907e-07
2.26142929819002532e-05
-2.37676092437798402e-05
-4.03907495510910038e-07
3.08939154383698741e-05
-2.53589125752259104e-05
-4.79634617107068915e-07
3.99023647995933162e-05
-2.77110528781706628e-05
-5.83052892855864091e-07
4.99372550669535404e-05
-3.10910387895553531e-05
-7.21225281050533868e-07
6.14224839750980171e-05
-3.59754582932873669e-05
-9.09604970263036733e-07
7.50159877055224723e-05
-4.32226050073298662e-05
-1.18351849903663127e-06
9.15949980609554869e-05
-5.45419991846301207e-05
-1.59823009321585746e-06
0.000112608758257693101
-7.37978818339180871e-05
-2.48274931718625411e-06
0.000140282644183397037
-0.000100986887725017178
-6.20985275793450867e-06
0.000173437546823221686
-0.000234931726060971183
-2.74402856062241988e-06
0.000207923997427712684
-0.000212899192130678184
-5.52051413658619799e-07
0.000184321753998540727
-0.000123027567309593182
-5.50528520315176603e-05
0.000142361342751985432
7.331801696835522e-05
-0.000109288583268389968
0.000527254071734342645
-0.000191695435304408107
7.23206818310838894e-06
-2.94875639533982431e-05
-3.25183080216875699e-07
1.46149407725101304e-05
-3.03498588545325539e-05
-3.53974728337865016e-07
2.22805582398060014e-05
-3.14908530842027034e-05
-4.05550232985522592e-07
3.04077551635857594e-05
-3.35606927131869526e-05
-4.80602234940247288e-07
3.92068050554968931e-05
-3.66114216646207266e-05
-5.82211549327467574e-07
4.89363026984373541e-05
-4.09635395227376506e-05
-7.15883466054137001e-07
5.99410916893049328e-05
-4.71873377279099902e-05
-8.93754246657612097e-07
7.26954525134506144e-05
-5.6275830666393064e-05
-1.14492848884210453e-06
8.77710498743705268e-05
-7.00463261791559641e-05
-1.51547408067631953e-06
0.00010547707185442453
-9.21063235508994807e-05
-2.20361724127113157e-06
0.000128171907764480287
-0.000122772324927533172
-5.54257830127322069e-06
0.000140480446199540352
-0.000255920810973021351
3.79530406755842123e-06
0.000165996773068317004
-0.000267125904708810744
-7.32314381142505302e-06
0.000134106850875949119
-0.000109180904153594125