/*--------------------------------*- C++ -*----------------------------------*\
| =========                 |                                                 |
| \\      /  F ield         | OpenFOAM: The Open Source CFD Toolbox           |
|  \\    /   O peration     | Version:  2206                                  |
|   \\  /    A nd           | Website:  www.openfoam.com                      |
|    \\/     M anipulation  |                                                 |
\*---------------------------------------------------------------------------*/
FoamFile
{
    version     2.0;
    format      ascii;
    arch        "LSB;label=32;scalar=64";
    class       volScalarField;
    location    "0.0299999999999999989";
    object      rAU;
}
// * * * * * * * * * * * * * * * * * * * * * * * * * * * * * * * * * * * * * //

dimensions      [-1 3 1 0 0 0 0];

internalField   nonuniform List<scalar> 
29184
(
2.92013628905108408e-05
2.84491250404787391e-05
2.77051914575814611e-05
2.69502432654291878e-05
2.61675793886150799e-05
2.53358170509121405e-05
2.44278248567691293e-05
2.34103926943674627e-05
2.22180094234773892e-05
2.0758867936513635e-05
1.88618009865275571e-05
3.74241005919531287e-05
0.000149018221375757625
0.000219503711275385909
0.000320376111720044765
0.000457117235448020178
2.84839104597956173e-05
2.77474359148393344e-05
2.70200938496922172e-05
2.62635096312076765e-05
2.54646073501709752e-05
2.46011179010809614e-05
2.364459141826248e-05
2.25540791271461106e-05
2.12507289522431837e-05
1.96126387816778974e-05
1.76517010341168254e-05
3.34947393639142512e-05
0.000175402667524871193
0.000263885119480955781
0.000462178042974295826
0.000495367451164247809
2.78000554071995446e-05
2.70851492622746922e-05
2.6374080297957938e-05
2.56179765891058807e-05
2.48088567196976121e-05
2.39252655033875e-05
2.29379581823381412e-05
2.18042267789646053e-05
2.04556371519821246e-05
1.8796352141901028e-05
1.68823031431652284e-05
3.30706841942550713e-05
0.00017042331645412761
0.000288121871027739154
0.000571725266513790778
0.000518286020929062917
2.7155345697639304e-05
2.64660604028094534e-05
2.57719688642286299e-05
2.50219351960571572e-05
2.42107384635827642e-05
2.33187958247478195e-05
2.23187377518307552e-05
2.11720556438459016e-05
1.98246682830801212e-05
1.82137577677538015e-05
1.64053427914753432e-05
3.45903588843798616e-05
0.000172517461022349652
0.000361532382548885006
0.000871200701477242213
0.000560569123943758379
2.65494806313467196e-05
2.58882162468478686e-05
2.52124880751382837e-05
2.44733390536777162e-05
2.36672744889449899e-05
2.27774039777151264e-05
2.17801090047805893e-05
2.06442581848820169e-05
1.93313530090585471e-05
1.78074858225466825e-05
1.61525568781844048e-05
3.70306808850587123e-05
0.000195848100117090412
0.000618870763435012028
0.00176056782902661666
0.000716045498019352651
2.59816591300828038e-05
2.53497257305686315e-05
2.46941213468378559e-05
2.39698944595512568e-05
2.31751271326670655e-05
2.22961119113036676e-05
2.13140576052909965e-05
2.02064214065298116e-05
1.89490163356705424e-05
1.75267261019257519e-05
1.60476914860602659e-05
4.02095824940018522e-05
0.000253582303925249035
0.00142350832451965288
0.00339611517361447773
0.000797432973231394717
2.54507878011457926e-05
2.48488622015216349e-05
2.42150555798074845e-05
2.35090920742966985e-05
2.27306959811425205e-05
2.1869541052069714e-05
2.09120805154476847e-05
1.98444791474017394e-05
1.86546015941310865e-05
1.73427186743254857e-05
1.60518916012094102e-05
4.43796951428702849e-05
0.000407353241934565698
0.00331282036305117523
0.00844824376241313547
0.000794538139986865105
2.49555907581216959e-05
2.43839184771178244e-05
2.37733239699130447e-05
2.30883026171379996e-05
2.23302737422862863e-05
2.1492216851992333e-05
2.05657340751957717e-05
1.95450430274578683e-05
1.84289479158253524e-05
1.72381638825900174e-05
1.61653977723309004e-05
5.11118223663452608e-05
0.000915988361340089644
0.00306203131078561057
0.0105078224644028027
0.000717739326860377422
2.44946627623132037e-05
2.39531717470909711e-05
2.33668911598221815e-05
2.27048591672497264e-05
2.19701876987119619e-05
2.11588376808563682e-05
2.02670901434667853e-05
1.92955768213212686e-05
1.82523647585957346e-05
1.71758988341007435e-05
1.63097441588506559e-05
5.80545579176332659e-05
0.00258695232793031008
0.00205487833112783045
0.00486795853917112217
0.000733461018144308027
2.40664936754813637e-05
2.35548885195976647e-05
2.29937278205420768e-05
2.23561366967177717e-05
2.16469318683687035e-05
2.08645013270272229e-05
2.0009202921322975e-05
1.90855533909496158e-05
1.81074586818055514e-05
1.71241416736007759e-05
1.63658063037395552e-05
6.13919517912067577e-05
0.00156808248782639315
0.00142330850626670551
0.00176533252092966257
0.000726210556256759107
2.36695719315958024e-05
2.31873541407074819e-05
2.26518900544679032e-05
2.20396249432798819e-05
2.13572793209894022e-05
2.06048446086507471e-05
1.97864485611832703e-05
1.89074282096854569e-05
1.7983918020783456e-05
1.70702527279128169e-05
1.64071332685927596e-05
6.36513526567747314e-05
0.00131823933774474419
0.0016534034906490881
0.00165694005012594178
0.000943336372759588843
2.33023575939617708e-05
2.28489382348604147e-05
2.23396154602602408e-05
2.17529796877509824e-05
2.10983761999049717e-05
2.03760431501548896e-05
1.95946075245373189e-05
1.87567687513177148e-05
1.78775945577495998e-05
1.70030085075304681e-05
1.62048105840177366e-05
5.62868201238804787e-05
0.000609437705158240935
0.00134700147242139802
0.00228667876477162742
0.00165832231111406815
2.29633446347671255e-05
2.25380310749300268e-05
2.20553860488234134e-05
2.14940249753715815e-05
2.0867830476357688e-05
2.01747473124520571e-05
1.94308699014487044e-05
1.86322499636423383e-05
1.77967799434855729e-05
1.69460664487494163e-05
1.57817447430156636e-05
5.64409896244720118e-05
0.000406091053447160135
0.000727186133399393853
0.00194341796908767297
0.00242112117472224062
2.26516452845116736e-05
2.22533868443335696e-05
2.1798209595884455e-05
2.12606810456849144e-05
2.06636418518545759e-05
1.99975700123381879e-05
1.92929888092670146e-05
1.85317828542633985e-05
1.77460344097587499e-05
1.69389585437396546e-05
1.58163677707115683e-05
8.26159706474010995e-05
0.000466288170141201507
0.000653042714456526763
0.00174355603387586051
0.00204618742991564094
2.23658759547018128e-05
2.19937229881746124e-05
2.15674466948465736e-05
2.10508119921367166e-05
2.04852455823266993e-05
1.9841672668953381e-05
1.91814673901997564e-05
1.84538928829214057e-05
1.77191596127288576e-05
1.69390598680769113e-05
1.58239892864844994e-05
9.03001074001396573e-05
0.000635288668841755872
0.000654070134717328307
0.00193623458090587505
0.00142018095857419165
2.21088260486957703e-05
2.17566305939753251e-05
2.13576386908561968e-05
2.0857641222087943e-05
2.03222947054282598e-05
1.96931970975762354e-05
1.90784301665723483e-05
1.83756660504609286e-05
1.77014009035891165e-05
1.69672354730415768e-05
1.57423221294193365e-05
7.85596058465894403e-05
0.00045978071575676502
0.000963862688641942415
0.00163543536296485237
0.000980850021500402928
2.92026763551418245e-05
2.84498887668626991e-05
2.77054340881059112e-05
2.69498860123504918e-05
2.61662875927921575e-05
2.5332663565973952e-05
2.44205473696182049e-05
2.3394057344803202e-05
2.21834429011710038e-05
2.06922567860554534e-05
1.87592416303559736e-05
3.68232620591521864e-05
0.000138639004546439883
0.000208035921204719382
0.000281569596375969781
0.000425188821721265368
2.84849709098224532e-05
2.77479188488576985e-05
2.70199518516264152e-05
2.62626762905198083e-05
2.54626980620590993e-05
2.45970326113724531e-05
2.36357366369634467e-05
2.25351027699499905e-05
2.12117111255305325e-05
1.95401949267301383e-05
1.75362124670030226e-05
3.28118967249455001e-05
0.000168898176554933957
0.000272332188257351786
0.00042388204496668835
0.000434101403218938432
2.78008564173362296e-05
2.70853682854409645e-05
2.63736243622720173e-05
2.56167673955222023e-05
2.48064507946211746e-05
2.39204317505132146e-05
2.29278285464313567e-05
2.17828529234308567e-05
2.04115510050600822e-05
1.87170537293605676e-05
1.67507531177858813e-05
3.22240082095746371e-05
0.000156456546557564907
0.000269518317771155909
0.000458520291280620955
0.000364833652840590677
2.71558987031224729e-05
2.64660491866451476e-05
2.57712656383675591e-05
2.50204382635881481e-05
2.42079719389989769e-05
2.3313460054069908e-05
2.230777789780435e-05
2.11490128977197374e-05
1.97771163218861957e-05
1.81292408088289173e-05
1.62610265144310679e-05
3.36059076307692494e-05
0.000158660189819804273
0.000371644993414678502
0.000880037108086347561
0.000446396750173002764
2.65498118429152503e-05
2.58880185228701885e-05
2.52116103002734153e-05
2.44716647962379803e-05
2.36643290334632926e-05
2.27718962539255363e-05
2.1768970387461614e-05
2.06209091314825991e-05
1.92833590703737777e-05
1.77216816469805582e-05
1.60133911262595039e-05
3.59781912096963715e-05
0.00018722474215193677
0.000622982475821738028
0.00165114870089432095
0.00060913099585704867
2.59818023943703965e-05
2.53493870092318284e-05
2.46931380154935063e-05
2.39681533172783895e-05
2.31721897361217261e-05
2.22907875908301984e-05
2.13034929133283983e-05
2.01844761497741587e-05
1.89044380583056235e-05
1.74465952211081757e-05
1.59417567620286137e-05
3.86553846007338712e-05
0.000240510743559086061
0.000984536080330016992
0.00277023654593448092
0.000644152389732056355
2.54507715476018107e-05
2.4848412613972957e-05
2.42140147877869708e-05
2.35073719640280266e-05
2.27279207907035159e-05
2.18647197799363228e-05
2.09028141309221904e-05
1.98256027719997576e-05
1.86171417441843913e-05
1.72724210207099098e-05
1.5986129743340853e-05
4.13647216869038805e-05
0.000331812449546051603
0.00142626461048333793
0.00535380185379782502
0.000621137253882491865
2.49554172328605226e-05
2.43833655042767506e-05
2.37722456812507701e-05
2.30866605977471539e-05
2.23277566320000501e-05
2.14881393588959321e-05
2.05583565575270563e-05
1.9530695007450643e-05
1.84009423097338231e-05
1.71800198386794509e-05
1.61613331018136999e-05
4.4876684317336787e-05
0.00056818167326430863
0.0019215017114155796
0.00642003242480303563
0.000584800190581132051
2.4494318383440207e-05
2.39525048651239099e-05
2.33657747306718551e-05
2.27033345594772688e-05
2.19679548701593095e-05
2.115564292115619e-05
2.0261945096285318e-05
1.92869746713288701e-05
1.82359469298922192e-05
1.71374852517833985e-05
1.6351352670425747e-05
5.02884955915567221e-05
0.00162524181671871082
0.00162745049269775251
0.00964258593428208438
0.000538726836230641595
2.40659315846947183e-05
2.35540982168446289e-05
2.2992554627270271e-05
2.23547747217749724e-05
2.16449246708969477e-05
2.08622228546373025e-05
2.00061957735744499e-05
1.90831290050025457e-05
1.81051422170098432e-05
1.71036892564871365e-05
1.64283773971102559e-05
5.54358550830584847e-05
0.00180103327520149403
0.000979382701840165191
0.00303451206251001675
0.00054465891423134097
2.36687037403938344e-05
2.31864292250754055e-05
2.26505848081181556e-05
2.20384912186328625e-05
2.13553072578350414e-05
2.06034437600635964e-05
1.97848524709481092e-05
1.89099035962813131e-05
1.79848027201631596e-05
1.70669048289199864e-05
1.64672607978827539e-05
6.06423662162909618e-05
0.00143037125318522793
0.000775061991171929212
0.00158635640752004172
0.000621284626388889918
2.33009441998063914e-05
2.2847828665153264e-05
2.23379212947623792e-05
2.17521838725040632e-05
2.10960029502386787e-05
2.03755400677210238e-05
1.95929846888122815e-05
1.87583984639108017e-05
1.78700917059624345e-05
1.70037836035384983e-05
1.61385717775574844e-05
6.58243542470209303e-05
0.000787190107594546449
0.000544183879515704899
0.00130747913678949212
0.000864807385198888617
2.2960796703315137e-05
2.25366582186264058e-05
2.20526735676839166e-05
2.14938350954112716e-05
2.08641843696939864e-05
2.01755453291353328e-05
1.94271918216440169e-05
1.86288539083844841e-05
1.7769528113241925e-05
1.69348090275004261e-05
1.58694592973865311e-05
6.96927973550488453e-05
0.000802373873851250472
0.00048779272874869894
0.0016537636026801414
0.00135704744250819795
2.26466277779180147e-05
2.22515786711584603e-05
2.1793105564790768e-05
2.12617378554196962e-05
2.06570673337802232e-05
2.00005902423275328e-05
1.92819854940869203e-05
1.85237439303004884e-05
1.76876756816467946e-05
1.68242604297048165e-05
1.51519705568489797e-05
3.51603864291658358e-05
0.000199077643675181845
0.000335623304910289734
0.00127831427542789708
0.00152884662173101188
2.23557658949718251e-05
2.19914342084892764e-05
2.15570628014398946e-05
2.10550669749445121e-05
2.04722407018801905e-05
1.98479209392833783e-05
1.91587707522786053e-05
1.84483055648642306e-05
1.7651853485017006e-05
1.6791684929816635e-05
1.473742380956867e-05
4.15811112174282796e-05
0.00036166137247499344
0.000383122763931080241
0.000676155252833394419
0.000688014346957275115
2.20873657236683064e-05
2.17520922588043604e-05
2.13404268868462581e-05
2.08662609191735247e-05
2.02992954570520973e-05
1.9705854600289422e-05
1.90380706461456544e-05
1.83747893597838907e-05
1.76190114186855384e-05
1.68526710934333375e-05
1.52717233131916429e-05
5.94540809007306509e-05
0.000616786387851136651
0.000465418831851381175
0.000429640902127598982
0.000432834871419138126
2.92044443959059996e-05
2.84514049353148318e-05
2.77068807336241897e-05
2.69515327697998617e-05
2.61684052467379552e-05
2.53353655139477599e-05
2.44233398927254184e-05
2.33947191572503183e-05
2.21749292801011404e-05
2.06511140070270678e-05
1.86733912279906629e-05
3.67896325154078849e-05
0.000132145503086510401
0.000166348899548258717
0.000223757580791600054
0.000336464787649590267
2.84864215603561401e-05
2.77491056871852249e-05
2.7020995017028995e-05
2.62638399305270965e-05
2.54641851717191807e-05
2.4598794894427391e-05
2.36370116194764864e-05
2.25333761845733288e-05
2.11997635384288616e-05
1.94930246233793899e-05
1.74551158498429784e-05
3.16081868052816176e-05
0.000128159550016889243
0.000202604398235931862
0.00037372757235188905
0.000318588144711559975
2.78019865090586808e-05
2.70862274240264168e-05
2.63742931268420353e-05
2.56174737640532081e-05
2.48072994750855397e-05
2.39211824574737074e-05
2.29272621720122077e-05
2.17771952631983124e-05
2.03891652542859709e-05
1.8648236785401682e-05
1.66087113104858959e-05
2.90666901695123161e-05
0.000121555564315650399
0.000174057118962759515
0.000377179712735556177
0.000254574005839882159
2.71567136444989459e-05
2.6466594024702017e-05
2.57715885950105211e-05
2.50207263211983057e-05
2.42082347011371356e-05
2.33132451117194195e-05
2.23053316809300365e-05
2.11389522295680878e-05
1.97432773271044205e-05
1.80366944971351597e-05
1.60160216351490527e-05
2.83062659340130543e-05
0.00012466898040852561
0.000285124135907350142
0.00084677702331625805
0.000308842936503007232
2.65503136452660175e-05
2.58882574406423311e-05
2.52116101846887799e-05
2.44715747856327353e-05
2.36640743072146638e-05
2.27708425066878623e-05
2.17649191689320859e-05
2.06070798052008433e-05
1.92402082028375173e-05
1.76080147250973332e-05
1.56817555977494024e-05
2.91197061401193832e-05
0.000192734859994464058
0.000701231809957786789
0.00138119852178330638
0.000476136862027324085
2.5981989399099034e-05
2.53493225161286148e-05
2.46928356508410119e-05
2.39677281732313811e-05
2.31715026407621681e-05
2.2289099265453448e-05
2.12983912809341755e-05
2.01684110200705863e-05
1.88561621322648421e-05
1.73190048382934635e-05
1.55344265988792287e-05
3.177380296958043e-05
0.00028203248777430482
0.000658362921336454838
0.00165078846549489419
0.000570576688671941678
2.54506403918970447e-05
2.48480476909261187e-05
2.42134367998772774e-05
2.35066601267501563e-05
2.2726900745763278e-05
2.18626521179287468e-05
2.08973830811608956e-05
1.98094778631717957e-05
1.85697184752462347e-05
1.71504929590928983e-05
1.55476102994848266e-05
3.71927742171888594e-05
0.000412276192629352025
0.000912210977142668532
0.0024490425125854795
0.000483165794211052257
2.49549616709954763e-05
2.43827123346461146e-05
2.37714325652162206e-05
2.30857158078011214e-05
2.23265123489133827e-05
2.14859619710371348e-05
2.05533565452684525e-05
1.95166971064276205e-05
1.8360978703183909e-05
1.70838242293083186e-05
1.58090037716955521e-05
4.71440192958516338e-05
0.00136710597546917264
0.00236327175982821219
0.0028923651283141792
0.000446756975185695518
2.4493542120930318e-05
2.39515860077314571e-05
2.33647858113317716e-05
2.27022078531136749e-05
2.19665985330581102e-05
2.1153592685250293e-05
2.02580858986673954e-05
1.92769711375275076e-05
1.82087543407298265e-05
1.70778653301835518e-05
1.60547497556389508e-05
6.19806709032832997e-05
0.00331726259221058924
0.00226857050874766132
0.00536728298470876258
0.000412264633408468059
2.40648476452544075e-05
2.3552942494432116e-05
2.29914725088410451e-05
2.23534932390991487e-05
2.16435760902892957e-05
2.08604555624863383e-05
2.00040885141531199e-05
1.90771062133117262e-05
1.80893306401917047e-05
1.70776882458227185e-05
1.6228572452308339e-05
7.93845016077500035e-05
0.00231431138662469959
0.00152385816134188918
0.00459461361959266883
0.000437559296822317826
2.36673138555738262e-05
2.31850696362472546e-05
2.26495424611443153e-05
2.2037028849708798e-05
2.13541278494441891e-05
2.06019848485254598e-05
1.97840385997957254e-05
1.8906386101652723e-05
1.79826052696270838e-05
1.70731776094065155e-05
1.6418862049934824e-05
0.000101375901288595579
0.00114613240235394097
0.000739083471619189094
0.00304208333443470313
0.000492824722402447428
2.32992568543628336e-05
2.28462983010674897e-05
2.23371909391739497e-05
2.17504049001369819e-05
2.10952984753135165e-05
2.03736363717786807e-05
1.9591764988995394e-05
1.87567837306900242e-05
1.78829504570227944e-05
1.70439570956090172e-05
1.63060814546130734e-05
0.000112194798720244421
0.000713556334812118524
0.000423350135180091043
0.00161434212549182348
0.000596230162141680943
2.29583608596833649e-05
2.25348746518038627e-05
2.20527695289000864e-05
2.14913622183809519e-05
2.08633815221850467e-05
2.01711232885511894e-05
1.94255026401078815e-05
1.86262039019752103e-05
1.77840434484815386e-05
1.69564254793787717e-05
1.58896748247473649e-05
0.000101485518552052285
0.000757504880694735336
0.000339476971727370458
0.000662326129883326724
0.000811867547189552103
2.2642055007213595e-05
2.22480316836139855e-05
2.17934746786505319e-05
2.12562741739724297e-05
2.06564526105027405e-05
1.99923723947026136e-05
1.92803516498602267e-05
1.85179651662758359e-05
1.77170344540793634e-05
1.68709333064056526e-05
1.54013585057843485e-05
5.72647101003196903e-05
0.000533569639132445224
0.000389938546650706193
0.000495889489187485667
0.000960312666248116413
2.2350466760035114e-05
2.19870104925269063e-05
2.15609151887015425e-05
2.10451211639514536e-05
2.04750246710953665e-05
1.98342819822470787e-05
1.91596208707374659e-05
1.84331969655117153e-05
1.76799161420832314e-05
1.68455716418595386e-05
1.53804769589549551e-05
6.30996875296834268e-05
0.000328115131483557791
0.000349838367722046545
0.000444945039516212164
0.000763354921896268251
2.20794791211196367e-05
2.17451204769873132e-05
2.13490797992801006e-05
2.08491136549320875e-05
2.03083040148541569e-05
1.96844846022453219e-05
1.90420073323960784e-05
1.83437711005732696e-05
1.76416459924909104e-05
1.68863183936229196e-05
1.57658154780690903e-05
9.17160982803246752e-05
0.00129634186564869976
0.00197928067822901108
0.00177078952641808712
0.000938839983695127864
2.92063908834405627e-05
2.84533974929060559e-05
2.77092689699439856e-05
2.69549264042620149e-05
2.61738169194838736e-05
2.53445133861644686e-05
2.44348913692028178e-05
2.34054532737524829e-05
2.21835767856365059e-05
2.06524039302859222e-05
1.86614467471431782e-05
3.77377292943773855e-05
0.000130866385598135687
0.000161345374116980336
0.000218523830225225924
0.000341108005839766565
2.8488006849559032e-05
2.77507453447978952e-05
2.70230076768384794e-05
2.6266814988167463e-05
2.54690563806310154e-05
2.4607193562909692e-05
2.36476358769415208e-05
2.25431607202544074e-05
2.12075775521319287e-05
1.94941340214226558e-05
1.74607444598577894e-05
3.26962145056969641e-05
0.000123421125554538388
0.000180699733074235144
0.000268020083252278008
0.000272178986016213971
2.78032044545827886e-05
2.7087491097562698e-05
2.63758956818480876e-05
2.5619960430816257e-05
2.48115134150877505e-05
2.39286051162569358e-05
2.29365704424841344e-05
2.17850826775675838e-05
2.03933051498483755e-05
1.86404211175562022e-05
1.65984553278122443e-05
2.91072821900047459e-05
0.000109083083068610109
0.000168607646254490142
0.000357250177321538241
0.000281216134128380751
2.7157555903452588e-05
2.6467468202261994e-05
2.57727636137673178e-05
2.50226928108937732e-05
2.42117292969623279e-05
2.33195304137751997e-05
2.23130814304070896e-05
2.1144187792892852e-05
1.97409255709526965e-05
1.80153574233677543e-05
1.59569062493539901e-05
2.712925521478693e-05
0.000100969584935664983
0.000203208395237931708
0.000525040157506754873
0.000340406564478879675
2.65507664200358123e-05
2.58887260971010105e-05
2.52123423902937991e-05
2.44729948701582253e-05
2.36667923211972957e-05
2.27758607077066667e-05
2.17709697030749314e-05
2.0609339676726161e-05
1.92302198604227454e-05
1.75669085267160725e-05
1.55376708259205561e-05
2.65932705337648484e-05
0.000128254095282736625
0.000385651492517081736
0.000779061908230247574
0.000416941095918500185
2.5982035307679167e-05
2.53493678244876861e-05
2.46931131621706221e-05
2.39685851221184393e-05
2.31733994551970149e-05
2.2292775786669435e-05
2.13026855358522709e-05
2.01678059112474609e-05
1.88407215745054174e-05
1.72662368257868225e-05
1.5355757184984554e-05
2.86112523522820399e-05
0.000166848346150403899
0.000435100360718766819
0.000994905164747779142
0.00048685089316018637
2.5450256880690915e-05
2.48476520639545938e-05
2.42132521515697657e-05
2.35069506632425664e-05
2.27279543479362192e-05
2.18649741269127663e-05
2.08998816762384953e-05
1.98061224268050691e-05
1.85502187061249303e-05
1.70881604006944184e-05
1.53631121288991071e-05
3.36519558308422437e-05
0.000228248741892705134
0.000631474131114931011
0.00124453161880189959
0.000605574126407233096
2.4954126841887117e-05
2.43818572234861637e-05
2.37707808083169972e-05
2.30854470031388562e-05
2.23267227391473139e-05
2.14869817000908311e-05
2.05540465456822628e-05
1.951079529634483e-05
1.83371614461053934e-05
1.70112320036973038e-05
1.55343900958443437e-05
4.08644858121955736e-05
0.000400739019899248969
0.00160887015336898102
0.00179947291948720002
0.000653276898399582319
2.44922220621658648e-05
2.39502488241429333e-05
2.33636562334004615e-05
2.27014076996919981e-05
2.19659871128265577e-05
2.11534291962812499e-05
2.0256965713867398e-05
1.9268822814908387e-05
1.81812794427620117e-05
1.70017077627494888e-05
1.57621344892701835e-05
4.96637540041750707e-05
0.000968254669374848617
0.00354938206633756241
0.00347850763756836056
0.000823726542375095134
2.40630075593039856e-05
2.3551079586051608e-05
2.29898382182575904e-05
2.23522333557517096e-05
2.16421679377509931e-05
2.08593000480197872e-05
2.00011755074282355e-05
1.90671532266614333e-05
1.80582242809701002e-05
1.70075195353745008e-05
1.59310695320725474e-05
5.88529022275474382e-05
0.0040653409130547262
0.00414152755145291533
0.00492487300401061364
0.000859272900257203646
2.36648888807366744e-05
2.31826111257057887e-05
2.26473446291100109e-05
2.20354680574953413e-05
2.13517894565943378e-05
2.05992578834171392e-05
1.97793585031962573e-05
1.88958158566625334e-05
1.79571795502105702e-05
1.7014220188216093e-05
1.59202242343058569e-05
6.64326568694095771e-05
0.00324434891560305538
0.00409904195017262319
0.00547997478197146184
0.00100329911491743497
2.32952474849686957e-05
2.28425306656092903e-05
2.2333544001369516e-05
2.17477821836296375e-05
2.10906650581079124e-05
2.03690563300231733e-05
1.95852186935091058e-05
1.87505477719107011e-05
1.78726297425988314e-05
1.70093065107136092e-05
1.58600444185971444e-05
8.02130760208969742e-05
0.00226048635071524062
0.003475059772200308
0.00643257383692828755
0.00113823683804137148
2.29522992174392811e-05
2.25289328351668708e-05
2.20467499176705018e-05
2.14879295666893082e-05
2.08558610167085631e-05
2.01648246549431402e-05
1.94165029876573622e-05
1.86280834814815324e-05
1.78045496138647324e-05
1.70055622785760121e-05
1.5869592004960719e-05
0.000106479560676591426
0.0014251093207440326
0.00186537783937869295
0.00499403455465315116
0.00125650845480166956
2.26330904310708838e-05
2.2239160841822044e-05
2.17838629581750906e-05
2.12529541798012004e-05
2.06447176681785444e-05
1.99848840393631917e-05
1.92694428512254558e-05
1.85256688393098909e-05
1.77559922882436506e-05
1.69931135339719964e-05
1.58887289375708141e-05
0.000132184373263896388
0.00167183695971394536
0.00150675496203883847
0.00220698808996277812
0.0013629099686689823
2.2339122784016865e-05
2.19753875070262489e-05
2.15467874572723489e-05
2.10452434864275696e-05
2.0457497551099985e-05
1.98299609644179093e-05
1.91441234889533685e-05
1.84443742285838531e-05
1.77234445769637163e-05
1.70282304463304076e-05
1.64522474274890345e-05
0.000174763885823492202
0.00172597831517576979
0.00193404367227847387
0.00181379907519847359
0.00144023761320707651
2.20653283723298358e-05
2.17301297025023601e-05
2.1326173440425869e-05
2.08554754725443013e-05
2.02835194858265772e-05
1.96849704560523779e-05
1.90215205593765219e-05
1.83602343197110211e-05
1.76729834309124724e-05
1.70295249638698658e-05
1.6336675473567319e-05
0.000116765303800616714
0.00145940022861684835
0.00259856722787315652
0.00269176292327217475
0.00173898483587740056
2.92082488037816397e-05
2.84555138779017665e-05
2.77120785182246861e-05
2.69591752842143119e-05
2.61809019684499446e-05
2.53528408500119198e-05
2.44442961835769507e-05
2.34174455891412509e-05
2.22048809973186218e-05
2.0715136764645955e-05
1.8799443624873843e-05
3.81522500452707877e-05
0.000139749910002935141
0.000203746467862884459
0.000295127949406084466
0.00050496759064379477
2.84895126350286085e-05
2.77525248793855956e-05
2.70254904940123187e-05
2.62707407128350256e-05
2.54757939468753687e-05
2.46154162421168652e-05
2.36574121240719811e-05
2.25560435006388402e-05
2.12295543947823801e-05
1.95542993801376132e-05
1.7569845931644768e-05
3.39356059069829047e-05
0.000151575618919530465
0.000244750933809613036
0.000333995149234090326
0.000412423860298587067
2.78043494883515888e-05
2.70888967024658868e-05
2.63779882762957144e-05
2.56234629048341526e-05
2.48177662263927081e-05
2.39366432005806492e-05
2.29468208434704283e-05
2.18002646246199272e-05
2.04230860733360442e-05
1.87127842804044273e-05
1.67349887986865381e-05
3.17281849099470666e-05
0.000153503714802254534
0.000267438074774099832
0.000413267252174214493
0.000417010393279746219
2.71583214980941718e-05
2.64684692592576805e-05
2.57744147127181841e-05
2.50256830617299249e-05
2.42173446591747002e-05
2.3327255844717396e-05
2.23237536032717112e-05
2.11618890056877226e-05
1.97780315822504996e-05
1.80964774547679769e-05
1.61469572775706966e-05
3.10207808108897446e-05
0.000149300491555549164
0.000298521892063439065
0.000603070100134372837
0.000521500382933105518
2.65511266148811065e-05
2.58892896831348362e-05
2.52135018087565087e-05
2.44753795064814894e-05
2.36716018474131684e-05
2.2783059881093416e-05
2.1781732061322044e-05
2.06288049221271299e-05
1.92732329704676515e-05
1.76645596125609915e-05
1.57956720590656931e-05
3.21911157000700596e-05
0.000156188788929326167
0.000380169275054248771
0.00113086856720617714
0.000784354411567433365
2.59819549164352495e-05
2.53494602024715665e-05
2.46937330505805969e-05
2.39702730082867056e-05
2.31772300215381888e-05
2.22991522379965158e-05
2.1312975666317359e-05
2.0187637613581791e-05
1.8885554507701037e-05
1.73730504786912626e-05
1.5628928740703067e-05
3.54108164251691775e-05
0.000202304575877445034
0.000626010428780940636
0.00211891356872419149
0.00113997853103760174
2.54496882889148933e-05
2.48472386400934831e-05
2.42132820367947468e-05
2.35078572282932057e-05
2.27306390769668707e-05
2.18701694471308997e-05
2.09090305820939718e-05
1.98246732312180899e-05
1.85928320603176161e-05
1.71940580154533135e-05
1.561244625927035e-05
4.02920278913158233e-05
0.000301980565835345733
0.00117520298012982558
0.00433752392690334686
0.00150190804481779654
2.49530052087443277e-05
2.43809001996867728e-05
2.37701774816828651e-05
2.30855003595120598e-05
2.23281153307587578e-05
2.14905935817792585e-05
2.05613505541219636e-05
1.95264215518344442e-05
1.83736872719635271e-05
1.7099116476524257e-05
1.5693439066200566e-05
4.48572685998190301e-05
0.000460512727962791174
0.00178947438651372846
0.00797107104253192561
0.00151729756885296335
2.44904475618254753e-05
2.39487171538744105e-05
2.33623874701808329e-05
2.27005400423469684e-05
2.19659842992564343e-05
2.11550358889394778e-05
2.02618076999610298e-05
1.9280412793611713e-05
1.82089472131394965e-05
1.70593351792564546e-05
1.58129871461417999e-05
4.91118425164989271e-05
0.000721996446148795781
0.00204131767453304786
0.00734842236170296041
0.00136012736158905453
2.40604417561111836e-05
2.35489566148453098e-05
2.29878853125077537e-05
2.23503791493049878e-05
2.16405850224581974e-05
2.08584259708428334e-05
2.00023664859147791e-05
1.90740278859136378e-05
1.80775355386668691e-05
1.70441497403590331e-05
1.59194277559635893e-05
5.70322766833512236e-05
0.00133129745549574936
0.00225544234437186379
0.00559861850082638002
0.00130244123714365985
2.36608042547386874e-05
2.31793703645983204e-05
2.2643990166652697e-05
2.20316520930663795e-05
2.13480779375898057e-05
2.05954542639185024e-05
1.97770354151822654e-05
1.88992792251173725e-05
1.7971549269538362e-05
1.70502564040627913e-05
1.6034777982626464e-05
7.58013931721289837e-05
0.00254901055649662742
0.00245545038093521358
0.00514753084175692717
0.00136105100172477685
2.32887931940141846e-05
2.28377324303297432e-05
2.23285115475541063e-05
2.17416427274094422e-05
2.10847488664929799e-05
2.03621644234786158e-05
1.95815126738143758e-05
1.87521315998363302e-05
1.78888699997758162e-05
1.7063092135683305e-05
1.62057920708026486e-05
0.000102866406667353561
0.00180833336967653685
0.00210727655137987226
0.00559247429354510234
0.00147477251884814637
2.29434175866338852e-05
2.25228166308992984e-05
2.20401916452137797e-05
2.14789497545294576e-05
2.08492606743610265e-05
2.01553832279186602e-05