/*--------------------------------*- C++ -*----------------------------------*\
| =========                 |                                                 |
| \\      /  F ield         | OpenFOAM: The Open Source CFD Toolbox           |
|  \\    /   O peration     | Version:  2206                                  |
|   \\  /    A nd           | Website:  www.openfoam.com                      |
|    \\/     M anipulation  |                                                 |
\*---------------------------------------------------------------------------*/
FoamFile
{
    version     2.0;
    format      ascii;
    arch        "LSB;label=32;scalar=64";
    class       volVectorField;
    location    "0.0299999999999999989";
    object      U;
}
// * * * * * * * * * * * * * * * * * * * * * * * * * * * * * * * * * * * * * //

dimensions      [0 1 -1 0 0 0 0];

internalField   nonuniform List<vector> 
29184
(
(0.0118030102014210769 -0.005244970837043339 -0.000997200670885984306)
(0.0359029064885414695 -0.00546215148322405468 -0.00111072783922728895)
(0.0609926990468553573 -0.00566697392221912014 -0.0012985474772239272)
(0.0874600010183876203 -0.00605172494158466058 -0.00157417453330669374)
(0.115879084516990818 -0.00661661507797258342 -0.00196258128062818532)
(0.147471969684373122 -0.00745149628180177652 -0.00250252119646000208)
(0.183531879880781845 -0.00868661930458173616 -0.00326488567002567029)
(0.227227740049032401 -0.0105021099476519022 -0.00436431600241720015)
(0.277219919422440175 -0.013531876642427141 -0.00603804756933530151)
(0.365126364884087395 -0.0191852613494872051 -0.0091005201104492478)
(0.337212871868309172 -0.0293843785402020732 -0.0159978236484082208)
(0.678550206755944352 -0.108885635451157564 -0.036808713540083679)
(1.20667655596524459 -0.0827042287199876991 -0.101351054638268878)
(1.41174237539794634 -0.0391539032230184061 -0.222979974181756024)
(1.44837493571791143 0.0407554890554829991 -0.307921151244852587)
(1.1777688715320993 0.162369397304591628 -0.681328549737934885)
(0.0117625421981206544 -0.0157875619127226322 -0.00103767984053175066)
(0.035734037110422244 -0.0163981612064077395 -0.00114995616391374168)
(0.060549841826901242 -0.0169814996029322429 -0.00133832384129035139)
(0.0866146573688232752 -0.0181335485292181686 -0.00161710173964177829)
(0.114747796286908565 -0.0198369199674475992 -0.00200954694392419539)
(0.145903836198752079 -0.0223228185510470981 -0.00255293970775713648)
(0.181335258683515688 -0.0259683786231655958 -0.00331382225176199158)
(0.223712237863904428 -0.0314087279956635351 -0.00440878236555939437)
(0.272652549761737528 -0.0403341731600048714 -0.00604256832387216683)
(0.353896211925432802 -0.0567610472707067507 -0.00887297852700614717)
(0.334819696185167492 -0.0823390758435225273 -0.0143303629225043083)
(0.59494011033835037 -0.261153463993922863 -0.0313306156788674336)
(0.896188648231972973 -0.191588429136026639 -0.118183845468919829)
(1.00704042726641796 -0.129483213759536364 -0.271261399607025222)
(1.00752039375874269 0.0581864499403224045 -0.415731818298240574)
(1.04749081655389897 0.501589255016863245 -1.02019126730257303)
(0.0116759370700994514 -0.0263276220786654684 -0.00106649636060847505)
(0.0354032502542534072 -0.027217210991853015 -0.00117601253487830282)
(0.0599322228315334049 -0.0282033138226740129 -0.00136443426792464285)
(0.0856959715810362704 -0.0301038592527382715 -0.00164485089944548749)
(0.113418994662407777 -0.0329180896606098561 -0.00203909475047291122)
(0.143982743857438061 -0.0369813546944849011 -0.0025828791592396403)
(0.178506078567216758 -0.0428855588624355022 -0.00333779346728661514)
(0.219266231348144824 -0.0517088992055880006 -0.00440722141951337305)
(0.265192286693928025 -0.0657784046108971371 -0.00595983689599828212)
(0.337665538858310743 -0.0905345277353258593 -0.00855379239112480372)
(0.309195349877666836 -0.127183931364848679 -0.0133759770080464739)
(0.540282365789170882 -0.336669470006939642 -0.0246215192723282239)
(0.696784083562395296 -0.276329395787994647 -0.118354241946983241)
(0.786809445413351072 -0.161911727243586878 -0.291153063945081225)
(0.602873071478106759 -0.00245091547484702077 -0.418947140974609611)
(0.643570980633257905 0.606015475864789432 -0.971349952842846198)
(0.0115336057845522831 -0.0367539814824937999 -0.00108467364926384448)
(0.0349213644564582357 -0.0378720187900540017 -0.00119127250563606769)
(0.0590589698214290595 -0.0392892653054916288 -0.00137927313975030538)
(0.0843817620884851904 -0.0418973820237419844 -0.00166019366766469167)
(0.111521802199009756 -0.0457506422245500741 -0.00205459533378087164)
(0.141255784870790491 -0.0512736382136654706 -0.00259590332836123934)
(0.174513190682237723 -0.0592242477597180461 -0.00333908204054560002)
(0.213154671805228541 -0.0709573905857027176 -0.00437103054298372193)
(0.255280225413663797 -0.0890652462425504943 -0.00582069696649668063)
(0.321100757884811183 -0.11901225226781191 -0.00816510355048196204)
(0.2832936670437049 -0.16153367594893972 -0.012083487755432408)
(0.491312962136039089 -0.381365696150490818 -0.0186000862775989456)
(0.579987279458546556 -0.375335421866795249 -0.135482298587315836)
(0.712763290677551176 -0.184625914838051797 -0.37132827902387916)
(0.47261239373979913 0.126303114991528437 -0.468279332539343951)
(0.435932652506371532 0.653877752925767886 -0.962456650742960829)
(0.0113381247922360855 -0.0470284200227231164 -0.00109253046253504952)
(0.0342968111834906983 -0.0483557391892545513 -0.00119620164504689831)
(0.0579472922601288257 -0.0501833323686997138 -0.00138350204381292204)
(0.0827022938851900147 -0.0534478707018506416 -0.00166429926076018943)
(0.109105919368420526 -0.0582512419487010019 -0.00205792224849417945)
(0.137809611559534223 -0.0650835110079954898 -0.00259518459004182698)
(0.169527562613160043 -0.0748112938954550583 -0.00332437807427356973)
(0.205702403296534719 -0.0889302179732022469 -0.00431714332342293151)
(0.243792458018125019 -0.11010477787191722 -0.00566181092296753896)
(0.302772454550968073 -0.143173000097568809 -0.00779714748220079919)
(0.259229561568173894 -0.18901803228278094 -0.010590814262078552)
(0.447095707092091232 -0.421663257920874779 -0.0143936692501602757)
(0.541397681762287752 -0.47359139128901806 -0.195358407253680116)
(0.673280566690986237 -0.137116617932074358 -0.523537161331082856)
(0.189221434978726316 0.238613159730831442 -0.591124530841552032)
(0.234662732213423819 0.671800641155142486 -1.07157310492025748)
(0.0110966979631095895 -0.0571095477684368386 -0.00109051287049564483)
(0.0335407048141646985 -0.0586187272157766281 -0.00119121690622696927)
(0.056613270655841666 -0.0608343049035506567 -0.00137791788446675265)
(0.0806904764919305212 -0.0646974024924024949 -0.00165835493177982725)
(0.106227890050799523 -0.0703489320014707153 -0.00205064620818220947)
(0.13374185980032377 -0.0783195839688604206 -0.00258335673029536344)
(0.163724745167982577 -0.0895290816136748852 -0.00329990473665070679)
(0.197225528197339239 -0.105511045665574996 -0.004262128659281628)
(0.231225409561568118 -0.128838908272718516 -0.00552037634095225299)
(0.28308810474610635 -0.163595546380956386 -0.0075332059454866233)
(0.234613132605233421 -0.212786432489094568 -0.00910604150323646687)
(0.404332391160021454 -0.43380952509040549 -0.01671319374356885)
(0.529301389983548365 -0.571297288612062859 -0.28916699945464186)
(0.529766336251166203 -0.138318915832214229 -0.683230662653102727)
(0.249024457317452902 0.412124072028849708 -1.11942640494713785)
(0.101189702781993823 0.511896917398497853 -1.05161903234529763)
(0.0108144554146392628 -0.0669580618284244117 -0.00107875630383047895)
(0.0326646507588756671 -0.0686268493918020805 -0.00117685334335806925)
(0.0550769183098113319 -0.0711990832176692956 -0.00136322255522152032)
(0.0783829782951895732 -0.0755969162768390379 -0.00164319407804646529)
(0.102949509683111964 -0.0819877932812662635 -0.00203373327587805285)
(0.129156762662708702 -0.0909170308369617597 -0.00256225021349858282)
(0.157282476211698607 -0.103307974871865091 -0.00327022122493300302)
(0.188025294783297409 -0.120651285588882301 -0.00421764308135983736)
(0.218047226949576956 -0.145308175221917607 -0.00542295076142021437)
(0.262583618312334677 -0.18061851005798979 -0.00743603938734670785)
(0.210293773493918978 -0.23168887402249555 -0.00892392629666276249)
(0.3669586938036562 -0.441061533341502499 -0.0256328330321368286)
(0.518468852396080537 -0.694233036900519074 -0.435014546663122836)
(0.71925222905940922 0.016774303985145067 -1.40444373330051531)
(0.207518118221779541 0.76551209366215156 -1.74542200618985532)
(0.22941823252196003 0.346674149698816714 -1.10799630114475778)
(0.0104958936125303763 -0.0765402074637093616 -0.00105730301549465254)
(0.0316809213059334807 -0.0783482833285353841 -0.00115327669085911271)
(0.0533604207486466295 -0.0812411733673343295 -0.00133984935132809568)
(0.0758182725033632599 -0.086107096610573669 -0.0016192666999558041)
(0.099334466250590725 -0.0931264929081533077 -0.0020077719513673575)
(0.124159026073895201 -0.102834167623945441 -0.00253293834041685029)
(0.150371496338838478 -0.116117092214204271 -0.00323694088826413)
(0.178373539539016635 -0.134363777292148157 -0.00418682705625583046)
(0.20463021422922073 -0.159663606102462136 -0.00538248443261243447)
(0.242160670087079144 -0.194756227857207392 -0.00736270924785192328)
(0.186353717593238849 -0.246248889664562931 -0.00988581669933199722)
(0.343279593119775628 -0.449016528969584328 -0.0400922936243739841)
(0.53717211046716673 -0.849458628243668912 -0.758301886036369388)
(-0.180796638412970889 -0.434392464683420187 -1.03575098017284217)
(1.05479607110424967 1.33929774465086737 -2.33939094395683966)
(0.267239443741908222 0.0989213886706941242 -1.04539154645771104)
(0.0101453339790890072 -0.0858272905460716606 -0.00102604282658638963)
(0.0306022968041768581 -0.0877546695942097166 -0.0011206839159289936)
(0.0514869694423949129 -0.0909303666192913668 -0.00130825669145486368)
(0.0730351873197429419 -0.096197506968096827 -0.00158710465520744319)
(0.0954458577156718224 -0.103736491458124636 -0.00197346699078072103)
(0.118849163772376434 -0.114049326635392925 -0.0024956066543598476)
(0.143147591649322531 -0.127957804263830105 -0.00319782772808317132)
(0.168494546154035085 -0.146704998126880981 -0.00416317337348301019)
(0.191230386400429775 -0.172107354214433794 -0.00540275989338884904)
(0.222077164598534105 -0.206395869288486133 -0.00752378398699126739)
(0.164326576272518371 -0.258182321151478822 -0.011345445981951547)
(0.326761283684255666 -0.434152756748262481 -0.0393012183559976191)
(0.916585534061753471 -1.29494942769928123 -1.39614250764305803)
(-0.559622791137330156 -0.230716520397985458 -1.07265984719182095)
(1.36460871696987907 1.59352398872166523 -1.97139695680534555)
(0.187512387089120908 0.14896106008452728 -1.00831703987963417)
(0.00976733971727986559 -0.0947949522962695523 -0.000985048486923945261)
(0.0294419174326463751 -0.0968207319463070537 -0.00107946960119939409)
(0.0494797662695270063 -0.100242028260365046 -0.00126898595158424611)
(0.070071655640279229 -0.105845496864203803 -0.00154719491394276999)
(0.091343850953107264 -0.113800791799760992 -0.00193100720488339388)
(0.113319455502532473 -0.124559467533437648 -0.00244862830141732296)
(0.135749071231498319 -0.138859686185187958 -0.00314705874944443912)
(0.158574840866637923 -0.157758121533477041 -0.00413019159921227882)
(0.178057921940956876 -0.182827263549556918 -0.00545111434084427984)
(0.202268246731240858 -0.21599544269812776 -0.00762327019448472837)
(0.144664837898673293 -0.266238064675212993 -0.0140150684871758816)
(0.29974532820858063 -0.467224557062542678 -0.0159653018490352044)
(0.529997244670787016 -0.830839369050902721 -0.703815595297115126)
(-0.602703427939070502 0.132532025791334773 -1.05531671866544263)
(-0.150811120507388374 0.889819280283539071 -1.42337077227071784)
(0.238986367086760243 0.445277775715360535 -1.02349646793988502)
(0.00936701083563780575 -0.103423140601094546 -0.00093443282093597221)
(0.0282129552577607898 -0.105525523246114847 -0.00102982171253303907)
(0.0473610130277880709 -0.109158990903227976 -0.00122212268540353272)
(0.0669633841452258877 -0.115037122465151936 -0.00149909875564596239)
(0.0870832830911166533 -0.123315918681677017 -0.00187894403555837809)
(0.107650626168144567 -0.134379212121326891 -0.00238845469268774389)
(0.1282960835580918 -0.148876997403250277 -0.00307734901714371099)
(0.14877720408621381 -0.167625591998986079 -0.00406562482251753184)
(0.165219985957201887 -0.191991871345778164 -0.00544513677039517967)
(0.183649616852418179 -0.223797424586646199 -0.00773891663680952892)
(0.125305727933282374 -0.271013015318303407 -0.0165255266349753731)
(0.264369625270964359 -0.548205111587909744 0.00767764401543508113)
(0.857267932288141243 -1.09106835133682178 -0.783772476394703155)
(-0.874520589924779213 0.472932081208202071 -1.11016818674454343)
(-0.56554946672965023 1.03461588465494669 -0.954783044653015001)
(0.164368113122194209 0.366496411865858573 -0.976126582875305737)
(0.0089503279179721576 -0.111702405532150578 -0.000873616868807124245)
(0.026927823645670583 -0.113852852112599545 -0.000970290023297834319)
(0.045150755907766113 -0.117670423944234187 -0.00116732660720983883)
(0.0637420719678548631 -0.123765384434753448 -0.00144170343591823154)
(0.082711562792487564 -0.132288334096556465 -0.00181503933778454671)
(0.101909077595393693 -0.143532212215810584 -0.00231157366601387939)
(0.120888060294843114 -0.158074310564706222 -0.00298189865125469186)
(0.139243546821227027 -0.176421293219514497 -0.00394508992951018555)
(0.152891303016938346 -0.199719697397605145 -0.00526661702023518627)
(0.165807667583933033 -0.229088730058717271 -0.00768020484946293699)
(0.102840699616780079 -0.272961694404544097 -0.0182987423536768515)
(0.208326953431127282 -0.500022635421396022 0.137797748696199651)
(-0.0743034306817195178 -0.826044846059148519 -0.578061511344312939)
(-2.3732429499257286 0.438527606869363207 -0.848115857144822183)
(-1.30539623696646734 0.725598976338793333 -0.518906607168864942)
(0.114242850799293083 0.165818721872247166 -0.822943111617931655)
(0.00852638338279702868 -0.119627486862737623 -0.000805295763039520383)
(0.025601707396690529 -0.121785789206598757 -0.000902755990812709533)
(0.0428678479190562484 -0.125764673359646667 -0.00110831380534997365)
(0.0604359185288032355 -0.132022772760656742 -0.00137647485995619906)
(0.0782706513118773678 -0.14073174126067467 -0.00174040552244592072)
(0.0961499883820243345 -0.152044355790850239 -0.00221821813825615576)
(0.113604548617430856 -0.166539845414536425 -0.00285565753122372055)
(0.130114410944894898 -0.184312079609018797 -0.00375847709509336079)
(0.141567591998724152 -0.206228489876328858 -0.00491168899633910409)
(0.148737578348582478 -0.231892058871409262 -0.0078582220005377016)
(0.0937174272039283662 -0.26255633425164121 -0.0145531535762836381)
(0.111562716758776992 -0.400726920179693025 -0.0560820387758963618)
(-0.089360940704216657 -0.422994841048149772 -0.699716697452982261)
(-2.23896764177055907 0.267981599136104864 -0.957090414469365269)
(-2.80604549239110534 0.268788526507342029 -0.223893601240601647)
(-0.496812274358240102 0.102287763527610265 -0.755848643425479083)
(0.00810274664070673514 -0.12711828666689029 -0.000726145173075504538)
(0.0242400412237409393 -0.129245079571480015 -0.000822511441584760131)
(0.0405188408985727236 -0.133403634514916408 -0.00104682930894870905)
(0.0570543672902550647 -0.139757884240257285 -0.00129999502723797487)
(0.0737836934039953068 -0.148633086731454866 -0.00165668574423954778)
(0.09039162660339424 -0.159881405283221922 -0.00210965155551310094)
(0.106455610434227188 -0.174338436254260348 -0.00269786034472174838)
(0.121447166622297653 -0.191462225855878493 -0.00351931296518127705)
(0.131464260153993873 -0.212168143418338673 -0.00444610374745817161)
(0.137180939291701276 -0.234248188196518686 -0.00739540106698428033)
(0.0870625774860921964 -0.245934429120435394 -0.0104766106245020515)
(0.0333746002181983109 -0.294555021445350174 -0.0645147828690060265)
(-1.20347679598927138 -0.175559001872426901 -0.649690128707111292)
(-2.76420772791155622 0.186062355163427284 -1.17476287110927657)
(-3.1852795131417948 -0.279997020954272535 -0.103791912298492994)
(-1.32858187489734525 -0.293351696735431655 -0.61355381154320654)
(0.00767196865437181491 -0.134214966148605036 -0.000624530525360302989)
(0.0228570554293451196 -0.136407010915106763 -0.000720991160085256936)
(0.0381511421671872283 -0.140710690036627839 -0.000969237443231178285)
(0.053671262518533866 -0.147156710491312182 -0.00119485393600460635)
(0.0693694975313381978 -0.156133512345627889 -0.00153913114648327777)
(0.0847780845318579779 -0.167286682390892866 -0.00195553581317635221)
(0.0996129661591461657 -0.18164614498379586 -0.00245501436740172422)
(0.11338791217433257 -0.198182021809108155 -0.00313759081104603155)
(0.122598723367841778 -0.218014136566342942 -0.0036890440238437185)
(0.131030452307801248 -0.237792949563207956 -0.00621410924760817159)
(0.0834906927309691238 -0.247502064444105913 -0.0087598996544685382)
(0.193271038436121145 -0.358138373811524968 0.0222619032229842903)
(-0.112953668016041398 0.240519264753662865 -0.231767161576250935)
(-0.000212382881834574655 0.515545380432150036 -0.123325810766039878)
(-1.03030036500054356 -0.373280540540574135 -0.204228092485063573)
(-1.59735671950415581 -0.742861623595433951 -0.332871561034518038)
(0.00715970861425485605 -0.141971996708438131 -0.000435191721677328168)
(0.0212790014720319227 -0.143211347004943118 -0.000568887901730338419)
(0.0355856140451366945 -0.147857908095758273 -0.000908432120133535531)
(0.0500951165368013138 -0.154183396739597939 -0.00109503933722463268)
(0.0648986808386706887 -0.163587874922075355 -0.0014917528096133224)
(0.0791181025229894669 -0.174015157329499542 -0.00191376879474437506)
(0.0927971946646155427 -0.189005316640264487 -0.00233528096665921005)
(0.105547823004172633 -0.204334897956121558 -0.00292609309611637555)
(0.114015791976771988 -0.223907370345959034 -0.00272557290099247757)
(0.12208759839136718 -0.241877238344444856 -0.00404116256357353251)
(0.076768864924188468 -0.260611684665116639 0.00201082431940636467)
(0.167904325379516162 -0.35315346241149248 0.00382192853865434123)
(0.141061528060306696 -0.141171299818393881 0.0821503402254206844)
(-0.0718410140024061949 0.23359156187605834 -0.0421818294086337142)
(-0.936031953895065882 -0.030210287319207163 -0.175000038581620387)
(-1.86079423537328226 -0.791816081419013162 -0.221562573642527794)
(0.011774404280286678 -0.0052403250764757655 -0.000918108936778959579)
(0.0358153785704577871 -0.00545711935005118755 -0.00101519622871741057)
(0.0608348539761054893 -0.00566180357685855482 -0.0011765402199367355)
(0.0872170634279809814 -0.00604682404322140227 -0.00141357116081323921)
(0.115524648595460924 -0.00661119643377745814 -0.00174559537993860354)
(0.146956619615241674 -0.00744355828419724155 -0.00220511218523487384)
(0.182756568994698693 -0.00867243208233797573 -0.0028554851825353827)
(0.226005123382148732 -0.0104700311926188838 -0.00382758878369796182)
(0.275013763133540368 -0.0134505568026630547 -0.00539386193599004568)
(0.361382985410798718 -0.0189497031472206368 -0.00881379047816553164)
(0.332989778628343336 -0.0292488123589639271 -0.0200644083312681958)
(0.667975587182317754 -0.101691982405329243 -0.0448836735488390634)
(1.16894963021460074 -0.0758137487562662582 -0.125679381263870599)
(1.37355912947571657 -0.0174534093754885426 -0.197033113128572246)
(1.37326872660350685 0.0803076245638917469 -0.257579537410652093)
(1.07196379425743848 0.189594643586473988 -0.327065134903306853)
(0.0117323673110166747 -0.0157752449969635646 -0.000950823610386383852)
(0.0356420213720973003 -0.0163847917181787657 -0.00104678230955356768)
(0.0603855842687109207 -0.0169666898747915171 -0.00120959929260099509)
(0.0863633945669844694 -0.0181177222950259093 -0.0014497353554411578)
(0.114384192158673667 -0.01981806597458571 -0.00178404400672978712)
(0.145378075972466048 -0.0222955943485511413 -0.00224227815659572803)
(0.180548458450626642 -0.0259219755291557087 -0.00288624681008393513)
(0.222477753212352636 -0.0313151682414720273 -0.00384342196782466727)
(0.270494952165149682 -0.0401216101017443927 -0.00535441019171420916)
(0.350293839512751837 -0.0561625187797604591 -0.00855121135175188757)
(0.331496406280428757 -0.0813374669216764545 -0.0172546836047290479)
(0.586443262924154163 -0.245401130295790082 -0.0313889769618753353)
(0.875719033998416996 -0.17900000279977607 -0.089078582064810341)
(0.962631277209902381 -0.139456071050842845 -0.240648218687893656)
(1.01647410542336258 0.130000104338483274 -0.429529200045272064)
(0.943807155504511996 0.543442080347293688 -0.591257272584584159)
(0.0116443868817493294 -0.0263062865851202247 -0.000972760197385382159)
(0.0353075013193833026 -0.0271947915734127577 -0.0010664171840194202)
(0.0597629343098514607 -0.0281787060892904027 -0.00122952292339408627)
(0.0854398954363879415 -0.0300764499997888957 -0.00146992854306008986)
(0.113052143518830028 -0.0328841033766528804 -0.00180263570075959697)
(0.143457780917551264 -0.0369322619211375769 -0.0022550304014292968)
(0.177730242452417808 -0.042803917265641693 -0.00288289692481123652)
(0.218066418865827727 -0.0515535393681732582 -0.00380040646474301066)
(0.263138455295656826 -0.0654521879245920368 -0.00520567460631612446)
(0.334034414689525549 -0.0897371916795680485 -0.00801530613031838091)
(0.306923573016688822 -0.125445943871060922 -0.016123772055558757)
(0.533011335318279267 -0.312921284011437872 -0.0192221786814205618)
(0.648890599779328614 -0.268463724395159142 -0.0545509483138902629)
(0.66843268659012911 -0.202777879769673874 -0.23535488000495175)
(0.468209642417994121 -0.0272724754451775797 -0.412952714982327995)
(0.56382909615939758 0.652237108666922971 -0.591879822565683167)
(0.0115009122094559789 -0.0367225695799627272 -0.000984490167540272212)
(0.0348225646959591101 -0.0378392502215296883 -0.00107543447653847047)
(0.0588858338091650807 -0.0392537167825794953 -0.00123782973633718737)
(0.0841228149521543317 -0.0418576409715627346 -0.00147669944228676032)
(0.111155104323786724 -0.0457014152819550101 -0.00180489794058099565)
(0.140737980015824854 -0.0512037091661358967 -0.00224604830454508235)
(0.173761163487919035 -0.0591112806907329105 -0.0028473384680688333)
(0.212015087415938358 -0.0707496533562809449 -0.00370411719696301517)
(0.253377958633770217 -0.0886504198023114476 -0.00497994218567739642)
(0.317724309113303183 -0.118152970829899076 -0.0073170401566368462)
(0.281580769183955359 -0.159877721145735202 -0.0142162655074096964)
(0.48580514674456271 -0.348708519367301517 -0.00815808716924847077)
(0.49921178089669016 -0.355318959559710879 -0.0742961075359707124)
(0.54970739983490291 -0.164766092570333533 -0.385291378616496427)
(0.190768524988075311 0.143485824904294457 -0.466731839639980883)
(0.316874824624032547 0.810419907432411879 -0.680951757583434292)
(0.0113044490980668995 -0.0469856586366248913 -0.000985710287513574899)
(0.0341954586047098982 -0.0483114883586460986 -0.0010737116299488873)
(0.0577712757734054547 -0.050135856870140369 -0.00123465927234554405)
(0.0824420459435098452 -0.0533951204538605506 -0.00147074500227627929)
(0.10874198395412947 -0.0581870059814901877 -0.00179226752179825343)
(0.137303532060901651 -0.0649950717313327736 -0.00221804932172869592)
(0.168807976230211265 -0.0746740235812771158 -0.0027846683809744071)
(0.204639573830324356 -0.0886907529908112641 -0.00356233389687955326)
(0.242052840694488541 -0.109648424375681008 -0.00465631949759218525)
(0.299587180414127907 -0.142354267647100019 -0.00653058195107404128)
(0.257269136759620654 -0.187924769986351242 -0.0118250309541920104)
(0.439762842742867255 -0.382075359178014051 -0.0055314805255247193)
(0.452790398608139411 -0.411648345826443163 -0.121977970627328985)
(0.435216270994246313 -0.149359145550181455 -0.523145407380139926)
(0.119740623257502149 0.377891754168698357 -0.813212958688142917)
(0.200302904263790604 0.824663015868301819 -0.879268352944829967)
(0.0110621120372593751 -0.0570543694910449206 -0.000976119919448679746)
(0.0334370819879515266 -0.0585621123422422757 -0.00106115249440794719)
(0.0564349942047772807 -0.0607742272959616164 -0.00122034731443492394)
(0.0804299158342164783 -0.0646315456053999648 -0.00145305588193761969)
(0.10586829356341132 -0.0702707228037283554 -0.00176657517678359714)
(0.133250006066854804 -0.0782157707676768843 -0.0021742722599503903)
(0.163040564266330124 -0.0893750099230618822 -0.00270097966786389358)
(0.196243453305718574 -0.105262240472023955 -0.00338954035495402529)
(0.229637179003583658 -0.12839579088301592 -0.00428956474566236264)
(0.279994254383268082 -0.163032998649446981 -0.00576255872195457521)
(0.234103337467916117 -0.212644327042739278 -0.00926838798393259805)
(0.392963334833986655 -0.403863366654876432 -0.0153934590349345431)
(0.406704577425582747 -0.525159691393785932 -0.151191949227881733)
(0.190020383503939683 -0.183870855406502692 -0.624420576935291294)
(-0.194986434465646619 0.719850889885046863 -1.20656473526154162)
(0.0859497048566636029 0.714857675174007223 -0.959028393337132523)
(0.010778926806761022 -0.066889690397921503 -0.000955477908540500903)
(0.03255884177947347 -0.0685573693170493381 -0.00103781313181147347)
(0.0548967185863860757 -0.0711261000100031071 -0.00119538969656113239)
(0.0781226981503256451 -0.0755180675343382624 -0.00142461497414087153)
(0.102595190013869242 -0.0818960746107556536 -0.00172935168591874808)
(0.128680243985316023 -0.0907991114209571737 -0.00211723026292783348)
(0.156632053858535569 -0.103139822902443903 -0.00260092236971161102)
(0.187114192697619697 -0.120403039142554985 -0.00319694531053903858)
(0.216519036019949818 -0.144905287153074824 -0.00391239423015563199)
(0.259413127204580873 -0.180359202897715065 -0.00506707623580577617)
(0.208883808113129232 -0.233051927940778059 -0.007022318931501818)
(0.349085438623729261 -0.410481707132549223 -0.0375190017912360521)
(0.326648002780738467 -0.650840025522151255 -0.165294830289437367)
(-0.127173647785671418 -0.313236125350585426 -0.705818003399955596)
(-0.479278042063519039 0.65194189060626595 -1.16150966523484667)
(0.0426167154775180801 0.539325800469988459 -0.99620062630551931)
(0.0104593011940825025 -0.0764577304743628977 -0.000923505411249548333)
(0.0315728711364220635 -0.0782654151921748364 -0.00100371397717190702)
(0.0531784825781488751 -0.0811549997140099677 -0.00116016729053324431)
(0.075558826518645747 -0.0860151525638459535 -0.00138606973256135226)
(0.0989863126227367995 -0.0930204986152114166 -0.00168149538442993718)
(0.123698735747300254 -0.102701072973352125 -0.00204833012481369942)
(0.149752071161833922 -0.115931296226789299 -0.00248683839011300343)
(0.177521048053809472 -0.134106453789011731 -0.00298956444615911584)
(0.203107735068695838 -0.159277831869118869 -0.00353778310356342831)
(0.238544677932828963 -0.194499248026924643 -0.00446353163627513389)
(0.182816573876202343 -0.24920151795624873 -0.00454815379134866637)
(0.318042121219688501 -0.38180223310652972 -0.0546545918570049277)
(0.248904401521761687 -0.792576523351595119 -0.168003760169271876)
(-0.861213366254736767 -0.424947815140414131 -0.802121138614618312)
(-0.416771618342013983 0.802567976025060248 -1.49821837047810336)
(0.163949141629946477 0.239228018226232408 -0.97134097325374591)
(0.0101074456158061106 -0.085728774164895355 -0.000879466880171096027)
(0.0304917721071680664 -0.0876574282240937808 -0.000958568320198186462)
(0.0513033346282958241 -0.0908305004276267342 -0.00111479289852342762)
(0.0727773138605967013 -0.0960921936517360881 -0.00133775107175519801)
(0.0951050066486583412 -0.103614491342693418 -0.00162355682843513859)
(0.118406844226965277 -0.11389905439509182 -0.00196840244497686629)
(0.142559644865309393 -0.127745703963207308 -0.00235929313473515027)
(0.167695202436455859 -0.146411151168267278 -0.00276711041196475629)
(0.189739086114503491 -0.17167884349316348 -0.00316612998907507158)
(0.21776643396973816 -0.205887652498345647 -0.0038298517994936037)
(0.159198137421520614 -0.261959581801221864 -0.00319558430544906276)
(0.29792364368425206 -0.366905634021446048 -0.0650469565207917877)
(0.252493953501919943 -1.74854695676668093 -0.113318519101587134)
(-1.95745402964909143 -0.750774066407472018 -0.651126960798262933)
(1.35311552248384248 1.40598504217858888 -2.01809882045385658)
(0.0401553968184580751 -0.0118889884940898416 -0.890226208114859308)
(0.00972756047358509443 -0.0946766150407020168 -0.000822195503393974574)
(0.0293281634453756539 -0.0967080332464415882 -0.000901698803056141373)
(0.0492941217945282797 -0.100128089565868814 -0.00105927188677171864)
(0.0698163555693807059 -0.105726918179367954 -0.0012799973840481101)
(0.0910116459052488919 -0.113660608972408678 -0.00155622062126502345)
(0.112898576112559296 -0.124390652174176011 -0.0018782424335940886)
(0.135200075325773161 -0.138609375554231584 -0.00221781238697278324)
(0.157836836560318827 -0.157388490834376449 -0.00252359978228025366)
(0.176656313915991653 -0.182217738637130533 -0.00277492086764417759)
(0.196971587265465653 -0.214809493766279447 -0.00317132516715127677)
(0.138698159973375978 -0.270869647924770196 -0.00244454496562013408)
(0.260633016174434295 -0.421610722991618947 -0.0913229386819870842)
(0.132055268699737605 -2.24810921835066235 -0.0187418287143751826)
(-2.1317358453787687 -0.750490390876651259 -0.537050571140212263)
(0.838963383175386657 1.32415515889620417 -1.58144230256445528)
(-0.0246167700933098907 0.145353873339343631 -0.941290550669305559)
(0.00932370165452775339 -0.103278493451075856 -0.000750950364218614264)
(0.028093989556467306 -0.105396955813351928 -0.00083254036003059073)
(0.047172509917681911 -0.109030471742617735 -0.000993829731949598697)
(0.0667121595037880738 -0.114906642419525834 -0.0012134351999326103)
(0.0867611333395789802 -0.12315352235312807 -0.00148051295332176768)
(0.10725688311126888 -0.134193134450044382 -0.00177888420861354668)
(0.127802917775990399 -0.148575759101877147 -0.00206218287182445559)