/*--------------------------------*- C++ -*----------------------------------*\
| =========                 |                                                 |
| \\      /  F ield         | OpenFOAM: The Open Source CFD Toolbox           |
|  \\    /   O peration     | Version:  2206                                  |
|   \\  /    A nd           | Website:  www.openfoam.com                      |
|    \\/     M anipulation  |                                                 |
\*---------------------------------------------------------------------------*/
FoamFile
{
    version     2.0;
    format      ascii;
    arch        "LSB;label=32;scalar=64";
    class       surfaceScalarField;
    location    "0.119999999999999996";
    object      phi;
}
// * * * * * * * * * * * * * * * * * * * * * * * * * * * * * * * * * * * * * //

dimensions      [0 3 -1 0 0 0 0];

oriented        oriented;

internalField   nonuniform List<scalar> 
20856
(
3.33870545664868853e-05
7.58710992801515699e-05
-2.95782455884749108e-05
3.24536794815715832e-05
6.66353812710086764e-05
2.3501169825545815e-05
-2.48597863201782275e-05
3.0775450487432401e-05
5.85458862002684785e-05
1.9593281611281068e-05
-2.06582902872937494e-05
2.86389876188203628e-05
5.16905204655904947e-05
1.62085612607479045e-05
-1.70290055326605308e-05
2.62492683363833314e-05
4.59902427360261764e-05
1.33390212181561372e-05
-1.39636684489163615e-05
2.37411906259570718e-05
4.13008809978746157e-05
1.09446877934909222e-05
-1.1417111614241442e-05
2.11982500478260957e-05
3.74675686500033862e-05
8.97098099618220976e-06
-9.32760254017549989e-06
1.86690907941363934e-05
3.43473837549851206e-05
7.36032863000882307e-06
-7.63012253308136801e-06
1.61794635105833785e-05
3.18181706114043303e-05
6.05830260662725798e-06
-6.2636215996780369e-06
1.3740492333203642e-05
2.97800445952606536e-05
5.0165510729214947e-06
-5.17435173710776939e-06
1.13541599109233533e-05
2.81535953049831478e-05
4.19388659199831382e-06
-4.31693493598976849e-06
9.01681824905425694e-06
2.68770388311417597e-05
3.55637808193906134e-06
-3.65428950071367812e-06
6.7214083896215159e-06
2.59033152490216938e-05
3.07696578109707273e-06
-3.15705950000824657e-06
4.45884882825360852e-06
2.51976116601505409e-05
2.73490169821345895e-06
-2.80288036966929889e-06
2.21887069974759018e-06
2.47355065201862267e-05
2.5152219085663431e-06
-2.57570693386602408e-06
2.4432861791816236e-05
2.40250115197958928e-06
-2.45926762502979575e-06
3.11222662834159693e-05
7.69878036984826298e-05
2.57217636906489951e-05
-2.71984705508848909e-05
3.04648112732575317e-05
6.84837344590497456e-05
2.18161227090531432e-05
-2.30057389238897214e-05
2.90865257765580291e-05
6.08665963591642568e-05
1.83052093138914368e-05
-1.92462508846949549e-05
2.72344381684527036e-05
5.4277078906440737e-05
1.52346687954605238e-05
-1.59677458047656705e-05
2.50954938664874997e-05
4.86948614621152367e-05
1.26071852703444996e-05
-1.31715725099246944e-05
2.28002033691931274e-05
4.40287034076489061e-05
1.03957947198585057e-05
-1.08272769669221311e-05
2.04344740194213011e-05
4.0163038731676708e-05
8.55886676981669939e-06
-8.88787893009501219e-06
1.80519479639960857e-05
3.69814984291223472e-05
7.04987188093988692e-06
-7.30106375242417047e-06
1.56838862164570936e-05
3.43790823822354437e-05
5.82311674855926067e-06
-6.01585290428828652e-06
1.33465320622837091e-05
3.22665232681033459e-05
4.83690967367113984e-06
-4.98612482066486097e-06
1.10462906275132295e-05
3.05707247795024129e-05
4.05502321836860278e-06
-4.17212885252884448e-06
8.78322038644610099e-06
2.92335310065631521e-05
3.4471554583151655e-06
-3.54086442491615461e-06
6.55334122343476903e-06
2.82098987678933548e-05
2.98885736454049788e-06
-3.06588499336760577e-06
4.35014596316808781e-06
2.74660977886210364e-05
2.6612174090204194e-06
-2.72685264261138377e-06
2.16556852381450045e-06
2.69782914704615884e-05
2.450509963198018e-06
-2.50907638029198466e-06
2.66531777085674495e-05
2.34218442956455164e-06
-2.39723162855924467e-06
2.90406114686468273e-05
7.78042987634218551e-05
2.37217259420565849e-05
-2.50163517157941461e-05
2.85969786668042454e-05
6.99747929942591025e-05
2.02306374755886985e-05
-2.12768709656953081e-05
2.74670659884309363e-05
6.28316211669382752e-05
1.70709811129928071e-05
-1.79047311466932041e-05
2.58618023797307579e-05
5.65391291885874488e-05
1.42863469276835975e-05
-1.49417187838135477e-05
2.39491653786988917e-05
5.1118342704363498e-05
1.1884184083359538e-05
-1.2393692904491574e-05
2.18521583728503668e-05
4.65202107304731936e-05
9.84662307064304701e-06
-1.02400073561851803e-05
1.9656008436841977e-05
4.26627925519769473e-05
8.14203814353377996e-06
-8.44483976345869074e-06
1.74169318326452497e-05
3.94542561950578835e-05
6.73292435686217217e-06
-6.96613781608841336e-06
1.51700076657884384e-05
3.680656371209595e-05
5.58108378911957329e-06
-5.76146442052973686e-06
1.29354897272310094e-05
3.46416678435964876e-05
4.65075560492917132e-06
-4.79142008505069608e-06
1.07235036705994722e-05
3.28936481091703607e-05
3.91025788703523729e-06
-4.02136982901470945e-06
8.53738888495047484e-06
3.15088156071097197e-05
3.33269163323025226e-06
-3.42211500004850282e-06
6.37600379558908254e-06
3.04448556983394583e-05
2.89610178132719665e-06
-2.96997205352760591e-06
4.23528441955633573e-06
2.96696907329463075e-05
2.58335690563622547e-06
-2.64655714587939307e-06
2.1092720509957604e-06
2.91605149649023402e-05
2.38194392099894416e-06
-2.43850111737192894e-06
2.88153967900378868e-05
2.27819030256574964e-06
-2.33143032610280135e-06
2.71302354305196529e-05
7.83898799596889075e-05
2.18752621718431371e-05
-2.30159217615856003e-05
2.68507576060079259e-05
7.11797719688922297e-05
1.87438347516308621e-05
-1.96683222270090646e-05
2.59241863163681203e-05
6.45000927062675038e-05
1.58964080368215905e-05
-1.66370716244082274e-05
2.45314167475234259e-05
5.85197111202146884e-05
1.33709891830440769e-05
-1.3957469385815857e-05
2.28212167214069783e-05
5.32897167207846477e-05
1.11770426776743098e-05
-1.16369274400207184e-05
2.09071030109548567e-05
4.87936854615190463e-05
9.30313819988801165e-06
-9.66139388730474202e-06
1.88714188854630213e-05
4.49774869144508026e-05
7.72523474977692394e-06
-8.0034217280702897e-06
1.67710341933992234e-05
4.17711991347424858e-05
6.41311404016286724e-06
-6.62915956143345486e-06
1.46433755553323687e-05
3.91028601039100974e-05
5.33492614556042138e-06
-5.50332717107172324e-06
1.25116675719141563e-05
3.69056638063872719e-05
4.46011367879370009e-06
-4.59237257380295737e-06
1.03890610139190097e-05
3.51212942668947036e-05
3.76109605257106871e-06
-3.86624369898872827e-06
8.28172685082289128e-06
3.37010702344375909e-05
3.21411574420599693e-06
-3.2992281149451628e-06
6.19108320359174829e-06
3.26059181858797149e-05
2.79956305405624158e-06
-2.87022558953211926e-06
4.11534308387152905e-06
3.18058569147460955e-05
2.50200457626086244e-06
-2.56270905244482555e-06
2.05055622137446883e-06
3.12794839905767522e-05
2.31009606553743747e-06
-2.36458051432144014e-06
3.09170627609782879e-05
2.21104129541252587e-06
-2.26240998442638446e-06
2.0824015599252107e-05
9.76193080201496577e-05
2.9446155750681167e-05
-3.13053910420105664e-05
2.32856085418004858e-05
9.20008182281774735e-05
2.63002732497633404e-05
-2.78115190239163835e-05
2.47769176343614596e-05
8.55490499171750792e-05
2.31792125770655656e-05
-2.44144655281928043e-05
2.53767963712043487e-05
7.87996341253829565e-05
2.01718294622053624e-05
-2.11810027320520446e-05
2.52202025045838913e-05
7.21567370321847458e-05
1.73550290767710633e-05
-1.81745434009256894e-05
2.44601469302611568e-05
6.59206394037076802e-05
1.47849570781535419e-05
-1.54443378486529808e-05
2.32499875749364815e-05
6.02565094093763625e-05
1.24936294072043481e-05
-1.30190309961688378e-05
2.17198035501584396e-05
5.52362385205555585e-05
1.04910850769743487e-05
-1.0906197891282615e-05
1.99730880436272764e-05
5.08674713928392453e-05
8.77014985488587778e-06
-9.0961455446678288e-06
1.80879147960305101e-05
4.71186835954983822e-05
7.31245362376442678e-06
-7.56764990747663313e-06
1.6120356514488441e-05
4.39390578637573111e-05
6.09361333543380895e-06
-6.29336690855577091e-06
1.41089661392392131e-05
4.12714077829117452e-05
5.08709465250118055e-06
-5.24395915590284338e-06
1.20790086547025454e-05
3.90597733728809062e-05
4.26684955849538208e-06
-4.39090471820888609e-06
1.00460006074581807e-05
3.72535205116866536e-05
3.60895184992144417e-06
-3.7082077478584219e-06
8.01849601005174196e-06
3.58092564796825804e-05
3.09250683641961023e-06
-3.17331383384056613e-06
6.00017791101365563e-06
3.46914794721040799e-05
2.70008071617549562e-06
-2.7675075801960815e-06
3.99135790825741819e-06
3.38726170811071094e-05
2.41783748135815419e-06
-2.47600241242557683e-06
1.99013040876321818e-06
3.33328197400648485e-05
2.23554380491382584e-06
-2.2879052048703691e-06
3.29564172905827179e-05
2.14126037129429574e-06
-2.19070434328806937e-06
1.94819002576590206e-05
9.61770436621476796e-05
2.70148041126611674e-05
-2.86709824991322716e-05
2.1739301291774688e-05
9.10864024690204741e-05
2.4142087816327415e-05
-2.54856386952696774e-05
2.31443079361928453e-05
8.52400952578228195e-05
2.13155592193451423e-05
-2.24117460329504017e-05
2.37636654967983982e-05
7.90759930416375925e-05
1.86022102081676068e-05
-1.94975685457474041e-05
2.36986999548237627e-05
7.29508106398367895e-05
1.6061460932884435e-05
-1.67898327083509675e-05
2.30754553338742075e-05
6.71331382842551227e-05
1.37376627610779123e-05
-1.43259191710452795e-05
2.20216735068639692e-05
6.17827242668545515e-05
1.16573667989139659e-05
-1.21286593975650976e-05
2.06507791487343995e-05
5.69831306301027361e-05
9.83009310964830336e-06
-1.02049409250165388e-05
1.90563852369911569e-05
5.27594193637809865e-05
8.25132804807985338e-06
-8.54785198024278232e-06
1.73114255629576802e-05
4.90983257526354881e-05
6.9069054081794304e-06
-7.14076964908326144e-06
1.54701182184960438e-05
4.59653473622162321e-05
5.77707207671538376e-06
-5.96148209276734944e-06
1.35711656532537647e-05
4.33165509725395414e-05
4.83970161170699429e-06
-4.98554805018452399e-06
1.16410741537809474e-05
4.11061460990470271e-05
4.07261477393376054e-06
-4.18873293549198549e-06
9.69712067713017649e-06
3.92909944415816034e-05
3.45510667011334743e-06
-3.54859455157942774e-06
7.74980739807944645e-06
3.78330580256815651e-05
2.96886196009618031e-06
-3.04540836752693672e-06
5.80478344189487618e-06
3.67005742456403216e-05
2.59844232933763929e-06
-2.6626358013940142e-06
3.86422046957759073e-06
3.58686152753961458e-05
2.33149761309369811e-06
-2.38710270352313829e-06
1.92686079758971632e-06
3.53201828725508704e-05
2.15883842285478268e-06
-2.2090444577612507e-06
3.49305799661648683e-05
2.06934601698838187e-06
-2.11682717398447548e-06
1.19933946277284817e-05
3.00675400517522451e-05
-3.23448789441828922e-05
0.000100671551150942836
1.54809697539934201e-05
2.74494711320438266e-05
-2.92789220270655101e-05
9.84133080680976512e-05
1.82832034845169502e-05
2.48058791163884002e-05
-2.62801019872327552e-05
9.4848290356425749e-05
2.0347369186301376e-05
2.2176603306035059e-05
-2.33717160515439155e-05
9.02168974399122925e-05
2.16644041062946183e-05
1.96095489279552839e-05
-2.05838786569087902e-05
8.48973238507602927e-05
2.22854911830538969e-05
1.71547389024191485e-05
-1.79506784006409163e-05
7.9251165557758926e-05
2.22879481868711706e-05
1.48578411731078955e-05
-1.55063853311832655e-05
7.35975302988976831e-05
2.17748981580463039e-05
1.27536291889930663e-05
-1.32791915726546203e-05
6.81726085608474368e-05
2.08533965002749127e-05
1.08637631796431856e-05
-1.12869025890141965e-05
6.31283500614596605e-05
1.96220878626204617e-05
9.19669400274300758e-06
-9.53527408365189869e-06
5.85540190048077191e-05
1.81648887600368292e-05
7.74955528353707563e-06
-8.01917933029848213e-06
5.4487150092747945e-05
1.65491497422400583e-05
6.51130073724438367e-06
-6.72542885061065174e-06
5.09289331478719997e-05
1.48265220413441267e-05
5.46584426299218314e-06
-5.63586808874780301e-06
4.78585429496617334e-05
1.30351029591770758e-05
4.59470045913113034e-06
-4.73008347856987046e-06
4.5243712383519769e-05
1.12019667821210118e-05
3.87898904202226627e-06
-3.98747867023790642e-06
4.30479795160401604e-05
9.34560156346993535e-06
3.3008225519035872e-06
-3.38870449859539837e-06
4.12353338436569162e-05
7.47803572334234817e-06
2.84418905568920066e-06
-2.916551889493481e-06
3.9772992865038291e-05
5.60659049901930746e-06
2.49546303251203292e-06
-2.55645148681728133e-06
3.86329488355227778e-05
3.73534108947153469e-06
2.24366286488907731e-06
-2.2967089307664517e-06
3.77928024315662484e-05
1.86656202037062639e-06
2.08057090925187485e-06
-2.12860688036715978e-06
3.72368555148661643e-05
1.99587992456949608e-06
-2.04137897046493067e-06
3.68425140863509195e-05
2.85255607355405219e-05
5.98739343421963191e-05
2.130432424626842e-05
2.7369152265902237e-05
5.33842119089680231e-05
1.783489935825877e-05
2.57493631375301206e-05
4.77911269418138487e-05
1.4814971156193428e-05
2.38370561723124127e-05
4.3061382475408956e-05
1.22406576788887506e-05
2.17524430504340048e-05
3.91048408196256595e-05
1.00805427272065481e-05
1.95754309883183014e-05
3.58191950854842156e-05
8.29034813854903573e-06
1.73574707501584454e-05
3.31059685891296602e-05
6.82225367922439522e-06
1.51302925140519777e-05
3.08780419957721262e-05
5.63025120103730801e-06
1.29121867188698013e-05
2.90622176600012971e-05
4.67288175534233151e-06
1.07124293718670645e-05
2.75989537596213046e-05
3.91439704450634447e-06
8.5342956887826019e-06
2.64410074910761524e-05
3.32504229341005662e-06
6.37710047657065788e-06
2.5551785954143005e-05
2.88088408654493346e-06
4.23757953021095944e-06
2.49038368706861513e-05
2.56344533032144159e-06
2.11081409163220268e-06
2.44776866029058337e-05
2.35932734472203046e-06
2.4192640496784199e-05
2.25456163912639622e-06
2.72046233530112942e-05
6.89465556180574631e-05
2.33152971965763184e-05
2.69356019278866969e-05
6.2116125611873997e-05
1.9844442297315965e-05
2.59983754700937176e-05
5.59173426493377704e-05
1.671085284545432e-05
2.45896156704497392e-05
5.04776185008852713e-05
1.39584158315899673e-05
2.2868280100743115e-05
4.57996289703545181e-05
1.15915807993575873e-05
2.09497739602176707e-05
4.18304174535166645e-05
9.58975282549185376e-06
1.89143884467739488e-05
3.84950601812974623e-05
7.91907979541224479e-06
1.68163251502915583e-05
3.57136108504496787e-05
6.54065689389223076e-06
1.46907394231144614e-05
3.34112071549676681e-05
5.41563068158239115e-06
1.2559314307739689e-05
3.15223828935650129e-05
4.50807149943675066e-06
1.04343974761885412e-05
2.99922737463805137e-05
3.78640321220238039e-06
8.32193726101892892e-06
2.87763762558379827e-05
3.22396218948905811e-06
6.22353926286124035e-06
2.78396523779785449e-05
2.79906472772426491e-06
4.13790557140307482e-06
2.71555058342987909e-05
2.494831961474654e-06
2.06183688822872545e-06
2.67049458932963678e-05
2.29895088066449739e-06
2.63981434300914193e-05
2.1982244284331291e-06
2.5536344990351249e-05
7.03783902239413315e-05
2.15722604096094741e-05
2.54220465359202842e-05
6.40060956485896855e-05
1.84564086168136987e-05
2.46669808045983023e-05
5.81202539785388895e-05
1.56246560762287497e-05
2.34442741801891739e-05
5.28698057166695896e-05
1.3118357833063543e-05
2.1897560066947159e-05
4.82852530199110355e-05
1.09466205269262293e-05
2.01354488782740651e-05
4.43437527788940959e-05
9.09648595362490728e-06
1.82367995407840908e-05
4.09942670189262376e-05
7.54224172106909715e-06
1.62569189284924508e-05
3.81744567227560138e-05
6.25239405141563417e-06
1.42332123855758967e-05
3.58218526277978138e-05
5.19430664076277257e-06
1.21899740159256686e-05
3.38793201677462023e-05
4.33702124252986815e-06
1.01421160524663044e-05
3.22974120318387823e-05
3.65281513478964482e-06
8.09794658513579961e-06
3.10350556350123477e-05
3.11794190183934749e-06
6.06118382571773736e-06
3.0059350321997141e-05
2.71287784552746679e-06
4.03239807523663944e-06
2.93450270209172329e-05
2.42229885934499808e-06
2.01003049997937085e-06
2.88739529804500186e-05
2.23495828870962565e-06
2.85476509271157731e-05
2.13843718184771081e-06
2.39857179795568418e-05
7.15407927094968764e-05
1.99485042006764249e-05
2.39895994912414965e-05
6.56027230675572718e-05
1.71446153188166008e-05
2.33847633731485087e-05
6.00394657010532674e-05
1.45834460163489853e-05
2.23238159651720805e-05
5.50008525958830765e-05
1.23023160566052446e-05
2.09348200723391713e-05
5.05401171331289076e-05
1.0312491044342309e-05
1.93183039879061435e-05
4.66582409336208185e-05
8.6062565774857103e-06
1.75501254125278152e-05
4.33243206634864261e-05
7.16415354643437437e-06
1.56853385539616898e-05
4.04920925767029746e-05
5.96075525106714107e-06
1.37625601209132416e-05
3.81110421569277102e-05
4.9687460203687787e-06
1.18079484903024877e-05
3.61325159214425973e-05
4.1615684835852119e-06
9.83847138410137573e-06
3.45128919878008326e-05
3.51500303488830591e-06
7.86446227628091233e-06
3.32149934985424377e-05
3.00801276424068353e-06
5.89154292649256524e-06
3.22084862146648033e-05
2.62311522367540309e-06
3.92202591449365893e-06
3.14698007022663512e-05
2.3464756005324465e-06
1.95591464314181497e-06
3.09819811064195971e-05
2.16787868047264373e-06
3.06386815278391012e-05
2.07568404912713788e-06
1.76742250554412771e-05
8.78150407996424853e-05
2.66171422478747133e-05
2.01571146380047303e-05
8.33005338155314566e-05
2.38797784383581014e-05
2.17593976847540576e-05
7.80412296804752618e-05
2.11225766455152314e-05
2.25478195142850357e-05
7.24852638915529049e-05
1.8439791322795323e-05
2.26375963730724706e-05
6.69583569562528098e-05
1.59107680901999314e-05
2.21562083952279296e-05
6.17152923303685043e-05
1.35918208023125847e-05
2.12352882119672645e-05
5.6900964330997712e-05
1.15157827606977841e-05
1.99877193175795066e-05
5.25855730773967678e-05
9.69446335655507398e-06
1.850559553908257e-05
4.87879678349397198e-05
8.12361965544418097e-06
1.68607525968208901e-05
4.54939018953207618e-05
6.78852584844987704e-06
1.51069604740382773e-05
4.26713763071113518e-05
5.66865782000653435e-06
1.3283170270577087e-05
4.02810302005966107e-05
4.74119365684430411e-06
1.14167258902480536e-05
3.82825032654866951e-05
3.98342055646722367e-06
9.5261632560613117e-06
3.66381289487391348e-05
3.37426230864888494e-06
7.62350462371841468e-06
3.53148885247497486e-05
2.89516540155647777e-06
5.71605137211402461e-06
3.42853005198028442e-05
2.53054985113269221e-06
3.80772373571123599e-06
3.35277606707400934e-05
2.26798746262466073e-06
1.90014934475945787e-06
3.30266018548868901e-05
2.0982469748952842e-06
3.2669437388647194e-05
2.01045109051124314e-06
1.66025210060843222e-05
8.72817602383319565e-05
2.44720136544058756e-05
1.89042546616829671e-05
8.31732606762722597e-05
2.19675421108235894e-05
2.04207662291119968e-05
7.83742626600778431e-05
1.94663617513657195e-05
2.12117477596828651e-05
7.32560089777119705e-05
1.7041253894953962e-05
2.13634400698694733e-05
6.81146319904060043e-05
1.47545284349231333e-05
2.09838121900958538e-05
6.31815458882501477e-05
1.26522324042586898e-05
2.01835461679594675e-05
5.85974041679475718e-05
1.07624459892756833e-05
1.90620521248387146e-05
5.44419192734511733e-05
9.0964384203322638e-06
1.77031616183849956e-05
5.07470659461664833e-05
7.65215903392252997e-06
1.61740574620428801e-05
4.75123146724116646e-05
6.41841071284835276e-06
1.45264670940705443e-05
4.4718027064145617e-05
5.37858533004325584e-06
1.27989658601153862e-05
4.23349758943342337e-05
4.51361565318204623e-06
1.10194937435475331e-05
4.03306670617683595e-05
3.80411044841225551e-06
9.20770207379185061e-06
3.86733051723292206e-05
3.23178157039517981e-06
7.37697238205857638e-06
3.73341196865678384e-05
2.78032507234687585e-06
5.5360571089341834e-06
3.62886371311600209e-05
2.43591359977722826e-06
3.69029162538556988e-06
3.55174299260911189e-05
2.18743213667992109e-06
1.84155958445953825e-06
3.50073961412394595e-05
2.02657738098211766e-06
3.46369747902369583e-05
1.9432054632355839e-06
9.37075588023882451e-06
2.69610309962499476e-05
9.11742279551418418e-05
1.28304701891288705e-05
2.47796657375036795e-05
8.95419475551437801e-05
1.56452089798950447e-05
2.25167408686341748e-05
8.6755885965242229e-05
1.77706325492002487e-05
2.02197250898011293e-05
8.30047967035673967e-05
1.91990670862547138e-05
1.79438860456064065e-05
7.86119023409107687e-05
1.99776543539072596e-05
1.57454283212790141e-05
7.38874085072925742e-05
2.0172807339173839e-05
1.36735189643603695e-05
6.9104659716416703e-05
1.9874448114335379e-05
1.17654341453642849e-05
6.4469071862766357e-05
1.91763444456559413e-05
1.00446424063497588e-05
6.01156389716233773e-05
1.81658371938846822e-05
8.52134293013050208e-06
5.612874478122522e-05
1.69185792460833493e-05
7.19480908312640118e-06
5.25499211167688117e-05
1.5496771443849914e-05
6.05645624203656285e-06
4.9389656079318129e-05
1.39495791213531181e-05
5.09278938202460672e-06
4.66387896640819838e-05
1.2314644131428552e-05
4.28785963128702289e-06
4.42771078030526071e-05
1.06199977454697193e-05
3.62512374824565098e-06
4.22794017662019245e-05
8.88598845189501637e-06
3.08874470705131266e-06
4.06195086273116197e-05
7.12703136324856951e-06
2.66443681727169291e-06
3.92728599833270698e-05
5.35310397632642412e-06
2.33997122879891456e-06
3.82180190585034181e-05
3.57104599770686009e-06
2.10544640510346241e-06
3.74376146922983106e-05
1.78589747120610594e-06
1.95342596806751528e-06
3.69195645016985019e-05
1.87449617630901997e-06
3.6544162167135529e-05
2.50449519288592616e-05
5.40342191121498969e-05
1.84654043139454016e-05
2.43351642618156362e-05
4.88898072836287383e-05
1.55280325967557299e-05
2.31605551019040775e-05
4.43668374337845438e-05
1.29546806580704119e-05
2.1663468059907116e-05
4.04668386282427183e-05
1.0746737760823043e-05
1.99505266520338495e-05
3.71431373671974306e-05
8.88247112147008702e-06
1.80975743016174989e-05
3.43353379847758435e-05
7.32873605649695524e-06
1.61575839652642076e-05
3.19806560216037955e-05
6.04817306973122448e-06
1.41667046823923669e-05
3.00205528126182533e-05
5.00389944585979018e-06
1.21488965413579272e-05
2.84039186471968484e-05
4.16205368287017796e-06
1.01194293855215752e-05
2.70878882778165398e-05
3.49300778353597303e-06
8.08742361888408193e-06
2.60375823359300417e-05
2.97181450734012891e-06
6.05768777835355998e-06
2.52254106291631422e-05
2.57822150309387064e-06
4.0320557650839514e-06
2.46303162922236604e-05
2.29647919637266769e-06
2.01035908183428591e-06
2.42371585803678875e-05
2.11510087338322266e-06
2.39682798181620814e-05
2.02203437400766972e-06
2.37285454400465601e-05
6.19603881073695892e-05
2.01990871019963657e-05
2.37914975605209452e-05
5.65576511026059882e-05
1.72596665482392702e-05
2.32333548188597922e-05
5.15695292401050084e-05
1.45908282645138298e-05
2.22097914654104902e-05
4.7116249641294413e-05
1.22339655075560699e-05
2.08542705758082872e-05
4.3219523211099067e-05
1.01955905647952152e-05
1.92683774419535556e-05
3.98574568723757415e-05
8.4622101739167137e-06
1.75269278900502104e-05
3.69880197898787665e-05
7.00841876917296783e-06
1.56839197354249175e-05
3.45610101837881626e-05
5.80359606480039354e-06
1.37773031897690354e-05
3.25264570295664068e-05
4.81640168438720664e-06
1.18330648796042865e-05
3.08387914275032093e-05
4.01733802509609486e-06
9.86845574887961368e-06
2.94585775753493113e-05
3.38012469274223532e-06
7.89441852963493584e-06
2.83529927903883906e-05
2.88233035013329302e-06
5.91739280892660623e-06
2.74956472243920924e-05
2.50555670820849236e-06
3.94066118946535731e-06
2.68661699621768703e-05
2.23538557526494481e-06
1.96535507544143423e-06
2.64498295123897875e-05
2.06124238744798427e-06
2.61598652791052582e-05
1.9717257399516703e-06
2.24141272887127352e-05
6.38657975135517521e-05
1.87538733790148801e-05
2.25803892361317197e-05
5.87488227634484772e-05
1.61006008805954111e-05
2.21492602083195156e-05
5.39493612529342792e-05
1.3677523427929724e-05
2.12608461396427027e-05
4.96023515418584797e-05
1.15221123883298565e-05
2.00364117947671183e-05
4.57469659574770635e-05
9.64484675190992286e-06
1.85714188150961788e-05
4.23819123555177607e-05
8.03797850153007131e-06
1.69386190699836301e-05
3.94815164579301366e-05
6.6821911132697152e-06
1.51919595844700121e-05
3.70078502964991246e-05
5.55257203176722876e-06
1.33704035080898553e-05
3.49197892768370662e-05
4.62265733744918279e-06
1.15014266083535614e-05
3.31778400362346825e-05
3.8669110574757267e-06
9.603901700301583e-06
3.17466010850046772e-05
3.26216924107696691e-06
7.69036672174111145e-06
3.05958619459852907e-05
2.7883898702256328e-06
5.7687616071722432e-06
2.97009006279277996e-05
2.42896335425895598e-06
3.84374448367004524e-06
2.90424130127957918e-05
2.1707715588376584e-06
1.91768056979792579e-06
2.86063868606655964e-05
2.00413897370948902e-06
2.82974070246347677e-05
1.91832125251238413e-06
2.11747267946570073e-05
6.54867669733811436e-05
1.73938090997914391e-05
2.14190856128216003e-05
6.06541725651843565e-05
1.49964181007861636e-05
2.10932358540900622e-05
5.60645143257591441e-05
1.27956400416089428e-05
2.03234403615633814e-05
5.18496047113224364e-05
1.08262636087646566e-05
1.92186173407783249e-05
4.80648922496021097e-05
9.10061546039807364e-06
1.78672812633543871e-05
4.47258173563721967e-05
7.61466389585490963e-06
1.63390657406021919e-05
4.18207348958433061e-05
6.35384203445858688e-06
1.46869542546149726e-05
3.93231598671845702e-05
5.29797790300306703e-06
1.2950214539572322e-05
3.72006485202248228e-05
4.42482461370120415e-06
1.11572892431899394e-05
3.54199839845921786e-05
3.71238409745171466e-06
9.32830888316740362e-06
3.39501593219769627e-05
3.14034613706072696e-06
7.47716294991031258e-06
3.27639613966917398e-05
2.69090188314197298e-06
5.61313741968601706e-06
3.18386863271540336e-05
2.34914092477600235e-06
3.74217133026017878e-06
3.11564033968872691e-05
2.10319493996661324e-06
1.86780192108810034e-06
3.0704089566577431e-05
1.94425999326864772e-06
3.03784172224375878e-05
1.86225109073866967e-06
1.4937800724303746e-05
7.91813122163005558e-05
2.30365342077428891e-05
1.73977079349961705e-05
7.56090578945545753e-05
2.07438683643601624e-05
1.9071693732108801e-05
7.13839399498363664e-05
1.8409106482376413e-05
2.00112238216596742e-05
6.68678129904575023e-05
1.61204624884289946e-05
2.03098264556897473e-05
6.23175845482062734e-05
1.3950147229558867e-05
2.00706609573420629e-05
5.79467416384673919e-05
1.19501676437195265e-05
1.94044055310061443e-05
5.38810994201698317e-05
1.01518885785064156e-05
1.84078372272534151e-05
5.01893157973105599e-05
8.56780479915911989e-06
1.71623737593150484e-05
4.68995078233169663e-05
7.19636947169306284e-06
1.57338527124548726e-05
4.4011838579197858e-05
6.02666525401665499e-06
1.4173598780367245e-05
4.15101612140618219e-05
5.04238558209699268e-06
1.2520579053778985e-05
3.93702515254125695e-05
4.22487745070041168e-06
1.08037232008829394e-05
3.75651097141750656e-05
3.55525870683504955e-06
9.04406792918266813e-06
3.60682717263436023e-05
3.01579716259947705e-06
7.25660678679132947e-06
3.48557525278437883e-05
2.59074213067955481e-06
5.45180517583285602e-06
3.39071055140506141e-05
2.26677432244526306e-06
3.6367840188943265e-06
3.32059944693290473e-05
2.03321069422382921e-06
1.81633462292710244e-06
3.27404641950112884e-05
1.88208149246334305e-06
3.2401063423907853e-05
1.80394881364347943e-06
1.40965734891256782e-05
7.94189618424994911e-05
2.12316226253871546e-05
1.63992170256663827e-05
7.61449197856489798e-05
1.9129585278136224e-05
1.7989575233172117e-05
7.22544138106318685e-05
1.70064048933655457e-05
1.89174966865176411e-05
6.8050661097096568e-05
1.49316549353253786e-05
1.92528350236515032e-05
6.3774952789220408e-05
1.29631057527741467e-05
1.90853063508933745e-05
5.96233669105782155e-05
1.11444490203238494e-05
1.85088618557249164e-05
5.57184157248433957e-05
9.5028430198530386e-06
1.7609581925009604e-05
5.21360435506185458e-05
8.05013779449521093e-06
1.64620185937370704e-05
4.89138048954288558e-05
6.78638613698135336e-06
1.51277941453277887e-05
4.60618063698274222e-05
5.70340781641634536e-06
1.36560593417644288e-05
4.35729966568512757e-05
4.7880068128476465e-06
1.20849858090771325e-05
4.1430715353669016e-05
4.02455756240021585e-06
1.04435696482749006e-05
3.96139267696784034e-05
3.39688979844500325e-06
8.75342393835726424e-06
3.81006893157760131e-05
2.88957243948291838e-06
7.0304020816657466e-06
3.68703418275143779e-05
2.48872899765234077e-06
5.28597765647449783e-06
3.59048306448567987e-05
2.18251231010822184e-06
3.52829899406905406e-06
3.51895997940411125e-05
1.96134984315284946e-06
1.76206822700131785e-06
3.47150181631338206e-05
1.81806108237040674e-06
3.43623510738071518e-05
1.74383116904043357e-06
7.18846421902878026e-06
2.32211514220024969e-05
8.2889496126568307e-05
1.05654624805550049e-05
2.14524355505040839e-05
8.17302148856459984e-05
1.33439471456201252e-05
1.9578562878646062e-05
7.95789480235695754e-05
1.54891552120879674e-05
1.7646092132454762e-05
7.65739624461612338e-05
1.6993661237242378e-05
1.57095921254412233e-05
7.29850480837936403e-05
1.78980522241179613e-05
1.38237840165553683e-05
6.9068901614674464e-05
1.8256574464909059e-05
1.20353920285604617e-05
6.50556039994237248e-05
1.81453573270572457e-05
1.03804146783876944e-05
6.11206569379454733e-05
1.76449314627120653e-05
8.88186912981067635e-06
5.73826251727922244e-05
1.68317012384919141e-05
7.55057137742046716e-06
5.39209616413921798e-05
1.57733716423449803e-05
6.38750459117329073e-06
5.07802200555096403e-05
1.45271247931758625e-05
5.38651293996359955e-06
4.79786211916886712e-05
1.3139580137441896e-05
4.53688607697881901e-06
4.5516913819188047e-05
1.16477189066685691e-05
3.82552855604873476e-06
4.3385237449314848e-05
1.00802376460047206e-05
3.23860932919938824e-06
4.15681341651546796e-05
8.45901567648810394e-06
2.76273142479615665e-06
4.00480381063378417e-05
6.80051983608092966e-06
2.38570790097626619e-06
3.88075984836195993e-05
5.11706189393403195e-06
2.09703957900908157e-06
3.78311852432330022e-05
3.41794513534291267e-06
1.88818331904386882e-06
3.71058929438397784e-05
1.71069980692158595e-06
1.75269784148233324e-06
3.66228703342775369e-05
1.6823899284760633e-06
3.62650705978489297e-05
2.18536330537660945e-05
5.36206310758884102e-05
1.77704324392282599e-05
2.21042273407459604e-05
4.92235786787391293e-05
1.51723638200228752e-05
2.1754101285776006e-05
4.51481415295101459e-05
1.28152431594723938e-05