/*--------------------------------*- C++ -*----------------------------------*\
| =========                 |                                                 |
| \\      /  F ield         | OpenFOAM: The Open Source CFD Toolbox           |
|  \\    /   O peration     | Version:  2206                                  |
|   \\  /    A nd           | Website:  www.openfoam.com                      |
|    \\/     M anipulation  |                                                 |
\*---------------------------------------------------------------------------*/
FoamFile
{
    version     2.0;
    format      ascii;
    arch        "LSB;label=32;scalar=64";
    class       volVectorField;
    location    "0.119999999999999996";
    object      U;
}
// * * * * * * * * * * * * * * * * * * * * * * * * * * * * * * * * * * * * * //

dimensions      [0 1 -1 0 0 0 0];

internalField   nonuniform List<vector> 
7340
(
(0.106973370136800847 0.120238017101333999 0.0923259799459133224)
(0.105608052389840362 0.104848068433720215 0.0776699988418756149)
(0.101300017884949384 0.0915381784069821541 0.0646245303310787333)
(0.0951042478807646308 0.0803851222520807623 0.0533493115991582056)
(0.087814027592898497 0.0712055910536866787 0.0438132056094311384)
(0.0799542479083769908 0.0637194483470182871 0.0358769966877482277)
(0.0718630279012735101 0.0576435195333439843 0.0293523803127253395)
(0.0637459128489769322 0.0527265802958993002 0.0240415224397902243)
(0.0557180517447570037 0.0487594947966402473 0.019758385513038608)
(0.0478362890957373596 0.045574542378554718 0.0163386142997828214)
(0.0401204368794806504 0.0430403380719583395 0.0136429260272853108)
(0.0325671635598306364 0.041055812811906206 0.0115571011532973021)
(0.0251591041253007922 0.0395446496009267887 0.00999041414524601788)
(0.0178694332386102883 0.0384507398168790898 0.0088735355310117555)
(0.0106698378944700654 0.0377348531088547157 0.0081565962161025754)
(0.0035448567327884253 0.0372700121446294871 0.00778852199189603196)
(0.0993967984190433085 0.122339721958146949 0.0850207224841962872)
(0.0987942700311033872 0.108160934959661809 0.0719854839609267994)
(0.0954212477082764104 0.0955896839813514393 0.0602922171448526389)
(0.0901703825926977037 0.0848224354077625753 0.0500858583701724175)
(0.0837380078267542516 0.0757850375045888147 0.0413705072605064367)
(0.0766173768140496897 0.0682907116242351953 0.0340523976310168897)
(0.0691469259870205882 0.0621236208932738621 0.0279879301610439744)
(0.0615450437437378567 0.0570762248191994392 0.0230175102012236781)
(0.0539439566744946974 0.0529664978779930268 0.0189853311359534649)
(0.0464175079348492781 0.0496427532958336123 0.0157499859320675423)
(0.0390006804521057168 0.0469826213879670496 0.0131891926913629207)
(0.0317030638599924697 0.0448898966610171563 0.0112011088096200008)
(0.0245180585893468514 0.0432907459356059315 0.0097038693550129014)
(0.0174277791912024783 0.0421302069109610738 0.00863434622269599814)
(0.0104114375485846004 0.0413695595613465944 0.00794683184156625734)
(0.00345992761631621834 0.0408668107779445733 0.00759317521642968209)
(0.0925085150549648932 0.123868239521923426 0.0782969173546131381)
(0.092459422416291695 0.110814179829573034 0.0666631005242286356)
(0.0898408492560961308 0.0990052236255320739 0.0561586420389956487)
(0.0853936219899889964 0.0886931078332318795 0.0469188416292040944)
(0.0797210435799629719 0.0798827193871720909 0.0389639577888310495)
(0.0732786741267619224 0.0724636434276395014 0.0322308565666622263)
(0.0663947212911199375 0.0662787137207195148 0.0266101548418709796)
(0.0592914604449413241 0.0611615301333587463 0.0219733519643102795)
(0.0521117578005236143 0.056957520422378595 0.0181904382046500016)
(0.0449420881539503367 0.0535326014030688968 0.0151403446581989676)
(0.0378297883604205437 0.0507753332824779219 0.0127163117751218288)
(0.0307956161862433034 0.0485960566250862452 0.0108280679083272314)
(0.0238426989080222917 0.0469247430198269991 0.00940219019130071262)
(0.0169615166249408519 0.0457086349084893512 0.00838154830264543557)
(0.0101384512278946837 0.0449103346458600561 0.00772450449491266216)
(0.00337023144602017176 0.0443735896459725027 0.00738583917940146759)
(0.0862397271263949244 0.124970548115303379 0.0721142578832815045)
(0.0865917393734932095 0.112956844515751637 0.0616922644887989285)
(0.0845732403273391081 0.101901109952433122 0.0522385482902461284)
(0.0808028062136509351 0.0920795218188384113 0.043871084127692174)
(0.0757977060291962629 0.0835535893911722727 0.0366161832106290108)
(0.069971906854857685 0.0762725785036240528 0.0304318943108548498)
(0.0636361694180082593 0.070128562955123222 0.0252346941843033835)
(0.0570099490026847872 0.0649924530600001771 0.0209210632035734014)
(0.0502413906983889616 0.0607362399039596129 0.0173827298565780095)
(0.04342567987640817 0.057243927373395502 0.0145163975825161433)
(0.0366197899387537065 0.0544159991351521044 0.0122292652734193458)
(0.0298538334236375553 0.0521704273260366475 0.0104417102249551239)
(0.0231395253052387034 0.0504419767719219078 0.0090882268824096224)
(0.0164750396775363503 0.0491809069418020842 0.00811739480242952907)
(0.00985352532953093045 0.0483517980976844661 0.00749149494799708146)
(0.00327665839289773648 0.0477852829990705052 0.00716823184818221517)
(0.0615189543684082629 0.157396059043743958 0.0976197366979293657)
(0.0709574444334109544 0.147945602970088408 0.0869509212085137484)
(0.0772434801758186546 0.137093952419308024 0.076468006191590554)
(0.0805274787284032956 0.125784621525336954 0.0664291675512776181)
(0.0811568033957227319 0.114704651665353069 0.057062657563912253)
(0.0796161412475348967 0.104371199615298893 0.0485395418201088474)
(0.0764141539153477684 0.0950531110383187744 0.0409573773884614398)
(0.0719924768456081804 0.08684856057311377 0.0343437618494460903)
(0.066723307063084436 0.0797518064320607289 0.0286708750402904118)
(0.0608957450692462765 0.0736951699380880842 0.0238744775701834541)
(0.0547217616493759149 0.0685824085484546542 0.0198709663037043502)
(0.0483505165447435381 0.06431029274022311 0.0165702024612354656)
(0.0418824929424690962 0.0607805695459708029 0.0138842380980250864)
(0.0353817945545426074 0.0579059871924025374 0.0117326705088202088)
(0.0288861450746522273 0.0556127815323904581 0.0100455543946399179)
(0.0224146809235760622 0.0538411944278926538 0.0087647128722196585)
(0.0159725311673698731 0.0525451021830450754 0.00784408813555658932)
(0.00955935772356246785 0.0516914455305360968 0.00724968096062465935)
(0.00318063099174022233 0.0510986391894841241 0.00694205021786308864)
(0.0577255679648948639 0.154994072256856907 0.0894751249777953755)
(0.0662930367371018514 0.146470371374003483 0.0797416363290042451)
(0.0721103657488392502 0.136647733569840113 0.0702534577908888458)
(0.0753013763621909055 0.126318261282487354 0.0612020893785937964)
(0.0761213740345438872 0.116099617548622164 0.0527608495533364169)
(0.0749625551913317006 0.10645750622232876 0.0450625464339778556)
(0.0722356704666762689 0.097645660918782004 0.0381864005681716925)
(0.0683218709277656905 0.0897879116973785973 0.032158331880821435)
(0.0635525805283990025 0.0829114940818112822 0.0269594790054247108)
(0.0581930742824540506 0.0769811368963206205 0.0225398769952430966)
(0.0524447447090798449 0.0719288664368483155 0.0188316840668272811)
(0.0464544745687263741 0.0676739005098427049 0.015759753637419105)
(0.0403252006496324852 0.064134844237530797 0.0132492662035732338)
(0.0341259337250630623 0.0612366345426417075 0.0112307171336875032)
(0.0279003690737876613 0.0589140668579211171 0.00964285844063274278)
(0.0216739139179642319 0.0571132709507354702 0.00843421983078600224)
(0.015457831583631185 0.055792190652664643 0.00756372237464270764)
(0.0092578853844841498 0.0549212145762885823 0.00700085738225391351)
(0.00307306564445008167 0.0543211728385506881 0.00670891419114362855)
(0.0321182452276956021 0.16250655324674132 0.100247038060945357)
(0.044232652719129753 0.158822586775960561 0.0911374923396475189)
(0.0543377413071239809 0.152891074945611244 0.0820813771070160458)
(0.0621018148044071086 0.145121126681646062 0.0731827184177148288)
(0.0674718787463989 0.136202636493066048 0.0645725680849169176)
(0.0705380415943278327 0.12676373406609584 0.0563899570484006768)
(0.0714842896758386692 0.117354624148039224 0.0487656078734675091)
(0.0706199429472299522 0.108368774792626119 0.0418015526327240872)
(0.0682856167426431071 0.100054855551178101 0.0355612286325207305)
(0.0648099488986362132 0.0925534643612624941 0.0300672344818973397)
(0.0604851255155508735 0.0859163819034319542 0.0253063580123318865)
(0.0555522389413434306 0.0801352248176262355 0.0212392625259164788)
(0.0502002174472710935 0.0751666409845960226 0.0178105823971892105)
(0.0445712507527865134 0.0709502213853159813 0.0149575322539835763)
(0.0387684331637151505 0.0674204523480916723 0.0126164628317462554)
(0.0328637375245615093 0.06451413924697115 0.0107273804249087557)
(0.0269052907438287296 0.0621746574590087489 0.00923678807018274775)
(0.020923638669372524 0.0603541771413407119 0.00809929679545452579)
(0.0149357301809560708 0.0590148153053230706 0.00727840641912164306)
(0.00895786844305645688 0.0581305115502001313 0.00674685382549375379)
(0.00297203231184142843 0.0574607468021744172 0.00647062757013069489)
(0.092253948689032389 0.0937140141806955818 0.07189066577068777)
(0.089567359074742392 0.0831288430472151008 0.0600442401620632782)
(0.0850493216349152287 0.0740910435795041761 0.0497643265932522644)
(0.0793547519972096632 0.0665149824694298564 0.0410276529672381277)
(0.0729367939355446415 0.0602261098749332716 0.0337190893648430315)
(0.0661060162881145358 0.055036323835138061 0.0276797165771233838)
(0.0590686681570975203 0.0507725008116020823 0.0227401589123921027)
(0.0519550235494097151 0.0472856903383389524 0.0187390929386703278)
(0.0448433616624188958 0.0444531454044198165 0.0155322819816648642)
(0.0377767352873761147 0.0421764693150526934 0.0129961611412471659)
(0.0307745450668608575 0.0403784512380350458 0.0110284407840623294)
(0.0238406366625188507 0.0389997862798081713 0.00954721926185892779)
(0.016967624749991736 0.0379962441280903285 0.00848949239211667893)
(0.0101449887324150025 0.0373365391484719103 0.00780968690300902664)
(0.00337252821409927787 0.0368991553845030087 0.00746036973368641772)
(0.086343256906413729 0.108947923593692542 0.0787011862666401885)
(0.0868506233069368389 0.0976526442106146891 0.0668471007899000269)
(0.0848342325583201773 0.0874950354972943989 0.0561797808069755128)
(0.0810081804888524437 0.0786565338738783593 0.0468325374583666021)
(0.0759602696345587497 0.0711200185871460888 0.0388160498353098959)
(0.070112570247569922 0.0647710009149025795 0.0320541992495634032)
(0.0637721644925263176 0.0594675460649835702 0.0264254536825221757)
(0.0571514080655346202 0.0550667401971734749 0.0217924180866933756)
(0.0503905937020285161 0.0514387277912206758 0.0180192271429240394)
(0.0435789363830226262 0.0484722668501022733 0.014981173055927742)
(0.036769804027568409 0.0460755342516383365 0.0125693278233953189)
(0.0299917559334386755 0.0441749382227616394 0.0106921764854643643)
(0.0232565258518192229 0.0427130583036522959 0.00927560936139267336)
(0.0165634636096934629 0.0416465436646971943 0.0082621274927119695)
(0.00990785238477191917 0.0409445197736133179 0.00760988428625618274)
(0.00329447930556782355 0.0404705276926317983 0.00727408966106258409)
(0.080859504443897362 0.111501736119793388 0.0726955546757488968)
(0.081751449506583293 0.100950635080837153 0.0620820430712841764)
(0.0802768814155203209 0.0912736938189862845 0.0524621179616519689)
(0.0770517885263465735 0.0827130545453419186 0.0439673654796150087)
(0.0725837919169900342 0.0752956436337364893 0.0366247307372935815)
(0.0672649862977020424 0.0689603741110062785 0.0303845941817871244)
(0.0613923632640397121 0.0636069516469573992 0.025154507157547773)
(0.0551780820330897009 0.0591215751319404126 0.0208234507428978199)
(0.0487680634600811611 0.05539420832434995 0.01727754164898989)
(0.0422594092106664335 0.0523265667476839058 0.0144095478015373521)
(0.0357137874781352227 0.0498350147863747955 0.0121240083706721478)
(0.0291676372405906686 0.0478509436562332968 0.0103395449118714178)
(0.0226398105941356224 0.0463198870965849108 0.00898951015126665288)
(0.0161359631946919116 0.0452002601507867224 0.00802175016672154739)
(0.00965690764589110726 0.044462293289741682 0.00739807304708582809)
(0.0032119266401285651 0.0439552870814211433 0.00707635460437021878)
(0.075802624670554028 0.11356253215819255 0.0671314635883336203)
(0.0769640099228615371 0.103721921219790236 0.0575968700881712911)
(0.0759267358779551343 0.0945606045399178252 0.0489108461381565773)
(0.0732117842572908711 0.0863252695567767597 0.0411927385097028281)
(0.0692574975499399836 0.0790838965101362118 0.0344756711553959871)
(0.0644241327452945711 0.0728200817188244531 0.0287285928463299409)
(0.0589926450480073167 0.0674689155606850721 0.0238813237486461029)
(0.0531702664568463185 0.0629436424076173506 0.0198442827045075612)
(0.0471048206665511116 0.059153812446288187 0.0165223033664369176)
(0.0408985021770372839 0.0560146880843473277 0.0138235585220252942)
(0.0346193002941135586 0.0534517074181174445 0.0116647846672208559)
(0.0283101880976617884 0.0514021591466390648 0.00997398819055623879)
(0.0219962875475807999 0.0498153501176038307 0.0086915575845985197)
(0.0156890606116887668 0.0486521347615680722 0.00777045166909376157)
(0.00939453853722741795 0.047884403445499199 0.00717600961678297941)
(0.00312567343398686189 0.0473482774207791904 0.00686876828280715002)
(0.0514950483081896143 0.140910040839602596 0.0900022724561125448)
(0.0608627543996223194 0.13333641485287101 0.080561166713006796)
(0.0673679541351377559 0.124526101910692799 0.0711213399351275921)
(0.0711431026425720925 0.115260805827919324 0.0619790885690094939)
(0.0724821720318952756 0.10608489530571448 0.0533915194505489299)
(0.0717921321907689092 0.0974368572483736567 0.0455391995127975915)
(0.0695070027794833512 0.0895509969997703714 0.0385256843396955817)
(0.0660053777012243326 0.0825255252672074113 0.0323858864338393282)
(0.0616140913333994983 0.0763773223564759018 0.0271012195476314707)
(0.0565948439579085985 0.0710707636712577528 0.0226182578405321189)
(0.051146731383955972 0.0665434074877269965 0.018864667822457392)
(0.0454164359215407584 0.0627233730819101304 0.0157610291986302851)
(0.0395087672194939163 0.0595393922976046527 0.0132289210581498576)
(0.0334961931691369827 0.0569263490046734502 0.0111959874346768302)
(0.0274269206770004145 0.0548279958717944466 0.00959881243632404457)
(0.0213314604217326315 0.0531979975577473035 0.00838432778197630013)
(0.0152265206761948279 0.0520001476355977099 0.0075103126179655727)
(0.00912320399745859822 0.0512083000979835848 0.00694546921081529503)
(0.00303705994071423561 0.0506462295927676137 0.00665294161852417014)
(0.0485067175980308726 0.14005596531489875 0.0826575419164929104)
(0.0571122272889044574 0.133197325650789344 0.0740271487677164608)
(0.0631849422425085905 0.125160351242101148 0.0654717482429877512)
(0.0668374455385779276 0.11661640180143007 0.0572172088970738235)
(0.0682883410172250432 0.108073674271562392 0.0494624833122934773)
(0.0678745212580586649 0.0999316928801608911 0.0423532585765368785)
(0.0659496772792700359 0.0924116466722701979 0.035977260464576763)
(0.0628448840535935221 0.0856327800266089845 0.0303678176106784783)
(0.0588536573934303614 0.0796364770354718032 0.0255141892890116129)
(0.0542169515766413521 0.074411223896836215 0.0213754060044369504)
(0.0491235649230313889 0.0699158679487086321 0.0178928736392876056)
(0.0437166500019063251 0.0660955951261236185 0.0150002831136816783)
(0.0381015459069144816 0.0628921079316545201 0.0126307577335592475)
(0.0323535474920268254 0.0602497906608488454 0.0107215874529703534)
(0.0265248602210359681 0.0581191581636443799 0.00921710643390666849)
(0.020650507453477053 0.0564585959608390961 0.00807026126129911821)
(0.0147518045028597229 0.055235230417297998 0.00724332334792966714)
(0.00884463193856311475 0.0544259211660027484 0.00670816142524180599)
(0.00293693845517307896 0.0538565881525876686 0.00643042437803611165)
(0.0237923942848387235 0.146673234496204147 0.0915244188978379253)
(0.0357666603738889671 0.144003202909827793 0.0838410662157273723)
(0.045845947762152138 0.139365150303457364 0.075973459923718803)
(0.0537297142620410464 0.133074245516342254 0.0680674050995012658)
(0.0593799889404681286 0.125722107839890934 0.0602906524744661332)
(0.0628828115230064127 0.117844033887774285 0.0528158729573791272)
(0.0643965330645979717 0.109908800321803363 0.0457977258733971646)
(0.0641906901111042316 0.102254826905222015 0.0393527610879032055)
(0.0625626335529598093 0.0951017294036494432 0.0335536335601210461)
(0.059801337359182416 0.08858261372871995 0.0284302579552669285)
(0.0561677070218948443 0.0827573931148637559 0.0239766971250958763)
(0.0518817253890283756 0.0776348313029588816 0.020161222824344148)
(0.0471205317999104575 0.0731924570233347116 0.0169361490564586686)
(0.0420219697861935262 0.0693910452727736771 0.0142460301546488907)
(0.0366901986392742657 0.0661845889886662764 0.0120338625457570361)
(0.0312018701549046859 0.0635267732535084867 0.0102453952194417469)
(0.0256120067995398888 0.0613749224279604016 0.00883189938079444875)
(0.0199592707140464655 0.0596922778137580767 0.00775179666878472555)
(0.0142693169581379134 0.0584493710218125656 0.00697150323486316753)
(0.00856732830723806911 0.0576261429573049072 0.00646584138642344007)
(0.0028432766736405388 0.056987134254709873 0.00620295119889383191)
(0.0804499915332790028 0.0841629754022279186 0.06375230408719261)
(0.0791427843546574222 0.0758454444239014675 0.0534854031272222197)
(0.0760645767652405047 0.0685865275154235177 0.0445194543304238619)
(0.0717522799786834142 0.0623734581283241843 0.0368528386793328111)
(0.066594313099299543 0.0571135643823608846 0.0304005905067606143)
(0.0608751830586620399 0.0526939740887220759 0.0250388525840063644)
(0.0547986099238532559 0.0490038297029712563 0.0206313809315944521)
(0.0485051545077576224 0.045942940403036564 0.0170454624420166186)
(0.042089587932582169 0.0434255829457417669 0.0141604054336381853)
(0.0356137672487970638 0.0413809287569792891 0.0118713911433339023)
(0.0291160745252932208 0.0397519815678358673 0.0100906859616678776)
(0.0226184661636300507 0.0384940265744567814 0.0087474042869981547)
(0.0161304573242968749 0.0375731278831293383 0.00778661719988466353)
(0.00965726461713079659 0.0369649419718402206 0.0071683672323604149)
(0.0032122676144419578 0.0365527672693408551 0.00685080151766079715)
(0.0747924599328721046 0.0973837986586215121 0.0697684346841596637)
(0.076233134601073671 0.0885280739777168368 0.0594949805105609297)
(0.0753752589691729091 0.0804141909164778762 0.0501899537167821846)
(0.0727834089327072664 0.0732215490507521355 0.0419968086997474579)
(0.0689432127673795248 0.0669752296402594399 0.0349329482474823871)
(0.0642147839466254006 0.0616195629019736513 0.028943112559286284)
(0.0588762365654023345 0.057072228811646343 0.023932449014811806)
(0.0531321577516082749 0.0532426373455508611 0.0197896552826987981)
(0.0471277149862155617 0.0500437407557442829 0.0164022685362062541)
(0.0409638596900103041 0.0473979454031677253 0.0136654010897565934)
(0.0347088696160567922 0.0452391787922653693 0.0114862595075120102)
(0.0284072086696575202 0.0435131286282408603 0.00978608013467814619)
(0.0220863326178205657 0.0421765170845891102 0.00850054353959873304)
(0.0157606321726985535 0.0411961061906418319 0.00757941140169013892)
(0.0094396450028304546 0.0405479098808993743 0.00698592834048773065)
(0.00314054445974822679 0.0401003499554272586 0.00668052317077978425)
(0.0705097795611875217 0.100703547184735703 0.064671785352990882)
(0.0721871452273176034 0.0922950562846130695 0.0554197399823151901)
(0.0716954805519476185 0.084453507947633899 0.046990496471324715)
(0.0695339169310780769 0.0774048850412355771 0.0395135913525280075)
(0.0661222838536373453 0.0711966900189731494 0.0330195276939013183)
(0.0617966984834592767 0.0658092807585669709 0.0274748048761263991)
(0.0568248370513622855 0.0611887444961141252 0.022807318658033808)
(0.0514079544369074048 0.0572645283131536093 0.0189266838784469468)
(0.0456929424218948665 0.0539635879762171838 0.0157381518336286198)
(0.0397848638109586997 0.0512177037707919475 0.0131511158949591325)
(0.0337570089971176435 0.0489668576526499227 0.0110839347167232607)
(0.0276590069722177749 0.0471605061748177415 0.00946633718513852432)
(0.0215232500525305744 0.0457576674254478941 0.00824032408248578756)
(0.015368686830667156 0.0447265255752068852 0.00736022958092004929)
(0.00920896461325721935 0.0440440272949136624 0.00679244936571197014)
(0.0030645702481851252 0.043564380685403449 0.00649971290968734752)
(0.0664993977173881923 0.103510968428764491 0.0598950685793847928)
(0.0683342208937202517 0.0955549617424417824 0.0515514161719470218)
(0.0681404582191530855 0.0880400601842200037 0.043912082013932853)
(0.0663467495267626023 0.0811863078809238747 0.0370934816060427205)
(0.0633182955353035065 0.0750695630493034005 0.0311332159278677398)
(0.0593662378972746319 0.0697018421818353107 0.0260123992595117197)
(0.0547434060424653521 0.0650537005979651556 0.0216764912169255114)
(0.0496445818020198881 0.0610736377657457516 0.0180523718707773922)
(0.0442158854516134792 0.0577027210163441606 0.0150605409922379314)
(0.0385645584014957798 0.0548826874072352588 0.0126230907088560468)
(0.0327675012782159894 0.0525603214954136685 0.0106685537441876602)
(0.0268785348016837324 0.0506895933436830107 0.00913457273029040506)
(0.0209343663304854335 0.049232478029611372 0.00796913905278809342)
(0.0149581334626176475 0.0481591292252705194 0.00713097551392306329)
(0.00896735484392557208 0.0474478902601773306 0.00658952857829701519)
(0.00298506460679423763 0.0469397611395338324 0.00630983559677249142)
(0.042876357160894607 0.126418013037825849 0.0796406896218888605)
(0.0520202431420783359 0.120451822417845161 0.0715795064710303686)
(0.0586116945186873836 0.113412708579684357 0.0634137094912763377)
(0.0627554718423981722 0.105926539281181287 0.055439456431141329)
(0.0646824652772266251 0.0984126059106640583 0.0479000365575186979)
(0.0647239330601124818 0.0912395567073878977 0.0409704379091749699)
(0.0632414722970527782 0.0846110901417003736 0.0347542164969247974)
(0.0605536237119781579 0.0786254643323907321 0.0292904496705703871)
(0.0569449207901682533 0.0733181785681813192 0.0245698316215014964)
(0.0526511179163896212 0.0686803126594895258 0.0205512252344512182)
(0.0478584413456117491 0.0646778209768103796 0.017175538210822211)
(0.0427101622711872839 0.0612653496252389684 0.0143762108450847005)
(0.0373139654973941789 0.0583946632793116149 0.0120864759050885034)
(0.0317490453487042634 0.0560197094442866292 0.0102440272574424365)
(0.0260724664274502096 0.0540994532814318974 0.00879378177050195615)
(0.0203245986215991707 0.0525993061719043919 0.00768932807293378276)
(0.0145323536908073571 0.0514917991219447091 0.00689354296088098319)
(0.00871705931484435641 0.0507569104633897247 0.00637878815029324642)
(0.00290329312334842646 0.0502231974486634231 0.00611236536753219546)
(0.0405634504688474687 0.126874262597769349 0.073314158367687704)
(0.0490565062532623136 0.121434001418070009 0.0659309077001484917)
(0.0552548948437908555 0.114946422633060916 0.0585141092938389132)
(0.059253628419776487 0.107961508815060628 0.0512949565224731022)
(0.0612262693046423667 0.100889507154774752 0.0444669576393907223)
(0.061453705508400909 0.0940690838737923696 0.0381749376891020592)
(0.0602326090177278048 0.0876908015706876764 0.0325080630867235765)
(0.0578455525883586411 0.0818692891527283695 0.0275035419374542456)
(0.0545501857688654862 0.0766575396014730903 0.0231581667056657975)
(0.0505642094693508209 0.072063908998823395 0.0194408409825304399)
(0.0460638891453264282 0.0680699103601781763 0.0163037230975484615)
(0.041187996266571672 0.0646428553233801551 0.0136911124171289963)
(0.0360431848693729337 0.0617442919840834881 0.0115459044227605827)
(0.0307097518741209149 0.0593354532904048909 0.00981394555037774785)
(0.0252470975214384268 0.0573805768592486887 0.00844676000640218194)
(0.0196986017896150015 0.0558488209872368691 0.00740310442890511865)
(0.0140944610704949024 0.054715431771486446 0.00664974107350523209)
(0.00845961879144252991 0.0539630222645522406 0.00616178565529524463)
(0.00281005420247004483 0.0534220787661162239 0.00590871723188561137)
(0.0169717077209876402 0.132873215203212575 0.0804765042531600666)
(0.0286213683562161203 0.130966842409869222 0.0741586591364693515)
(0.038508994727858098 0.127384713205141747 0.0675336397616241868)
(0.0463673435025102054 0.122348466202217496 0.0607534964167588051)
(0.052175467194087756 0.11635578387855422 0.0539966854177611894)
(0.056008097675576865 0.109845728720300906 0.0474433243130327198)
(0.0579913341497385187 0.103210968476045412 0.0412482661651590518)
(0.058352715304635483 0.0967371651897872553 0.0355298351140313218)
(0.0573454620924476605 0.0906160585775814265 0.0303630535401105718)
(0.0552195768042161028 0.0849733811054638605 0.0257817686127024132)
(0.0522058765975569536 0.079875466931537395 0.02178641716587746)
(0.0485039213233773928 0.0753454074859737088 0.0183533394438218575)
(0.0442791077608626973 0.0713784689666479844 0.0154436638189303869)
(0.0396644585068959971 0.0679535957709415384 0.0130107389091282857)
(0.0347643707543736705 0.0650416494099827491 0.0110057714994865677)
(0.0296591656903285907 0.0626110216124302205 0.00938179584204398148)
(0.024409693724166022 0.060631270635205084 0.00809627909389920054)
(0.0190616843330852874 0.0590754050264859082 0.00711270155684644474)
(0.0136485028686076024 0.0579214189082431566 0.00640142212194844303)
(0.00820330678160087132 0.0571546073724846088 0.00594013316378146257)
(0.00272322636635934784 0.0565441249237632754 0.00570048081921525809)
(0.0685278107342300602 0.0834772895179682894 0.0632471446106749324)
(0.0705111501868004864 0.0763561570538224543 0.0538803979271996747)
(0.0703013265873549259 0.0698141665450692922 0.0454083867261516755)
(0.0683920969546577273 0.0639773744279915624 0.0379586896380026406)
(0.0652180986244770972 0.0588698824018712014 0.0315457997657389369)
(0.0611098000887945678 0.0544557525494780426 0.0261147974769272255)
(0.0563272084745825921 0.0506772792338668343 0.0215763145168480844)
(0.0510681769251857126 0.0474700387587840972 0.017827157874343906)
(0.0454787845990724665 0.044771196910733127 0.014763852576343852)
(0.0396653930521505549 0.0425240263969812252 0.0122903556844308065)
(0.0337041333677827876 0.0406796881433681423 0.0103219605749779175)
(0.027648405153938644 0.0391975682626216071 0.00878691000895666721)
(0.0215349048742932737 0.0380449375063859757 0.00762667173711464516)
(0.0153871997666979558 0.0371964101234439418 0.00679555587779550815)
(0.00922375706632827704 0.0366334567143755813 0.00626013143167925435)
(0.00306997427407568278 0.0362434446875627495 0.00598529995744873262)
(0.0650600859563965905 0.0878938016234924735 0.0589264009731852376)
(0.0672314114412600888 0.0809689212579237788 0.0504513223974101532)
(0.0673043271975979907 0.0744919637814241697 0.0427269310084310017)
(0.065727500944931655 0.0686362383004871374 0.0358863431310718489)
(0.0628893506956121617 0.0634481480465695635 0.0299542368585027675)
(0.0590993928885598721 0.058916271029858025 0.0248965427219924526)
(0.0546093314696424609 0.0550027162190460106 0.0206446979917514553)
(0.0496142794127878428 0.0516565417414306532 0.0171138266717140927)
(0.0442611799138081657 0.0488239361734701255 0.0142157072210879788)
(0.0386590985083961128 0.0464539216169258112 0.0118664522061640819)
(0.0328876433214772973 0.0445011227267016196 0.00999076698756188111)
(0.0270039142495695911 0.0429269470339628742 0.00852402183478349548)
(0.0210482170547593092 0.0416997987379241278 0.00741297237206378461)
(0.0150474889340888839 0.040794880661012195 0.00661574699029553355)
(0.00902329227132501674 0.0401939970607838454 0.00610154114777707035)
(0.00300381517869729563 0.0397696987739666122 0.00583712768402883976)
(0.0617386220888660672 0.0917252582264364846 0.0548098146384654733)
(0.0640315747108957806 0.0850418055651751964 0.0471331910144512922)
(0.064340746706072427 0.078702233816971473 0.0401019291488987628)
(0.063058527857175195 0.0728962671764596809 0.0338327794603581616)
(0.0605286066207596368 0.0676896891090153774 0.0283596723003875228)
(0.0570406239112435862 0.063094829190938867 0.0236642109111213847)
(0.0528352198146091953 0.0590925509081406675 0.0196943170129871593)
(0.048102202496145316 0.0556456499473679117 0.0163807127640032274)
(0.0429874918676844131 0.0527101551537303703 0.0136486794716320949)
(0.0376014647586253442 0.0502418511711795884 0.0114254156834769811)
(0.0320262328444338301 0.0481998518331918785 0.00964442028167931259)
(0.0263219418423531852 0.0465484376046638934 0.00824785196105527231)
(0.0205320948122858643 0.0452578168718308915 0.00718757958952301584)
(0.014686763862336737 0.0443043546867347565 0.00642546717261433323)
(0.00881044356420926898 0.0436706610690880681 0.00593330323198901916)
(0.00293363354605669048 0.0432151134576531371 0.00567975085401043432)
(0.0585787035875967796 0.0950652198167789564 0.0509111765639110314)
(0.0609449235226010508 0.0886580992202307683 0.0439572271790407698)
(0.0614408131788681186 0.0825032907773392138 0.0375582005282544956)
(0.0604121638154230742 0.0767951890688541861 0.0318194443201311114)
(0.0581610015829583452 0.0716182149837900489 0.026780153642577794)
(0.0549559121857182697 0.0670051937146600995 0.0224321661643665654)
(0.0510240400137699085 0.0629535955042960921 0.0187362719091667268)
(0.0465479010324918729 0.0594394774111174085 0.0156362380735693834)
(0.0416707341086455171 0.0564289247327786556 0.0130690895455100632)
(0.0365029180982403625 0.0538849954378772811 0.0109719675024510903)
(0.0311280905963523223 0.0517718940775883305 0.00928645254572860353)
(0.0256087439019645514 0.0500573615940207162 0.00796106791119036324)
(0.0199911235860875287 0.048713933870750431 0.00695255032188706219)