/*--------------------------------*- C++ -*----------------------------------*\
| =========                 |                                                 |
| \\      /  F ield         | OpenFOAM: The Open Source CFD Toolbox           |
|  \\    /   O peration     | Version:  2206                                  |
|   \\  /    A nd           | Website:  www.openfoam.com                      |
|    \\/     M anipulation  |                                                 |
\*---------------------------------------------------------------------------*/
FoamFile
{
    version     2.0;
    format      ascii;
    arch        "LSB;label=32;scalar=64";
    class       volVectorField;
    location    "0.690000000000000391";
    object      faceForces;
}
// * * * * * * * * * * * * * * * * * * * * * * * * * * * * * * * * * * * * * //

dimensions      [1 1 -2 0 0 0 0];

internalField   uniform (0 0 0);

boundaryField
{
    inlet
    {
        type            calculated;
        value           nonuniform List<vector> 0();
    }
    outlet
    {
        type            calculated;
        value           nonuniform List<vector> 0();
    }
    top
    {
        type            calculated;
        value           uniform (0 0 0);
    }
    bottom
    {
        type            calculated;
        value           nonuniform List<vector> 0();
    }
    left
    {
        type            calculated;
        value           uniform (0 0 0);
    }
    symmetry
    {
        type            symmetryPlane;
    }
    interface
    {
        type            calculated;
        value           nonuniform List<vector> 
67
(
(1.22125375136134903e-06 -6.16491074264542836e-06 -0.0560911252529311191)
(2.24660873075951911e-06 -6.36480868893850721e-06 -0.0346785473788959395)
(2.5327767420760168e-06 -9.42040057892075173e-06 -0.0545418034941736532)
(2.84628560759926348e-07 7.73913577421086367e-07 0.0049082868648125345)
(1.96768629339862425e-06 -1.80028861864228428e-06 -0.00672255972180223465)
(3.99344514924138316e-06 -8.96412085459305935e-06 -0.0356942248691643274)
(3.92537539543676781e-06 -1.13216780416153167e-05 -0.0597599272761567199)
(1.64633468401097908e-06 -3.81961326775481793e-06 0.0092034020051651854)
(2.56820923204245907e-06 -9.07730764250484083e-06 -0.0107498295684251843)
(3.60583734973258071e-06 -1.35158398098731107e-05 -0.0454127422589828134)
(4.18683631847850597e-06 -1.38549507041872004e-05 -0.0652917893096558039)
(-0.0176648519423595642 1.8291570169704326e-08 -1.82529847557316592e-08)
(-0.0134576895666838111 -1.43347624973374975e-06 -1.02252130034399229e-06)
(0.000888957785227702094 -9.14449158097396827e-06 -4.38489882074523197e-06)
(-0.0178252503039792315 1.95384644559409825e-08 -9.80782329193604696e-09)
(-0.0144910990107312686 -7.77608021154040519e-07 -3.80084293221622738e-07)
(-0.00101336967926313041 -9.25668839824515704e-06 -3.06620536019479675e-06)
(-0.0178043426188023227 1.77764209084787733e-08 -8.81065977604238383e-09)
(-0.015640956697649408 -1.69003705657476011e-07 -3.18985983534467109e-07)
(-0.00473162762673252999 -8.47640098977042554e-06 -2.88259552773082735e-06)
(-0.0178539406310377659 2.43861676897440122e-08 -6.79882877326550545e-09)
(-0.015682007882183404 -1.87400771267178611e-07 -1.57096687819125458e-07)
(-0.00525387703797229599 -8.38283792867569678e-06 -1.95422583975755629e-06)
(-0.0180962663835312482 3.02678565361052549e-08 -1.00779835040783882e-08)
(-0.0159963495368556641 -2.10744948180435695e-07 -1.82048230111855866e-07)
(-0.00585170109007993131 -8.27824655298917703e-06 -1.89548710582245207e-06)
(-0.0182823441828284111 4.49350338713036165e-08 -4.89759207755021321e-09)
(-0.0157505554710641177 -2.97555876814238632e-07 8.87770930996061459e-10)
(-0.00500381208073553962 -8.98961154359412196e-06 -1.08534565853334386e-06)
(-0.0186389517455384894 8.87226709756918261e-08 2.69150712746856778e-09)
(-0.0149170979733417707 -9.00312400588036706e-07 3.83855836733074293e-08)
(-0.00173590973436879938 -1.08304153669996248e-05 -5.98793093061963875e-07)
(-0.0197609225258293594 6.25036701356042267e-08 2.20671041028967436e-08)
(-0.00981316977371233905 -5.0755553742610914e-06 7.6791099596586604e-08)
(0.00902614265446360572 -1.25947342350083878e-05 -1.71286833708126684e-07)
(3.58435940914452073e-07 -0.110877464992622299 -7.67107705532351704e-06)
(-6.90479314925735992e-07 -0.125904181893350176 -6.52392075161222092e-06)
(-1.77497159037408005e-06 -0.135203865195758277 -5.70417474612196007e-06)
(-2.24270726367438171e-06 -0.139896497894042543 -4.57534424336682512e-06)
(-2.43331188153525819e-06 -0.143969152639664338 -3.78207566106890473e-06)
(-2.58665188074307456e-06 -0.147353214396678284 -2.62019009269138554e-06)
(-2.89856850995299771e-06 -0.150466278892671751 -1.63896500872492617e-06)
(-3.13561301470149244e-06 -0.152613746946284018 -5.4128276560454262e-07)
(-2.2268511710628928e-07 -0.121141879177615125 -8.16442472372337305e-06)
(-1.96713382733563995e-06 -0.145202439445485054 -7.77283550486477784e-06)
(-2.41282931252254609e-06 -0.163952709769664168 -6.44660388976765014e-06)
(-2.56828506792923599e-06 -0.175851928008659786 -5.02000700327847934e-06)
(-2.68951377642009556e-06 -0.184497116618417806 -3.88243300478246888e-06)
(-3.04071153067618054e-06 -0.189016571049818116 -2.79939666390929464e-06)
(-3.63982191204681397e-06 -0.192822632615322315 -2.35259826999966289e-06)
(-4.02971044671234171e-06 -0.197851501461168172 -1.05429205425125452e-06)
(1.80053982924302171e-06 -0.11867314575988494 -8.64605141803911753e-06)
(2.85211389000628368e-06 -0.154885253626225877 -7.89610081873631461e-06)
(2.91870136457174001e-06 -0.179397342711239305 -6.05794698396478738e-06)
(3.24539809032028724e-06 -0.192976747801079124 -4.60109117182057771e-06)
(3.55161690024450994e-06 -0.202798862526455875 -3.8566437424157637e-06)
(3.68457514269875145e-06 -0.209396670801829055 -3.38698088941744955e-06)
(3.25499872265708664e-06 -0.215761016976992542 -2.85667902223200363e-06)
(2.92806196429319628e-06 -0.2248549788724441 -1.09719715626188089e-06)
(4.72290577580829094e-06 -0.116078221912535001 -7.55376942553149956e-06)
(6.46642424218846239e-06 -0.147713327558504914 -6.81298394455002595e-06)
(7.20584000773485071e-06 -0.167723348994095384 -5.13886043145069032e-06)
(7.60268441007869365e-06 -0.177853172543951249 -3.98505993966337145e-06)
(7.80802686229865775e-06 -0.186896284235943844 -3.7248635079223854e-06)
(7.99962643298799933e-06 -0.193892937204366372 -3.72751118736420926e-06)
(8.26172945179867693e-06 -0.203633799523355252 -3.24111781040354195e-06)
(7.31247332050047754e-06 -0.209175152682091026 -1.22232749754425238e-06)
)
;
    }
    procBoundary1to0
    {
        type            processor;
        value           uniform (0 0 0);
    }
    procBoundary1to2
    {
        type            processor;
        value           uniform (0 0 0);
    }
    procBoundary1to3
    {
        type            processor;
        value           uniform (0 0 0);
    }
}


// ************************************************************************* //
