/*--------------------------------*- C++ -*----------------------------------*\
| =========                 |                                                 |
| \\      /  F ield         | OpenFOAM: The Open Source CFD Toolbox           |
|  \\    /   O peration     | Version:  2206                                  |
|   \\  /    A nd           | Website:  www.openfoam.com                      |
|    \\/     M anipulation  |                                                 |
\*---------------------------------------------------------------------------*/
FoamFile
{
    version     2.0;
    format      ascii;
    arch        "LSB;label=32;scalar=64";
    class       surfaceVectorField;
    location    "0.690000000000000391";
    object      Uf;
}
// * * * * * * * * * * * * * * * * * * * * * * * * * * * * * * * * * * * * * //

dimensions      [0 1 -1 0 0 0 0];

internalField   nonuniform List<vector> 
20536
(
(-0.411919401003902397 -0.737169507078721198 -0.244301226210339423)
(-0.0704989971807689492 -0.326584867766662124 0.101882156761953044)
(-0.545535891718849975 -0.775349760781207209 -0.136975127571683064)
(-0.330604022578947165 -0.596783831695875455 0.0163973489835467709)
(0.00903659537425775296 -0.977940886691742062 -0.0152891484886626683)
(-0.319021333817066655 -0.717152863451860356 -0.350887430803892175)
(-0.280178942741194703 -0.81830139151697634 -0.429894885926268233)
(-0.294741047426345215 -0.387501739251434774 -0.474416379395878163)
(0.382841539701960942 -0.445565774165034401 0.330894234483629202)
(0.319165919348382066 -0.264649479133302445 0.235425048028822886)
(0.342601368630234382 -0.0137466512095163595 0.191254872253328684)
(0.295233363694960116 -0.0589095865460483037 0.366013967995980238)
(0.415265028989385665 -0.429343436795306121 0.297793332506820996)
(0.202590519087546272 -1.00592892926730815 0.170690418540728889)
(0.417779978269796071 -0.615732294225834753 0.422940495550220896)
(0.255175169204986008 -1.0643746342445739 0.133670422639302261)
(0.191926454746417202 -0.229679294045869842 0.14045856895839226)
(0.389149779524664452 -0.0580404523022000698 0.240938034608587232)
(0.278529693020636904 -0.203627855239855299 0.160731339122571981)
(0.113581089777233191 -0.147261408618965112 0.146381961176892533)
(0.174371811082616679 -0.311594689647385181 0.102124530696845114)
(0.362452150989124866 -0.131306203076062056 0.184956790986813335)
(0.301065204344047821 -0.269065670851061867 0.118156200657807908)
(0.135516567054764892 -0.285985067606034926 0.0715581328568066083)
(0.253756790999401849 -0.384767187262321897 0.134835216955279474)
(0.342044526261273574 -0.266281535806667025 0.154630110537664178)
(0.314252418820602342 -0.33395612706803085 0.103121663175387179)
(0.143195750397564325 -0.41032541976582726 0.136576197450082648)
(0.444005582448550651 -0.400497647161367487 0.202324146052014542)
(0.41808422486441893 -0.363005308763922008 0.164860532016315814)
(0.41868271723760847 -0.343541730368328579 0.126825276995701647)
(0.282333331169820401 -0.545098356165441 0.230364472592449021)
(0.540007049030121422 -0.409433474872944403 0.174145622748382578)
(0.583669709216475763 -0.292435664014886298 0.167658883878901543)
(0.45172865679707197 -0.567017300318143569 0.2918717933789991)
(0.568812482010106146 -0.33288453264755935 0.244687519580866375)
(0.558123562775991844 0.0431987935731104264 0.28543625663700839)
(0.575997133323242871 -0.00585977443004894946 0.219524426398994249)
(0.572720420026523014 0.0465601393087626408 0.274940247245694769)
(0.556707427899077456 0.0742368790520330085 0.303924131528132468)
(0.509376857884223933 -0.0739865911278409644 0.237462370827632469)
(0.60566342611497137 -0.0299239644675300918 0.218131861554182127)
(0.564243958326400286 -0.00286034229094822307 0.241226135192009944)
(0.505616274574664404 0.00117984954625666334 0.265483443530284635)
(0.496918648276730601 -0.247722697683274096 0.184655425598700434)
(0.615947380755905605 -0.172317589008875199 0.185738656422250153)
(0.537967000868246004 -0.1363143319055585 0.178191717822226037)
(0.457742809145885277 -0.233958101269893415 0.229760328730193975)
(0.544098959698222862 -0.370326126230324626 0.136682008712683767)
(0.628279972040408641 -0.314203232511266306 0.135545643948224215)
(0.561996442882122582 -0.278562785410632729 0.122712568156228344)
(0.470977432258768813 -0.455330626814607342 0.197185602710108265)
(0.658330081275420032 -0.390774011723031611 0.0767819480116368747)
(0.626741739270267995 -0.375633513885452019 0.0713345055695782659)
(0.515634961259874514 -0.538323205797654802 0.141066398688384775)
(0.608552173348656411 -0.441570025753241779 0.0794453935016914276)
(0.628676061062671931 -0.0469464393403586505 0.152220031316168264)
(0.513256243115637223 -0.143330230098596273 0.0957791973377846717)
(0.563931203255011226 -0.0816345060373154796 0.140033534853879787)
(0.595039426506294378 -0.0396416442043170461 0.129797465934646944)
(0.715011371826853037 -0.0877358374288624149 0.166408147148799868)
(0.60372265601757269 -0.12151395157036074 0.12307213874596995)
(0.653419142701665567 -0.0854599836600855034 0.156189967140413055)
(0.666528927008656402 -0.0465318932959244633 0.171872287257995859)
(0.747008875968386832 -0.199588224976835982 0.136628874771773906)
(0.677314881765617716 -0.177181887926863041 0.118829116635604942)
(0.726142661610081341 -0.158154038840301686 0.143564220409130389)
(0.692578889000298181 -0.189108304139648908 0.168763653909647926)
(0.74122681475655694 -0.316984041724758359 0.0756455832471772394)
(0.707455218015498155 -0.2922930581767747 0.0720548626454167312)
(0.753747007134339619 -0.267499335726698761 0.0970107147407300308)
(0.679661011395602421 -0.367026458058617833 0.106478228554341858)
(0.717915995628993886 -0.410908660963929528 0.0183600601725474356)
(0.767558316627540038 -0.367854423764185534 0.0425671520799093747)
(0.670167111248788916 -0.473678340575555967 0.0333431403836458168)
(0.745950034789243821 -0.415997878985670921 0.0141496411555429216)
(0.488494829399112651 -0.222131595714791574 0.0666313047675863857)
(0.422944487583311324 -0.280098730177447186 0.0463241709849891437)
(0.438676560701894203 -0.255604724759981639 0.0705156510408754544)
(0.464808596264214446 -0.203917007160463792 0.0437636673262388198)
(0.574685954525536613 -0.218442771575475786 0.07549310823277533)
(0.492177534641158543 -0.272717033166465062 0.0641331164140974408)
(0.515425164977547645 -0.250070712870448242 0.0895044524912622236)
(0.550529179444987915 -0.167926404519969041 0.0653166085674176389)
(0.643230884533464997 -0.273611896855150749 0.0542551045092480241)
(0.56474956307834745 -0.305999679038874484 0.0580331675947186945)
(0.593957204818265749 -0.276858380173302443 0.0854098039902534967)
(0.615519381062989202 -0.224116361511621009 0.0604599967640925065)
(0.676585387634086155 -0.375190760639132315 0.0147693395707869692)
(0.619612726035003059 -0.38823088999088029 0.0281506749509605747)
(0.655585696963512765 -0.34878422008597465 0.0516528210339051927)
(0.656131571422171933 -0.35166997989476606 0.0173429677854113513)
(0.643573112749097231 -0.486921341475358538 0.00212572836852619514)
(0.684392858940446658 -0.447922304275783834 0.0165224983795260079)
(0.670810563972135121 -0.479414369610039082 -0.0237171090145307101)
(0.688324231594872105 -0.49165327564356015 -0.0150792849333721366)
(0.424754090578850385 -0.332529186261084964 0.0438259826315002612)
(0.385314596111043794 -0.342227376140697759 0.0258347449471482728)
(0.399579105887180042 -0.306819939524022089 0.0360346104789824873)
(0.395790812021189764 -0.311129723334039487 0.0341358150358266055)
(0.487448096973375378 -0.361149666366790745 0.046673175776040729)
(0.431885678295988562 -0.366653043616619045 0.0374054452989761449)
(0.453658973693947976 -0.341720818201768139 0.0508450381532663115)
(0.455839790619840979 -0.31973102348975363 0.04394887163043696)
(0.545900125820862558 -0.418326445440606265 0.0319287380364312728)
(0.485378321613916253 -0.410318212296825746 0.0346152738634663629)
(0.515380730646470053 -0.389188538626072666 0.0473673351991289529)
(0.526322770911234139 -0.371889002268130708 0.0297788538103959666)
(0.582334976712789887 -0.496426254335423867 0.0155070637487000028)
(0.528059828876356052 -0.475284330943860411 0.023708611792432277)
(0.564762602738251296 -0.457083174264844017 0.0316633656292230337)
(0.582087866956863431 -0.460224683093263975 0.0060148983484106279)
(0.551345422978389954 -0.548274684840429072 0.0181889443899235989)
(0.592287203287941932 -0.532562810845301549 0.0206668253472121477)
(0.603975979720299927 -0.548580303095353661 -0.00406796606759984511)
(0.600521227021829751 -0.572609136584684264 0.0100685820064894925)
(0.390936409574547894 -0.381422652054957512 0.0194142076146242293)
(0.3472619703499219 -0.384789435531940449 0.016981245797840102)
(0.372823265162473161 -0.356588145377851662 0.0126547492774134185)
(0.36924087817911766 -0.363227483932327455 0.0179356428147524789)
(0.432161302240443523 -0.421789366662525256 0.0253475433864018655)
(0.382349504166205223 -0.419129246610066619 0.0236175400575803496)
(0.413785129847210775 -0.395679499891090136 0.0222498742733089304)
(0.410631236852295189 -0.399128366061323958 0.0239098940592544773)
(0.469174928273350833 -0.474299523436586101 0.0263951476194674364)
(0.417426626886775565 -0.464302342731572615 0.0269113430824984429)
(0.452862509113282852 -0.443851212384787253 0.0270381175254643634)
(0.453837852215932536 -0.450392008034179225 0.0239499388249252119)
(0.49576064011422083 -0.534329899210859272 0.0263904924336558697)
(0.447401404870984065 -0.518981906276712701 0.0282214258567062143)
(0.485473688938974357 -0.500182553097971216 0.0277304362901249907)
(0.486273916275791418 -0.512006415000348714 0.0222319637249045014)
(0.468198149016837095 -0.579023884859589222 0.0312727100945234121)
(0.507614681333654949 -0.561215791555520038 0.0287716735819005809)
(0.504930335650336848 -0.574517907108551773 0.0238086779300384944)
(0.513235902917298925 -0.593606252171213322 0.0284177647778464798)
(0.337657261509243578 -0.424649717603815646 0.0211845782407962119)
(0.298105232064180714 -0.423874453782252247 0.0206858682775128526)
(0.325431181024289362 -0.406303394568405973 0.0188798607853825247)
(0.321963820376650833 -0.405617933187206736 0.0196742984504482063)
(0.368186108619797503 -0.464402989250472076 0.0251813397536769373)
(0.325242874394505721 -0.460640611884858497 0.0246157201994587557)
(0.355776873066374122 -0.443220604571716803 0.0234856074986287168)
(0.352688335505791983 -0.441317933217744485 0.0229479642496055042)
(0.396186996878330255 -0.511835527636275267 0.0287376213197372138)
(0.351409026881330189 -0.503832152379134146 0.0288157716506703965)
(0.384758402831220925 -0.486881170884767567 0.0275858838700480877)
(0.382040586596591736 -0.486078591386575776 0.0261231290909018608)
(0.419496962764787762 -0.565793597540024118 0.0331036435175737428)
(0.375302673856335534 -0.552858047651076046 0.0334105330503029832)
(0.411349473321374726 -0.536790342760922634 0.031328644413863925)
(0.407400924977167567 -0.53899851431754553 0.0294665975394792223)
(0.394707464888937709 -0.606795149958809565 0.0402407037795353903)
(0.432820814684499178 -0.591970679109624642 0.0365567157325167938)
(0.427163063563180234 -0.597028764867461814 0.0351385795508664459)
(0.438726638227743437 -0.620822415777832259 0.0393391116942287469)
(0.285108157293285813 -0.460281463583645745 0.0241170102361753756)
(0.249666640333211592 -0.454849311684145163 0.0221304553306208955)
(0.275054254542560328 -0.441266954453868487 0.0219662121652616435)
(0.272313532010188986 -0.441784653861455989 0.0222654431227671812)
(0.308439645036602761 -0.500399780221697177 0.028250152096452201)
(0.270362626870086331 -0.491677617235880715 0.0258341961064864067)
(0.298971967517735693 -0.478659248350181865 0.025663546707595665)
(0.295399503208806702 -0.479681756296992445 0.0257114264566633312)
(0.330394151259608415 -0.545250944589938613 0.0334886833812361381)
(0.290188760115498212 -0.533081065470141113 0.0308979778821657433)
(0.322095599689676937 -0.520884693571132429 0.0303058587858236958)
(0.317666752184290524 -0.522933857525594847 0.0303225865212260089)
(0.350168999359240285 -0.594319970553232491 0.0405475933122645821)
(0.308748324778466088 -0.57881137950033823 0.0375868490689282853)
(0.344072056813515603 -0.567243148303345435 0.036000450975505395)
(0.338008942462839301 -0.57085711505396608 0.0362773521863079124)
(0.325185365105921664 -0.628831625501893199 0.0470117511472739752)
(0.363412373036852698 -0.617587082048029146 0.0437770374872751278)
(0.355549196792240174 -0.622585664935061178 0.0449367622201648359)
(0.367999246652677137 -0.645263875393819908 0.0496952652601917871)
(0.234543744918310954 -0.486875012552910158 0.0238476412009319266)
(0.202564674981355303 -0.478655290728124683 0.0211744157360049916)
(0.227012395160571673 -0.468915472701903924 0.0216940852077726447)
(0.224419458299038421 -0.468536951227682685 0.0218320541953961403)
(0.251886358431153423 -0.52500810016685695 0.0284820218921999213)
(0.21781648700733458 -0.514195569189486057 0.0251168420900425432)
(0.245467008141840942 -0.505090349844737663 0.0253626620222641048)
(0.241458584151382383 -0.504763792010380796 0.0257668369315910521)
(0.268178465996232462 -0.567183034717938628 0.0349961435698578627)
(0.232164077365795224 -0.553495945550990798 0.030813158082902227)
(0.263171743582212292 -0.545111187850232048 0.030598623544214533)
(0.257478191829496272 -0.545181533996877077 0.0314707475056270544)
(0.283412155100599472 -0.613506244882814578 0.0440510069039376784)
(0.245427696291414865 -0.596680735059778145 0.0387583773714690119)
(0.280087335948966898 -0.588942776574190363 0.0377792462976055954)
(0.272083032913554401 -0.589931385784971063 0.0394071323295758225)
(0.257509104139219513 -0.644022352714547219 0.0498073164332813595)
(0.296036716801074185 -0.636820883767337143 0.0477328318858302181)
(0.285290749804881116 -0.638926273307841686 0.0505437234156663404)
(0.297967952489253396 -0.663351380741604935 0.0561439811321837179)
(0.185625874366783655 -0.506047459063597715 0.0224436166251155839)
(0.157395124436077755 -0.495482848163317113 0.0189456949167676088)
(0.180767987689333609 -0.489369543021382081 0.020030265339059071)
(0.177774858152230486 -0.488015769463281734 0.0204594972448601774)
(0.197884599296315078 -0.542562081957956965 0.0274479782807448419)
(0.168041995775970732 -0.529400843975780688 0.0228894606731140648)
(0.194216446018402045 -0.524116807099305748 0.0239274778238715985)
(0.189753532325079244 -0.522805823130192415 0.0246874146369197925)
(0.20909048820300094 -0.582652195285765284 0.0345753918845133415)
(0.177601092149873907 -0.566535503518505235 0.0286166057732743229)
(0.206912148213430208 -0.562338312909392735 0.0295698203131714195)
(0.200546521057017202 -0.561091219893663284 0.0308364692766928232)
(0.219229953264418687 -0.626566797566225686 0.0445146869008127138)
(0.185817798088187464 -0.607070364873439683 0.0366996131863629171)
(0.218793696425721995 -0.604177524857103632 0.0374691142687352541)
(0.209893398167912554 -0.603077273161842675 0.039553813484364965)
(0.19255617418144777 -0.651325150430580924 0.0479319727477556592)
(0.229924566371914718 -0.649979904796434638 0.0483923496499132841)
(0.217597207573015067 -0.649067048297521154 0.0517290160389569931)
(0.228462265383416074 -0.674548743128861816 0.058183847775395682)
(0.120891650444706858 -0.458491100613830804 0.014306827226854146)
(0.0986369892192597159 -0.450402961546128189 0.0118173988886765922)
(0.115339945160091314 -0.443762797169924894 0.0135483008179962915)
(0.130710926751367917 -0.487278351173995206 0.0162571593607552592)
(0.107112676640999466 -0.477316219320648272 0.0131662342754542503)
(0.125065930296152594 -0.471180040537062694 0.0150378246757704066)
(0.13972671678922774 -0.518808720819510127 0.0193915389647660863)
(0.114909096269230182 -0.506767750434011677 0.0154241081162707697)
(0.136821674882018435 -0.503471163358716667 0.0171107743133551808)
(0.133987730354961809 -0.501229325807744708 0.0176014629345593449)
(0.147655225030737053 -0.553158392227713791 0.0240580881656435805)
(0.121779185047868554 -0.538759017632142623 0.0188593040355503165)
(0.146023476304391386 -0.536534831869910245 0.0207405507829247805)
(0.141815563951876555 -0.533971654237309967 0.0215484066000742915)
(0.154172697066485953 -0.590449875873774843 0.0307408270751238777)
(0.127394210015878723 -0.573287985818591306 0.0238350720513825463)
(0.154210889028349729 -0.572541003332118881 0.0260107553299460531)
(0.148175309079354001 -0.569491403844871735 0.0273009645806592018)
(0.158954925812418935 -0.63090841657773955 0.0401168990333058556)
(0.131355849495957633 -0.610418168527299909 0.0308462347977956214)
(0.161108191638364512 -0.611660170132827696 0.0334503972445900286)
(0.152626008453084633 -0.607926364185422674 0.0354683160608048401)
(0.133239956959604638 -0.650274102930779696 0.0405760526517596545)
(0.166581969119327294 -0.654199330585663819 0.0437852640762711395)
(0.154698812710334976 -0.64954211273642759 0.0469080031545034623)
(0.161679905625149084 -0.674966056185192342 0.053161491457795057)
(0.0848195313680662616 -0.46932197184028368 0.0106768059372767139)
(0.0648688869319537786 -0.459616325541895743 0.00810878951653080243)
(0.0809671044441910015 -0.454921238505930692 0.0100490289266426166)
(0.091308167172264823 -0.496866968690504618 0.0123331830309697833)
(0.0702236618132991292 -0.485556880322856599 0.00916360368638038242)
(0.0874481097158265747 -0.481198404932383417 0.0113657506213027965)
(0.0969917418379946245 -0.526692865554601264 0.0148918731870550086)
(0.0749881627194335237 -0.513676788269814222 0.0108542750469505789)
(0.0954667402808433013 -0.51269401821557492 0.0130452816202246222)
(0.0931466471758204129 -0.509703202918057152 0.0134904789075484515)
(0.101572414772025776 -0.55870535063835014 0.0186362879212892824)
(0.0789425535461155403 -0.543824644794583034 0.0133765708661944347)
(0.101173765435903118 -0.54393390354207094 0.015981676564734551)
(0.0977789501648331644 -0.540325852383725991 0.0166753516855484042)
(0.104653932216768622 -0.592800285818303685 0.02394047977405429)
(0.0817821497368661499 -0.575803529753873722 0.0169888617294865832)
(0.105764582379724192 -0.577444611641201755 0.0201983441536246339)
(0.100956163804266821 -0.572926559730733143 0.021260818238132053)
(0.105676343649987028 -0.628877055851726596 0.0313053884162493648)
(0.0830982484989943176 -0.609378504410823085 0.0220290084763710148)
(0.108833870566800536 -0.613175232341065635 0.026096120638584977)
(0.102148200097801622 -0.607349647683940619 0.0276994812678245418)
(0.0823117209880240563 -0.644270157131153764 0.0289424464140421583)
(0.109886681777166498 -0.651091098017218761 0.0341950762606349837)
(0.10067152569187196 -0.643414623072898095 0.0366169685728254743)
(0.103896722277518949 -0.666970930170437515 0.0414079164916316828)
(0.0502513081803133768 -0.476077630687974929 0.00659558726563449008)
(0.032173256680574025 -0.464908454285940576 0.00413000392472565384)
(0.0479957314778980612 -0.461981690923275068 0.00621017437871445102)
(0.0539345742123679139 -0.502614842993527322 0.00768469570236119878)
(0.0347649293099473455 -0.49016689810344366 0.00469975575797351892)
(0.0516990932664521397 -0.487341773044730031 0.00708760320116683801)
(0.0570350431650547135 -0.531058280731192878 0.00933897272609001024)
(0.0370197182377730652 -0.517349637577076304 0.00559769340656214934)
(0.0563416430670523743 -0.518108876472876623 0.00816621632721010494)
(0.05484084986669234 -0.514610261279550452 0.00847299239510156989)
(0.0593318420482486647 -0.5611473666265685 0.0117291446743917442)
(0.0388093302180297778 -0.546191714995107658 0.0069232350714924654)
(0.0593773793444468817 -0.547831823674888807 0.010056818373831088)
(0.0572128060445789011 -0.543531942410060975 0.0105207950128246401)
(0.0605114057913763159 -0.592535712785701274 0.0150773904318033357)
(0.0399546318482037061 -0.576336491362035575 0.00880544177387642887)
(0.0615562102721370977 -0.579221940696581616 0.0127410665537618355)
(0.058524557964101262 -0.573765758947933358 0.0134369724140826294)
(0.0601134428288546199 -0.624772733793023116 0.0196660664741638083)
(0.0402071573111939529 -0.607297351606748692 0.0114117634855621999)
(0.0625374132440907338 -0.611938489344784231 0.0164526949143554597)
(0.0583794869812346989 -0.604856264873042226 0.017489196629323852)
(0.0391815310878720902 -0.638436408553672341 0.0149525468425052883)
(0.0617843130795401804 -0.645546294084323291 0.0214773590669376513)
(0.0561831835298606461 -0.636203393180922672 0.0230223932901894544)
(0.0574758783942721022 -0.657273301454952774 0.0258456600697351928)
(0.0166719551357357894 -0.479148505490042398 0.00223417241706467574)
(0.0159250872465209019 -0.465207584520344997 0.00210416436441805124)
(0.017878591249225282 -0.505184625095051132 0.00261275346217446037)
(0.0171380039652082698 -0.490118054238497081 0.00241239327679448542)
(0.0188810264940432321 -0.532929078948737089 0.00318195575196463009)
(0.0186633939705449711 -0.520493120865204939 0.00278315064858660833)
(0.0181538742256341472 -0.516769114842871247 0.00289145634733833012)
(0.0196019151085067116 -0.56203695221025296 0.0039995321709771969)
(0.0196316656300588206 -0.549443155746202283 0.00343241799991152131)
(0.0188993691361017332 -0.544834770297205173 0.00359415351895840673)
(0.0199308710946394241 -0.592034797867796558 0.00513981482763529313)
(0.0202947414991362998 -0.57973457975303555 0.00434998322027667014)
(0.0192725112188010389 -0.573871329834397592 0.00458955166197532339)
(0.0197076569218237879 -0.622273131781703182 0.00669824385390369471)
(0.0205270432715168524 -0.610871217569969094 0.0056138234728364874)
(0.0191296865232394378 -0.603268903361810604 0.0059676166500781504)
(0.0201300945890490052 -0.642167614553470933 0.00731995484866113967)
(0.0182547325031525015 -0.63219899518503786 0.00784663988963780167)
(0.0186820629420375549 -0.651862908701290822 0.00879034828325207448)
(-0.54394580348941679 -0.755333117154346367 -0.252180504790852578)
(-0.132435525907845075 -0.447075486225613217 -0.0445986491861614445)
(-0.633086476856416724 -0.752387266425618595 -0.189639199428855154)
(-0.125467410103777849 -1.05437897745239084 -0.166704896731644625)
(-0.348222410151763639 -0.675891386519383075 -0.302807487982789114)
(-0.297642259077200044 -0.378065024772840264 -0.338127625596501724)
(0.311751572073956928 -0.574109806311787541 0.0408769588730462166)
(0.442118166519461009 -0.158488227431001022 0.0858028910623090668)
(0.452414922558593169 -0.153753698951967555 0.0517221933538022996)
(0.370995199314636148 -0.370797535735136408 0.0446130142581499384)
(0.0530675912341456724 -1.12456694962871673 -0.0947587319137696699)
(0.0976959046645991258 -0.94486292780154657 -0.141699693129919563)
(0.377123182174052163 -0.243014232045047379 0.122764957258050728)
(0.46210033352249541 -0.101796559589438201 0.192448002860184653)
(0.426938996626947009 -0.194411235364629453 0.0981185145208077897)
(0.407610015179178609 -0.291427108271707425 0.0982552298928147799)
(0.502857011681323796 -0.145516949325002198 0.165535200280617995)
(0.49235951918926496 -0.284780498426016271 0.0826032802525117765)
(0.466408806927448627 -0.292730670174037422 0.0815121160263201083)
(0.510174893427574716 -0.203750304941839877 0.120791949633740098)
(0.539106366010238203 -0.337937623446631585 0.0650750020870341228)
(0.622161362909760984 -0.235479747221847946 0.0895389464474127678)
(0.562594935255312123 -0.260537203440633969 0.0850407527320375667)
(0.628554138168908372 -0.306212474323852513 0.0564109048363604579)
(0.670404399456621891 -0.316547765144790771 0.0730863092117679802)
(0.765710170341604712 -0.186853462167858281 0.0658395209739347509)
(0.696020343146550036 -0.195761172467676742 0.129005807741589068)
(0.581160766866021694 0.000501003444703734422 0.235218245882751698)
(0.56065448995829148 -0.0550276759399526555 0.199198480552260665)
(0.572366420903663742 -0.0167700854441737018 0.214548996040261758)
(0.590329985873120466 -0.0651880830686657475 0.188071920021543271)
(0.611999674913094482 -0.0925416220474517409 0.18733185296770119)
(0.600701438414809719 -0.0910917444546972543 0.19775895253924225)
(0.601199959115351179 -0.167154419632916773 0.124320586339457778)
(0.648162281722421851 -0.164556093276957249 0.146959200273043655)
(0.616595966543202367 -0.174463352283027895 0.142399707229407646)
(0.651744448684105748 -0.283870173065759568 0.0685881154963929179)
(0.687463477976053561 -0.261381226661932753 0.0957116281021022364)
(0.652037509913164226 -0.272390212887146321 0.078346126927278617)
(0.735969974622387335 -0.350403781842872963 0.0495785541328914933)
(0.720091208411664963 -0.38527922539869025 0.031099119787158843)
(0.722400408924522175 -0.400738827391139807 0.027903813822575587)
(0.589346381403722419 -0.120148050357042332 0.151312087637209935)
(0.489351520841268206 -0.188347614398137769 0.117005939431482561)
(0.539776171454999343 -0.135914027395785286 0.165828548839663276)
(0.671160366768587369 -0.155878185071524872 0.146219133219201575)
(0.565121651661640634 -0.211593919763508692 0.128379605063731195)
(0.606294794709440144 -0.188853618097552745 0.162834696711708554)
(0.736728748568981184 -0.226065149590164466 0.118350242035688238)
(0.642784984662729042 -0.251105104724104022 0.119411273136874718)
(0.674765470625952823 -0.249556724461348217 0.142980270275852028)
(0.775149214030949163 -0.318369717766126215 0.0767020667386008326)
(0.701877486082354229 -0.324574680800453541 0.0856544144587311207)
(0.731046357921724455 -0.325755839077093712 0.104987385390617027)
(0.734035179938992588 -0.418845645472610051 0.04821610329590445)
(0.771206526819745442 -0.407227069359269556 0.0669948996037326577)
(0.798998092130337789 -0.41335684957177754 0.0377259342926201877)
(0.463448213735467351 -0.283543841915638251 0.094073456858003876)
(0.415311179005762809 -0.279565150003583396 0.0604629141605506903)
(0.433988039884446175 -0.267473932668673642 0.0795044093929732493)
(0.538899618708718942 -0.308486321468274816 0.101571744981404297)
(0.476906604030337022 -0.317267986365405985 0.0761290593041734631)
(0.496468139976877221 -0.308319187653545601 0.0928861990647787406)
(0.611890462978065264 -0.352030703404126233 0.0867154455599176005)
(0.544588372386388686 -0.359734707848860691 0.0750220817337318574)
(0.567824511599041237 -0.349509818680669604 0.0929486787484816168)
(0.659979291794972389 -0.421515763722626002 0.0571684510160345438)
(0.60073557366676078 -0.419954038358834103 0.0558978486773080777)
(0.630662222860334465 -0.403591040049930905 0.0724923256734153892)
(0.633106949479291359 -0.494555656684759259 0.0355913473903451197)
(0.66873196394026635 -0.475919408863199833 0.0472415140025296415)
(0.682200479811589711 -0.506840896750579195 0.0314456611577291628)
(0.426662494191153208 -0.316011571464705154 0.0425185166067205689)
(0.387087774938609408 -0.317983425660842756 0.0231408951081397765)
(0.408770373777884222 -0.274962524817918053 0.0135206297593693549)
(0.484130050547576407 -0.369759690461050006 0.0495793960565010933)
(0.435558425245170022 -0.366669499055559678 0.0349664837787637753)
(0.461815193636414989 -0.333818258519359146 0.0326973510784131366)
(0.536233821227529495 -0.427945267450310141 0.044204484851122279)
(0.482864918145836763 -0.418197473252928664 0.0380774744855329264)
(0.514305001311374355 -0.392884570428386926 0.0400274622271260122)
(0.573403922816328016 -0.493219730774721477 0.0343207450516186049)
(0.522176462800869934 -0.476701864790265384 0.0338222758939414961)
(0.557940334219107603 -0.456431352343709129 0.0364529176250215428)
(0.548556461643206483 -0.540750608498316687 0.0300970733798539766)
(0.587571592757004435 -0.523433902749372404 0.0313760356498925391)
(0.595998138491885099 -0.559108098570271994 0.0286723584059911524)
(0.394509770023286854 -0.370844993213984231 0.0155888622801830436)
(0.350992475836840512 -0.376560237223742489 0.015202676014286539)
(0.377646113173695952 -0.350064533139846756 0.01115248083569703)
(0.435146081506799898 -0.417741345613352077 0.0234645622077956709)
(0.38721249874737973 -0.418074426085161988 0.0221313952224216522)
(0.41886684556646403 -0.395065690757095134 0.0203984934476094289)
(0.469927961025253749 -0.469734242046172201 0.0276952655283521434)
(0.420194285057728267 -0.464359023177889019 0.0274073488018781522)
(0.455265573722134498 -0.444381480856873345 0.026893661444068611)
(0.497041945385209794 -0.527068445442631428 0.0295986042221768608)
(0.449421757389365017 -0.515999168613024528 0.0304579907364070611)
(0.486462498377991659 -0.49797273949011267 0.0298238456376722257)
(0.472237347001316976 -0.572659285341472701 0.0338482223657155454)
(0.510390370336916366 -0.556195222246735566 0.0322573611071089172)
(0.517046989488792907 -0.585298850698103168 0.032227697127892134)
(0.342946080615312732 -0.424874281536307186 0.0217452089565251354)
(0.30238020350266881 -0.423019917188216577 0.0207625575109952575)
(0.32947786316139277 -0.405348302861788135 0.0222716842319730518)
(0.372395746463865862 -0.465698786206012294 0.02607418181650413)
(0.329505966189603983 -0.460747741367654784 0.0247663411729248072)
(0.359721084468660968 -0.444033064051176707 0.0257563918370217609)
(0.399926798000041384 -0.511835986009414823 0.0301700740099330768)
(0.355444975639567673 -0.503431132551827809 0.029110836877900375)
(0.388156689932451116 -0.487510062480555117 0.0291598099694495294)
(0.424360821796011256 -0.562967424330523158 0.0347076088799457422)
(0.380118856278554684 -0.550626147818084499 0.0338446499965783451)
(0.415042786349086978 -0.53541586191872359 0.0326907862552255277)
(0.401525722832414445 -0.602216857531559069 0.0400561035339575613)
(0.43829759050614725 -0.587915775602089519 0.0374462767320100642)
(0.445524350145188541 -0.615207072175276926 0.040675028580775742)
(0.288489082898171545 -0.459644739220404552 0.0237836897273949396)
(0.252400009369920575 -0.454782963787910555 0.0217689838051228421)
(0.277826896708745608 -0.44105586207448727 0.0216509624761014562)
(0.312407024882570883 -0.49914416169961684 0.0278029962343210348)
(0.274076348789490165 -0.491520607457133663 0.0252871365195256464)