/*--------------------------------*- C++ -*----------------------------------*\
| =========                 |                                                 |
| \\      /  F ield         | OpenFOAM: The Open Source CFD Toolbox           |
|  \\    /   O peration     | Version:  2206                                  |
|   \\  /    A nd           | Website:  www.openfoam.com                      |
|    \\/     M anipulation  |                                                 |
\*---------------------------------------------------------------------------*/
FoamFile
{
    version     2.0;
    format      ascii;
    arch        "LSB;label=32;scalar=64";
    class       surfaceScalarField;
    location    "0.0899999999999999967";
    object      alphaPhi0.water;
}
// * * * * * * * * * * * * * * * * * * * * * * * * * * * * * * * * * * * * * //

dimensions      [0 3 -1 0 0 0 0];

oriented        oriented;

internalField   nonuniform List<scalar> 
20390
(
-2.650079619618937e-10
3.56626696904480065e-10
-1.72382969279236436e-09
1.29048105310269223e-09
3.93484529924420649e-10
-2.21635612207348461e-09
-3.5154997813468936e-09
6.22445242519753972e-09
9.84143977437454133e-08
-1.35033579862252691e-08
-1.34015513667048255e-09
-1.85912373456817925e-08
3.1267513212413039e-07
-3.35447565288150852e-08
-1.0542307858049426e-08
-8.51129780193977713e-08
4.81344746303159502e-07
-4.62792358225562287e-08
2.38907699218560273e-08
-1.52453063862825624e-07
5.90355655209384918e-07
-4.83637982737292093e-08
5.83994148017051689e-08
-2.19071046646299425e-07
6.37111428483191596e-07
-4.2692608656988365e-08
8.04439941038454257e-08
-2.72053357821648964e-07
6.22737382838178656e-07
-2.6703346423622282e-08
8.62052979493343329e-08
-2.92516710490796306e-07
5.42632597698811585e-07
3.63826033763460515e-10
7.97223859442675363e-08
-2.63928629267690163e-07
4.30166018679039316e-07
1.43110242893890456e-08
6.75405115739910119e-08
-2.2446907747300187e-07
3.09019418240790559e-07
2.17023946756486728e-08
5.25088786711373754e-08
-2.24049549201549216e-07
1.91572630381414435e-07
2.59285603066454604e-08
3.70036828184496777e-08
-1.8180542990942153e-07
8.98831480040461101e-08
2.43403744191138396e-08
2.32895724983617653e-08
-1.04851605476876612e-07
3.54322883715871551e-08
1.75044728941953719e-08
1.33892533462264092e-08
-3.84447251619654111e-08
1.29642584585534346e-08
9.40950734679064065e-09
6.33809932996174122e-09
-2.03752034477947613e-08
4.15965109910506682e-09
3.74443992340921621e-09
2.50065085291211613e-09
-9.87898619277331595e-09
1.17138123104537601e-09
1.13778167721402614e-09
8.66168140782685021e-10
-3.84877213201453377e-09
2.88716339383950253e-10
3.03502861506861644e-10
2.64443739015095465e-10
-1.20120036115985828e-09
6.53665127335854937e-11
7.1419056100447303e-11
7.04951763532260993e-11
-3.10226358350130408e-10
1.34803795162283313e-11
1.50435615993305345e-11
1.60483872421901129e-11
-6.86560077501230135e-11
2.51780900448781831e-12
2.90629414436424653e-12
3.14969661699889466e-12
-1.32937032716555647e-11
4.29832749956392395e-13
5.0966677749474436e-13
5.38865436757136372e-13
-2.27872114500127088e-12
6.96897864104152783e-14
7.94199957199741111e-14
7.88728634674709368e-14
-3.4222131598104156e-13
1.17011823332954271e-14
1.06254149619175835e-14
1.03304789549163681e-14
-4.33441909847535316e-14
2.40748287904951066e-15
1.40279802259860406e-15
1.28969253435320446e-15
-5.06529652140638549e-15
3.45612157338711092e-16
1.82594943271641376e-16
1.58731808338769583e-16
-5.6763043908813836e-16
3.40832092476520999e-17
2.06126205159020931e-17
1.47060201616504505e-17
-6.06007188104493831e-17
2.90634524238939773e-18
2.0456617660253792e-18
1.23709240834686012e-18
-5.2287664524880236e-18
2.20150226750935573e-19
1.82509275939125869e-19
9.35755643181239124e-20
-4.03724207473004693e-19
1.45532791880819303e-20
1.45901902961815095e-20
6.32308250944410494e-21
-2.78033972582185588e-20
8.25330784394360064e-22
1.03444753206760399e-21
3.78518587831602162e-22
-1.69464652471828397e-21
3.9256613671058031e-23
6.41216335712790515e-23
1.98521493356542786e-23
-9.04266700831269917e-23
1.51668675159323848e-24
3.40919309023079366e-24
8.98517524932305304e-25
-4.16175888303560276e-24
4.53490878098042171e-26
1.51448558220470075e-25
3.4350337759855132e-26
-1.61718356432533073e-25
9.68959995965347534e-28
5.40877200588714625e-27
1.07330120373717556e-27
-5.13389831177374357e-27
1.27857928372433418e-29
1.45724131342072738e-28
2.59137869555090863e-29
-1.25885107912116034e-28
5.75066273244548734e-31
2.64383184746553178e-30
4.3269259575954302e-31
-2.14473883260950436e-30
3.09418248899392973e-32
5.66239837021719795e-33
-2.9183452771390519e-32
-1.58993324939284417e-09
9.30107377209874318e-10
-8.53144977232858617e-10
6.02884270155451563e-09
-3.91461319554007021e-09
-1.70549708138993472e-09
-2.08086981864906527e-09
1.13187366348535453e-08
-2.3975530493472391e-09
-9.12873289770008e-09
-2.55407106193693359e-10
1.50598789346161313e-09
7.59298395197411409e-09
-1.98389693803061796e-08
8.13985503886989332e-10
-1.2975718367817244e-09
3.24542383065671743e-08
-3.10327064004792913e-08
4.00524237570918583e-09
-2.43491080674707964e-08
6.06036558558097277e-08
-3.62318005028657646e-08
9.12623853916969205e-09
-5.12757452872024921e-08
8.76935530938430556e-08
-3.38889549103282106e-08
1.76557570302072013e-08
-6.83987594651823438e-08
1.08686581269246774e-07
-2.15234959661657912e-08
2.19009384478337924e-08
-7.55732020307109821e-08
1.19773820027707116e-07
-4.61797076037328262e-09
2.4643426931275808e-08
-8.34461255969756211e-08
1.19413820400898916e-07
1.26231564206656689e-09
2.59119735764678851e-08
-8.58000154644449093e-08
1.1212182706115751e-07
2.64075796508866448e-09
2.5970071243424732e-08
-8.14537145956859034e-08
9.5183781501714807e-08
4.10464277726598029e-09
2.18661519710791627e-08
-7.27597888846327361e-08
6.83335936536329858e-08
7.26787854994845123e-09
1.55059062118465299e-08
-5.70183055240488316e-08
3.57378235973788256e-08
9.25035552701317037e-09
8.7822349270610211e-09
-3.47649403808140898e-08
1.24864330971547113e-08
6.23888263273083567e-09
3.89785201061160514e-09
-1.91090393439232874e-08
3.0865881577038234e-09
3.10016113099667948e-09
1.36139491019426724e-09
-8.27629108490194305e-09
7.34166387449213329e-10
1.02488610777767382e-09
4.37219938668560478e-10
-2.75590932285010841e-09
1.96148192101807767e-10
2.85611313408759609e-10
1.8013908489989214e-10
-8.5030400668117491e-10
4.82516088519595565e-11
7.3445613129898385e-11
5.12955538760599412e-11
-2.30710020402869848e-10
1.02760992729889254e-11
1.79478894016949155e-11
1.25660952307423561e-11
-5.32893538315171253e-11
1.99314023071888144e-12
3.64573913144443175e-12
2.56881525768245048e-12
-1.07092145252985645e-11
3.54480206636495585e-13
6.79791391716498311e-13
4.52736959861511204e-13
-1.88895918252309659e-12
6.07092200891899669e-14
1.11472978052059125e-13
6.7732960089257607e-14
-2.89795871350948898e-13
1.06694915309895143e-14
1.63980743326228421e-14
9.21240388356963549e-15
-3.75542231525997827e-14
2.311700348246307e-15
2.3161245188553244e-15
1.19443368888321562e-15
-4.54021738978040077e-15
3.33335040638026918e-16
3.17631021429158358e-16
1.48346197253202232e-16
-5.32090811371908776e-16
3.28833198564290879e-17
3.66616851779715184e-17
1.39643147808542426e-17
-5.7054260633501068e-17
2.85568469290638446e-18
3.74525855481251998e-18
1.1942523947322287e-18
-5.00226300642962805e-18
2.20045018530131217e-19
3.44517462455717231e-19
9.18295676178179762e-20
-3.92586031996428929e-19
1.47992952026825182e-20
2.8424835228621028e-20
6.3083289115486531e-21
-2.74855194599948608e-20
8.54382120004968495e-22
2.07903659636385117e-21
3.8398651979299581e-22
-1.70337899705090532e-21
4.14123571767857504e-23
1.31422158932555626e-22
2.04861324320939707e-23
-9.24593233846655362e-23
1.63203101918022964e-24
7.11526022132538653e-24
9.43329773616637257e-25
-4.32998650035821761e-24
4.98516977122169834e-26
3.22154416431957737e-25
3.67001542255181717e-26
-1.71257345375689613e-25
1.09099002006842424e-27
1.17405671252723772e-26
1.16783698424395794e-27
-5.53788063591023683e-27
1.4793734648184812e-29
3.23821218043839064e-28
2.87672187252058795e-29
-1.38568588424365477e-28
6.79374184909254844e-31
6.01171752761331536e-30
4.91509625908691204e-31
-2.41558944434988427e-30
7.23529831631029358e-32
6.63601506518869212e-33
-3.39380468802462198e-32
-1.52784655205339397e-09
5.95485646059421822e-10
-7.63069091210992222e-10
5.35398223459481373e-09
-2.5968348837263207e-09
-1.96172696742873218e-09
-2.2016974397014053e-09
1.24102877659872008e-08
-3.00639187749765136e-09
-7.27866254784324831e-09
-1.61554046229990473e-09
8.97641239434483371e-09
-3.19977534647321501e-09
-1.26343595932163245e-08
-1.93685732314567814e-10
3.10886159243843229e-09
1.7642605736507386e-09
-1.97553907301808735e-08
-8.85241713684175907e-10
-6.04152618439247326e-09
1.29386564259714072e-08
-2.25573794731603565e-08
1.88546878646000725e-09
-2.51020707315487146e-08
2.32934478741766168e-08
-1.78115293886243672e-08
5.88159875062417193e-09
-4.22465946547525547e-08
3.07728476649612643e-08
-7.07164771532510135e-09
1.00947995765436371e-08
-4.67399053453935328e-08
3.3882573859571562e-08
1.41230756644709092e-09
1.32739443890024972e-08
-4.10277096549319745e-08
3.24842368435364191e-08
3.61176545355729521e-09
1.42479356318001966e-08
-3.8078824192257735e-08
2.76299637853501135e-08
3.87892384128418159e-09
1.24645104101923232e-08
-3.36015933509413454e-08
2.2816167786482381e-08
3.10181508976618974e-09
1.10384720911843053e-08
-2.91297292829010698e-08
1.74017439422737885e-08
2.19219701803428458e-09
8.37342861742198963e-09
-2.26370607672112676e-08
1.13632523506844861e-08
1.13782056714030837e-09
5.12260034849412243e-09
-1.50904476431291659e-08
6.17867661188685151e-09
3.76241653438615701e-10
2.92457386835574282e-09
-9.41946200907356073e-09
2.25604281919390189e-09
3.52210428614012995e-10
1.15461491234440373e-09
-4.66613684344473427e-09
5.09048658814275306e-10
3.23452353805767039e-10
3.20894641332131473e-10
-1.65962343009586122e-09
8.10294246834434479e-11
1.26768721470983713e-10
8.24290472435606615e-11
-4.52646505785793381e-10
1.92074280373264726e-11
3.2444606459825382e-11
2.3760342382049807e-11
-1.09401604874618154e-10
4.43664292933183787e-12
8.84627102101799193e-12
6.09637330498597865e-12
-2.68320731066324834e-11
8.90287455359966668e-13
2.03547884702115042e-12
1.28835553967207312e-12
-5.49541678505599127e-12
1.70220977329048222e-13
4.11801240298671777e-13
2.37585252532518191e-13
-1.00663891454979073e-12
3.39084523561043762e-14
7.23470387836060115e-14
3.70981221039934993e-14
-1.57847717138555913e-13
7.51395195396028152e-15
1.18335492684029165e-14
5.33871613640828239e-15
-2.15807781939127926e-14
1.6172504786991456e-15
1.82336209629931715e-15
7.79659248730658086e-16
-2.76021215860364041e-15
2.16857060028470359e-16
2.49259294446039597e-16
9.24162804430926295e-17
-3.60447802754651519e-16
2.11031316694987485e-17
2.83818363662249301e-17
8.85443688385502756e-18
-3.61221888593073673e-17
1.85566228722254165e-18
2.89842051831642031e-18
7.6552257074903678e-19
-3.19711993916843572e-18
1.44311636492760099e-19
2.66752388837391171e-19
5.9452243857512157e-20
-2.53333450136356932e-19
9.78714770551919832e-21
2.19885885742502255e-20
4.12256996439635429e-21
-1.79004873774512094e-20
5.69296320899607337e-22
1.60680959934949225e-21
2.53144081591445213e-22
-1.11925150970254258e-21
2.77681962117246242e-23
1.02565807431384108e-22
1.36069385504130558e-23
-6.12296934041565593e-23
1.10081106863879481e-24
5.61564148342647738e-24
6.3087533315359775e-25
-2.88757600796119696e-24
3.37993868974920693e-26
2.56983113012171673e-25
2.4698353549045944e-26
-1.14937691245843252e-25
7.42541638903235821e-28
9.45905788617282299e-27
7.90332969642298544e-28
-3.7377504903751168e-27
1.00409716033465668e-29
2.63200770467558507e-28
1.95590269862082801e-29
-9.39671200344861732e-29
4.222227210319998e-31
4.92938432654744656e-30
3.35438303259538711e-31
-1.63598493647119821e-30
6.0244692577092994e-32
4.35078176263403502e-33
-2.23550929718112567e-32
-1.32045811723352475e-09
1.98986824741491917e-10
-6.64751436779238291e-10
4.64628802043904054e-09
-2.31604002648024488e-09
-1.83936432221665912e-09
-1.79920243247440722e-09
1.02238380387410312e-08
-3.41899895072819104e-09
-5.41764143969796174e-09
-1.43536566764227751e-09
7.54451549345335032e-09
-4.64725831597726052e-09
-1.02266599186301426e-08
-3.66616947573090734e-10
2.89935950534360749e-09
-3.55855524439033561e-09
-1.27593592305407017e-08
-1.49141849240583754e-09
-1.15104511188452175e-09
-1.68971431665003754e-10
-1.19571217326429854e-08
6.1841486418118673e-10
-1.48884164387588126e-08
3.77878941095487331e-09
-6.78767790690326313e-09
2.56897179743980179e-09
-2.4186320326937825e-08
7.32857628539968771e-09
1.01284149854367127e-10
4.25066881348127609e-09
-2.6005570175437507e-08
1.04817939032975634e-08
2.23333882016755058e-09
5.84831645763462521e-09
-2.39594163617983211e-08
1.19524692764246006e-08
3.55638492865414521e-09
6.59239461688183776e-09
-2.35382924515696548e-08
1.09292037053223202e-08
3.56882317179027025e-09
5.95899750342355148e-09
-1.91933099746622317e-08
8.69398308355854078e-09
2.82005857200146184e-09
4.85320455226843235e-09
-1.4911941413132279e-08
6.14039556505794483e-09
1.90134021857486016e-09
3.53533975863038917e-09
-1.07752814959824045e-08
3.90343975152646487e-09
1.20942244507258632e-09
2.09243658017025975e-09
-7.13657151432800522e-09
2.08958928944439887e-09
5.19422922943032034e-10
1.01028555873100393e-09
-3.78534978352935945e-09
9.00179359175650031e-10
1.74371286219024857e-10
4.6717820630127825e-10
-1.77364166792072218e-09
2.75374712840826179e-10
8.01482912073257165e-11
1.69968660566837519e-10
-6.97514788423468447e-10
5.56895591615425521e-11
4.23509622741737451e-11
4.41305621608673149e-11
-2.14632707910315112e-10
1.18923708084995011e-11
1.59491326620986335e-11
1.17731529617664853e-11
-5.23044809614367218e-11
2.52480920186884008e-12
4.64985514689612528e-12
3.02474278200307937e-12
-1.30448357608768458e-11
4.97739486982926253e-13
1.15347362490745857e-12
6.48891538359443639e-13
-2.75646524027158208e-12
9.78638783992685505e-14
2.47095080702820848e-13
1.20773229019705687e-13
-5.09510864438395388e-13
2.08302661911452515e-14
4.69557760481029073e-14
2.00166069616608975e-14
-8.01829353237406653e-14
5.55978984885021037e-15
8.17855591622574634e-15
3.14837962861677437e-15
-1.15652522699288332e-14
1.01378560652505278e-15
1.34847427934764203e-15
4.6792313253501985e-16
-1.57479024315496109e-15
1.20567401375038476e-16
1.75817190806800838e-16
5.11517968805537655e-17
-2.02232255098547066e-16
1.19860702613185955e-17
2.01159026988768529e-17
4.96033266400158145e-18
-2.02375276258088299e-17
1.06561277035680437e-18
2.07321848971747899e-18
4.33369965631100819e-19
-1.80794369130320163e-18
8.36093383280693417e-20
1.92554537864002751e-19
3.39811403535556258e-20
-1.44615025101346659e-19
5.71625338404454834e-21
1.60061927783107135e-20
2.37745319564286091e-21
-1.03097002481121582e-20
3.35092684588444792e-22
1.1787027291495168e-21
1.472133971384731e-22
-6.49991776475974039e-22
1.64738392260001649e-23
7.58512800354397874e-23
7.97825567534589635e-24
-3.58484666549425021e-23
6.57988653066018166e-25
4.1860098001268234e-24
3.72770608525890348e-25
-1.70382278379836707e-24
2.03498868225869771e-26
1.9303910568406841e-25
1.47006277188742666e-26
-6.83178300393875311e-26
4.50210597850328474e-28
7.15874636822033016e-27
4.73703373900416062e-28
-2.2371539749874051e-27
6.12875108817958531e-30
2.00615184158879444e-28
1.1801662985698779e-29
-5.66158786308857882e-29
2.54133944677047299e-31
3.77835527209375705e-30
2.0369820791049941e-31
-9.91971682978828414e-31
4.69998622450204977e-32
2.64003560654535108e-33
-1.35670992115845186e-32
-1.04274374434107526e-09
-1.20514582617794395e-10
-5.73149955865948021e-10
5.08632164576628033e-09
-2.57605237415712151e-09
-1.72643028815273493e-09
-1.29696847375211683e-09
7.46892726930475243e-09
-3.80740100425651697e-09
-4.56342650315337085e-09
-9.82538159200784785e-10
5.47991568596855647e-09
-5.40299262564950158e-09
-7.9118174851232176e-09
-3.86174649109911738e-10
3.13025567859299276e-09
-4.71862621751448148e-09
-8.00858349714873195e-09
-9.08840915319360557e-10
-1.56364404757761464e-09
-3.18479781291050195e-09
-5.35794182997926164e-09
3.01694532784523968e-10
-8.6170101033775739e-09
-1.67803623737946073e-09
-1.60549439110031805e-09
1.21438734864778734e-09
-1.14438398722207819e-08
1.55232701765211464e-10
8.05112640383633235e-10
1.8963273456366328e-09
-1.03369440178200087e-08
2.27483304115952026e-09
1.93610693494451639e-09
2.68949257432948572e-09
-1.22875481320993926e-08
3.47271499644251005e-09
2.39397195492288348e-09
2.94681016641197072e-09
-1.12910034746557132e-08
3.66721518602434825e-09
2.12130393376671916e-09
2.62606039801628901e-09
-9.11646256427660276e-09
3.08169436219490051e-09
1.62260462494567966e-09
2.07466960796443006e-09
-6.80727410594445724e-09
2.33472898218483946e-09
1.15425583022943171e-09
1.45582220740382475e-09
-4.98894745745204102e-09
1.57036011271015204e-09
6.8958793306496574e-10
8.75069536072550667e-10
-3.09452715877186202e-09
8.56975926292220121e-10
3.41844671708796327e-10
4.3169905439563258e-10
-1.67084931247366201e-09
3.65565487381907683e-10
1.34486244564766735e-10
1.73658596182889829e-10
-7.50188321999682282e-10
1.2056210637444239e-10
4.94671300619264847e-11
6.51474329809500052e-11
-2.87786650928091388e-10
2.93622085531814977e-11
2.1929749858476496e-11
1.95437529862070407e-11
-9.15541965641896798e-11
6.17754101682006639e-12
7.91415035701279357e-12
5.42220356666502169e-12
-2.42085006673556371e-11
1.2669248970719206e-12
2.38911081522199428e-12
1.3919684396564458e-12
-5.99843075914827017e-12
2.52037843579400937e-13
6.22146307356220196e-13
3.03215165327165836e-13
-1.29048981120717929e-12
5.41181513205440732e-14
1.3994343242906596e-13
5.80731761675124121e-14
-2.3978380195946676e-13
1.33819819514037056e-14
2.89307753123880496e-14
1.0099553390601209e-14
-3.90799695988787904e-14
3.47587202983505337e-15
5.44743410693517786e-15
1.73711812314189913e-15
-5.91247963827239013e-15
5.63598535719771082e-16
8.67930242377641205e-16
2.4362658593024598e-16
-8.89967568474923007e-16
6.34540550312892164e-17
1.1200404784792738e-16
2.65739591921135e-17
-1.05544452789392511e-16
6.3997483928743509e-18
1.2898596210067928e-17
2.6060072419822317e-18
-1.06355229280920618e-17
5.74737908839319542e-19
1.34186673042612958e-18
2.30053956948480253e-19
-9.59312754916040479e-19
4.54911726928868787e-20
1.25774074276877815e-19
1.82137656992969864e-20
-7.74664811103076183e-20
3.13559455121481252e-21
1.05449109870033455e-20
1.28592112809914814e-21
-5.57265270535816577e-21
1.85245065465710598e-22
7.8282661199349822e-22
8.03084400737188497e-23
-3.5435137369525547e-22
9.17581337234198181e-24
5.07595646263649541e-23
4.38743263880152411e-24
-1.97017755853141184e-23
3.69210562202968588e-25
2.82198154767354562e-24
2.06559969467217694e-25
-9.43579078708145526e-25
1.15024028123330331e-26
1.31089373883227522e-25
8.20574111118570002e-27
-3.81114775988546189e-26
2.56322286194339238e-28
4.89692175191718201e-27
2.66313088173930542e-28
-1.25686099034138009e-27
3.51429657384380945e-30
1.38233127533813267e-28
6.68164465291345164e-30
-3.2029258843409123e-29
1.39781830690957082e-31
2.6227206599428587e-30
1.16131664895526538e-31
-5.65073422735826332e-31
3.25659076403007095e-32
1.48618371598662703e-33
-7.65598786414078254e-33
-9.12489003294764513e-10
-3.58654864130980754e-10
-5.27753327297450091e-10
3.94422639101872088e-09
-2.80945066970206023e-09
-1.75435686489293566e-09
-9.9159900000700835e-10
5.88710698476868273e-09
-3.68962243373160013e-09
-4.83308452688272947e-09
-5.37052806098298887e-10
2.93923456922634571e-09
-4.85860057919568871e-09
-5.87525620397568176e-09
-4.28852256059787924e-10
2.83759031269821214e-09
-3.87117167715514143e-09
-5.23279975449468881e-09
-4.94896046436025535e-10
-1.92229705554481598e-09
-2.64896099870009418e-09
-2.36387747334713921e-09
2.70347071208672153e-10
-4.76734795607122761e-09
-1.69848828896888838e-09
7.81818786174147115e-11
6.98729640861567932e-10
-5.47683803781420732e-09
-6.02204883461479831e-10
1.12860523429198702e-09
1.09073168756427332e-09
-6.05567091391815e-09
4.72860471581072075e-10
1.60067978502009436e-09
1.36201255805739938e-09
-6.38774955114083949e-09
1.15643442976422126e-09
1.5478940311108689e-09
1.40702322111595251e-09
-5.62163190866183661e-09
1.32576720024993117e-09
1.20021302270171637e-09
1.20816399554662494e-09
-4.40420480037923753e-09
1.24559818213350899e-09
9.03983623706322953e-10
9.28165800331536178e-10
-3.384276694980977e-09
9.88730305376151254e-10
6.16309003903262244e-10
6.32906811264216625e-10
-2.29616268243375066e-09
6.7153273234411593e-10
3.54749553080195351e-10
3.70592005737370922e-10
-1.39506417471146061e-09
3.73221240541350908e-10
1.71376737307638581e-10
1.78770412224578346e-10
-7.34793228417443965e-10
1.62143508351322248e-10
7.17371706562955643e-11
7.19653761206594443e-11
-3.27417173932219505e-10
5.46681633220149207e-11
2.84255497563231144e-11
2.60953204994748815e-11
-1.26579495432348168e-10
1.40384075533149238e-11
1.11282273757295327e-11
8.35950445504792847e-12
-4.04037725669449749e-11
3.02189775823507029e-12
3.88742372830212655e-12
2.42479866891105926e-12
-1.08957392044699371e-11
6.18969052101271495e-13
1.20043197444854709e-12
6.24326917232427978e-13
-2.68739478749315462e-12
1.28402276122429402e-13
3.27129199886661295e-13
1.38873928908731859e-13
-5.80877544140283887e-13
3.0469877956431583e-14
7.99494969413174436e-14
2.80447739200395519e-14
-1.08201363746170211e-13
9.48217183696063379e-15
1.75357474383626804e-14
5.42983053907288809e-15
-1.86786692449295275e-14
2.02959189183655611e-15
3.43092367036779957e-15
9.51470249348300915e-16
-3.04595636428433963e-15
2.79312495039054375e-16
5.08361801120691412e-16
1.19160256838414875e-16
-4.56743524448883291e-16
3.18884808019761938e-17
6.5569259522938114e-17
1.31254751951957284e-17
-5.23059306267381246e-17
3.25326546996182238e-18
7.61365539388063215e-18
1.3011437207813499e-18
-5.31312329653692518e-18
2.94899956306869802e-19
7.99425889101431255e-19
1.16031557422886831e-19
-4.83855968209784599e-19
2.35385099890629868e-20
7.55902909524725476e-20
9.27387257093448458e-21
-3.94374412830568697e-20
1.6352936271428814e-21
6.38936835943854414e-21
6.60634437495899768e-22
-2.8622140366970715e-21
9.73423891683577799e-23
4.77980023825818454e-22
4.16075015666290137e-23
-1.83539438819332434e-22
4.85725381224667145e-24
3.12208467531323835e-23
2.29121197692275365e-24
-1.02862922219399457e-23
1.96863405316374251e-25
1.74817779582262155e-24
1.08686262825010054e-25
-4.96370739401901137e-25
6.17730047947214456e-27
8.17859946742264588e-26
4.34931296717703424e-27
-2.01939660147932837e-26
1.38640222583346822e-28
3.0768492077351343e-27
1.42171710245475219e-28
-6.70674200555424092e-28
1.91422003561856764e-30
8.74674647781314913e-29
3.5922693621729843e-30
-1.72102221151910622e-29
7.27128997735539213e-32
1.67126156181438224e-30
6.28724612713070968e-32
-3.05731368706466908e-31
2.06932069714989758e-32
7.93281285218126586e-34
-4.09796852737847618e-33
-9.13189864241057906e-10
-5.48759750224363227e-10
-5.85429020674840095e-10
4.33530120201089063e-09
-3.00162098294665975e-09
-1.86651166516693401e-09
-8.40577846625620754e-10
6.03039477340374963e-09
-3.78734301154806959e-09
-5.41011980643459525e-09
-7.22831411405632202e-11
1.16609132471279137e-10
-4.23715177394703728e-09
-5.1854949194301454e-09
-5.23503846943525749e-10
2.4586322884667259e-09
-3.11949899071419113e-09
-3.55736598501115566e-09
-1.44063970289936959e-10
-1.98695094617689523e-09
-2.02227189521346445e-09
-9.61388114004579645e-10
3.04417575355955796e-10
-3.41368674050846501e-09
-1.20827652986667745e-09
5.56106838009904612e-10
5.191118186729096e-10
-3.51193158392524611e-09
-4.43982699598446912e-10
1.16487232275596679e-09
6.77506134897605606e-10
-3.82085916715132914e-09
1.75206707080560387e-10
1.23449686446668876e-09
7.41354113011538931e-10
-3.49656910571846561e-09
4.80474573513380153e-10
9.74808755966515261e-10
6.71157573436905685e-10
-2.75204784884704584e-09
5.72310950594045914e-10
6.86619417013021396e-10
5.49529387827017351e-10
-2.12815701906602187e-09
5.43825093124645832e-10
4.72701724781396805e-10
4.1286217946394819e-10
-1.54832284096019758e-09
4.37201235178682407e-10
3.06449522711167428e-10
2.76122883143006515e-10
-1.03780057559742794e-09
2.9648876943740363e-10
1.71705984209156162e-10
1.58974571888490519e-10
-6.22189836294838637e-10
1.64382008143127916e-10
8.17820511327359045e-11
7.61980927564742765e-11
-3.22213709064890568e-10
7.1727942128983845e-11
3.46003546930727081e-11
3.07502506421589786e-11
-1.42236516202131816e-10
2.4634686117523308e-11
1.38221076935022498e-11
1.08850924976740504e-11
-5.48692823192816733e-11
6.53555278009625646e-12
5.35239457541930766e-12
3.62762420175717461e-12
-1.75806264666150119e-11
1.43999951225923091e-12
1.89185728660460852e-12
1.06539538708285383e-12
-4.77642183030667806e-12
3.03007484674504056e-13
6.00472094937654011e-13
2.80346741595515047e-13
-1.17453946314965551e-12
7.06351197874647264e-14
1.73692797139582876e-13
6.48000249200980342e-14
-2.54478752608680343e-13
2.08359288756732403e-14
4.51307517132387643e-14
1.40493585665374759e-14
-4.97246447811509118e-14
5.68455069207336028e-15
1.06081996683662114e-14
2.84623136652432249e-15
-9.11301309694939321e-15
1.02040832459101768e-15
1.90541954724094103e-15
4.48386545649125837e-16
-1.61230638103487608e-15
1.33457602690534847e-16
2.77714504220610561e-16
5.58886150699448426e-17
-2.1654511024562208e-16
1.54095683111387298e-17
3.59941197696571682e-17
6.21842118945662034e-18
-2.48381225532572872e-17
1.58789128521161066e-18
4.21695759899839197e-18
6.22927397082639842e-19
-2.54543574233727887e-18
1.45201843347354032e-19
4.46789879494765961e-19
5.60994864984635466e-20
-2.3400316397570178e-19
1.1683537170001917e-20
4.26042138689875399e-20
4.525436702128593e-21
-1.92465630920813725e-20
8.17891328016519178e-22
3.62954838668116064e-21
3.2521451198642292e-22
-1.40900880219818394e-21
4.90431476624646337e-23
2.73531238527556028e-22
2.06526860143843983e-23
-9.11021248049719895e-23
2.46476555030739266e-24
1.79930153777841549e-23
1.14619424067254895e-24
-5.14572466121453304e-24
1.00607870644849847e-25
1.0144947277239343e-24
5.47786240325392654e-26
-2.50151495403794642e-25
3.17929786298905862e-27
4.77911715695825703e-26
2.20814954844041157e-27
-1.02496962040613952e-26
7.18552818601544305e-29
1.81043510408127973e-27
7.27015499736578074e-29
-3.42796869185594649e-28
9.98998212819129639e-31
5.18217218200012275e-29
1.84993185317823329e-30
-8.85755799961475741e-30
3.61008534281351682e-32
9.97027044836156691e-31
3.26025510942500687e-32
-1.58434302566058569e-31
1.22897603460298488e-32
4.05075661765735526e-34
-2.09870168540207149e-33
-9.09779707997324895e-10
-6.54338009309302289e-10
-6.10883300047982763e-10
4.34508212956960907e-09
-2.98590535447560448e-09
-2.21272522228801536e-09
-6.6567415379757463e-10
5.6282204629301556e-09
-4.23013948899072844e-09
-5.69210747754023498e-09
-1.543373044983544e-10
1.20229378414174324e-09
-3.81770671008491306e-09
-4.5018099440405361e-09
-5.40835938387892168e-10
6.94948230464256503e-10
-2.6576458993922747e-09
-2.20082610341081819e-09
7.5188617614415591e-11
-2.5006812905033988e-09
-1.64043023101152327e-09
-1.85063372023841362e-11
3.58318613956024957e-10
-3.35803654850114651e-09
-8.28575727420669336e-10
8.275782971745746e-10
4.63174059870143145e-10
-3.10245478379146626e-09
-2.30433614252707482e-10
9.98957125632759198e-10
4.49110781958950554e-10
-2.52463401731400095e-09
1.18545070455312344e-10
8.50308365440184255e-10
3.98488380088814338e-10
-1.88664639047047566e-09
2.48744247051726746e-10
5.83668005405042239e-10
3.16266300801173996e-10
-1.33915364212610332e-09
2.75905810344368089e-10
3.78595305844575847e-10
2.47353391099438358e-10
-9.87287934156281786e-10
2.5144329238048491e-10
2.39523505349137237e-10
1.81342468667894158e-10
-6.99748230929854781e-10
1.96965952963947594e-10
1.47392386336442132e-10
1.19583955832611238e-10
-4.61449541355642589e-10
1.30732511571856407e-10
8.08003886101589989e-11
6.79621233059969155e-11
-2.73189166583337292e-10
7.16678946966786883e-11
3.83603187389536253e-11
3.23962110469764298e-11
-1.39149378297172644e-10
3.1240612546039233e-11
1.63151723821929889e-11
1.3083359120539307e-11
-6.09781660098907474e-11
1.08549674394190092e-11
6.58731967296636562e-12
4.64229661329401441e-12
-2.33698720378139054e-11
2.97016229889847619e-12
2.55792433150709681e-12
1.56048470800050676e-12
-7.4920724934136671e-12
6.7604724648382663e-13
9.30788116866485349e-13
4.66369591336458759e-13
-2.05165436566130431e-12
1.5278917523605003e-13
3.09160327811834141e-13
1.26028801256719221e-13
-5.02961428065128185e-13
4.0453221243353998e-14
9.43994559110780878e-14
3.03653484255122845e-14
-1.11111624090554167e-13
1.31098899246446345e-14
2.63966077725252163e-14
7.12850313310693025e-15
-2.27028157714012725e-14
3.04296036625984911e-15
5.89686124548062052e-15
1.40261636552632698e-15
-4.51218796720007393e-15
4.71000264607338088e-16
9.88821526355043815e-16
2.01835664908880041e-16
-7.53779084124315841e-16
6.1679808733100845e-17
1.43615510327018565e-16
2.52801050937249161e-17
-9.85622541600221101e-17
7.19413038851645803e-18
1.87524454277849893e-17
2.84181376013033758e-18
-1.13700878654913183e-17
7.48119757634823175e-19
2.21699891282239004e-18
2.87577628668904785e-19
-1.17591254771519527e-18
6.89796659481910937e-20
2.3694439560061867e-19
2.61463277161605977e-20
-1.09100151858040148e-19
5.593628875800516e-21
2.27778876803552294e-20
2.12828623873717191e-21
-9.05332026505651592e-21
3.94467796029720641e-22
1.95530449976974602e-21
1.54265735343296134e-22
-6.68474831137084195e-22
2.38215651684562531e-23
1.48411579656427697e-22
9.87626533676320411e-24
-4.35746501268967569e-23
1.20557948364763499e-24
9.82933008108350774e-24
5.52336494442466154e-25
-2.48002337534217967e-24
4.95540445050148124e-26
5.57949200684897327e-25
2.6594124288314446e-26
-1.2143056886236527e-25
1.57688082073485186e-27
2.64631317962825942e-26
1.0799115701966098e-27
-5.01032184269246263e-27
3.58850973992601033e-29
1.00932681532639499e-27
3.58121980514712179e-29
-1.68735459150224315e-28
5.023217184335242e-31
2.90860952560007809e-29