/*--------------------------------*- C++ -*----------------------------------*\
| =========                 |                                                 |
| \\      /  F ield         | OpenFOAM: The Open Source CFD Toolbox           |
|  \\    /   O peration     | Version:  2206                                  |
|   \\  /    A nd           | Website:  www.openfoam.com                      |
|    \\/     M anipulation  |                                                 |
\*---------------------------------------------------------------------------*/
FoamFile
{
    version     2.0;
    format      ascii;
    arch        "LSB;label=32;scalar=64";
    class       volScalarField;
    location    "0.0899999999999999967";
    object      p_rgh;
}
// * * * * * * * * * * * * * * * * * * * * * * * * * * * * * * * * * * * * * //

dimensions      [1 -1 -2 0 0 0 0];

internalField   nonuniform List<scalar> 
7236
(
-1.55978948964114728
-1.51843270112467343
-1.41882563733527811
-1.22749565585010245
-0.954015259427951068
-0.66484972220844607
-0.370575084073018923
-0.0736666581823090805
0.232914369884380246
0.53489552648625116
0.820410174932672209
1.04763138508802789
1.18126936620320455
1.20939724403609739
1.18322633549506606
1.12352805703252523
1.05000771736609999
0.976995700517285348
0.911092524093575329
0.853255853491605598
0.802884477828620935
0.759002161053342284
0.720615047294370648
0.686903702688515971
0.657232830788627931
0.631090772615896523
0.608061680163565876
0.587808499542546992
0.570059398695813346
0.554593870307506731
0.541230825799331794
0.52982161200209732
0.520245554375735719
0.512405251026543551
0.506222678384251501
0.501637545366524051
0.498604261641659885
0.497093719298496162
-1.61157326676125945
-1.5305655805024172
-1.40913151099706768
-1.23449004659527239
-0.997792838279055183
-0.73365453673718406
-0.455698534574239256
-0.165438166088072519
0.136136993299702774
0.423890015018142385
0.684102686336390375
0.913561191007991713
1.0810841272747167
1.16286096735489175
1.16209964568354818
1.10962797261202395
1.04023377571629716
0.970339970871420765
0.906222153398762886
0.84957957564548825
0.800084782701809938
0.756823493654322221
0.718880918888655684
0.685494735156008339
0.656063847677003431
0.630101729727204352
0.607209309280414278
0.587061138747056899
0.569393840480354796
0.553992610537927477
0.540680188502044801
0.529310933058103839
0.519766484072106905
0.511950802665707694
0.505786629010196109
0.501214799635379515
0.498191525718789219
0.496686987775659838
-1.69666711906290879
-1.56071088498063326
-1.43039146080526947
-1.24670712451147958
-1.01617021938026997
-0.750739776308895435
-0.471671181492331115
-0.186323530724778919
0.0988213253015453874
0.371826843969776277
0.617216154289825569
0.819394558892010849
0.97168159554814737
1.06382078814808456
1.08901909561529342
1.06538351222000771
1.01299212231193936
0.952638586478948723
0.894389611882386082
0.84140880764465209
0.794160388750552726
0.752332359549668706
0.715349754215233835
0.682638261201011343
0.65369726108347681
0.628099301919804454
0.605482548239444252
0.585546340114619257
0.568044174013085712
0.552772730467522844
0.539562913466752891
0.528275027431763911
0.518794768870830647
0.511028823933640464
0.504902024496164281
0.50035656342781476
0.497350401903584038
0.495854605943654159
-1.77037079739109315
-1.58859728911923215
-1.4358476923450747
-1.23084839277574409
-0.99597821209848969
-0.727772953307720294
-0.451300069526951064
-0.175190698597355032
0.0972189848852617194
0.354687819415444305
0.583755194179842452
0.770148879983907797
0.904608820218316012
0.986080269306269686
1.01812818262299509
1.01074868776667448
0.976373887016307229
0.928523592104022133
0.877967576259183202
0.829775231930356183
0.785583406907878534
0.745765021967804254
0.710154893760344574
0.678416493029411316
0.650186023210855724
0.625118731534350935
0.602905593380333671
0.58328109077481749
0.566022654018285332
0.55094349313641755
0.537886267024308529
0.526719606103780991
0.517334920285827615
0.509643054689009056
0.503572191920425349
0.499066960579632513
0.496087318650228148
0.494606627356866391
-1.8132766791338526
-1.59980496781076664
-1.42268311370751976
-1.20507239340067906
-0.956755821356578884
-0.688228744033799189
-0.416471182843559329
-0.14908438037567992
0.109015123956474169
0.346274794499849603
0.554398068303392444
0.724176082568944168
0.849043039462374471
0.92762357405793805
0.963245698397055539
0.963666642398324003
0.939542073093155516
0.901655561528615146
0.858582736561326221
0.81548860117311317
0.774776425543053038
0.737356311193727687
0.703435030982045628
0.672916280068511896
0.645587263653610632
0.621199412978391985
0.599506728363694896
0.5802863541231712
0.563345320616054912
0.548517569518644832
0.535660475824546567
0.524653007166064445
0.515393833545553681
0.507799349552394363
0.501802230216269685
0.497350373633158094
0.494406041094790083
0.492944897789152348
-1.82587731954236632
-1.58855906766501165
-1.38835785832169201
-1.16248190586660205
-0.90287042432447473
-0.635720181749408586
-0.37044914711449578
-0.113452619730607315
0.127235597442655335
0.344805079943771797
0.532384299941994876
0.685617829507793597
0.800348647137809288
0.875165007608664114
0.912852063843177297
0.919460512672268471
0.903451351730182317
0.873620354430332924
0.837245793611484657
0.799192231090388949
0.762135176288950333
0.72734919072043791
0.695342622608286276
0.666236728166075931
0.6399677497397257
0.616387849856233072
0.595319244724016317
0.576586587411924145
0.560030688699297285
0.54550940200961906
0.532897064057014203
0.52208457668281727
0.512979237847373981
0.505504282740366628
0.499597886089182985
0.49521182208833181
0.492310800623142031
0.49087203187005507
-1.80750255335921262
-1.55626502607931538
-1.3333221698769675
-1.10229343208715647
-0.84018441959872403
-0.575504609407745615
-0.318374435369798925
-0.075302578086165417
0.148000277048294132
0.346073081696441076
0.515187423767418995
0.653424349977676289
0.758147247512926392
0.828512771125630154
0.866780428874922459
0.877802247293661297
0.868206026056064561
0.845106705727928342
0.81470001966112604
0.781431452098517498
0.7480308383442964
0.715989875620963834
0.686041376953193338
0.658488581784687055
0.633404102231034494
0.610738290704226361
0.590382434507806475
0.57221094351789803
0.556100965666270874
0.54193636642336207
0.529609934116607839
0.519025623510455558
0.510100510019707465
0.502765849080363592
0.496966177376746032
0.492657583920152575
0.489807362055082351
0.488394159747824019
-1.76114687166907058
-1.50301279633145235
-1.27387522327483982
-1.03234117079774701
-0.771245718586359152
-0.511741421394196649
-0.265456840003891248
-0.0378784139730022756
0.167708865144250874
0.347736759560957065
0.500586641715788594
0.625468244543280538
0.720957727948463023
0.786768727225033437
0.82476223767686585
0.838809328253814712
0.83418132130678424
0.816665959681306841
0.791494434126299384
0.762653248418606045
0.732794257597998766
0.703513050669668516
0.675695988393955504
0.649787375445985749
0.625978152097825036
0.604310347319092278
0.584740429324710487
0.567192532368311242
0.551581510793080043
0.537818316354073733
0.52581498248459857
0.515489184163520964
0.506768614452495214
0.499593518092703415
0.49391548108190475
0.489695215166093323
0.486902753601274219
0.485518344791076417
-1.69217983526462157
-1.43452928043899486
-1.21010905780072409
-0.956914010013465322
-0.699262159504394076
-0.448743775441076242
-0.215525433872075067
-0.00352577796842873164
0.185137753278590222
0.348987798201482124
0.487496420184713952
0.600575294053586228
0.687731602235365891
0.749106266125606379
0.786278098747708598
0.802347046473482539
0.801562253116843371
0.788652606243213095
0.768028343596654728
0.743215177217857681
0.716710608048371056
0.690133777812781846
0.664465022268325933
0.640247465599344867
0.617773784161355533
0.597166887848781358
0.578440648668234636
0.561567349896548107
0.546499977054736741
0.53317695140190613
0.521529815981526701
0.511490037739776304
0.502996269684715891
0.495998453154793961
0.490455754799965171
0.486333725960011121
0.483605330142802659
0.482252702048753423
-1.60395290145959524
-1.3450607967175443
-1.12758047618464419
-0.879254618216973372
-0.627137908128400756
-0.388192384627317033
-0.169297791530732433
0.0272200386197959457
0.200268220794949964
0.34958253580218529
0.475360546191524402
0.578032431881902342
0.657724100587099625
0.714872013333188727
0.750865075246420766
0.768226971284763693
0.770408371746098997
0.761291298740064071
0.744591453533790526
0.723399359993119329
0.700020790715636498
0.676043521233800515
-1.49810018032091641
-1.24014352988165188
-1.04047414402175153
-0.799714635549999109
-0.556871022091179224
-0.331005356973302578
-0.126656933348527623
0.0548477071945766975
0.213377210495105718
0.349476073787700181
0.463869170284455734
0.557327465785862453
0.630339933029111843
0.683526104110512955
0.718136522107373665
0.73626132464469396
0.740722086323483464
0.734721501421686241
0.721391275491805373
0.703425574252097507
0.682924666622482412
0.661408670798964704
-1.36954039604946898
-1.11847301800159049
-0.948454518903967592
-0.71934138775864187
-0.488932407370051281
-0.277206591505985256
-0.0874618897677283402
0.0796180593767855244
0.224636395810270728
0.348678735088207514
0.45284459029704377
0.538095426712364766
0.605122243945581451
0.654633734411221746
0.687762852431699101
0.706265680627440107
0.712467002969762397
0.709021099937703903
0.69857258437826919
0.683462544916619397
0.665585989423736146
0.646375692898047638
-1.25587842715485176
-1.0264171302213938
-0.855606398994293693
-0.641338839498962421
-0.4247734100519725
-0.227049079763006562
-0.0517086906262441623
0.101647389887690204
0.234151011972584894
0.347216636539023182
0.442176030168630774
0.520090179522895601
0.581731782364704686
0.627846165230637521
0.659462519925044677
0.678065732347333694
0.685582464438657779
0.684224768339760203
0.676232801079575951
0.663636940278874099
0.648135176306297911
0.631066721885982784
0.345123216090241769
0.431808769121064251
0.503144175442274189
0.559917036618327257
0.602895664257739772
0.633000899635258518
0.651500477387519927
0.659995129398261215
0.660338088642380416
0.654434834686584255
0.487095258261022679
0.539497630838634556
0.579575745481483384
0.608182243161463854
0.626422501537124532
0.635624301334021036
0.637347219541130272
0.633217872653358271
0.557651718464547419
0.584822534376973291
0.602701927325793307
0.612399205585290707
-1.28780729038079822
-1.24191650539438125
-1.13901886558064702
-0.996732126209179503
-0.808584590587749674
-0.594108813866912722
-0.365113181753463079
-0.126318870514188497
0.119280580065436875
0.35831413779282878
0.574427975310442096
0.753557282187969135
0.881762456293270658
0.949911347281056972
0.966527590410982573
0.949975217985173814
0.916247296673518674
0.875663580707621847
0.833920040024697773
0.793913829805311999
0.756855192143669142
0.723003046337827193
0.692268597098013472
0.664469725521251497
0.639400914028602108
0.616862773931461605
0.59666974629959002
0.578655579828057931
0.562677045107964346
0.548611504937538852
0.53635328716852404
0.52581224421978856
0.516912575780679839
0.509590822658697373
0.503794803486605436
0.499483881293528387
0.496626526724637363
0.495202025627135112
-1.30496718137163259
-1.24723939039735909
-1.14376104991078575
-0.993999501248839179
-0.810076015805316518
-0.600908871113375542
-0.376566904191418583
-0.14159684672166753
0.0977433801387336404
0.330745393220658934
0.543182565575634824
0.720572003224301483
0.852338891448805036
0.929248182960717317
0.953333287871407031
0.941173068136144098
0.910056158040423502
0.870927410609142472
0.830177186814370693
0.790992533571249212
0.754554596047132931
0.721156069173306324
0.690757246658964985
0.663211000810225326
0.63833602515765886
0.615947667853331882
0.595870707529192134
0.57794717024375708
0.562040085397547462
0.548031254305847315
0.535818321568022005
0.525313650133114818
0.516443001949200897
0.509143784524479948
0.503364605006191956
0.499066077326620339
0.496218262470939586
0.494799382497812579
-1.32883430149553017
-1.25490734924512681
-1.14479827375000198
-0.99098444800623442
-0.805215138290272914
-0.595493852362027787
-0.37287005042438004
-0.143222361741000392
0.0881690844192277862
0.311124580512378179
0.510801629733516394
0.679223288370087386
0.807039505319422035
0.886783474403588734
0.92037418422579842
0.917673877327630727
0.893247667331769191
0.858939354626202412
0.821580486642351393
0.784659448043072971
0.74972115608021106
0.717347935307544926
0.687675329034669436
0.660658413421819191
0.636179654280871421
0.614093620817608765
0.594250349550161205
0.576509605382187762
0.560747016960720712
0.546853333521454932
0.534732697594766604
0.52430205123551088
0.515490187513145237
0.508236715042292397
0.502492106527643201
0.498218098676453447
0.495386187221763308
0.493975355573579689
-1.3462435763638827
-1.25742237190408024
-1.13662122314528879
-0.976733482182434942
-0.788487288615938198
-0.577453439376638178
-0.357396998818307388
-0.13326070697288564
0.0892216851601175392
0.300561042532262179
0.489091956967243391
0.645502861714184362
0.76400468968217139
0.841552457158793898
0.879728815842040546
0.886150256861460761
0.870349540714639103
0.842339563915952105
0.809425698232913104
0.775539075267349887
0.742678845172651925
0.711757537492355041
0.683126621995078676
0.656876206410478392
0.632974079905275544
0.611329605401370602
0.591829157513197979
0.57435775502909503
0.558808950894376544
0.545086305259666615
0.533103130392895252
0.522782749915944867
0.514058399703765101
0.506873159808856055
0.501180382557552817
0.496943776496238721
0.494136484567219925
0.492739730877086557
-1.35209934003057808
-1.25133973729997439
-1.12018748635948961
-0.953790590284696038
-0.762190167353299253
-0.551572079080051125
-0.334294289276872547
-0.116220150379273385
0.0966438359513645956
0.294875360578721213
0.470329239901186524
0.616130520739472387
0.727581325941421553
0.802544418237551627
0.842781674205548836
0.854203271125036689
0.8449355758039786
0.822942700466969934
0.794644856843229275
0.76413659319405336
0.733713172257377311
0.704554522012513562
0.67721731955915998
0.651933679884692197
0.628766533335059497
0.607689248606838706
0.58863190818240807
0.571510389894264503
0.556240524089467891
0.542741886488444125
0.530939155194547152
0.52076359145717277
0.512154200054109721
0.50505873181355454
0.499434326887207569
0.495247324308269288
0.492472795922368811
0.491094252766744066
-1.34373135866160953
-1.23370178171762945
-1.09408584855003177
-0.922116715018201138
-0.727675056548967247
-0.51873329246249178
-0.305646886032147957
-0.0948359024444982712
0.106646572878139598
0.291829744218716824
0.454420702365982421
0.589600556475699089
0.693918670493614775
0.765919089401222331
0.807252792505931738
0.822613049634085658
0.818566843719263249
0.801801811972193801
0.77793915119556234
0.750903942589540074
0.723109178908814654
0.695920544018646781
0.670066421576695603
0.645911039696620115
0.623612635008650606
0.603212209107994446
0.584687556254719021
0.567989183057181934
0.553058437896691069
0.539833292618780658
0.528251429629608471
0.518253304280043015
0.509784880844039723
0.50279968463277569
0.497259431841090616
0.493133556194675249
0.490399189245559031
0.489041400142012583
-1.32074896701841138
-1.20443686163778541
-1.05789850817157771
-0.882816022478767226
-0.686679031976054843
-0.480434511668590081
-0.273189831886320733
-0.0714716611688443609
0.118270510237357393
0.290544538459150015
0.440924731060499842
0.565999019218876853
0.663298326019317708
0.731958334760940299
0.773483971596206299
0.791690090222786247
0.791871813795185231
0.779641208436842814
0.759887626583653053
0.7362541643728574
0.711149232395680175
0.686046749070752804
0.661804512755599039
0.638899035478377342
0.617576610306401319
0.597944947494210788
0.580030418892537925
0.56382006415638275
0.54928278608056369
0.536376464543736442
0.525052836104499931
0.515262459428748265
0.506959289175535899
0.500103627208798307
0.494662418468281628
0.490608510983680635
0.487921228497187165
0.486587119161609016
-1.28444475667595315
-1.16484479049232648
-1.01512174952767942
-0.83764106857617604
-0.641515438788861858
-0.439171229276120734
-0.238869841374013875
-0.0473407331679615156
0.130474027709373802
0.290389159391971075
0.429300150666641289
0.544854311198736507
0.635408169984393534
0.700545396297743705
0.741630970998197858
0.761790099300102663
0.765347260650398376
0.756989327496111031
0.74095070569713628
0.720544743512337327
0.698095651631587044
0.675120898520146007
0.652565453449879707
0.630993650524578786
0.610728183959612592
0.591939008894953433
0.574699225089392751
0.559032554908475809
0.544936501966424514
0.532389580930920925
0.521358112955374597
0.511803291479459577
0.503687823812362101
0.496979613176626589
0.491651338672123295
0.487679477608122247
0.48504571274304098
0.483738259048520303
-1.23648429369773982
-1.11660672024467567
-0.966601668786996715
-0.787949652986640436
-0.593865442762554485
-0.396690803845233086
-0.204670117564483833
-0.0236565191568902447
0.142485773760081397
0.290761341563370246
0.419005290800039454
0.525703347557757272
0.609880057792742236
0.671454651552367388
0.71166484478042713
0.733095621614832105
0.739307764451050176
0.73422110316284428
0.72148585503454532
0.70407554319036203
0.684182936254383534
0.663319721346134483
0.642480412126727352
0.622292311388688013
0.603139543924533728
0.585249069104208819
0.568735699027907549
0.553658757479984165
0.540044588490530164
0.52789257497085218
0.517183702015470481
0.507889780492397303
0.499982623819320737
0.493438355890461366
0.488235771808318231
0.484355133901897217
0.48178070063765277
0.480502655278032542
-1.17855608492768638
-1.06101096233385328
-0.913676499020255273
-0.735424047265575198
-0.544893898417922906
-0.354271770638733885
-0.171406237085546004
-0.00101884411526884295
0.153891107334634292
0.291244862098240964
0.409625965955978666
0.508166919465753764
0.58638875794452594
0.644454909172178625
0.683497071591644745
0.705678667213314403
0.713951214839624204
0.711601923375327683
0.701767492789499459
0.687093389550394118
0.669615490789167489
0.650804830493163622
0.631675076821474946
-1.11337018224729212
-1.00033016697246069
-0.85649221463842784
-0.681114158072871789
-0.495618473567871032
-0.312712525435344835
-0.139455219623475263
0.0203644630018636925
0.164499703218495941
0.291612653183882686
0.40089432365238864
0.491950410177031228
0.564649689606641414
0.619322454904031039
0.657011319857068399
0.679548182473028284
0.689394821448806816
0.689315564397171121
0.682003379306425517
0.669797850780236015
0.654568295681659862
0.637721287052056662
-1.04530276904052433
-0.935401793736205911
-0.797016598311416025
-0.626145443893836084
-0.446838256648477428
-0.27249395137587018
-0.109068141012617345
0.04035227162920519
0.174204473626708711
0.291744066097274601
0.392638954749506386
0.476827424731248617
0.544421832900819136
0.595852232633393486
0.632080447415488966
0.654673968014096053
0.665697801712332615
0.667484702633356353
0.662347692903866747
0.652348409572116816
0.639188870181334967
0.6241959809618286
-0.979979044620760575
-0.87006504787583816
-0.736476178464028131
-0.571804703415400795
-0.399539422759122076
-0.234040733694218683
-0.0804890581353162743
0.0588382987692590217
0.18295248646253362
0.291575915061558388
0.384744459936139593
0.462634555339471953
0.525507951288083253
0.573858270164972817
0.608574216700933146
0.63100143420255761
0.642879824130757949
0.646186759489362439
0.642912632085262059
0.63487014614358217
0.623598802299203614
0.610340080564627407
0.291070175542070153
0.377147583301403744
0.449254856075498199
0.507753718743271465
0.553188988426405626
0.586371779811523886
0.60846411138607881
0.620934901735566536
0.62546697333204615
0.623779014579897595
0.436558944043541064
0.491041396988912693
0.533719548262683308
0.565361717009428388
0.586988924084513197
0.599837954671590734
0.605347220513117512
0.605003906169146011
0.515294919885826985
0.545436961869968262
0.566511050204799083
0.579568422696737362
-1.06037763177409716
-1.0132460711110054
-0.925048957501201419
-0.80147896544661712
-0.647405984409117674
-0.472968370086879031
-0.284873966862390138
-0.0903663992348304052
0.105484589156064484
0.292741847089648677
0.461315141345913449
0.602886448264999819
0.709827243469911218
0.77871034079970336
0.812740895273834973
0.820403271467256556
0.81106943095032269
0.792045472627482372
0.767956720992085229
0.741960184184610072
0.715846072852268089
0.690520229701208188
0.66645387196759287
0.643895008899385224
0.62296092770784206
0.603692728970552261
0.58609158802072292
0.570135081386605957
0.555790704692297632
0.543021747049473924
0.531789995119320458
0.522057814008633381
0.51378931795788696
0.506951450537190151
0.501515956833908705
0.497460839574063174
0.494767755455744862
0.49342357643799617
-1.06127701752378489
-1.01353095973042229
-0.925397774601340317
-0.800849892819484155
-0.646610950251452099
-0.473457411905748471
-0.287568203352137453
-0.0949002889491374763
0.0981008841479958787
0.282660040156388903
0.449327369730531556
0.589838524326608105
0.697522420875000493
0.768597644430471183
0.805165049651867193
0.814882948627760784
0.806782605641868988
0.7884839377572328
0.76505882405026715
0.739625596659397311
0.713943799329471607
0.688947095001401499
0.66513252121906008
0.642768674023895259
0.621989132691520119
0.602844185717561376
0.585340678838292439
0.569461778257852824
0.555179530480256589
0.542460682021463358
0.531269674703724215
0.5215706639634905
0.513328711512859193
0.506511413603835114
0.501091350272792946
0.49704772006514919
0.49436354655679221
0.493024557753271919
-1.06280619970578627
-1.01217033009449398
-0.922243264557277898
-0.796583459835028873
-0.643384765004993642
-0.471734646998231144
-0.288121212624346978
-0.0985546476094042445
0.0908094760050212058
0.271313615725784218
0.43370371968267285
0.570550190997995754
0.676512139665464307
0.748465697967561461
0.787893102574060311
0.801039405183398778
0.79609892679579719
0.780288502838829334
0.758744397436259765
0.734679618792020039
0.709984508704292083
0.685710206960311597
0.662435966410365173
0.640482946430970923
0.620020290572837141
0.601123792824346581
0.583816788331706804
0.568094607568420895
0.553938391699705601
0.541321622619215681
0.530213626564468354
0.520581849949171005
0.512393579651556519
0.505618274684916491
0.500230166664699438
0.4962092939118663
0.493539824983963205
0.49220819534065513
-1.06148069571281867
-1.00703402022795774
-0.913347605950906583
-0.785365397041192015
-0.631696589351768423
-0.460472243865266362
-0.279313736267597978
-0.0940615251101687144
0.0893074069224199796
0.262944977861368057
0.418738278527231667
0.550140153026630108
0.652540085659465752
0.723836366281615962
0.765485026585200234
0.782363835023905163
0.781259892760163832
0.768704149297702699
0.749678996642030415
0.727493627270212717
0.704185276959254369
0.680941635277113599
0.658445184225350699
0.637088030455697618
0.617088027381630599
0.598555361390623375
0.581537268528846685
0.566046511726896795
0.552077183066328692
0.539612295709641199
0.528627958054608493
0.519096270793053649
0.510987956257025755
0.504275420168191602
0.49893531643730854
0.494949175806756236
0.492302506623340907
0.490983983610401908
-1.05480326143348235
-0.996747588618749569
-0.899114204657573746
-0.768649744082150588
-0.614387697157563362
-0.444080726663485803
-0.265654112108895724
-0.0851548576700132676
0.0914899515487219706
0.257199456358221334
0.405363508643174331
0.53050606800602873
0.628816213455152151
0.698720730327806128
0.74153270292069462
0.761362585076755694
0.763847792758596378
0.754639682428718039
0.738388419355586301
0.718379714480975484
0.696736915909533794
0.674762544965525901
0.653240412008066818
0.632638997408237369
0.613231312650904137
0.59516751020266101
0.578523746527964455
0.563334247678354716
0.549609220954440647
0.537343503294054226
0.52652154464216927
0.517121306555331284
0.509118086818495352
0.502488236639842656
0.497211510795938616
0.493271437810695101
0.490655129453880234
0.489353570233304391
-1.04163878930391141
-0.980520373213580099
-0.879418562610995824
-0.74663367299602168
-0.592001057598773417
-0.423203748673511848
-0.248269453523182776
-0.0732101349790198197
0.0960386563791310321
0.253449685515037382
0.393583367208282742
0.512055681869377
0.605862160492923074
0.67383689637195554
0.717163259260741981
0.739246853852494001
0.744820142577633737
0.73877775018534908
0.725336773188678841
0.707644069822863431
0.687840542403727828
0.667307130586121344
0.646913509539757015
0.627200241983166928
0.608496159244254264
0.590993870383474174
0.574801346058698481
0.559977043307896216
0.54654960888767401
0.53452736604061668
0.52390426167747528
0.514665121802572845
0.506790859994469711
0.500262681207143234
0.495064012727840175
0.491180718057722621
0.488601627396256011
0.487319322831070378
-1.02191678108970851
-0.958203458536464048
-0.854285054205803251
-0.719828714494439303
-0.565215901031194901
-0.398717658897834448
-0.228066493562897127
-0.0592066201218517038
0.102245922380386461
0.251191693842000074
0.383251661920435971
0.494974112205828654
0.584052530735129194
0.649682235467624825
0.692939278620473886
0.71667003321178524
0.72484178251240472
0.721676895279494968
0.710943578411822985
0.695586096332830639
0.677705305172524808
0.658721290242770707
0.639567461720833785
0.620845465038726174
0.602936098141203525
0.586074073172032861
0.570399991282838026
0.555997984329935635
0.542916558562635099
0.531178528174200304
0.520788058013251565
0.51173760541679536
0.504014630722241619
0.497606005901555681
0.492499274344591564
0.488682846780200186
0.486147394966564894
0.484887029837666905
-0.995708501299133797
-0.930142301799994908
-0.824478421532627181
-0.689344546823610793
-0.535313860702479771
-0.371758709882512639
-0.20602309518128295
-0.0439328877818712243
0.109500697777109121
0.250015769141006539
0.374136540914166482
0.479195088563456939
0.56348753261561968
0.626510567209650371
0.669249874693538582
0.694100974032930917
0.704400990267644023
0.703777582330701867
0.695567083033435729
0.682479703788602787
0.666533526483119143
0.649152613092092379
0.631309966911002496
0.613653838588557932
0.596609921892946593
0.580452467360563995
0.565353599633595216
0.551423386660888304
0.538730820802718946
0.527313656848464873
0.517186612294962766
0.508350237300106644
0.500799252887578761
0.494526860889405617
0.489525036685640902
0.485784865781423492
0.483299025982916908
0.482063350597107698
-0.96361030229938649
-0.897162190152983485
-0.790823261563347257
-0.65575790825768876
-0.50322679468064635
-0.343272412828608264
-0.183044527971018584
-0.0280833343855959074
0.117274459095048814
0.249537087297569155
0.365973725480545853
0.464580980512710295
0.544151010286455739
0.604425348769472293
0.646313240754697205
0.671846940964913375
0.683845069722582077
0.685418693879066954
0.679503680005576483
0.668565910016382214
0.654512967810591983
0.638743957261468154
0.622248968939580371
0.605706921785603813
0.589579427841835813
0.574176453652265772
0.559698860777124496
0.546281864815310048
0.534014987432667843
0.522951059939886664
0.513115268670647828
0.50451621975152916
0.497156282796360705
0.491035500857920082
0.486150508513201185
0.482495151020672919
0.480064328103246118
0.47885589613429419
-0.926930780347772321
-0.86052933484440608
-0.754345694966600089
-0.619945731401688183
-0.46968850720723182
-0.313987711248388479
-0.159770577420597137
-0.0121411336994977463
0.125202501816398887
0.249466797155335152
0.358547456178467561
0.450989359864728823
0.525978144959881821
0.583446974361474524
0.624241868202271344
0.650102274522390444
0.663418388532857173
0.666857866249910503
0.662993861042002086
0.654051938427732016
0.641813059768730265
0.62762947615345821
0.612489264851580395
-0.887741212633789134
-0.822230221725468335
-0.7161589761039725
-0.582819820167145397
-0.435392470026838896
-0.284463221032404234
-0.136624470572999979
0.00357482775443831221
0.133046383909888322
0.249610591547289817
0.351697893550014296
0.438292740527919999
0.508883521730873478
0.563549192139346844
0.603082495058484436
0.62898428609973156
0.643289571060949972
0.648287648798786864
0.646229544033499081
0.639112502266371951
0.628583431310005492
0.615932203501349473
-0.84869126293780528
-0.783533583660316668
-0.677310875246298516
-0.545157486977068673
-0.400943081754081609
-0.255175847288027391
-0.113930551441758718
0.0188408399890731722
0.140643762452120347
0.24983715632807188
0.345303949510941233
0.426374175327561944
0.492772696643315744
0.544680079408076057
0.582839549296431336
0.608556522318889126
0.623570165291561729
0.629849042809948911
0.629361552023202431
0.62389267715004515
0.614954020228252407
0.60376269010255923
-0.812866560418777584
-0.74630660262189441
-0.638898990169375236
-0.507679989686323885
-0.36686355527527087
-0.22649428376330516
-0.0919441222446789885
0.0334949134269634727
0.147886057486318473
0.25005814485198713
0.339274063952996419
0.415141849332899715
0.477553923503577671
0.526770047350694548
0.563487892548336755
0.588844503653314644
0.604329873946476082
0.61164301914352337
0.612506436902727103
0.608510994728058363
0.601035683640430696
0.591220140654897142
0.250209059755160057
0.333558066738270265
0.404529337904562136
0.463149620858488376
0.509756550234443218
0.544991359518303131
0.569849350599653359
0.585608874260637235
0.593740287289320268
0.595753969457973431
0.394438520116058455
0.44950059540946824
0.493584371227435592
0.527305107999532674
0.551554523629334881
0.567423182333528842
0.576187109622276372
0.5791714938689283
0.478155981212937786
0.510381976070861554
0.533947534980137029
0.549790652644602917
-0.875375473272322235
-0.83713205288618775
-0.763852556527826465
-0.660239522127104683
-0.531750463128086936
-0.385801798262858653
-0.228819771640343284
-0.0662065284271063509
0.0955602267354017376
0.249854334212662343
0.388615515802583245
0.505841731761609514
0.598512734203418106
0.664475403986263591
0.705214633119845336
0.725389956765986721
0.730591198213547566
0.72557602321093384
0.713973102922989655
0.698488283066161952
0.68094412837282714
0.662522785966421446