/*--------------------------------*- C++ -*----------------------------------*\
| =========                 |                                                 |
| \\      /  F ield         | OpenFOAM: The Open Source CFD Toolbox           |
|  \\    /   O peration     | Version:  2206                                  |
|   \\  /    A nd           | Website:  www.openfoam.com                      |
|    \\/     M anipulation  |                                                 |
\*---------------------------------------------------------------------------*/
FoamFile
{
    version     2.0;
    format      ascii;
    arch        "LSB;label=32;scalar=64";
    class       surfaceScalarField;
    location    "0.0899999999999999967";
    object      phi;
}
// * * * * * * * * * * * * * * * * * * * * * * * * * * * * * * * * * * * * * //

dimensions      [0 3 -1 0 0 0 0];

oriented        oriented;

internalField   nonuniform List<scalar> 
20390
(
-1.16672864470064601e-05
4.5633991817291641e-05
-9.41536625681925628e-05
6.01870109760375209e-05
2.43784627172506572e-05
-2.8507735476507472e-05
-4.48933303340940887e-05
3.73629387254275491e-05
8.71730174282944986e-05
-4.30103949813006266e-05
5.06389579883554308e-06
-2.48242413718092465e-05
0.000146475283218683907
-3.66421536189388375e-05
5.11186192402822144e-05
-7.37749648659675479e-05
0.000200626199885757902
-3.29586418194970906e-05
9.21604396414020446e-05
-0.00011336058885247466
0.000248178394191566482
-2.91484563329178907e-05
0.000118660414959507557
-0.000137066568906182504
0.000289050127456680632
-2.33112925112037838e-05
0.000136415571505570544
-0.000153975376413561875
0.000320417665551130408
-1.38083070228370522e-05
0.000149441957946099799
-0.000167002795031620803
0.000337072121760513782
3.74558641389996819e-07
0.00015920421556589161
-0.000176235763355714342
0.000337606308104801823
1.60242624121152249e-05
0.000165471817116896269
-0.000182032110648872167
0.000321991979470797479
3.04726584808003384e-05
0.000168338696403077457
-0.000183198320449977727
0.000286994634089656484
4.69592326505259962e-05
0.000167492914921886287
-0.000179456484027518354
0.000235942851355882654
6.04971840347085543e-05
0.000160312522343513894
-0.000169760383827175746
0.000182054201740172977
6.34859511675697351e-05
0.000144045788476199134
-0.000153645678849049236
0.000139670539001050223
5.3302611109142198e-05
0.000121599067806932377
-0.000132519269855904545
0.000111354392547103497
3.94298925250941129e-05
9.763139881842055e-05
-0.000108744624197661021
9.36092247973385988e-05
2.71371570566586512e-05
7.53906577662097398e-05
-8.47812653521903348e-05
8.17448888761496822e-05
1.85193298709894649e-05
5.68932663467862389e-05
-6.35469551388281683e-05
7.25003013622764155e-05
1.33728549257872495e-05
4.28630133675463135e-05
-4.69902479657243247e-05
6.4637675570598552e-05
1.02894689271500171e-05
3.26871390377135194e-05
-3.51130613605528768e-05
5.78451327668186091e-05
8.2878501091918022e-06
2.52910501360469175e-05
-2.67855231048666693e-05
5.19248614186455546e-05
6.90998749739106048e-06
1.97843085116434635e-05
-2.07733830957185789e-05
4.66899175936898734e-05
5.91445256691700291e-06
1.55877565665117217e-05
-1.62668474835745622e-05
4.20003412716335564e-05
5.1668256005301011e-06
1.23418510378849213e-05
-1.28188230173700415e-05
3.77515002071722913e-05
4.59109844366840761e-06
9.81087712830779017e-06
-1.01529001729069284e-05
3.38639562676449821e-05
4.13828470135284696e-06
7.82598001323002062e-06
-8.07648782647055748e-06
3.0273088538791258e-05
3.7779853545638441e-06
6.26300039998231287e-06
-6.44989421636840094e-06
2.69239153336031259e-05
3.49063802856402396e-06
5.0293384719937549e-06
-5.17061104340831692e-06
2.37708928861514134e-05
3.26090905021088155e-06
4.05466879262749618e-06
-4.16241083719342376e-06
2.07776718293123776e-05
3.07602736566738946e-06
3.28495539031986596e-06
-3.36767142960854275e-06
1.7915629147059344e-05
2.92600655078956458e-06
2.67841364140150747e-06
-2.74234205352615396e-06
1.51622043876039618e-05
2.80337616101367826e-06
2.20274346565065483e-06
-2.25271168127052535e-06
1.24989100741643996e-05
2.70306867444819359e-06
1.83319966112080005e-06
-1.87303852713961199e-06
9.90906126261304095e-06
2.62237096777974286e-06
1.55099639219162097e-06
-1.58362437079857045e-06
7.37632661655808205e-06
2.56010266805601873e-06
1.34188796547339791e-06
-1.3693954683164452e-06
4.88737968784051895e-06
2.51267416441744111e-06
1.19512641604586673e-06
-1.21901870052392097e-06
2.43197279489864262e-06
2.47669317989684385e-06
1.10282379046241938e-06
-1.12429303913198449e-06
2.45184341903666258e-06
1.05840778745289674e-06
-1.07847258195358703e-06
-4.26156985408508932e-05
6.53067546207270589e-05
-9.90545949668584179e-05
0.000122002210964732163
-2.8364932881248363e-05
-3.69919526026932184e-05
-4.18203637298249147e-05
3.6111070412071634e-05
-1.03829393460086003e-05
-5.47187457480195576e-05
-1.17030054373443474e-06
-5.08867522853540742e-06
1.72454155406019026e-05
-5.82273729895436937e-05
3.59113255821769166e-05
-4.19617978485761198e-05
5.08638359118652572e-05
-5.70038577793041188e-05
6.69492081463729527e-05
-7.65237685458065571e-05
8.49275217610885938e-05
-5.15546607190322354e-05
9.09578961918179303e-05
-0.000102607268051663604
0.000115790340950766481
-4.19582318329962754e-05
0.000110822561907260349
-0.000123035970466845628
0.000140966881533813304
-2.45562747303302415e-05
0.000127040804822582822
-0.000141472862408777953
0.000163475083703835397
-5.03947317139857471e-06
0.000139614219551279807
-0.000156711619313139669
0.000184380691434823181
1.46222189120632305e-05
0.000148283949470334958
-0.000167788966312633169
0.000199952416423633382
3.56649389129933022e-05
0.000152865598878708446
-0.000173630845512558299
0.000207010965164561268
5.92040961559963234e-05
0.000153131055982583242
-0.000172436649487664565
0.000200504035633558878
8.27949864081867063e-05
0.000149942048358612818
-0.000165735022180049109
0.000179934460482619729
9.5985504587390002e-05
0.00013986148190761827
-0.000151791408758006688
0.000151260512052882529
9.2296603673359956e-05
0.000122193161602420235
-0.000132510580183166745
0.00012338746404618649
7.71237578324650622e-05
0.000100336096524377761
-0.000110153269986896501
0.000101324462765426518
5.80643865156022442e-05
7.82092403356928037e-05
-8.70702450871171913e-05
8.56415499104025218e-05
4.10648353286902366e-05
5.89982516907524071e-05
-6.58582362997389367e-05
7.44365338454234778e-05
2.90885278307545477e-05
4.41726188690293024e-05
-4.86809083403475065e-05
6.58161153467304256e-05
2.16049980112637647e-05
3.34341803619050092e-05
-3.61271023122108697e-05
5.87426655407933895e-05
1.69834319236259037e-05
2.57161311552172502e-05
-2.73365030101842835e-05
5.27068258531070917e-05
1.39841957668187463e-05
2.00437532542020998e-05
-2.10809057976560463e-05
4.74119369944940423e-05
1.19094048828618386e-05
1.5764589844332777e-05
-1.64638256973615596e-05
4.26773191453773193e-05
1.03901991393092081e-05
1.24745314080970744e-05
-1.29626173655149507e-05
3.8385445544725638e-05
9.23296270594145687e-06
9.91584002986552478e-06
-1.02651946887408715e-05
3.44520931843798984e-05
8.32739082491179439e-06
7.91109340081352447e-06
-8.16624250731816927e-06
3.0811998174096723e-05
7.60796627721297649e-06
6.33253343093129268e-06
-6.52189464964355334e-06
2.74119957424774779e-05
7.03325539837861214e-06
5.08596364930803946e-06
-5.22817705279014236e-06
2.42088773319105397e-05
6.57203144857000624e-06
4.10054796579540565e-06
-4.20829502801568724e-06
2.11678303846582337e-05
6.19940971168354507e-06
3.32203410554547489e-06
-3.40426161254604809e-06
1.82606456969034986e-05
5.89644352383513765e-06
2.70824512068621268e-06
-2.77153309344967554e-06
1.54643177133431048e-05
5.6489378570386872e-06
2.22636998103699314e-06
-2.27577114396046201e-06
1.27595503083616707e-05
5.44696403943253166e-06
1.85129442196651663e-06
-1.89070473062512637e-06
1.01290353476895402e-05
5.28480511708298427e-06
1.5641336594588765e-06
-1.59642963592341849e-06
7.55616142719900416e-06
5.15976013418810457e-06
1.35075343869631119e-06
-1.37798634132611518e-06
5.02130339867966383e-06
5.07071688684325778e-06
1.20056709909148291e-06
-1.22425269907114729e-06
2.50447550125117733e-06
5.0143403034338187e-06
1.10582023229197245e-06
-1.12717333313278059e-06
4.97590137917036046e-06
1.05989548090887876e-06
-1.0799352153715802e-06
-4.30020660347000394e-05
5.4339265064987296e-05
-0.000111298370039912873
0.000165260643297863329
-4.41522810380570976e-05
-4.82153220342361222e-05
-5.23025584910589094e-05
6.47024297045489122e-05
-3.84577169529078846e-05
-6.70863304054309078e-05
-1.93227622520387397e-05
2.60321753072660563e-05
-2.01920950828359249e-05
-7.39245819506302419e-05
1.70549030501136267e-05
-1.95979235397555373e-05
5.50897978261966965e-06
-6.90798843279675779e-05
5.05526927336714238e-05
-6.41599725621989409e-05
3.11342694966676886e-05
-5.61498747568922683e-05
7.76562593255019528e-05
-9.86655320065979327e-05
5.2969713741210598e-05
-3.75709823121349012e-05
9.76721389061255166e-05
-0.000123886231615325009
7.15000401846187651e-05
-1.42161802332162714e-05
0.000112202756936094256
-0.000141072978578576767
8.697132599424209e-05
1.06522480079850549e-05
0.000123273657473582003
-0.000154436416088135501
9.83693922962161345e-05
3.48823020026216366e-05
0.000132421088656928016
-0.000164075192978944311
0.00010731119129366929
5.74523464726137606e-05
0.000135841158592378233
-0.000166564601052901501
0.000115602735331550718
7.94176857621289829e-05
0.00013410306185326898
-0.000162602943616058147
0.000121172285302560586
9.91721327768343731e-05
0.000128094385484890709
-0.000150036987274550671
0.00012095628631786285
0.000111280458918686938
0.000118186658640483892
-0.000133262163163709824
0.000113742027582354853
0.000110164074799807459
0.000104400648744307803
-0.000115050894091423055
0.000102653484523382063
9.65466191040572659e-05
8.78187598534147727e-05
-9.61506989649275553e-05
9.11137515394512293e-05
7.6526976227362666e-05
7.04637777711856784e-05
-7.73846961322913001e-05
8.0774224931535389e-05
5.67995875013076223e-05
5.46486753760148141e-05
-6.00420304080694599e-05
7.19391832384138529e-05
4.16257009295763252e-05
4.18338715999223268e-05
-4.55340355902149603e-05
6.43854581162890319e-05
3.14965216110948572e-05
3.21503349149377854e-05
-3.44862776651977274e-05
5.78435503189577571e-05
2.49992076621104577e-05
2.49648786556103099e-05
-2.64372910630531399e-05
5.20994796938769499e-05
2.06996932608204911e-05
1.95715487527149326e-05
-2.05419814401766517e-05
4.69835432050964033e-05
1.76927648631715906e-05
1.54518085006786563e-05
-1.61185417917914883e-05
4.23670513028225209e-05
1.54785859481590454e-05
1.22617366905901869e-05
-1.27330590349417011e-05
3.81554652935792835e-05
1.37853231175711796e-05
9.76874619240135303e-06
-1.01089754648521245e-05
3.42774884053466603e-05
1.24555199644609854e-05
7.80813946356621817e-06
-8.05777679362321058e-06
3.0675763445966588e-05
1.13955769977537959e-05
6.25965549951177054e-06
-6.44509550925770304e-06
2.7302345353885589e-05
1.0546028285238845e-05
5.03372241622073231e-06
-5.1727344977003291e-06
2.41179530849166555e-05
9.86160915574338917e-06
4.06260667274645152e-06
-4.16756987200087043e-06
2.10906130810904856e-05
9.30667621394100975e-06
3.29411910000252096e-06
-3.37394816194884176e-06
1.81939356379993286e-05
8.85447352949755531e-06
2.68733167814677473e-06
-2.74870773205039775e-06
1.5405977887176273e-05
8.48480742598914538e-06
2.21023719002002348e-06
-2.25828386181010342e-06
1.27079452463339037e-05
8.1832977386317427e-06
1.83836345544111162e-06
-1.87689659464287504e-06
1.00826889145955271e-05
7.94146028979097838e-06
1.55335162448597233e-06
-1.58506244501155259e-06
7.51386451232148646e-06
7.75499400582195869e-06
1.34143947928452275e-06
-1.36822227065017252e-06
4.98632131503208004e-06
7.62115411231629011e-06
1.19227079269086287e-06
-1.21558169571270881e-06
2.48591323993833383e-06
7.53534620653591244e-06
1.09825583164391583e-06
-1.11929836439438533e-06
7.48121631577922927e-06
1.0528877621725173e-06
-1.07267567599334484e-06
-4.98256965090992956e-05
2.24922527671384518e-05
-0.000123199489373793249
0.000204861239939366961
-6.12583205518587134e-05
-6.01275237198693947e-05
-5.86179840831088227e-05
8.20016104051639718e-05
-5.40333919995848334e-05
-8.12307251940964849e-05
-2.18427711111237983e-05
2.88080738585607597e-05
-3.77455152610145926e-05
-8.4090576100430425e-05
1.84825778118228738e-05
-2.45755113429968429e-05
-1.82305059391175731e-05
-6.96851266156231318e-05
5.34936536852298309e-05
-7.23832166753729848e-05
-6.85933914898117993e-07
-4.83722661510483545e-05
7.70657502035743873e-05
-0.000102367774363322885
1.36860191828834488e-05
-2.43777457761407129e-05
9.09820895216325155e-05
-0.000118538029661385865
2.78559315962655739e-05
1.16348486427530191e-06
0.000100237995289268559
-0.000129789169166257527
4.32813027104524562e-05
2.81225107926024148e-05
0.000108423734485744308
-0.000141319818479068341
5.80536416309749965e-05
5.54030379856646334e-05
0.000115975064644114809
-0.000151263129120983171
7.00323411896818638e-05
8.00902185829013049e-05
0.000119918177621987986
-0.000154526614810340839
7.74526018032456812e-05
0.000101360116466054755
0.000118240859994150118
-0.000147596151826707268
8.19575163480768052e-05
0.000116320477382909947
0.000111109920097700364
-0.000132757804987839302
8.52347956152965902e-05
0.000122496008012745701
0.000100937242803436481
-0.000115426506629730371
8.65794373545642929e-05
0.000118481643162722143
8.91847379847480917e-05
-9.88445864213817411e-05
8.51359155715986429e-05
0.000104920319771070414
7.62222653820244372e-05
-8.31506950245041647e-05
8.11537702882968116e-05
8.58592175288168239e-05
6.27975718084198566e-05
-6.81459823266097772e-05
7.54484842788172565e-05
6.6630779927886628e-05
5.0163909887600615e-05
-5.42879114722614672e-05
6.90325439267168038e-05
5.10022046575287684e-05
3.93881022083853062e-05
-4.23466430730658173e-05
6.26769370410151013e-05
3.98490024975861468e-05
3.08111048853856146e-05
-3.28061684813818786e-05
5.67575769831970455e-05
3.22524819896939205e-05
2.41861128759861952e-05
-2.55186671646965068e-05
5.13655694454590148e-05
2.70031800185954441e-05
1.90851366172160389e-05
-1.99956914560209676e-05
4.6465733633962204e-05
2.32310597419188247e-05
1.51317071533671383e-05
-1.57695021564623446e-05
4.19910199291542859e-05
2.04093311281681121e-05
1.20446495233052563e-05
-1.25001130563094117e-05
3.78762526387281355e-05
1.82315537720200091e-05
9.61849542912329215e-06
-9.9494178532188524e-06
3.40662792694909508e-05
1.65101358766906527e-05
7.70245249269938026e-06
-7.9465893707262118e-06
3.05131304793390277e-05
1.51313346615245291e-05
6.18431167761509513e-06
-6.366485628287665e-06
2.71747893709954497e-05
1.40216895046774002e-05
4.97929930730782452e-06
-5.11628505636796852e-06
2.40164028644668621e-05
1.31238141525477467e-05
4.0228070550844887e-06
-4.12640754017103525e-06
2.10091788077470969e-05
1.23928581540641187e-05
3.26467200839020304e-06
-3.34353261003056579e-06
1.8128800086105556e-05
1.17955662669199832e-05
2.66515922820485431e-06
-2.72589327645567597e-06
1.53545917025391781e-05
1.13065970889496094e-05
2.19304480538191044e-06
-2.24075419171942082e-06
1.26683815061457542e-05
1.09076947794495513e-05
1.82451632090718962e-06
-1.86292538342747026e-06
1.00532293854758512e-05
1.058797312143649e-05
1.54175398025718243e-06
-1.57341387912222822e-06
7.49296988324241172e-06
1.03415991247078324e-05
1.33135234505396161e-06
-1.35805588428483476e-06
4.97272636287968137e-06
1.01641775650611971e-05
1.1831537144399239e-06
-1.20633300927922334e-06
2.47869046406152065e-06
1.0049821621758398e-05
1.0896926173737386e-06
-1.11055779122338852e-06
9.97910621603141178e-06
1.04459788314974247e-06
-1.06416480615685095e-06
-5.59795250905936059e-05
-1.36710457257657997e-05
-0.000129506299941187084
0.000221643959365457375
-7.21011064613169143e-05
-7.25449287062233087e-05
-5.89590714677863491e-05
8.75362023788002112e-05
-6.556115624506149e-05
-9.04436276344792209e-05
-1.84747068849369644e-05
2.11827882964267121e-05
-5.18909429321759026e-05
-8.41650164585307507e-05
2.24993343172515787e-05
-3.60850936362634947e-05
-3.59826563581089857e-05
-6.22697931102278115e-05
5.36883375714232732e-05
-7.70051521719555636e-05
-2.30576739206333415e-05
-3.6458474289165297e-05
7.30342931830425736e-05
-9.78635009759717744e-05
-1.21372321391628144e-05
-1.06003947464641473e-05
8.40841163511153234e-05
-0.000108781825404755965
1.01250209433228025e-06
1.56473955617602483e-05
9.20455655031908552e-05
-0.000119688466542145991
1.69031329527698506e-05
4.3777903908267786e-05
9.94711115815304162e-05
-0.000131023732757318983
3.29479707961353286e-05
7.08576817317550485e-05
0.000103930388963844209
-0.000135429472428017314
4.67299837695406964e-05
9.48154946215493046e-05
0.000105589270493610456
-0.000134092156666025818
5.62478152410533268e-05
0.000114696643863053112
0.000103280187755615716
-0.00012612999379927345
6.28813406993856922e-05
0.000126413688120849117
9.70292018140711196e-05
-0.000113752805284028836
6.83398218465159691e-05
0.000128534137034066684
8.82598954242123533e-05
-9.97545500871757553e-05
7.2678476840166444e-05
0.000121929771600658805
7.82748620742670232e-05
-8.60601784223545541e-05
7.48356563822016814e-05
0.000108327442908487035
6.75848031783450083e-05
-7.31475791349936466e-05
7.41442254278301845e-05
9.07874145999151329e-05
5.66399970592680455e-05
-6.08749024724457598e-05
7.09141633124824803e-05
7.31318898365831358e-05
4.61966740012547403e-05
-4.94655792820099894e-05
6.61304286773619374e-05
5.82154917866954165e-05
3.69921179027301079e-05
-3.9419548314688043e-05
6.07800338269965737e-05
4.69256153832675664e-05
2.93764272301855463e-05
-3.11008736638630805e-05
5.54736648825380327e-05
3.87664219675398362e-05
2.3297861293616337e-05
-2.4504149136559528e-05
5.04640946550803402e-05
3.28630513865857556e-05
1.85102179783592301e-05
-1.93596373174049172e-05
4.58120966603533676e-05
2.84888275257353301e-05
1.47460432673880083e-05
-1.53511506779197492e-05
4.15050929560795029e-05
2.51533395749729359e-05
1.17793705930869257e-05
-1.22157924820688363e-05
3.75075064805665848e-05
2.25494118305212475e-05
9.43227205088982032e-06
-9.75199008063671508e-06
3.37818393503001814e-05
2.04740533237121256e-05
7.56971458497811055e-06
-7.80745334524984746e-06
3.02903611754983764e-05
1.88017803547709497e-05
6.08861502640184483e-06
-6.26714552461623856e-06
2.69976676331450464e-05
1.74495624598248484e-05
4.90953409675856139e-06
-5.0443777075970414e-06
2.38740355733121984e-05
1.63499515209054626e-05
3.97142656433054022e-06
-4.07371194787612587e-06
2.08943398187298436e-05
1.54506982979556999e-05
3.22647668490195971e-06
-3.30452149276732621e-06
1.80366713329923891e-05
1.47135254945262855e-05
2.63633059384708375e-06
-2.69663893142665433e-06
1.52818538375271894e-05
1.4108904019287156e-05
2.17071610294889755e-06
-2.2183309699753288e-06
1.26124480820355621e-05
1.36153986804695828e-05
1.80665703899924583e-06
-1.84517409191832503e-06
1.00117794742150891e-05
1.32201578359248267e-05
1.52699947596592615e-06
-1.5588103859144954e-06
7.46390312472467281e-06
1.29159248919372115e-05
1.31875194933623381e-06
-1.34555356616026307e-06
4.95411804140119571e-06
1.26967864438186829e-05
1.17197595698509549e-06
-1.19519207281906291e-06
2.46851431194868208e-06
1.25558691450071546e-05
1.07933935237586876e-06
-1.1002007059423739e-06
1.24668137271319823e-05
1.03457803420868134e-06
-1.05413052404789672e-06
-6.03701789325136487e-05
-4.02631711754750435e-05
-0.000129529665604092214
0.00021648270790851793
-7.87903877479466754e-05
-8.25380305587976272e-05
-5.39224209497243473e-05
8.23590538902833241e-05
-7.26476359300691808e-05
-9.686697441461649e-05
-1.1584673224596997e-05
1.18806161847111871e-05
-5.84870232478202246e-05
-8.17396124051972164e-05
2.73832501277166467e-05
-4.39740101767423726e-05
-4.29361520495713896e-05
-5.4482420939484215e-05
5.47981021696107297e-05
-7.81391533733246659e-05
-3.12372264578461675e-05
-2.50760799102593671e-05
7.14122253270595554e-05
-9.44917022665123175e-05
-2.02796021441568154e-05
1.8717557305662709e-06
8.09387397774659193e-05
-0.000104373512453345463
-7.38788126526822075e-06
2.94966169965637343e-05
8.83163789519135088e-05
-0.000115068517000425411
6.8569642840045098e-06
5.71420623116796362e-05
9.319947699907083e-05
-0.000120816185291931162
2.13104297703047975e-05
8.32082921512166507e-05
9.54538099660819529e-05
-0.000122259361828483838
3.39530732684436448e-05
0.000104621985310817759
9.46396888000095287e-05
-0.000117086552478297022
4.43692940157379255e-05
0.000121181410664956065
9.1323056810510946e-05
-0.000108221479742846746
5.29398989067865128e-05
0.000130001761107957316
8.57872367735336379e-05
-9.79442697888514792e-05
5.99928369406279986e-05
0.000129992574682663488
7.84223642998173385e-05
-8.69325146442318804e-05
6.54315272131318523e-05
0.000122482148049091633
6.99321232732531036e-05
-7.59217734930990866e-05
6.86265492650698587e-05
0.000109550302150219266
6.08394436067867325e-05
-6.52554533502376513e-05
6.90905611984645482e-05
9.37461759567466841e-05
5.15673712800503064e-05
-5.49878800604468066e-05
6.70452985058050954e-05
7.78609895477421854e-05
4.26625840895800801e-05
-4.53440378124097838e-05
6.33062451162983591e-05
6.40020242503707966e-05
3.46628957588334286e-05
-3.67082168066332762e-05
5.87626149682942488e-05
5.29777932043946952e-05
2.78716568533916227e-05
-2.93785087419775026e-05
5.40282190918902515e-05
4.4592171130958094e-05
2.23156546471709981e-05
-2.34058017620776584e-05
4.9409917077167584e-05
3.82684136755418266e-05
1.7854006950502662e-05
-1.86402143170127631e-05
4.50262165141291341e-05
3.34419327454809712e-05
1.42972063074826337e-05
-1.4865938833044498e-05
4.09076582948878796e-05
2.96871671533222256e-05
1.1466129854172308e-05
-1.18807948436828473e-05
3.70455607264374585e-05
2.67191323080498102e-05
9.20954684646393898e-06
-9.51659916988231221e-06
3.34198766546998485e-05
2.433067756156563e-05
7.40936725506577048e-06
-7.63978597705421218e-06
3.00029863411188591e-05
2.23931767793397533e-05
5.97214765891870278e-06
-6.14621091566089112e-06
2.67666359977633153e-05
2.08182212043921952e-05
4.82411053689723257e-06
-4.9560786464565657e-06
2.36868193764916983e-05
1.95303768381970108e-05
3.90822828853097979e-06
-4.00861306596941936e-06
2.0742393755289278e-05
1.84720316198663851e-05
3.17935862809636933e-06
-3.25616339290586577e-06
1.79141595327188782e-05
1.76013658646332465e-05
2.60070511768642043e-06
-2.66032628115620273e-06
1.51846668500238875e-05
1.6885654922975774e-05
2.14313621589790579e-06
-2.19051775467881798e-06
1.25372726932033135e-05
1.630110938814554e-05
1.78470900088623371e-06
-1.82324215833449734e-06
9.95560766688550824e-06
1.58333974912063137e-05
1.50905489992602752e-06
-1.54092116617002646e-06
7.42408366560023987e-06
1.54739012151053049e-05
1.30363672467249579e-06
-1.33043676989086804e-06
4.92849670635058951e-06
1.52151587879606964e-05
1.15875082199067495e-06
-1.18192266281596982e-06
2.4555303599428067e-06
1.50492310577564218e-05
1.06721946887084053e-06
-1.08802558857686868e-06
1.49414997614495156e-05
1.02290819538297532e-06
-1.04241639914151067e-06
-6.10621383950886486e-05
-5.94273973082466716e-05
-0.000121915049361302603
0.000202126750251412871
-7.89756963195670242e-05
-8.85604050170373024e-05
-4.44877906569064992e-05
6.84360077017925119e-05
-7.35941060264191986e-05
-9.88438949702784579e-05
-1.40132509095026233e-06
-2.00098205524103657e-06
-5.94410674084233211e-05
-7.67219171236209431e-05
3.4606826747301831e-05
-5.37824642907300563e-05
-4.43756449387866015e-05
-4.52177406330191855e-05
5.94072606685810422e-05
-8.3734121076313331e-05
-3.22291463312717044e-05
-1.35755658298959361e-05
7.34904604320650091e-05
-9.71318972822128612e-05
-2.07381233753058995e-05
1.45781123200118068e-05
8.11893530330133026e-05
-0.00010538897202649532
-8.44994279563457813e-06
4.23202932168610847e-05
8.62396036731703292e-05
-0.000111357665833672782
4.80372911095620214e-06
6.91894045681975644e-05
8.92587970960801992e-05
-0.000114564216488902701
1.76247711519659118e-05
9.28949594194116422e-05
8.93003240028166168e-05
-0.000111808191716959132
2.8915393132084463e-05
0.000111077347419629653
8.67224344310602046e-05
-0.000104466350913068649
3.90105825037621791e-05
0.000123999085585981569
8.25618257908631242e-05
-9.5472769304018936e-05
4.79449026857465182e-05
0.000130160059838180405
7.71631876301499218e-05
-8.62544362046722274e-05
5.53705859656932443e-05
0.000128993725074746869
7.05897184915777956e-05
-7.70151251938160824e-05
6.09309506177380382e-05
0.000121603991921809265
6.31566907625626448e-05
-6.78369917619473255e-05
6.42284969578411121e-05
0.000109827945441094612
5.52374140350065426e-05
-5.8810221304668331e-05
6.50398832467641644e-05
9.57678104570889791e-05
4.719636551662066e-05
-5.00267836285542701e-05
6.36088225182744968e-05
8.15490667017775255e-05
3.94567866253918008e-05
-4.17113116280446659e-05
6.0586347956599615e-05
6.87815175151741784e-05
3.24233852880079776e-05
-3.41783017440857559e-05
5.66961924382693405e-05
5.81964475368286645e-05
2.6345540382966638e-05
-2.76724471536410208e-05
5.24780506932169798e-05
4.97955444641893507e-05
2.12780008033375552e-05
-2.22620948357692303e-05
4.82401110036836676e-05
4.32306408826554347e-05
1.71407691696701036e-05
-1.78642183212524784e-05
4.41313651179557346e-05
3.80822604988035032e-05
1.37993727545558472e-05
-1.4330264825453169e-05
4.02133434835920221e-05
3.3997518470639468e-05
1.1113270462960896e-05
-1.15049715798070525e-05
3.65003588793534668e-05
3.0726344266789579e-05
8.95554035714106637e-06
-9.2491787882560259e-06
3.29873016768898232e-05
2.80665528226690426e-05
7.22485854968506706e-06
-7.44714362561958807e-06
2.96556919605102731e-05
2.58939125982991938e-05
5.83718964201965297e-06
-6.00586507965328731e-06
2.64850850442319459e-05
2.4117478884413413e-05
4.72450990606323564e-06
-4.85281409571447095e-06
2.34573381468068226e-05
2.26562690123708082e-05
3.83417292039339311e-06
-3.93208897286360285e-06
2.05552824861037621e-05
2.14493947559217757e-05
3.12393790842879152e-06
-3.19913831653395948e-06
1.77627787509272391e-05
2.04525857342017994e-05
2.55868617394388808e-06
-2.61741442251070383e-06
1.5064315561308624e-05
1.96309984445062246e-05
2.1105969457568252e-06
-2.15759844310883427e-06
1.24439522400357187e-05
1.89596246605125581e-05
1.75891809825073193e-06
-1.79728440588016697e-06
9.88557975335057125e-06
1.84231694605560033e-05
1.48813312979063706e-06
-1.51982105815136117e-06
7.37416484678515911e-06
1.80115363065147356e-05
1.2861731997332861e-06
-1.31273643327308815e-06
4.89635525800789556e-06
1.7715525572707143e-05
1.14359128469802533e-06
-1.16652868130642871e-06
2.43972567883078462e-06
1.75260677746802716e-05
1.05340478017185232e-06
-1.07401490086796467e-06
1.74002304508250414e-05
1.00964209586007742e-06
-1.0289924440551244e-06
-5.93920165473857929e-05
-7.34489535327375291e-05
-0.000112048581439115654
0.000185451871049646227
-7.61551335556286926e-05
-9.25400585136604476e-05
-3.14210212678437987e-05
5.21768771672171809e-05
-7.07093879996388775e-05
-9.47891359306910093e-05
1.1740918431225582e-05
-2.12399767393467562e-05
-5.74010556458067438e-05
-6.64529991911654152e-05
4.47222178061687745e-05
-6.8297350936392671e-05
-4.38274871927134984e-05
-3.2314433129159467e-05
6.55077190729956408e-05
-9.19725049007976911e-05
-3.11380457781766315e-05
-2.48514313738185794e-07
7.70224304280198277e-05
-0.000103028648294721268
-1.88692571709388058e-05
2.80760407011159532e-05
8.27250835333907672e-05
-0.000108490038686323865
-6.57529572661929662e-06
5.46857311371113394e-05
8.53337219401167148e-05
-0.000109996907690762947
5.92135266276753232e-06
7.95391616423821765e-05
8.6089394999735945e-05
-0.00010893858233229887
1.7614898421280233e-05
0.000100214651114207811
8.43816021311006941e-05
-0.000103394714160203529
2.79325598462016949e-05
0.000115263154546506585
8.06882366099753842e-05
-9.51903006576215223e-05
3.72347230551243086e-05
0.000125056908516702777
7.59137992321424527e-05
-8.6272361961581791e-05
4.55413396088189955e-05
0.000129074525386472247
7.03991941690647663e-05
-7.76188816799150183e-05
5.24696351621845416e-05
0.000127202375635009893
6.42093273689321687e-05
-6.93444919055610895e-05
5.76138946977007856e-05
0.000120286697405497819
5.74814846585292052e-05
-6.13061214965916491e-05
6.06716118207632982e-05
0.00010975938529695976
5.043675153187539e-05
-5.34232228759441339e-05
6.15491083029895316e-05
9.72933725090986863e-05
4.33460281336166197e-05
-4.57463688406294718e-05
6.04838764769651807e-05
8.45491900298282647e-05
3.65298689809567402e-05
-3.84623147291609241e-05
5.79873195754221477e-05
7.28061559784307538e-05
3.0293259734078337e-05
-3.18193583787992266e-05
5.46310774995932289e-05
6.27298144703379226e-05
2.48352714137579424e-05
-2.60109102761658116e-05
5.08686274722673363e-05
5.44471405901830524e-05
2.02164210853098e-05
-2.11044803562946917e-05
4.69879725988972557e-05
4.77752742667536046e-05
1.63919227363079956e-05
-1.70550639463353944e-05
4.3151860326257169e-05
4.24123661017761596e-05
1.32662998379810273e-05
-1.37595814171843561e-05
3.94375092942379356e-05
3.80826150430555805e-05
1.07283197293331509e-05
-1.10984121192122588e-05
3.58826336999171593e-05
3.45625417546047649e-05
8.67524579512857173e-06
-8.95596006529164506e-06
3.24918530382553735e-05
3.16713032442272638e-05
7.01987602423974989e-06
-7.23330023655550481e-06
2.92537651087088e-05
2.92947593312809865e-05
5.68619842751297945e-06
-5.84849723695255348e-06
2.61570581274150454e-05
2.7338412101468186e-05
4.61233059608587929e-06
-4.73620255729819999e-06
2.31889359627031769e-05
2.57196004844929629e-05
3.7503692978275364e-06
-3.84534301045633583e-06
2.03355907990809975e-05
2.43763350307201111e-05
3.06094324591638658e-06
-3.13442651125655457e-06
1.75844513248403846e-05
2.32616749985648411e-05
2.51070576170427019e-06
-2.56866447580811862e-06
1.49223131951884292e-05
2.23396804680342867e-05
2.07339538226654846e-06
-2.12005820251469114e-06
1.23337113206570246e-05
2.15859939365380553e-05
1.72955856888443621e-06
-1.76753801274902409e-06
9.80262230696493505e-06
2.09850893815034666e-05
1.46448593740888995e-06
-1.49560190908009942e-06
7.31479235013379587e-06
2.05249737185486035e-05
1.2665487931233707e-06
-1.29249422472097679e-06
4.85810812469077692e-06
2.01942783216135894e-05