/*--------------------------------*- C++ -*----------------------------------*\
| =========                 |                                                 |
| \\      /  F ield         | OpenFOAM: The Open Source CFD Toolbox           |
|  \\    /   O peration     | Version:  2206                                  |
|   \\  /    A nd           | Website:  www.openfoam.com                      |
|    \\/     M anipulation  |                                                 |
\*---------------------------------------------------------------------------*/
FoamFile
{
    version     2.0;
    format      ascii;
    arch        "LSB;label=32;scalar=64";
    class       volScalarField;
    location    "0.0899999999999999967";
    object      rAU;
}
// * * * * * * * * * * * * * * * * * * * * * * * * * * * * * * * * * * * * * //

dimensions      [-1 3 1 0 0 0 0];

internalField   nonuniform List<scalar> 
7236
(
0.0209196488269180539
0.022574961516127371
0.0164244206613182488
0.00932386053407133382
0.00631060342209171111
0.00509993546685936702
0.00454469093099266544
0.00441306475421349327
0.00463521553186247923
0.00498315423786495609
0.00540238287284962228
0.00620799899004226708
0.00767894611975841659
0.0099969920873194569
0.012326836051302378
0.0146132398718964492
0.0167111889216607495
0.0184739416189691683
0.0198940150300776775
0.0210508704424156139
0.0220175708645123126
0.0228432551201102722
0.0235618579930936441
0.0241955376324552857
0.0247596160783600909
0.0252661652393066857
0.0257249875871269941
0.0261443147335679617
0.0265312481491249003
0.026891824998230382
0.0272310412066542017
0.0275529538383625511
0.0278608229626422371
0.0281573217243938217
0.0284447900168730942
0.0287254009719238763
0.0290008911192556444
0.0292523931425455498
0.0169422857716610489
0.0196663936966938388
0.0200541055921124312
0.0173701189425826096
0.0142571657500353329
0.0120894906925964486
0.0106326362774853134
0.00992243138571157444
0.00965769157672287729
0.00912657227257506441
0.00883832267371130985
0.00872400186966919809
0.00894796611600074711
0.00977553596741441953
0.0112785777740938894
0.0132864779984754582
0.015402663245299238
0.0173523041005977652
0.0190162835166400174
0.0203657614269991301
0.021456716203880434
0.0223610959328061978
0.0231325806597760149
0.0238053399263571559
0.0244007634617765083
0.0249337666736065659
0.0254154842943303781
0.0258547012195801777
0.0262588173985694624
0.0266341424240807874
0.0269859701168572372
0.0273186859105842179
0.0276358344019693343
0.0279402269112127566
0.0282341857228695127
0.0285200988258847744
0.0288005862091634847
0.0290580785373009583
0.0159128748434694961
0.0179636476053763074
0.0181622305568302569
0.0185244782286028628
0.017304725437924471
0.0157159182508799823
0.0142609642475031648
0.0137629706058172568
0.0135156510422788471
0.0127295562146880672
0.0122417296242409105
0.0119333738061538405
0.0117605395605556943
0.0119284300176879434
0.0126410015044568433
0.0138609605404844804
0.0154489647648178643
0.0171284239378233817
0.0186766895249525153
0.0199943738624643319
0.0210886354822296916
0.0220062357744570357
0.0227923304762431937
0.0234787418337715457
0.0240866625818583376
0.0246310705304806817
0.0251230093989653902
0.0255711234555431426
0.0259827758701883828
0.0263642951465484464
0.0267210154551779967
0.0270573999304464484
0.0273770674012746885
0.027682840776985549
0.0279769783834323479
0.0282614056596848032
0.0285380817478615711
0.0287905172681650473
0.015689588621174113
0.0167769236008541676
0.0172456167120249963
0.017607659331979067
0.016994759761389578
0.0171402955774838349
0.0174669583637225845
0.0176151242519722931
0.016268260583647897
0.0146608310238100191
0.0137157816364322158
0.0132529726770596653
0.0131543546442701598
0.0133367685364540293
0.0138277713323392091
0.0146532269728939617
0.0158024414463121925
0.0171512734701060009
0.0185040791962009961
0.019728038640555369
0.0207866309994385184
0.0216956688394010638
0.0224840275447435456
0.0231766247326092162
0.0237920238391595498
0.0243441928006764979
0.0248435648078021362
0.0252983845149279685
0.025715851995289609
0.0261022021412218551
0.0264627041442015189
0.0268018188452586598
0.027123179513926593
0.0274295844446677331
0.0277232365994661001
0.0280060454340524886
0.0282799324098491657
0.0285287484980930491
0.0157723741738502836
0.0160748900272102806
0.0168635688714030493
0.0169782941300539829
0.0168284351048235935
0.017523933115473133
0.0188360392404025231
0.0196404334635447327
0.017752915993477475
0.0159770005185849058
0.0148331236953022326
0.0141928094566023868
0.0139758719754014549
0.0140913673281318746
0.0144865955210111627
0.0151645422763239442
0.0161097519873529757
0.0172407480475012566
0.0184236105633036155
0.0195440502966101777
0.0205494401393046394
0.0214347838839719432
0.0222143426880793138
0.0229053132041195338
0.0235224711038952809
0.0240780839158970875
0.0245815400696419821
0.0250404441599614801
0.0254616961002669707
0.0258512982639472443
0.0262143335197721414
0.0265551704311757786
0.0268773858622367856
0.0271837085059800573
0.0274762762018676381
0.0277569844591848414
0.0280277373705112125
0.0282729172021441537
0.0155360466355846539
0.0157725280752903235
0.0167867146408453259
0.0167828909790333873
0.0170889346640287314
0.0182231000209264089
0.0196301439087502548
0.0190326263135753848
0.0178791272077345464
0.0165557046004716109
0.0155020669308642486
0.0148520902018242501
0.0145728313272788217
0.0146269619129038922
0.014959820393713132
0.0155473836962117754
0.0163651191075289137
0.0173484583995038993
0.0183977659729018493
0.01942156345895895
0.0203674962477683186
0.0212196850350818977
0.0219819294451718376
0.0226645554552300128
0.0232782108866503336
0.0238331639277263377
0.0243374445121903905
0.024797843490335765
0.0252208482114016259
0.0256121009136645907
0.0259763937020893419
0.0263179187721821646
0.0266401242526619064
0.0269456270054691319
0.0272364895650486494
0.0275145725834769414
0.0277817068303840529
0.0280231093406946817
0.0152021943874662193
0.0159256222129975263
0.0170604713649470247
0.0166942213941901584
0.0173446640133944133
0.0187977043134494731
0.0196512408940910585
0.0186567411959793934
0.0177469349963314468
0.0167163583352255146
0.015832715092510264
0.0152776636009077961
0.0150199841129843303
0.0150527544046143904
0.0153451177645340352
0.0158689414309123623
0.0165940465568963774
0.0174655616960678085
0.0184063552340010678
0.0193435797387296222
0.0202296013559425808
0.0210436932666413883
0.0217828744572896374
0.0224520055674712442
0.0230578079059977417
0.0236085416514757555
0.024110722962086141
0.0245702565426731481
0.024993119197216692
0.0253844997493560265
0.0257488337918081768
0.0260900552661675264
0.0264114061926390767
0.0267153614776328881
0.0270039128627240534
0.0272788791632023325
0.0275420019496896325
0.0277794120932385695
0.015175215873961213
0.0163676050690969091
0.0167284036681802223
0.0166593513825457722
0.0176727439172254738
0.0193309992985887732
0.0190530857968970978
0.0183381235946276262
0.017589768910001944
0.0167139387861461181
0.0159900089939144126
0.015550947808887855
0.0153575724139441219
0.0154041267336814218
0.0156759595647682076
0.0161523250135370416
0.0168047519856722866
0.0175867378058299877
0.0184373267520647928
0.0192978998751837799
0.0201263994076821724
0.0209004900880528643
0.0216130689257886324
0.0222648823576133345
0.0228595715478875049
0.0234031393734900998
0.0239006505600499464
0.0243572370559497174
0.0247782042367551518
0.0251682503783085543
0.0255314862601251115
0.0258714984810410713
0.0261912035425910933
0.0264929069885814911
0.0267785621761516442
0.0270499574559428212
0.0273087308538052034
0.0275418878001686199
0.0151401710648447797
0.0170665663223587248
0.0167098940118530805
0.0168798286023152805
0.0181525217538942713
0.0193229691791649734
0.0185935186629891426
0.018104757693314693
0.0174568854886894727
0.0166591760141621102
0.0160772411183262402
0.015745711556916047
0.0156233084984047053
0.0156987583206264249
0.0159638962877050768
0.0164052827412500615
0.0169994047542504217
0.0177080969053151766
0.0184827622895127018
0.0192758013451510418
0.0200504839611097829
0.0207845662700649608
0.0214687098675672983
0.0221004148735225205
0.0226816636184337429
0.0232156888836650976
0.0237064457757947544
0.0241583808450167303
0.0245758912627202231
0.0249631781120833347
0.0253241181167259341
0.0256619632463865391
0.0259792698356890936
0.0262781357121747508
0.0265604383735433686
0.0268279014450582415
0.0270820432041444098
0.0273106460794164084
0.0150825017406865571
0.0178283933878409864
0.0168631629596389561
0.0173170927386196091
0.0187947807262820593
0.0187552531447085155
0.0182555438896520213
0.017937720204568644
0.0173415554008063029
0.016599385004434395
0.0161421794821977882
0.015902773165557535
0.0158435404195403431
0.0159499555529572408
0.0162155602213642537
0.0166312900213655517
0.0171785894101874788
0.0178268058309945764
0.018537195785827687
0.0192709070942586116
0.0199959888798877175
0.020691268929941907
0.0151529038470150507
0.0180618509662054845
0.0170327494077794003
0.0178316194840089162
0.0188676401034862835
0.0182931357830412242
0.0180056883068593805
0.0177058653352595123
0.0171368751562951602
0.016550026266392584
0.016200969448644905
0.0160394166409130005
0.016033360461201001
0.0161678717553439613
0.0164367641668121331
0.0168333390586210691
0.017342901543795166
0.0179409957199941315
0.0185967976071792392
0.0192784787487200737
0.0199582054012523158
0.0206165350786952847
0.0152977570464237923
0.0176367785708978972
0.0173400009274142855
0.018425851979650465
0.0183635757998372486
0.0179869558156069073
0.0178422296551116986
0.017533312519070629
0.0169709176482018102
0.0165139045480314564
0.0162576615706073145
0.0161621730489444719
0.0162008964564377828
0.0163597933562061384
0.0166326516281512099
0.0170144655673297347
0.017493312270506052
0.0180496184757546543
0.0186589340106822869
0.0192949864198366759
0.0199334171896473275
0.0205570657120116955
0.016058852979865243
0.0177175506641369246
0.017775937095966126
0.0186619995432905708
0.0180538251602252141
0.0177839411563326492
0.0177430210621272698
0.0174065570335992167
0.016837105959206438
0.0164897662865649379
0.016313618137344818
0.0162744365646695019
0.0163506350476876477
0.0165305396424569838
0.0168073678638334181
0.0171775427560947533
0.0176310454895218793
0.0181522170785940254
0.018721832048688887
0.0193178743861511862
0.019918878960791718
0.0205101569572652132
0.0164760889351917815
0.0163683825648934245
0.0163773007591239139
0.016486840688057728
0.0166841346375084763
0.016964097221902244
0.017324884458572741
0.0177572471215611052
0.0182486497665012015
0.0187844397221811413
0.0164731887659861458
0.0166111215034902004
0.0168226423915136883
0.0171063885814408123
0.0174592485686131879
0.0178733244599285843
0.0183390391312112933
0.0188457812474354391
0.0169615274208290527
0.0172477518530577065
0.0175943560817249343
0.0179937511327894692
0.0207895826479804861
0.0215871961949995646
0.0218191879228141379
0.0211675892911554302
0.0184277979236212551
0.0149673318575365734
0.0125371422784482985
0.0113036481451682224
0.010814407253599603
0.0108248999275428436
0.0111944301649130294
0.011854128115842303
0.0128564016386485003
0.0142392479651881464
0.0158535916451168317
0.0174106333286761089
0.0187575167560599908
0.0199070512160348483
0.0209161755651230304
0.0218112279958478615
0.0226018304034128134
0.0233013913227966586
0.0239249348009958618
0.024485200574314251
0.024992039723323773
0.0254533542104877115
0.0258760572152749724
0.0262663909441115985
0.0266299616062887975
0.0269716087708328951
0.0272953688041924387
0.0276045552098126631
0.0279018637407839921
0.0281895283872389303
0.0284695235932806226
0.0287436951638285615
0.029013474020882838
0.0292596901728324026
0.0200012193570927484
0.0212806051536289752
0.0216768271015869742
0.0200798952328689433
0.0196777632446965139
0.0200860291889540868
0.0189412424155346211
0.0166299931857792453
0.0149628824839137513
0.0139033498006133176
0.0132381561590743119
0.0129031132148287944
0.0129245402500942561
0.013487490459190633
0.0146164772561915707
0.0160713463926735432
0.0175756117691721891
0.0189653196331812865
0.0201763449463472286
0.0212063455034217328
0.0220857216327589104
0.0228465345067751582
0.0235144563068247006
0.0241087203631232781
0.0246434737979770724
0.0251289616347526792
0.0255729669072401154
0.0259819731892743169
0.0263617393004372119
0.0267173160039127049
0.027053016852526781
0.0273724768529233532
0.027678658199668995
0.0279739003571115204
0.0282601317647977572
0.0285394013204009998
0.0288140159516128147
0.0290660797190577455
0.0193952475617310376
0.020843456699702452
0.0210578112207426421
0.0210503361724755471
0.0203120738710407187
0.0201928697968108417
0.0199759418390343217
0.019216334608946499
0.0179114994102375913
0.0164439601380887805
0.015532478907340946
0.0148889328852253831
0.0144986044572645578
0.0145407175606904523
0.0150991959721949003
0.0161070552254773958
0.0173538044166308345
0.0186305985367966366
0.0198060430482192851
0.0208341447228982887
0.0217228799302646054
0.0224965406778886295
0.0231781473125841353
0.0237855963078181694
0.0243324179453824306
0.0248288150207950573
0.0252825517927509347
0.0257000293793996151
0.0260869796817512073
0.026448465423342303
0.0267888428880313743
0.027111824576814679
0.0274204301173856455
0.0277169885134607753
0.0280033549733303272
0.0282811282425488794
0.0285519755707714651
0.0287991065112076609
0.0192118903594098653
0.0202163417880354378
0.020706137108124717
0.0209115678237556182
0.0203390464753094961
0.0202728216631844482
0.0196266159494378999
0.0189800829990648019
0.0184557728879040546
0.0175266138931835513
0.0164559175271782494
0.0157790627081383986
0.0154171157095255862
0.0153732963763002582
0.0157088822059601903
0.016406685644003445
0.0173803686948229216
0.018476808304171248
0.0195534159118880731
0.0205376087845294784
0.0214116985757858425
0.0221842522492531717
0.0228705340523329623
0.0234849832878125213
0.0240395041298951291
0.0245435640102619861
0.0250045011417367978
0.0254284352935357019
0.0258209710505008586
0.0261870884677309727
0.026531098549164394
0.0268567199750134565
0.0271669699587583427
0.0274641302393419419
0.027749993711602184
0.0280261515045223189
0.0282942480567170557
0.0285378505979657325
0.0195249133959600404
0.0198208537111164533
0.020599411889141668
0.0206891975594182924
0.0205141685154676436
0.0203116086720182276
0.019514979871960967
0.0189010115041186311
0.0183682179322831769
0.0177149331296459107
0.0168486383751112502
0.0161700515469357479
0.0158372907026168852
0.0158046215698660758
0.0160780375452199559
0.0166504301277200575
0.0174621511489275773
0.0184111084563312981
0.0193855619531753433
0.0203106475244350625
0.021155106892083303
0.0219148438314197246
0.0225971372820094121
0.0232121604874924066
0.0237695486249693312
0.0242775659934959705
0.0247427917914589124
0.0251708739835851299
0.0255671815161702745
0.0259365006951804075
0.0262830025299191951
0.026610337168289578
0.0269214539368427853
0.0272185460726697033
0.027503339169172674
0.0277774230914312054
0.0280424405615272328
0.0282825070737947534
0.0198316487177619821
0.0197131383893949901
0.0207425816595762542
0.0205339134850330597
0.0206768008623002542
0.0202013012157091359
0.019435544356481
0.0188223853630698421
0.0183696162315573515
0.0178146712895827855
0.0170528148208778305
0.0164296144344463803
0.0161217610367048562
0.0160999420828854684
0.0163476392875706589
0.016848050227029971
0.0175557388532189898
0.0183945377405177989
0.0192782657074211522
0.0201410382921983558
0.0209475767336472565
0.0216859698716784441
0.022357115684021496
0.0229670441386656508
0.0235228517377477145
0.0240312886950279428
0.0244979472041866077
0.0249278789085367568
0.0253261338305980979
0.0256972030980039401
0.0260450356750629268
0.0263731375847032767
0.0266843192852985536
0.026980648116975238
0.0272637801366773756
0.0275352894051132946
0.0277967621360317267
0.0280331644189678285
0.0198217315878264737
0.0199474791855947485
0.0211822446119877758
0.0204484952844643832
0.0208140172186213092
0.0200236814006267
0.0193130847910522596
0.0187775879832831165
0.018412879544935961
0.0178862148189386956
0.0171639460079130342
0.0166228991200278627
0.0163543967018813137
0.0163440775143018566
0.0165752690836179842
0.0170259102382966272
0.0176569530012622364
0.0184085837813182281
0.0192134491251989906
0.0200158286573620357
0.0207809195140125705
0.0214926590579617195
0.0221474538291610117
0.0227477808934940795
0.0232982774191476116
0.0238040184484941894
0.0242695066783695547
0.0246991642706982859
0.025097653083876275
0.0254690930029197425
0.0258171539708953561
0.0261451149242581185
0.0264555715088517565
0.0267504447335452228
0.0270313365570372388
0.0272998039695297838
0.0275573594518683414
0.0277898954194143767
0.0197828209021863391
0.0204807542452874088
0.0208686933753962356
0.0204355454870347869
0.020751462205179122
0.0197964068665812537
0.0191776981469105844
0.0187545993602107261
0.0184777561334592035
0.0179343735272206074
0.017219049506291606
0.0167672439558361058
0.0165507339313529581
0.0165592566553605797
0.0167798931765135301
0.0171920374311964122
0.0177621082817528697
0.0184421845797179337
0.0191786174265012495
0.019924631117992711
0.0206476847469085241
0.0213299278567242387
0.0219648748250893394
0.0225523098893225075
0.0230944802652967539
0.0235948492592667827
0.0240568435291930761
0.0244843240345443726
0.0248814505485903253
0.0252519599895197795
0.0255992370892632291
0.0259262149596535124
0.0262351756892406328
0.0265279031100101453
0.0268059943132820319
0.0270709971588569756
0.0273243255988406611
0.0275527536771891859
0.0198906017109565895
0.0212401234620223853
0.0206458378917312238
0.0205961973609405241
0.0203755937416902067
0.0195343170952858441
0.0190350564048068945
0.0187265982474609204
0.0184120053734857236
0.0178474645083106995
0.0172466455617449506
0.0168791652126714965
0.0167172678865464171
0.0167494839744219137
0.0169651211143121913
0.017347081230565449
0.0178675622561055535
0.0184879649105198704
0.0191650459721597298
0.0198594835532858935
0.0205416115112278426
0.0211932631854435116
0.0218062843464921878
0.0223783477829176923
0.0229099261772610571
0.0234027974369916368
0.0238593421635790205
0.024283040706244402
0.0246773571780012635
0.025045632937765655
0.025391032038828934
0.0257161352716742501
0.0260228796315447874
0.0263128912097798234
0.0265877422641375045
0.0268489414910890317
0.0270977806186322792
0.0273218104308602279
0.0201636271259392034
0.0220855414549255245
0.0206836072805318093
0.0207692523669742585
0.0199472849494963349
0.019279557754342428
0.0189042587949303509
0.0187005712849457953
0.0183482859565192551
0.0177611939556255975
0.0172627758245942134
0.0169710613662397321
0.0168601771996967562
0.0169169761226008221
0.0171316379232368601
0.0174903018220573421
0.017970402672213729
0.0185408151094327463
0.0191664763350719407
0.019814272639979983
0.0204575228460603907
0.0210786899956625084
0.0216686992050477319
0.0208603598781613234
0.0220418549692441949
0.0208793608714561985
0.0204891218688278628
0.019551580193614148
0.0190443225775702336
0.0187874805459559771
0.0186782384971110535
0.0182887475818222824
0.017681407424425373
0.0172744408432537293
0.0170499063951262339
0.0169845760151776382
0.0170646132715326811
0.0172806763509073293
0.0176215095030877004
0.0180687512436738425
0.0185972004561661478
0.0191783532698051769
0.0197842890381696827
0.0203912049267168417
0.0209827469936863277
0.021974386715274314
0.0219206601184919539
0.0210169879410947447
0.0199537326287578948
0.0192224926180554756
0.0188527974477368764
0.0186903242417964278
0.0185474705004565754
0.0181277535631903866
0.0176102675320309286
0.0172842526331086141
0.0171191237252227672
0.0170941516055683647
0.0171954192063996716
0.0174140794780115876
0.0177412210657393633
0.0181616316454231118
0.0186547361084464479
0.0191973808578906058
0.0197659202034787956
0.0203391748405286656
0.0209024846128040044
0.023320149010679421
0.0218965787609078436
0.0206781898349649058
0.0195312403778789938
0.0189720536998420966
0.0186978120839442832
0.0186115616148144654
0.018417717110532604
0.0179702169795796611
0.0175476814407853308
0.0172940614768321774
0.0171811859336015726
0.0171912865848730528
0.017311753220545803
0.0175337478262039201
0.0178503923906010546
0.0182487121041912358
0.0187118716810533714
0.019221197858768687
0.01975644519720186
0.0202987269417615988
0.0208353887628473788
0.0174934832455508719
0.0173035460543736926
0.0172367444179849783
0.0172792216113441983
0.0174162656095839807
0.0176413961456690534
0.0179499173142231329
0.0183299217487430562
0.0187675977201933915
0.0192482027763579283
0.0172883398947176921
0.0173587895504958324
0.0175099383045973084
0.0177395232043607819
0.0180415038786070417
0.0184057360175033206
0.0188213408061774952
0.019277121337368263
0.017609298048315656
0.0178418135032733099
0.0181389447332961258
0.0184908267206797816
0.0233003544174457122
0.0232417124151196169
0.0233173120961728923
0.0216118513980595173
0.0205402798013948687
0.0198375246127061866
0.0194962279610084895
0.0194330669456382506
0.0189498616044425534
0.0181577978719852685
0.0177063769446469677
0.0175333752248641866
0.0176857236341500315
0.018176205198498753
0.018887393797009884
0.0196637261939107792
0.0204221017997718857
0.0211574618283147907
0.0218780835287990215
0.0225623861637706848
0.0231953285384284176
0.0237748322477037838
0.0243050964613616832
0.02479165062420597
0.0252397360890144612
0.0256538733031823965
0.026038456558844434
0.0263979723890222402
0.0267366439677217405
0.0270581443346489779
0.0273655309548751779
0.0276613082854660526
0.0279475306586242887
0.0282259535712786093
0.0284981958359659393
0.0287658052398114573
0.0290299280177311672
0.0292711041705718752
0.0231208742371154172
0.0229491411278721913
0.0235428203370143946
0.0218233693656679981
0.0206592362974811726
0.0199716314057089908
0.0195227890230561807
0.0192963889012584822
0.0189345037358888864
0.0182273357956260519
0.017534939500847814
0.0170609109693071921
0.0168718043333356237
0.0170874352287860264
0.0176971352796345335
0.0185521112001371113
0.0194904278161063295
0.0204013181939707335
0.0212481250499599317
0.0220196826193843655
0.0227156525301652375
0.0233429270680817827
0.0239105191076616902
0.0244270596596515704
0.0249003471386554688
0.0253366916441279434
0.0257410781139654453
0.0261180653987183251
0.0264719642282493992
0.0268066374201236142
0.0271254089618976381
0.0274310693480750017
0.0277258734081423618
0.0280116224903922371
0.0282898673411601589
0.0285623614720934456
0.0288311395334035145
0.0290780058099247112
0.0228896391851349836
0.022819092659161485
0.0235447983692765213
0.022738460876915452
0.0213690261672423512
0.0205062697060274558
0.019896392416299185
0.0194834502731866047
0.0192467148615260292
0.0188317735843010758
0.018150807000048199
0.017567628816010393
0.0172215854535127111
0.0172129387803430962
0.0175935383649643146
0.018280574987855857
0.0191306342184995384
0.0200175735153608897
0.0208665147570219374
0.0216478938519940461
0.022356067654074236
0.022996227557356981
0.0235767689548284989
0.0241059692080956185
0.0245910509007682479
0.0250380547239628243
0.0254519203735420474
0.0258371501666820255
0.0261980376578800113
0.0265384606693529375
0.0268617923419975542
0.0271708937634889819
0.0274680583274007489
0.0277550662724910004
0.0280334008516110941
0.028304391761377088
0.0285694520442162786
0.0288114913305149364
0.0227832170428582184
0.0229779455696970843
0.0238193205954053897
0.0229635497678827849
0.0214408917749318584
0.0204978388972973796
0.0198899696433755199
0.0194823271765533663
0.0192170990819773881
0.018956857596503715
0.0184191908223312606
0.0178156695981330181
0.0174678473824298498
0.017401425934043601
0.0176580163277596479
0.0182023523431470297
0.0189370237411190974
0.0197519007051412641
0.0205645479666005694
0.021331645283715759
0.0220376348751677893
0.0226816184671225843
0.0232687158301303175
0.0238056348122341124
0.0242987446962800169
0.024753511935094466
0.0251745458199636694
0.0255661650451462705
0.025932565233356266
0.0262775496047276506
0.0266044593636612509
0.0269161592976262624
0.0272149288681488508
0.0275025016907108413
0.0277803117848823937
0.0280496922557931481
0.0283120411586262818
0.0285506375538369418
0.0229285352749168496
0.0233856818858870566
0.0242063380868770411
0.0229424566323406069
0.0214255230478187786
0.0204955295041359294
0.019930171544725598
0.01955084119237014
0.0192937109534459285
0.019021860606359315
0.0184749851940901565
0.0178925783011663203
0.0175741190772393391
0.0175143104138425904
0.0177264397347444806
0.0181872647533996255
0.018830120970145383
0.0195702809178947279
0.0203334356797998834
0.02107243083185905
0.0217648131482572789
0.0224038327927347201
0.0229908385280040706
0.0235303635019983512
0.0240274815458646172
0.0244868266233057574
0.0249124751609183272
0.0253084465050809407
0.0256787480497874705
0.026027011090316389
0.0263564640621467595
0.0266699080510686762
0.0269695534860361699
0.0272570601282890353
0.0275338161211775428
0.0278011641592386533
0.0280605014229323817
0.0282956636771256598
0.0233606611428531057
0.0238885684098624276
0.0245567539972515042
0.0228334367540786419
0.0213888156828905135
0.020503593100997905
0.0199659953154853916
0.0196018013818426776
0.0193732215956562842
0.0190503556052365811
0.0184685898760704632
0.0179318483688274202
0.0176465131998372916
0.0176016650350742272
0.0177938384117544736
0.0182016091485690083
0.0187751978372191382
0.019448836220377002
0.0201600254701277369
0.0208638050290416745
0.021534644789421107
0.0221616282050947321
0.0227427557806486845
0.0232802428036940449
0.0237776137490477088
0.024238475865621275
0.0246662339832285533
0.0250645333328064525
0.0254371159851059687
0.0257873554052487457
0.0261182953414722495
0.0264326036523742057
0.0267323663690091397
0.0270191495141167623
0.0272942998127227512
0.0275591518719946714
0.0278150404420434219
0.028046655342864945
0.0239249165294214937
0.0244069716184787538
0.0247209438642487407
0.0226296833790851221
0.0212769353716945053
0.0204613501007320543
0.0199619918875583759
0.0196306460775013784
0.0194419880955388757
0.0190663458375861551
0.0184510503875600883
0.017969281946264095
0.0177180549693115308
0.0176870480247019284
0.0178667834933793623
0.01823577571099377
0.018754178218003837
0.0193698062260039307
0.0200308802719990561
0.0206967781317323844
0.0213414332313544841
0.0219514451297422759
0.0225222210050834461
0.0230538354756657793
0.0235482278118011
0.0240078780871331859
0.024435455838763942
0.0248342048793869057
0.0252075400941405119
0.0255585178751151429
0.0258899364238760268
0.0262042529004247876
0.0265033779132413279
0.0267887829527582513
0.0270617898125322665
0.0273237154022015448
0.027575808038278006
0.0278036851075961974
0.0244664839684127569
0.0249166204049756333
0.0241980449493645403
0.0222767073996057163
0.0210844395711267986
0.0203621878964779408
0.0199191880203111599
0.0196392026423066017
0.0194980952881000993
0.0190723938362932395
0.0184259088228021922
0.018003181707986874
0.0177888075077078517
0.0177727069497869324
0.0179439725179535853
0.0182825378606437799
0.0187555256405564329
0.0193207796119156533
0.0199353470834366039
0.0205633479952347063
0.0211795978531482548
0.0217695196447529361
0.0223267113600153465
0.0228494333711524167
0.023338195051106448
0.0237942722969112577
0.0242196319739931554
0.0246171241037967947
0.0249897747380960489
0.0253403284749211082
0.0256712954438108945
0.0259848122890260352
0.0262825578104894722
0.0265659372836802958
0.0268362864344737426
0.0270948979819039155
0.0273429048277754605
0.0275668088445681948
0.0249098300112201125
0.02527831283861523
0.0235265230922406775
0.0218548480862338877
0.0208346309294405452
0.0202161967842995442
0.0198421381456120177
0.0196234247498059018
0.0194280232235314702
0.0189640262363886224
0.0183940435374659941
0.0180304590671233854
0.0178544540297506105
0.0178551345531484142
0.0180215481091543887
0.0183360219916610945
0.0187713335821479976
0.0192930322012253123
0.0198653444578642431
0.0204569194695216131
0.0210441735328910223
0.0216122838681506238
0.0221536874688355312
0.0226651967011633031
0.0231462489235784476
0.0235968634818628925
0.0240182946680489798
0.0244130531651945912
0.0247836759087723991
0.0251325970992674098
0.0254620882196291386
0.0257739756930266822
0.0260696856130265414
0.0263505258185418728
0.0266178153391162277
0.0268727934057314335
0.0271164615117207679
0.0273361057717732836
0.0252332513797607211
0.0249198884290499183
0.0228016423876617538
0.02139875323837356
0.0205562335517917444
0.0200437220803519472
0.0197444401667175376
0.0195897201522572811
0.0193460308042139595
0.0188513614052282716
0.0183580270345501256
0.0180512776849132521
0.0179130930934860363
0.0179316435191028516
0.0180963102884203926
0.0183919849350268096
0.0187961145262620991
0.0192803202439087579
0.0198147384412254088
0.020372146077855164
0.0209308705374506264
0.0214764802604308011
0.0220006990567915076
0.0254063693838196408
0.0238038466185220322
0.0220580300786577567
0.0209480738194846167
0.0202717012219728633
0.0198617265757819669
0.0196378214480927848
0.0195456951386011185
0.0192610690636030486
0.0187419361316084297
0.0183204006635336557
0.0180670083547983668
0.0179647146067126486
0.0180012310503451858
0.0181664516801816785
0.0184476876726103189
0.0188261002854666556
0.0192781369602218824
0.0197788647056670354
0.0203047343359032302
0.020836047918982574
0.0213592018873514887
0.0250036351977783039
0.0227405004590991063
0.0213358954370034999
0.0205186958660147981
0.0199971543423938941
0.0196833583681377926
0.0195304271045389777
0.0194846104120814864
0.0191651156234773877
0.0186382134619098652
0.0182828155456448913
0.0180788565292281204
0.0180100487349611205
0.0180640342653196617
0.0182312884001673003
0.0185015492013637893
0.0188587689380475265
0.0192832372951352547
0.0197541937115308722
0.0202512581621512415
0.0207566430567483681
0.0212579231582484124
0.0240365752885414313
0.0217825024610277945
0.0206832890640759638
0.0201224807773703052
0.0197415631195791835
0.019515216633671343
0.0194279879807186112
0.0193378360383923004
0.0189903825054605555
0.0185414080858572888
0.0182474282907548711
0.0180884333269767002
0.0180497329814893887
0.0181203669956420607