/*--------------------------------*- C++ -*----------------------------------*\
| =========                 |                                                 |
| \\      /  F ield         | OpenFOAM: The Open Source CFD Toolbox           |
|  \\    /   O peration     | Version:  2206                                  |
|   \\  /    A nd           | Website:  www.openfoam.com                      |
|    \\/     M anipulation  |                                                 |
\*---------------------------------------------------------------------------*/
FoamFile
{
    version     2.0;
    format      ascii;
    arch        "LSB;label=32;scalar=64";
    class       volScalarField;
    location    "0.119999999999999996";
    object      alpha.water;
}
// * * * * * * * * * * * * * * * * * * * * * * * * * * * * * * * * * * * * * //

dimensions      [0 0 0 0 0 0 0];

internalField   nonuniform List<scalar> 
7360
(
0.999999999982317034
0.999999999981711962
0.999999999975619946
0.999999999965128672
0.999999999951182383
0.999999999923333882
0.999999999863117717
0.999999999724459632
0.999999999384593274
0.999999998528381839
0.999999996087117538
0.997242610038098776
0.996097982161670337
0.983521213654628634
0.551764075850737612
0.398291672719351064
0.999999999982099763
0.999999999977207787
0.9999999999687611
0.999999999959141794
0.999999999941391216
0.999999999939151452
0.999999999802342554
0.999999999405967399
0.999999998530950895
0.999999996087453491
0.999999990264414551
0.992723780121017807
0.985951377055571898
0.96446087231743971
0.579218860754195486
0.363055573915399887
0.999999999847598131
0.999999999778685256
0.999999999713303556
0.999999999603175094
0.999999999375395521
0.999999999035471876
0.999999998038140991
0.999999994537077219
0.999999986068236701
0.999999963334619713
0.999999914788325839
0.988360220544467039
0.970238073433539183
0.893097474514343626
0.581751053501056492
0.33143761075768835
0.999999998609632179
0.999999998068103024
0.999999997440592647
0.999999996430203542
0.999999994313215401
0.999999990459266241
0.999999981918899716
0.999999958147867796
0.99999989982337889
0.999999747130844385
0.999999432080212136
0.985439455658109753
0.972211981584733986
0.84390485730342113
0.570297480563431103
0.302051454797718388
0.999999991174307157
0.999999988249944183
0.99999998424660852
0.999999978176491999
0.999999965457573303
0.999999942003668707
0.999999892739796392
0.999999774334681346
0.999999488662767222
0.99999877021421435
0.999997331666234057
0.985889792342203197
0.960021305929642077
0.773638667122542145
0.484330239824847186
0.25881795056820539
0.999999956181519822
0.999999943732513108
0.999999924015937292
0.999999896019006407
0.999999837302796291
0.999999732046480405
0.999999514774699394
0.999999043206989735
0.999997949637858485
0.999995277545062677
0.999990096349934188
0.985079461052285721
0.936325716102833994
0.699170845701393873
0.283331093492639741
0.20688413984725057
0.999999818305758681
0.999999773577908146
0.999999692894088743
0.999999586333357282
0.999999361341752602
0.999998975620327135
0.99999818684203956
0.999996600077000308
0.99999310493242366
0.999984817447192142
0.999969068053863097
0.98338190651936952
0.896138917333886509
0.535751051495918063
0.245741086499760952
0.205265501350507584
0.999999345245422999
0.999999204050551205
0.999998917484254735
0.999998568465120696
0.999997820624994205
0.999996607482448674
0.999994139785556735
0.999989483173944649
0.999979751663400918
0.999957471554640431
0.999915567340274536
0.985459772954639379
0.828698136005513453
0.413753875125853265
0.215191252137305195
0.226208071303435315
0.999997891820853746
0.999997489631910597
0.999996580531580914
0.999995569899909453
0.999993350585556606
0.999989977910857752
0.999983118964899442
0.999970940200826108
0.999946673815104936
0.999893340757127658
0.999793353399853535
0.993289343906637701
0.825132043717851649
0.273738221585553942
0.180677512770999027
0.203543905149881077
0.999993812822763228
0.99999275947957933
0.999990131622715106
0.999987497049689367
0.999981496558107308
0.99997304773600304
0.999955738877385536
0.999926902682312768
0.99987168059194087
0.999755771493611611
0.999538026957802472
0.982384520681563789
0.735466015184466859
0.186003067885145701
0.14805749504514179
0.18214611741884168
0.999983203008449451
0.999980629182651182
0.999973606430436313
0.999967345453794065
0.999952341199981998
0.999933023609137606
0.999892718077452614
0.999830177465688363
0.999713913319333569
0.999481758842436729
0.999050098023228861
0.987162858637894214
0.498297087155463614
0.144750109502203184
0.118287832727887982
0.146846527418232453
0.999957337866153706
0.999951398717561557
0.999933857659182967
0.999920178583947661
0.999885083689067811
0.999844428209770486
0.999756756349709397
0.999631423435851874
0.999402542224450463
0.998969717467534934
0.998182285384972112
0.975207219673096981
0.311249324755254853
0.115245314649218333
0.0923454269920411519
0.141483589679810229
0.999897709903016851
0.999884633853086235
0.999843348261894915
0.999815735929626248
0.999738274496208335
0.999659127066474085
0.999479227338568199
0.999246025123622816
0.998821103083412321
0.998066742061086032
0.996676401188260952
0.955103637523672666
0.236290637945350601
0.0905483900173872369
0.0685136875533434581
0.121277135618458751
0.99976676437273615
0.99973906077856467
0.999646941895615759
0.99959534977761777
0.999432964797080325
0.999290215194195142
0.99893887780969215
0.998534478874690157
0.997783046276577323
0.996509171998136933
0.994120709306699601
0.842441338442286525
0.233815437892272049
0.0681073182225279267
0.048812343950324695
0.0464227130267045249
0.999491141866006627
0.999434375478816417
0.999238860378552696
0.999149896723242503
0.998825340343544088
0.998588111132856726
0.997932686787160739
0.997274251685815294
0.996004379385797778
0.993959639316774224
0.990025624827579165
0.937834797473101944
0.168371447388028811
0.0480022545349134688
0.0283785121908506043
0.0277210316053445628
0.998931759845193445
0.998818860564259725
0.998422864362362827
0.998281477870843315
0.997659567253052937
0.99729764414497013
0.996124664251629377
0.995127271234415023
0.993007302788356805
0.989906020397303688
0.983662174959788693
0.678378254552385429
0.166481060622576144
0.0246748753294313075
0.0122151949508799811
0.0767795054606220106
0.999999999982317034
0.999999999982317145
0.99999999997562139
0.999999999964835018
0.999999999951401652
0.999999999924172656
0.999999999865745393
0.999999999730323275
0.999999999397052086
0.999999998566475146
0.999999996249901546
0.996999090067691385
0.996659125106003296
0.985054534742270338
0.544658334978971537
0.379824577506411298
0.999999999982678744
0.99999999997724931
0.999999999968347986
0.999999999959351404
0.999999999941613815
0.999999999939311768
0.999999999805824324
0.999999999418289431
0.99999999856912003
0.999999996250247936
0.999999990843442488
0.992664074174817945
0.982825546977441511
0.951979003638869226
0.57910858661831377
0.338660841850592975
0.999999999857865585
0.999999999766716385
0.9999999997169986
0.999999999599485712
0.999999999386389504
0.999999999047990973
0.999999998068248575
0.999999994618762988
0.999999986422150489
0.999999964923814044
0.999999920162126354
0.987658819836873536
0.969639302910643375
0.875679513006497823
0.555529239817807996
0.30589832745529949
0.999999998703368975
0.999999997951761643
0.999999997489436465
0.999999996384472345
0.999999994439658701
0.99999999059185396
0.999999982214791805
0.999999958590230831
0.999999901995652918
0.999999757379961385
0.999999467012635535
0.985390495672973987
0.966092120920040043
0.828136881466856156
0.51573849717378617
0.273485492400085739
0.999999991763383056
0.999999987474050833
0.999999984648095364
0.999999977803179507
0.999999966371936444
0.999999942710521283
0.999999894472813677
0.999999775833943505
0.999999498059178427
0.999998817387558137
0.999997491013923767
0.986090912632542116
0.961095991953462958
0.778949300416574397
0.386405390228777512
0.256068348553992908
0.999999959052168763
0.999999939678888894
0.999999926456825117
0.999999893696504216
0.99999984238505224
0.999999734536052065
0.999999522389234397
0.999999045760312066
0.999997981159738147
0.999995451349167119
0.999990664132084373
0.985519593459246668
0.939948064484262824
0.653246539854248187
0.260392821613073644
0.213469501307902182
0.99999982986800684
0.999999755848837379
0.999999704900560893
0.999999574546513115
0.999999384903560884
0.999998981176771773
0.999998214646889094
0.999996594459981125
0.999993193606717456
0.999985356570038952
0.999970752282751452
0.983575816975469586
0.890621927360470522
0.50650023541249023
0.225832146591708138
0.197294479870424477
0.999999385210823322
0.999999136645792319
0.999998967723621845
0.999998517556565103
0.999997915724717745
0.999996609200273889
0.99999422994657583
0.999989414349836681
0.999979973886226059
0.999958926688734095
0.999919864376367928
0.98539905463007027
0.836001151102275353
0.405450216328584467
0.207092886035076917
0.175413270150082234
0.999998013404727826
0.999997260971502988
0.999996765227155304
0.999995377178187761
0.999993693634266267
0.99998992154419164
0.999983389878134066
0.999970587909263187
0.999947195806922817
0.99989684170483395
0.99980296606084873
0.994841461783189773
0.828572051846869884
0.291935941284098555
0.182991966020450231
0.154523875163732616
0.999994143662786161
0.99999205456215523
0.999990741520195181
0.999986844000635422
0.999982621909844438
0.999972693501561816
0.999956513727251473
0.999925545602180388
0.999872893930738527
0.999763434845857946
0.999557192325682853
0.992394055001891484
0.763640167968798078
0.212977597752695369
0.153503346263194812
0.150479017747015442
0.999984015529644887
0.999978627739364856
0.999975444594628282
0.999965333868715778
0.999955740057866915
0.999931535584757114
0.999894858813414444
0.999825755092541124
0.999716822323054366
0.999497349669989044
0.999080163619854522
0.990792770748366358
0.506207087356372654
0.150920400558837153
0.126058809392186111
0.157270443243454239
0.999959143593371014
0.999946112404292764
0.999938974421869187
0.999914480791473492
0.999894621668724781
0.999839300882314097
0.999762470617384436
0.999618632866717149
0.999409777393804211
0.998999261627235846
0.998237463316441698
0.957119728235592326
0.317316269597676004
0.124090300955209482
0.0978544692758968881
0.14896466907112943
0.999901319984803805
0.99987154941396672
0.999856622210035129
0.999800762959611511
0.999763318853659655
0.99964364740440137
0.999493971484366472
0.999212188582595084
0.998839483245265836
0.998119735816978881
0.996753182904188684
0.945819540466101616
0.252738055803640504
0.0988544907182552779
0.0808368459962691688
0.129847885096591537
0.999773122852984697
0.999708558346156906
0.999679251913682676
0.999558612919257516
0.999494795198166086
0.999247972910241811
0.998975521054561222
0.998452019926989731
0.997829535384684663
0.996605589825352078
0.994229320143921402
0.861610373434168353
0.247289144474673067
0.077883396146083958
0.0618583726709609066
0.0841850183858798562
0.999500455141757782
0.999367224182936109
0.999312977952298453
0.999065389497959755
0.998969386908170276
0.998482037587027693
0.998019403569197272
0.997087819463006397
0.996120103313848926
0.994122456637958396
0.990198082478962904
0.943646602954155478
0.184827073941024128
0.0487636218156955181
0.0410113374419954491
0.061373055627577916
0.998940984803987742
0.998679149431846991
0.998583653838277518
0.998098657007010059
0.997977618299427105
0.99705008100621173
0.996318332472273194
0.994729560423879056
0.993295478164980983
0.99016799425259272
0.983910472076873655
0.655242766858231462
0.169792991240750896
0.0202616421441383573
0.0215664500650371294
0.0824089141997441099
0.999999999982317034
0.999999999980943244
0.999999999972880582
0.999999999960862973
0.999999999947039475
0.999999999920855531
0.999999999862477895
0.999999999723648836
0.999999999384726834
0.999999998565561876
0.999999996349576481
0.997411313441233127
0.997035072286173607
0.989511201819562647
0.618523172836031865
0.36941412573665644
0.999999999981361132
0.999999999974636511
0.99999999996475919
0.999999999955181407
0.999999999938548045
0.99999999993633848
0.999999999799690675
0.999999999405238316
0.999999998568123605
0.999999996349910436
0.999999991366951169
0.992474595101109913
0.980862298052444292
0.947492845926657834
0.682515632959716845
0.334178634916504236
0.999999999833876885
0.999999999746874479
0.999999999678034435
0.999999999576437926
0.999999999364822645
0.999999999021724095
0.9999999979899592
0.999999994488891542
0.999999986482748127
0.999999966100536763
0.999999925592819805
0.987393564148242753
0.966679050794103434
0.860597216483156569
0.629562206062202478
0.286307078433104767
0.999999998480928021
0.999999997781429339
0.99999999712788179
0.999999996214243292
0.999999994257320113
0.999999990353568347
0.999999981458045806
0.999999957468981959
0.999999902291315301
0.99999976537862878
0.999999502688608599
0.985016100318034105
0.96502402279487387
0.821781766129251579
0.531395378495335136
0.217886186145232669
0.999999990340243228
0.999999986452764444
0.999999982323306336
0.999999976972321014
0.999999965287227344
0.999999941240919954
0.999999889504191275
0.999999769351496814
0.999999499089698429
0.999998856073082365
0.999997654943070691
0.985926447741973466
0.958086879931285273
0.773982422818134674
0.401346944623783453
0.239028639829597211
0.999999951952308175
0.99999993487058636
0.999999914738811335
0.999999890795979729
0.999999837136911873
0.999999727429259133
0.99999949713091163
0.9999990171998977
0.999997984559863662
0.999995599869393348
0.999991257205782413
0.985631256976729819
0.939018263550959631
0.661102578687013054
0.249783167910596848
0.212524413261632517
0.999999800382556314
0.999999736887182022
0.99999965540362723
0.999999567570099113
0.999999362802000746
0.999998952422452625
0.999998108159738774
0.999996492109883839
0.999993206241201249
0.999985838038014441
0.999972556309872918
0.986089271803848533
0.87108671371460189
0.51844461974031808
0.219254812977849101
0.177671977170051149
0.999999279136884578
0.999999071423842811
0.999998785346813079
0.999998510583684497
0.999997831814264715
0.999996508426556407
0.999993842088662821
0.999989105390680422
0.999980023563120435
0.999960301986052236
0.999924667151289803
0.992290004384662971
0.824234933797780567
0.377767151165983583
0.190283097327030637
0.153506116517629021
0.999997673668427067
0.999997059892088647
0.999996163037876196
0.999995413011539824
0.999993400865614612
0.999989608792640761
0.999982135314978038
0.999969787423830359
0.999947380652053575
0.999900392583194408
0.999814470780264419
0.983365525191283729
0.831428986982923335
0.286895122604335806
0.166718577754156605
0.135378592804299064
0.999993156058507804
0.9999914877807069
0.999988925628531256
0.999987118486606263
0.999981673849260844
0.99997182126619677
0.999952837056559463
0.999923761312268899
0.999873497374006215
0.999771844852679337
0.999582543854964367
0.97752228911051664
0.791119861095918475
0.22357339304488727
0.145332115388225824
0.129422003021834653
0.999981373012867714
0.999977144341955615
0.999970373786890243
0.999966529436597362
0.999952875028847887
0.999929327093420084
0.999884947593951301
0.999822399841296949
0.999718499387643567
0.999515833023239209
0.999130049458399228
0.985781914086627853
0.571652488798702674
0.154065011398909629
0.12651373753746642
0.154677713265164968
0.999952566698713463
0.999942460897952135
0.999925723184794113
0.999918622611032593
0.999886511908990361
0.999834184344784771
0.999737619972878022
0.999613726159323313
0.999413740000743789
0.999037319074500996
0.998334049581016458
0.970081770700863988
0.341714143551811511
0.1272045728033116
0.0980525641448933283
0.153659168070653523
0.999885972106346999
0.999862999593102098
0.99982395383107725
0.99981320872929258
0.999741748644986661
0.999632741735203556
0.999435440251760787
0.999208690232749608
0.998847694161267619
0.998196484457758215
0.996930496373323871
0.929867233861204845
0.274362722604371778
0.10450935938668901
0.0832435321992996691
0.139447784179295237
0.999739338613739426
0.999689317682276091
0.999602816705858377
0.999592322453827786
0.999440772649238474
0.999226551480954961
0.998844828858973299
0.998460641200100252
0.997843355137139065
0.996744614265255624
0.994532134646788801
0.845381752322413971
0.239583741775485415
0.0898662713635945826
0.0737948208853633353
0.0986480836724246551
0.999429984769463653
0.999325205851903542
0.999142504032771828
0.999149361731227703
0.998841775395051368
0.998443517856441143
0.997742867533677691
0.997134398825389789
0.996135261723695153
0.994371027847529287
0.990630491332569196
0.935491551009244637
0.195746307390533947
0.0573909863842834017
0.0500762743238791636
0.0770346630661967735
0.998801106112291781
0.998589309361232358
0.998219897036837667
0.998293545378998282
0.997692078034118746
0.996985917608588013
0.995763013247271789
0.994884286108848492
0.993275752818644775
0.990598325330203533
0.984555199248215329
0.687831829769700143
0.163100493615914666
0.0228829214978905245
0.0285523405226613541
0.0776666629802396508
0.999999999982070231
0.99999999998182354
0.999999999975394349
0.999999999964366837
0.999999999950256457
0.999999999923018579
0.999999999866466815
0.999999999738256706
0.999999999430772335
0.999999998684061753
0.999999996625412946
0.997688883803571236
0.996530046305351247
0.988438507987929649
0.654358451892924409
0.369042178314303138
0.999999999982193577
0.999999999977024823
0.999999999967952746
0.999999999958236963
0.999999999940109796
0.999999999936596939
0.999999999806798767
0.99999999944764173
0.999999998686081693
0.999999996625698828
0.999999991961631585
0.99190727612541485
0.979688514782430575
0.942393127874886827
0.738619138856860591
0.334202890605683589
0.999999999853252497
0.999999999766568948
0.999999999707796183
0.999999999587730559
0.999999999375836057
0.999999999048930777
0.999999998103496934
0.999999994922125435
0.9999999875794221
0.999999968447818022
0.999999930126046488
0.987284398493451176
0.963320261010106371
0.855450558423887841
0.678226674065433799
0.298614723041121799
0.999999998659220624
0.999999997949474584
0.999999997395241813
0.99999999627698366
0.999999994352698485
0.999999990673826833
0.999999982677570731
0.999999960903809271
0.99999990997872501
0.999999780659687199
0.999999530079960453
0.985420536941486014
0.960581919562540021
0.810364881959517724
0.543239404368073608
0.219570997081943664
0.999999991471569039
0.999999987457492301
0.999999983996556763
0.999999977132684625
0.999999965857605089
0.999999943345402875
0.999999897383944791
0.999999788286331182
0.999999537202706401
0.999998925523882809
0.999997771008633629
0.986281046987956489
0.950808341742109597
0.775830723207838857
0.386444585614738156
0.223675236894432194
0.999999957547234919
0.999999939590848097
0.999999922965401522
0.99999989046060378
0.999999839970236559
0.999999737806338995
0.99999953542771014
0.999999098262133179
0.999998132626368941
0.999995845522263949
0.999991637280759571
0.986713282338766318
0.945379191002823527
0.700812747179234696
0.243751998050120128
0.218788555596536261
0.999999823394664977
0.999999755480365682
0.999999689369455602
0.999999561649620228
0.999999375340790531
0.999998994596466018
0.999998261213290496
0.999996780349283076
0.999993686373414459
0.999986545747496458
0.999973570184440663
0.984991327012203044
0.913473073702845584
0.547283385355156415
0.218241243452641676
0.177201434386513867
0.999999361039330958
0.999999135381505644
0.999998907937488468
0.999998473399635657
0.999997882540623606
0.999996656295450981
0.999994369746408651
0.999989990602254242
0.999981369070102932
0.999962012865341476
0.999926963090238985
0.985767027338418922
0.825324932004132039
0.458442545510052257
0.184980082622183933
0.153422239949003475
0.999997932837895398
0.999997257362391867
0.999996560412845348
0.99999524385667149
0.999993589805785454
0.999990068290206757
0.999983753521233476
0.999972192833980644
0.999950725920706329
0.999903935271682531
0.999818923479239841
0.999588322634287652
0.821789028533410404
0.306451760632831083
0.163831497094976186
0.143461118444882352
0.999993899107348927
0.9999920461548506
0.999990104529799195
0.999986482457532855
0.999982323059366518
0.999973108936603516
0.999957346708362782
0.999929646097162839
0.999880997617822231
0.999778175902569677
0.999589725606079504
0.990728312708236469
0.784155391585654726
0.245139778327651658
0.148488738643344165
0.13696161260445841
0.999983329524106401
0.999978613424545415
0.999973619056695795
0.999964441720394781
0.999954936557946095
0.999932622700343554
0.999896547747846864
0.999835522186225178
0.999733882490819292
0.999525414934315348
0.999138841393012456
0.99179108173656827
0.548194091403562678
0.155927004960507987
0.129608700994121528
0.163024202168399357
0.999957345248687068
0.999946105499305737
0.999934097279223
0.999912459070536275
0.999892582611572323
0.999841960714137667
0.999765481844861026
0.999640601787990746
0.99944295203502409
0.999048409437375939
0.998335840349071413
0.934915521191014509
0.32002406419147772
0.131563874033383599
0.0966802076903406776
0.157650654829163128
0.999896876287317715
0.999871625883346549
0.999844362424411992
0.999796530165959041
0.999758401616408721
0.999649791948155508
0.999498536579348729
0.999259282787533287
0.998899348128167608
0.998198836755541108
0.996917921910058125
0.918467776055461371
0.286336773710439751
0.106154929989947647
0.0786078810102144726
0.144697506078518445
0.999762705754344672
0.999709003848371247
0.999650031001033113
0.99955040142337781
0.999483485565626384
0.999261481092035053
0.99898078093687559
0.998548857057819039
0.997929950245230013
0.996727314876720394
0.994481465740577386
0.866625055935813959
0.270672224026128838
0.095524507194606062
0.0765088360085912494
0.107426465673139765
0.999477180758845618
0.999368928715548721
0.999246514573524536
0.999050633650127362
0.998944559029008472
0.998510376946612821
0.998021391790635759
0.997280113740843577
0.996275754478391451
0.994298105493021112
0.990600747276055182
0.947596576845789573
0.228465925719548713
0.0633977331258629984
0.0558419480454407507
0.0668549853580225062
0.998891263949730712
0.998684504643725823
0.998438431275611382
0.998074188554857633
0.997925676109514992
0.997107058365350518
0.996305800029595123
0.995099829059652552
0.993516971233116997
0.990394179904011018
0.984563281189886341
0.767084163413783493
0.203559536336101132
0.0278281917633634544
0.0298396272540004774
0.0854821363208477514
0.999999999981823429
0.99999999998049649
0.999999999973104736
0.999999999961475483
0.999999999946388884
0.999999999919014226
0.999999999863264155
0.999999999738241052
0.999999999438086262
0.99999999870779066
0.99999999670474482
0.997796761977237767
0.996517805404048551
0.988443718502272417
0.638220864116693543
0.379607544329816138
0.999999999980915266
0.999999999974808595
0.999999999965348385
0.999999999954655605
0.999999999936375894
0.999999999933108619
0.999999999802928308
0.999999999451757215
0.999999998709285465
0.999999996704978855
0.999999992198305154
0.99192508341783403
0.97765030140935294
0.93943293177242615
0.75296104316182666
0.362494242462840011
0.999999999830216701
0.999999999753497182
0.999999999679531903
0.999999999561268949
0.999999999348946345
0.999999999035106502
0.999999998104895704
0.99999999497522174
0.999999987775612609
0.999999969215210838
0.99999993214252314
0.986982101825139901
0.962598417401324902
0.850393588737844652
0.725050645947804329
0.322754486211989766
0.999999998446833072
0.99999999784256155
0.999999997132430707
0.999999996054861118
0.999999994131989034
0.999999990604404698
0.999999982798779552
0.99999996136651137
0.99999991119995979
0.999999785701904065
0.999999542216100545
0.984714837569547141
0.953902035589441644
0.795466799064613372
0.574390873802330448
0.231455415136066711
0.99999999011857077
0.999999986845208744
0.99999998230452225
0.999999975860645485
0.999999964604973757
0.999999943183539908
0.999999898338421622
0.999999790748874018
0.999999542416043163
0.999998949234581103
0.999997822337963305
0.985927086538736841
0.945363494352807976
0.766356217639522885
0.330822056298426759
0.229004795206939976
0.999999950824989048
0.999999936847537185
0.99999991443651437
0.999999884869375189
0.9999998344079295
0.999999738166758467
0.999999540268812659
0.999999107877611038
0.999998149498083633
0.999995934584753443
0.99999180936113452
0.987492894248674702
0.942173285634306801
0.698532384973908682
0.247861879471295399
0.227232833315688804
0.999999795607449116
0.999999745242353244
0.999999653387616538
0.99999954159292348
0.999999354610592972
0.999999000277763228
0.999998279993806527
0.999996809950065568
0.999993730142352044
0.999986829132209043
0.999974054694392933
0.986382561290993554
0.925629043037397903
0.569785191930174739
0.22657272582643706
0.189087236702292716
0.999999261621155711
0.999999102269228057
0.999998775745417068
0.999998412781783697
0.999997814816477204
0.999996690141553124
0.999994429116185524
0.999990063758529724
0.999981460255962684
0.999962810703360572
0.999928134603427887
0.986589185435253868
0.830949620421394308
0.475686230216933015
0.186989264591996551
0.163158391120616364
0.999997616456215432
0.999997162002861151
0.999996126156131426
0.999995087420835871
0.999993389765798435
0.999990215930919302
0.999983909896739132
0.999972335175985494
0.999950868513597491
0.999905980223968593
0.999821353252748124
0.997455675388901231
0.809103183100297496
0.315129034978960054
0.16856822299754648
0.145367926892275456
0.999992986357194691
0.999991796518854503
0.999988805259059754
0.999986139862776291
0.999981776720773041
0.999973644851729571
0.999957687606727319
0.999929837439604396
0.99988111453878048
0.999783037964273591
0.999593942334589203
0.995355111500788481
0.79181552270119937
0.248228786058095174
0.154854744095257707
0.140951499143556369
0.999980909447097499
0.999978008779048522
0.9999700312446137
0.999963831964980066
0.999953534108534381
0.999934330699022045
0.999897124381978974
0.999835565092473511
0.999733660004968661
0.999536323069916133
0.999144487656683289
0.988825316453957659
0.598019689458149539
0.186182810040595476
0.129115411396785396
0.164167603745095397
0.999951388380455164
0.999944726616853741
0.999924864132131441
0.999911720968897022
0.999889161244683189
0.999846880036011409
0.999766028302319421
0.999639808249101591
0.999441604979910747
0.999071795400185092
0.998335291093064736
0.954272352156509407
0.405337879755081842
0.130995498568269975
0.094397881034213732
0.160879933077399007
0.999883164180813133
0.999868608327515895
0.999822064500083707
0.999796657039931702
0.999750416269715947
0.999662828332360531
0.999497648383491644
0.999255845117594577
0.998894879827838533
0.998245532583284856
0.9969085419987187
0.953090587807589373
0.277218229001183092
0.105594244158646461
0.0761264999320453301
0.14962798728198895
0.999733033253791481
0.999702531384856874
0.999599269008678126
0.999554797337038115
0.999465596710691906
0.999293606234295639
0.998974147526127121
0.998539196192420819
0.997920959156558096
0.996840183506039978
0.994492994509608819
0.878380810672835244
0.282885617495568398
0.0994792363050222006
0.076681733761697235
0.0953549339270094165
0.999416601756788037
0.999355023543296639
0.999137340819594488
0.999068368167775445
0.998906092133052259
0.998584445203974491
0.997997000240530285
0.997260110150697376
0.996261326591027951
0.994524343582070092
0.990507580620981098
0.947619317827370522
0.250287443723601011
0.0677698223518074239
0.0559107544674961737
0.0338479051059164607
0.99877424686846461
0.998654112224284463
0.998216611533770948
0.998126199974964434
0.997846162228033573
0.997268360359805595
0.996235361850285273
0.995047093456416842
0.993518537632074761
0.990826317423766811
0.984451150051544266
0.747411848145247193
0.216448715928734159
0.030326389894358069
0.0331477884980325085
0.0293331777471953006
0.999999999981529997
0.999999999980909937
0.999999999973456344
0.999999999961237229
0.999999999946619367
0.999999999918287585
0.999999999859876865
0.999999999733416356
0.999999999437976239
0.99999999872150136
0.999999996747062969
0.997546235781715751
0.996356649163931074
0.988159535732558769
0.644796010486678783
0.380297707104117366
0.999999999981295185
0.999999999975194065
0.999999999965071384
0.999999999954851448
0.999999999935876516
0.999999999931575845
0.999999999795224026
0.99999999944820539
0.999999998722445937
0.999999996747254372
0.99999999231841219
0.991802463545846447
0.97667234588309304
0.933644969598500962
0.758344844999954693
0.382050051699637572
0.999999999842567489
0.999999999745732282
0.999999999679860752
0.999999999561840713
0.999999999334115763
0.999999999000725559
0.999999998064750262
0.999999994983476581
0.999999987912625676
0.999999969564881241
0.99999993319474334
0.986668679698145423
0.962011395485335541
0.848687297779525007
0.73491141723249287
0.330280158273961066
0.99999999855938837
0.999999997763741044
0.999999997142421271
0.999999996056636919
0.999999993973963441
0.999999990257042559
0.999999982572971069
0.999999961599973952
0.999999912145177694
0.999999787777109184
0.999999548386378612
0.98434304665304162
0.951279885123038627
0.788946592325594387
0.575678589311911515
0.217561935846302595
0.999999990823957408
0.999999986299851429
0.99999998241687349
0.99999997585084488
0.999999963500487699
0.999999940986695535
0.999999897500035706
0.999999792651411257
0.9999995468501921
0.99999895792403648
0.999997847826141539
0.98567609196902195
0.945207950443881506
0.758891539276622895
0.285908904757835369
0.227652684406365713
0.999999954267213331
0.999999933907817384
0.999999915234350834
0.999999884680954576
0.999999828487893483
0.999999727657328918
0.999999538565478296
0.999999118102827822
0.999998165247143356
0.999995962534967142
0.999991897779075378
0.986875108640849819
0.936567008264828749
0.669744153183992941
0.244417486824535513
0.229988441034642666
0.99999980953880907
0.999999732063175495
0.999999657721814206
0.999999540073169602
0.999999328405990484
0.999998959043222113
0.999998282013529805
0.999996852157259197
0.999993774752852671
0.999986902368374064
0.999974332702681767
0.985443432516954765