/*--------------------------------*- C++ -*----------------------------------*\
| =========                 |                                                 |
| \\      /  F ield         | OpenFOAM: The Open Source CFD Toolbox           |
|  \\    /   O peration     | Version:  2206                                  |
|   \\  /    A nd           | Website:  www.openfoam.com                      |
|    \\/     M anipulation  |                                                 |
\*---------------------------------------------------------------------------*/
FoamFile
{
    version     2.0;
    format      ascii;
    arch        "LSB;label=32;scalar=64";
    class       volVectorField;
    location    "0.119999999999999996";
    object      faceTraction;
}
// * * * * * * * * * * * * * * * * * * * * * * * * * * * * * * * * * * * * * //

dimensions      [1 -1 -2 0 0 0 0];

internalField   uniform (0 0 0);

boundaryField
{
    inlet
    {
        type            calculated;
        value           uniform (0 0 0);
    }
    outlet
    {
        type            calculated;
        value           nonuniform List<vector> 0();
    }
    top
    {
        type            calculated;
        value           uniform (0 0 0);
    }
    bottom
    {
        type            calculated;
        value           uniform (0 0 0);
    }
    left
    {
        type            calculated;
        value           uniform (0 0 0);
    }
    symmetry
    {
        type            symmetryPlane;
    }
    interface
    {
        type            calculated;
        value           nonuniform List<vector> 
181
(
(1472.96533866528671 -0.034671828142592509 -0.0251518740961143086)
(1370.81933836395137 0.00876790985235013053 -0.0282628361770112697)
(1192.59807526548616 0.0205732594995763143 -0.028223830316409286)
(1007.89939862606332 0.025649631204794722 -0.0277734561588532172)
(846.72184260875008 0.0267220289979847696 -0.0255847749025306416)
(706.580846516400356 0.0248300620990786654 -0.021907523904362472)
(591.432261257393748 0.0277563194160985703 -0.0219448263612465957)
(493.124185580315782 0.0332143659137768485 -0.023074736982148028)
(402.881287723699586 0.0326532594535976911 -0.0197851841511557588)
(326.097677557192355 0.0315719171244960364 -0.0174680175069498039)
(257.307796282286347 0.0268858095241043329 -0.0142005916770597783)
(192.94273632315236 0.0270651179025158915 -0.013558663330774795)
(136.605028950754928 0.0241991276167890547 -0.0113735308143092882)
(94.8294069810983586 0.00974395846565207988 -0.00431541083432247785)
(65.2439293129392581 0.00612568799911450152 -0.00253497512069750935)
(42.4903832131098156 0.016842018026849169 -0.00663667085117734985)
(1797.2359490194126 -0.00688311751819729607 -0.0139739202351707135)
(1679.269069609295 0.0114832892865734757 -0.0169233650395571346)
(1492.12897684319569 0.018790122944109873 -0.016361187810735027)
(1286.1876711073262 0.0235532835650510176 -0.0154507344106519281)
(1097.90210902553895 0.0283102985982920524 -0.0153676382650888756)
(936.353290771985144 0.027982771781686136 -0.0137208397998744343)
(794.812707895931567 0.0293912448895377806 -0.0134402956789628804)
(666.863235558882138 0.0290241726535743691 -0.0123758165306940456)
(550.399523697383074 0.028067840533394374 -0.0111638377442649511)
(448.131390209483072 0.0297053819812248994 -0.011032541292868377)
(356.837847224485358 0.0328257539153350847 -0.011567281933914186)
(272.896357347213609 0.0325958215709549956 -0.0109224956583027256)
(198.613724544655753 0.0295820002744094264 -0.00943813322998679483)
(138.124858364522595 0.0199418884507174092 -0.00606974477742387979)
(92.7820428610633599 0.0150079126603799816 -0.00433530442757050233)
(59.9280038059589515 0.0204206691288427583 -0.00566389551284201924)
(1954.74214211034609 -0.00881143684905530411 -0.00922619476535977735)
(1832.96904574449354 0.0122640553901707337 -0.0114012835503758785)
(1648.10128923335583 0.0193199858058635821 -0.0107094054524158877)
(1447.4654437125871 0.0206477358792474634 -0.00875877804736738957)
(1256.71094772305491 0.0289093721666306702 -0.0102734853261028033)
(1082.79249026634602 0.0304936667391039681 -0.00980712515286060078)
(923.232144376796441 0.0290891393534530168 -0.00867315643582242633)
(775.837089788858862 0.0280506445279797983 -0.00780232948854703637)
(642.541853670902128 0.0271374578178832579 -0.00710778882351547139)
(525.656515567672955 0.0280242387951350307 -0.00697397109446691588)
(422.209964691651123 0.035537459364530545 -0.00852673972191788157)
(328.350732238460296 0.0370484566089031297 -0.00864956891824647522)
(243.841978365371517 0.0350335638934735003 -0.00796715317787513762)
(172.082210765062172 0.0257495444110332483 -0.00567052422074730902)
(116.023217951372402 0.0207873893822093439 -0.00441715887858474664)
(74.6107605560013383 0.0212812233347162948 -0.00441484325107927011)
(2032.72498789832775 -0.00852337984475643254 -0.00538668454833339267)
(1907.37755486730407 0.0130339943844634126 -0.007398459551474665)
(1719.25887221804123 0.0214379701650799226 -0.00733834834274348698)
(1515.2484124486059 0.0220889348904526189 -0.00575569103319297989)
(1322.8680572066321 0.0289310264870073879 -0.00627567269881843404)
(1147.20912354816778 0.0336329286627098517 -0.00666285845643308731)
(983.81232489529441 0.0312247923749290682 -0.00584007527536640515)
(831.91866477454812 0.0301611756557093741 -0.005387957597498951)
(692.090918732229056 0.0308743079425955157 -0.00528959376694678862)
(568.66758326217257 0.0319063198128417755 -0.00526685698583483422)
(460.375136149740626 0.0403560278863112562 -0.00655169867640656867)
(361.628446526442815 0.0409422231870245762 -0.00661250344907021639)
(270.875782527282297 0.0391665145225819633 -0.00627416578728074055)
(192.065641640789124 0.0301726145053764147 -0.00476280332373357675)
(129.751823003249797 0.0194817356362831581 -0.00303753146401700711)
(80.3677580608453894 0.0251613062065145464 -0.00395493109142585567)
(2086.22456333182163 -0.00832856127371397852 -0.00416025205229149462)
(1958.13698713484609 0.0143042641311587043 -0.00542937727282296473)
(1765.22255154614686 0.0237459285015215425 -0.0054278112607837976)
(1558.02747199487476 0.0239984976032962989 -0.00424115519181927567)
(1365.30517674253201 0.0306448152308853999 -0.00460903906344151473)
(1189.19870110271268 0.0361792551221037373 -0.00513334289852110295)
(1022.57334429905006 0.0346230836057322203 -0.00474825426316417658)
(866.510293483836563 0.0334416583051192345 -0.00445113049155665668)
(722.931817780995289 0.0327154701301313258 -0.00426110362631961209)
(596.043844673922194 0.034437316407142593 -0.00446051312836071891)
(484.400605628111975 0.0427065063126847305 -0.00561520956604475308)
(382.417006869906288 0.0439224744438203932 -0.00583877734029218838)
(287.314249929717278 0.0424489226759287019 -0.00563275565819744591)
(204.225356456791673 0.0281302720537630647 -0.00372653805348775171)
(139.776493346374821 0.0105522420030462263 -0.00140630184097767508)
(88.738224750796391 0.00931298666176135458 -0.00124922351880867141)
(2120.17797147443207 -0.00822146764648939467 -0.00239367839028400411)
(1992.33585255752541 0.0150811475583114279 -0.00371713977302777976)
(1797.59157724405054 0.0244383753679912469 -0.00364705280885894816)
(1589.84708373392937 0.0227911302943418423 -0.00267211865299654943)
(1397.26397072358714 0.0306779316298502608 -0.00316450800047361151)
(1219.71857871918405 0.0368692621214125188 -0.00366450324955077842)
(1050.03927157147996 0.0345939093463945579 -0.00337692552685506589)
(891.737646553213267 0.0298958708969821879 -0.00288998204102504114)
(747.833158496176907 0.0264473029161627175 -0.00258135630505790942)
(620.772111638512683 0.0259103599517651918 -0.00261851099198969796)
(505.327366571164646 0.0428677477215648403 -0.0045736338555357409)
(396.273171935635787 0.0435640931725159927 -0.00480263935547754935)
(295.543674891617798 0.0342454178369338419 -0.00376928302937235308)
(216.129254939519484 0.00885915588273596989 -0.000956788397582942021)
(154.481806956711011 0.00880750747252331996 -0.000940829346550884032)
(99.073492862598826 0.0155015647878072801 -0.00163671883145025273)
(2137.90863286156355 -0.00821801086711821532 -0.00132211475135153166)
(2009.41777812108694 0.0158851059189259979 -0.00212755153068476749)
(1815.51661636450876 0.0230599456378077806 -0.00187586848484288171)
(1610.15074196557543 0.0227907546369522408 -0.00152412049339549103)
(1419.20117848269456 0.0290174719462150676 -0.00181058301062398449)
(1242.76065144753329 0.0367892023418717878 -0.00229576460291759004)
(1071.46178202898932 0.0337523547731845286 -0.0021313784545439131)
(912.221358728360428 0.026451482185234465 -0.00170049606174318317)
(770.395261343936909 0.0207879586828067439 -0.00138819099683143497)
(645.122809524076047 0.019524506764418019 -0.00138256649450395775)
(526.725839715462826 0.040728494902740324 -0.00309647682355261057)
(410.916930961211392 0.0421449907040904251 -0.00332601946353949752)
(304.26748216222154 0.0326360949862818869 -0.00252736308227732246)
(223.654844746006432 0.00263703431281675851 -0.00019077896774801731)
(161.610015442607278 0.00508936599742142518 -0.000353986999160886442)
(105.580611087635802 0.0125588999046573977 -0.000865192712266098837)
(2143.06339574501635 -0.00798650194760693564 -0.000421185706433764649)
(2015.29920539091768 0.0157946935004346922 -0.000693377309334064669)
(1823.16056306067003 0.0217632548083847126 -0.000608518022084150539)
(1622.2871458897489 0.021165486951902221 -0.000509579562174624582)
(1433.17007763945571 0.0317147562471734937 -0.000761936405934758847)
(1255.15275860169845 0.0361463809051157658 -0.000883268101432373013)
(1084.03941078930302 0.0326183598133072128 -0.000827399377544109295)
(925.600041048772596 0.0242057653627663419 -0.000648551876081265616)
(785.40832497056806 0.0192474001680030191 -0.000552077317031873186)
(660.598678976134693 0.0191787464092190302 -0.000597148551048922783)
(538.715467063464644 0.0386973057094232992 -0.0013086887993840259)
(417.687395139108901 0.0398865224258497103 -0.0013715413203900604)
(309.016887041099949 0.0363876257191578859 -0.00117445371624523001)
(228.358374261821126 0.00456840438935119005 -0.000135849467325351654)
(166.551106971185817 0.00641519841176913051 -0.000186606223038241083)
(109.560184194303616 0.0069979022738310805 -0.00021084278813585466)
(0.0911237557496606398 0.0281558813001212549 -171.424721362285482)
(0.0974687515251884268 0.011327655863878603 -223.791913040293906)
(0.0543365653067117843 0.00648978249588903332 -203.713486208413769)
(0.0181488714509957412 0.00268120979181728572 -146.002222598250171)
(0.00421125192387023384 0.00139264326641345536 -75.901884016700194)
(-0.00179412259065002736 -0.000718627574583111236 -15.186179016694707)
(-0.00181173881419955242 -0.00165845559649117815 -10.7256770360266955)
(-0.00213334594681249086 -0.00283000430290941294 -10.8376319480321754)
(-0.00011326476047457191 -0.000185258482678657562 -10.9738928636636075)
(-0.000433077852076512674 -0.000788743975763767807 -10.1580183209093597)
(-0.000438431574378691179 -0.000918924444123083144 -9.54479335435460285)
(-0.00149071357124314335 -0.00367893787319257181 -9.35907227911296502)
(-0.000176143043682917361 -0.000504891645660535278 -9.7639571359411903)
(-0.000310723472903963493 -0.00102142149981647294 -10.3292690120019373)
(6.91140941635816927e-05 0.000266249884698965269 -10.7771796718570609)
(0.0409825729717129411 0.0134744680949194697 -71.6040461806888828)
(0.0331228152526712033 0.00205721635025154885 -73.4362842381565883)
(0.00917286701072491002 -0.000559017535749695778 -47.1514385022664513)
(0.00137101099140074967 -0.000300834336313317676 -21.0397406087521901)
(4.08112686130824345e-06 2.15228344623769761e-05 -8.15455703349678096)
(-0.000268350184118753654 -4.9553055958349416e-05 -7.775308881048689)
(-0.00026176158431384628 -6.22412774981565361e-05 -7.85225682770187561)
(-0.000279190298655966076 -9.08579899339814957e-05 -7.89108402416036547)
(-0.000245471428089759748 -7.69233410002068943e-05 -7.71718295582256619)
(-0.000211586467200798953 -6.59720807759367863e-05 -7.52196962907798383)
(-0.00020040502620768716 -5.78592765932464309e-05 -7.45023586789958703)
(-0.000198276538779396284 -5.45171413859585777e-05 -7.51071586847066008)
(-0.000185463162562438713 -4.85489303986402958e-05 -7.63212884747621789)
(-0.000191631986146096581 -4.61320139399795467e-05 -7.79804258645176063)
(0.0183870011514314265 0.00471141579210085371 21.6170417499310226)
(0.00768185509437295608 4.99382947900749413e-05 7.62273920222688783)
(0.000345383115403445206 -0.000440082571545373535 -1.84636502903198729)
(-0.000164463466624409225 -8.54953717862270561e-05 -5.56685059174070318)
(-0.000229992524313210866 -1.78136034528812423e-05 -6.3945566586899476)
(-0.000120855153914877731 -3.56094806572272604e-06 -7.06323040157121085)
(-0.000174532423288444255 -2.70875414231658798e-05 -7.00891451612712846)
(-0.000167537007534218006 -2.74433880312230433e-05 -6.9804149658366681)
(-0.000148541313055940166 -2.30863088186424846e-05 -6.97859570523531758)
(-0.000133322422966630939 -2.24984526545580696e-05 -7.00139718017146429)
(-0.00013779554194380631 -3.09361661494831792e-05 -7.01880854485503392)
(-0.000136956180060757545 -3.48818044002998626e-05 -7.060568681997764)
(0.0121305603503839617 0.00185854348002056522 15.1462244490664482)
(0.00220952479523941125 -0.000186927100055940971 2.59268950833366185)
(-6.26989966869743147e-05 -4.93641431344271254e-05 -3.1679002026537626)
(-7.09823568096701541e-05 8.86192217965631575e-06 -4.45378642098619615)
(-8.77564863385317751e-05 1.95960442957105187e-05 -4.9227505655407775)
(-7.18355444855778736e-05 2.63800765560934906e-05 -5.20517656804722773)
(-0.000117910753630279467 1.52908185462753987e-05 -5.42545350363529977)
(-0.000121664685715084845 -2.66276775307270842e-06 -5.55352065381345916)
(-0.000117246750762779048 -1.70732943321357826e-05 -5.59294208546096439)
(-0.000116103123981546298 -1.80990849081393106e-05 -5.63839723158373918)
(-0.000115990688615875685 -2.0975293967357555e-05 -5.71295828113331527)
(-0.000115246064926836396 -2.59696843280658514e-05 -5.7710457147509322)
)
;
    }
    procBoundary0to1
    {
        type            processor;
        value           uniform (0 0 0);
    }
    procBoundary0to3
    {
        type            processor;
        value           uniform (0 0 0);
    }
}


// ************************************************************************* //
