/*--------------------------------*- C++ -*----------------------------------*\
| =========                 |                                                 |
| \\      /  F ield         | OpenFOAM: The Open Source CFD Toolbox           |
|  \\    /   O peration     | Version:  2206                                  |
|   \\  /    A nd           | Website:  www.openfoam.com                      |
|    \\/     M anipulation  |                                                 |
\*---------------------------------------------------------------------------*/
FoamFile
{
    version     2.0;
    format      ascii;
    arch        "LSB;label=32;scalar=64";
    class       volScalarField;
    location    "0.720000000000000417";
    object      alpha.water;
}
// * * * * * * * * * * * * * * * * * * * * * * * * * * * * * * * * * * * * * //

dimensions      [0 0 0 0 0 0 0];

internalField   nonuniform List<scalar> 
29184
(
0.999999979900396463
0.999999979803488759
0.99999997307402011
0.999999946656190408
0.999999947490084029
0.999999965443569616
0.999999977870382972
0.999999981995546849
0.999999986707010624
0.999999991890320183
0.999999992013292816
0.999999991905887842
0.999999991769497498
0.999999988316926935
0.99999997875847968
0.977406526179824819
0.999999979803535166
0.999999977537514906
0.999999964352683124
0.999999940579032631
0.999999945537630497
0.999999963509579426
0.999999974742636466
0.999999980016459733
0.999999984661213981
0.999999990522931759
0.999999991916880715
0.999999991769587426
0.999999991361664731
0.9999999818046863
0.999999944662768869
0.977784023014586445
0.999999971146087407
0.999999877547469662
0.999999816607808789
0.999999813945120053
0.999999860269405572
0.999999916402331879
0.999999940418539901
0.999999956391994904
0.999999962118344077
0.999999974100239997
0.999999991565182711
0.999999991424229462
0.999999983228102018
0.999999964192292756
0.999999804885183918
0.987962702984279462
0.999999695760100948
0.999998304561801721
0.999997777291183443
0.999998055272439679
0.999998709835346555
0.999999203383023394
0.999999431317588616
0.999999548449874376
0.9999996352400079
0.999999697926051034
0.999999816686873655
0.999999970524436455
0.999999969208260064
0.999999824019670136
0.999999215542958675
0.996017416843685277
0.999995246209570254
0.999982957055910893
0.999979615684572498
0.999982599828118546
0.999988527168917063
0.999992580172605727
0.999994630982659616
0.999995574908947527
0.999996295777866195
0.999997106533120572
0.999997792891772486
0.999999209502794972
0.999999794133160425
0.999999230452965682
0.99999555016255226
0.981832306722320247
0.999947176271638982
0.999872224553918887
0.999859524382068043
0.999881132030786657
0.999920360001407715
0.999948850974933023
0.999961190308958914
0.999967741731108584
0.999972973930050468
0.999978262949029695
0.999984261014251752
0.99999197472684842
0.99999823382956643
0.999995344931988273
0.999973461375763373
0.969942315001451671
0.999565707498406453
0.999232229198421473
0.999206568477675861
0.999340598152939741
0.999543833483972577
0.999727130076929704
0.999782760022130956
0.999814130067585349
0.999843584085664761
0.999872615580729152
0.999904916219450435
0.999949667166968537
0.999987234993836127
0.999973731980348557
0.999870497767863631
0.965689228412239142
0.997556923863855305
0.996637137017768238
0.996674347801679406
0.99720497324812285
0.997949503274632832
0.998746871953752891
0.999184140502505369
0.999178321126000801
0.999254437336750123
0.999378445307842256
0.999526463410197241
0.999743604333676483
0.999899947574419024
0.999873013942347288
0.999465506061193887
0.961840519301110475
0.975307420813792736
0.972094410319332747
0.977445909951944358
0.985186818041574819
0.992252591580963017
0.995461290069926674
0.997767020252264381
0.998017067431313354
0.997320157106573069
0.997449314397711451
0.998039538371858104
0.998893998661178673
0.999383440149567592
0.999464406450895071
0.998185083411953888
0.972013455807489102
0.501902454275139243
0.49583482274808921
0.53474310424808047
0.600401859595335874
0.683728596295418267
0.777798149980284403
0.872333712028867336
0.945481111860090762
0.980566648159646448
0.989730160717589569
0.992595971798484911
0.995473719216599662
0.996940977944719142
0.997946964962020067
0.994512264113091904
0.984312631976804298
0.0344144732541868462
0.0341729641464526557
0.0471261563062167835
0.068650301680651199
0.104450316869125093
0.164187578328411077
0.270387909459458287
0.443632686930510611
0.667282813232684235
0.866027112398670917
0.9489117423814174
0.973973464006024137
0.989136333911952548
0.992886910204607509
0.984739005061982864
0.97323273053793069
0.00522479640464727085
0.00597980964885456642
0.00715872723895158523
0.00867180994602502822
0.0103424755455047007
0.0123817519466789747
0.0161379301667640314
0.0605683575867227986
0.199686765872765404
0.409351273199874188
0.693184606948090254
0.889904191677323486
0.976565610834657427
0.977176943158500677
0.960738558870720571
0.961225012806168344
0.00454288756218479764
0.00546895971114600907
0.00627218127300126389
0.00734723136676455717
0.00870584978304214663
0.0109365265747625624
0.019386881380820415
0.0221255553418333029
0.0620665220572003268
0.27595033491515919
0.502213617714259319
0.687015718639466311
0.782995110484845602
0.783568993206272602
0.885093081166152373
0.929184486207321636
0.00291736382963732332
0.00315917307866839595
0.00461043859172190641
0.00687057743144323281
0.00774277294713809558
0.0116062089913794887
0.013993586377831789
0.0179026895012523862
0.0269743493540099064
0.0335045155238684819
0.0839378049409365973
0.127303559282724021
0.187887512195911488
0.301859860205952568
0.38390056321453836
0.790782792979445759
0.00137483159716531933
0.00196570083379250891
0.00362208038860951063
0.00485682968795855645
0.00669015335422614571
0.0098079349608748926
0.0120309257682770718
0.0241836822016719688
0.0249487643005897181
0.00862450620622204865
0.0022419365800495708
0.00162917078120611357
0.00310303877476118296
0.00897357394373999272
0.064064209616028045
0.241851080059909296
0.000831344272703653632
0.00145704510425898569
0.00212687870928880522
0.00277311439591062126
0.00427581391681017883
0.00547987082068898505
0.00920627177161950985
0.0212412218193609136
0.0236004058625079033
0.00797892597321631092
0.0012944232438972384
0.000690586748578230305
0.000903767464337358367
0.00242261164241224609
0.00656576484122598468
0.0288556767794863021
0.999999979664923933
0.999999979551150497
0.999999972256622183
0.999999952540738812
0.999999955015270614
0.999999969995560734
0.999999980152885493
0.999999985035616934
0.999999990900610536
0.999999992013291594
0.999999992040370822
0.999999992013289374
0.999999951980348856
0.999999976965565862
0.999999956694016201
0.975302195224742707
0.99999997955132558
0.999999977118221306
0.999999964585971846
0.999999947512398402
0.999999953127743257
0.999999968321367838
0.999999977981927635
0.999999983269867276
0.999999989326979977
0.999999991842065006
0.999999992014490191
0.999999991772000829
0.999999942473910441
0.999999377422972402
0.999999863032062786
0.975719600939877418
0.99999997029350296
0.999999885437355962
0.999999836835039235
0.999999839494544185
0.999999882701569476
0.999999929478134986
0.999999951342144699
0.999999962577894919
0.999999973761988348
0.999999990051902099
0.999999991830640145
0.99999999146268459
0.999999984611609105
0.999999563900591637
0.999999664987651471
0.982407916407252557
0.999999700939601555
0.999998437405305252
0.99999804265000547
0.999998323148181711
0.999998918445660245
0.999999333989799899
0.999999523316597028
0.999999638308630256
0.999999726394632082
0.999999796297271315
0.999999951350454053
0.99999998517467481
0.999999963810350057
0.999999756288131536
0.999998941297340571
0.975597442272755577
0.999995326798463591
0.9999840059778764
0.999981694914915509
0.999984705718105937
0.999990181545305834
0.99999365800535478
0.999995333559229538
0.999996367371786876
0.999997201005056402
0.999997943814609602
0.999998502708314585
0.999999693685187596
0.999999756444635457
0.999998945183452559
0.999994010997768079
0.976780553374331784
0.999947670666568089
0.999877940459007908
0.999870083206423788
0.999893408388733973
0.999930019197028841
0.999954897674239729
0.999965719289207744
0.999973245132550703
0.999978900033676954
0.999983518688881023
0.999989058380126528
0.999995667236463159
0.999998061763017976
0.999994166680980623
0.999968512457809711
0.970108564376481186
0.99956466302543423
0.999252062350159176
0.999247581052231659
0.999393698003056441
0.999586862330910764
0.999750369828392493
0.99980516345737902
0.999836960920899354
0.999868708600305633
0.99989874595955941
0.99992853165556228
0.999970402010320059
0.999987149074385462
0.999969038950425437
0.999856625226476114
0.962536414122556527
0.997463078771409495
0.996659024929756443
0.996788767264784825
0.997365768349635307
0.998084865611661209
0.998822321965585624
0.999203552631040326
0.999245572712674779
0.999347803922847167
0.999472777599695328
0.999625731200572298
0.999848580322614366
0.999909706956617628
0.999860396246626149
0.999469284731603791
0.958121718780599818
0.975386512194747812
0.972458155957198089
0.978315440372565126
0.986013605496786738
0.992536521241072389
0.995685489241977528
0.997859731016468743
0.998124311881383508
0.997559567043739159
0.997803664878363472
0.998478227498816429
0.999303641624085914
0.999492790097339157
0.99943357109050468
0.998222215491339382
0.956400795097147038
0.505350257946289627
0.500159090011154994
0.539875420984977206
0.604857171161704787
0.687546695044414236
0.783099041456750578
0.879279398939385337
0.950233213215673667
0.983453688312970531
0.991739807207861479
0.994843889523573166
0.996888914838361062
0.997561344929269289
0.997946214371866258
0.994973097212119018
0.963642417758328484
0.0357515413995255632
0.0356591836812683721
0.0472586486411374698
0.0674022564963630832
0.104040375943149799
0.170238002388567344
0.289133103608026854
0.476143322290423554
0.702514649961816229
0.879385590286070329
0.95686470910967758
0.982603590920798631
0.991188793180705963
0.993139617010946107
0.986677930784634505
0.967721545763588598
0.00544912625779757354
0.00585000760005848462
0.00590939424537264939
0.00714758796104546928
0.00867177727292862965
0.0113086695499322841
0.0180790003577560379
0.0882675014687160087
0.257700948590218082
0.497990215626533672
0.758113717973806556
0.927051242813236254
0.979910524339018263
0.978909395936230831
0.966888767189730602
0.954503658285873247
0.00403397044648491805
0.00436236525530772808
0.00521377242546031475
0.00614330278753427543
0.00714689206173130254
0.0103424465078787754
0.0155333818257024116
0.0202957980493049216
0.07827318251481101
0.295639619147216814
0.533578201076011505
0.737892789873805799
0.837593300844545752
0.899738846637283984
0.923022862001445787
0.936713186207980053
0.00190951021637409107
0.00276909871234736447
0.00355775218994582552
0.00449710504336462997
0.00655777165065377088
0.014245473205436102
0.0167270126375027584
0.016245666263490402
0.0119328281641913735
0.0103663186862670825
0.0750689257768593632
0.16931755415522437
0.291557174009469233
0.402403511061054375
0.535603794110757647
0.881550017368706973
0.00141211393971743798
0.00154792850998400323
0.00226948043237411735
0.00315661828430563495
0.00698207090533311397
0.0122139300220562054
0.0152664782321106016
0.0225695037045930275
0.0142930734746252522
0.00357894952223368652
0.00129446283723518344
0.00185631175628854202
0.00499061378338530072
0.0147348638134997337
0.151786859597763779
0.434946056839231321
0.000828875701592627929
0.00102077597002511343
0.00148711990413635787
0.00308796397961565812
0.00765832656058099137
0.00840295966882506629
0.0102263960022237217
0.0189260773667339968
0.0196510781909260621
0.00324354514463207197
0.000659489001718452286
0.000440544111261301241
0.0011810128241636444
0.00388080572092763679
0.0172297995913986632
0.0878158976229368587
0.999999978607563067
0.999999978800644174
0.999999973604885906
0.999999958359780061
0.999999960792524289
0.999999973399004816
0.999999982567202794
0.999999988927456007
0.999999991999952931
0.999999992040371266
0.999999992044247388
0.999999990643679948
0.999999896655115572
0.999999952550639781
0.999999922723120438
0.974143150657665102
0.999999978599786732
0.999999976703005
0.99999996765769994
0.999999953677790487
0.999999958734591132
0.999999971984177449
0.999999980865634241
0.999999986808351338
0.999999991517381392
0.999999991999978244
0.999999992040397356
0.99999999186563493
0.999999632955918649
0.999999008106418064
0.999999724678607649
0.974305670703233817
0.999999971945686017
0.999999907618043915
0.999999864722789344
0.999999863683483703
0.999999897458905052
0.999999937641333103
0.999999958492102659
0.999999968986147736
0.99999998898361353
0.999999991744503047
0.999999991878061878
0.99999999152065322
0.999999984836944078
0.999998592035773681
0.999999504626048141
0.971312702649075099
0.999999774749847692
0.999998789239483044
0.999998395890114855
0.999998585823988484
0.999999046406939707
0.999999402320881803
0.99999958507696296
0.999999696404689886
0.999999779840750502
0.99999986832287302
0.999999987480383656
0.999999985150880288
0.999999939970434348
0.999999664917726627
0.999998590807907428
0.969356078383134534
0.999996496636464061
0.999987376911775971
0.999984685338374035
0.999986818251698217
0.999991131191088067
0.999994235783547847
0.999995826134520205
0.999996884734669633
0.999997748861338409
0.999998361404238922
0.999998941456803792
0.999999820907172987
0.999999667470052644
0.999998595618330377
0.99999284149577794
0.968195766867658403
0.999959263596155279
0.99989988218264525
0.999888424142565402
0.999904866089318167
0.999934959202938956
0.999958390640474648
0.99996881250959202
0.999976079415763275
0.999982166945800222
0.99998664013979488
0.99999185518088507
0.999996926371321315
0.999997907949894071
0.999992883742541139
0.999965296409549675
0.975151168543052282
0.999641467898005787
0.999357030054259465
0.999330831270807796
0.999439056806699977
0.999605340870925785
0.999754884981388425
0.999817855225111796
0.999850932926508174
0.99988472451108068
0.999917577505366584
0.999946909187295674
0.999980696258099044
0.99998645534978825
0.999965313748257922
0.999856601576628812
0.971048246428739548
0.997695183595425306
0.996950622692717836
0.997046524760043629
0.9974939176129477
0.998130364627120459
0.998813920321580562
0.999204623841863482
0.999286449683851608
0.999417204624269195
0.999577315802279043
0.999747616265430183
0.999900933112106038
0.999907740429004321
0.999846718882338781
0.99948413282151316
0.96059874679677959
0.97804760461308593
0.975088685280610212
0.979976493732482412
0.986791865025624992
0.992597724320970154
0.995692919398613485
0.997883722552733055
0.998182772731217138
0.997870380016724567
0.998339898564684081
0.99904882309255727
0.999515567388327808
0.99953365922015136
0.999402642857244228
0.998313892817919823
0.956258877188415068
0.517956465188365911
0.512612022386376376
0.550855303138568564
0.612288004414604736
0.692458224478177176
0.788705741561127605
0.888068859504241082
0.958034012049752026
0.988349551617318411
0.994887232434240376
0.997087795865548965
0.997880610261263401
0.997805575407805678
0.99788641534125988
0.995300239183086966
0.958649205566564522
0.0375653802484760962
0.0376463792702361952
0.0496661733691875495
0.0695264787519253857
0.10648659932157295
0.177108666865701814
0.308797616223543181
0.513460691057602059
0.746842108755356504
0.90702338905916946
0.971905258133968442
0.98754916168176754
0.992071067050661171
0.993201156277676134
0.987678711436846157
0.961425594911767045
0.00532987943693772129
0.00564337693593545617
0.00540035330607614716
0.00631916411266309191
0.00810985175909195721
0.0114245333762102164
0.0197682164277594961
0.110621535015113237
0.302490183083160447
0.567900791938824701
0.811032365601435989
0.946721285718066463
0.981707685730965229
0.979869557247326051
0.969817105796305867
0.954332584392505345
0.00392187737837549309
0.00417674212465424938
0.00454733318563719548
0.00496599081186187286
0.00646244436262706848
0.00962133539391700487
0.0132813289446037843
0.0172256383879297939
0.0829750248044611172
0.31029116969198467
0.560774982336930239
0.770803570536215177
0.884374364581804073
0.942926772227785426
0.930761692037824773
0.941175520903129614
0.00170760088746581664
0.00201481581393291595
0.00297735688706529059
0.00379516551763972587
0.00745035956466917875
0.0119566278640690048
0.0136141983708460076
0.0116120891897233125
0.00755816641396597592
0.00441921728091325579
0.0624022014654235097
0.216028259521899413
0.357320935596343592
0.486340203018927997
0.582184257453196574
0.896942777450038697
0.00123161993626184864
0.00155351516738527415
0.00180152190934817656
0.00254029966276387523
0.00617928939124205191
0.0103563710385008185
0.0156190812450205854
0.01831332845298346
0.00665500408702926309
0.00213923969055405602
0.000949710250501045565
0.00195861081502733073
0.00621373217483175803
0.044595013852062021
0.227909257402489129
0.62941478475113688
0.000914662564894920017
0.000973340402368095821
0.00133665183809893021
0.00274270809919261241
0.00425744240261778477
0.00666641356278312083
0.0131625436127635609
0.0159104976430793216
0.0098146111562008153
0.00183014030378047567
0.000427612801501527865
0.000278872760356514509
0.00107054284448397153
0.00512742351401781864
0.0529257741912146154
0.143527587377269256
0.999999978023525582
0.999999978126268063
0.999999973730612557
0.99999996045388384
0.999999964096159655
0.999999976511893873
0.999999984923291452
0.999999990963324592
0.999999992031068596
0.999999992044124153
0.999999992043892783
0.99999998296414816
0.999999885435389424
0.999999927403874445
0.999999898271251464
0.972340913200088419
0.999999978009948109
0.999999976339939867
0.999999967956832103
0.999999955910636729
0.999999961776284918
0.999999974973294625
0.999999983328987874
0.999999989196196926
0.999999991895822005
0.9999999920310636
0.999999992043941299
0.999999991854883974
0.999999462680348117
0.999999074592430759
0.999999695725415139
0.972400377205938971
0.99999997204807678
0.999999910368066125
0.999999866344602806
0.999999866441472207
0.999999900607194459
0.999999942150427978
0.99999996257365209
0.99999997431164811
0.999999991409365574
0.999999991874125804
0.999999991865194504
0.999999991390563503
0.999999949577521141
0.99999858928817642
0.999999478447312851
0.969753874125588555
0.999999782896765721
0.999998836880494624
0.999998421593162656
0.999998598126630833
0.999999046062090891
0.999999421590913484
0.999999608544877905
0.999999723139435304
0.999999812713038061
0.999999883550073076
0.999999980597573668
0.99999998478778962
0.999999886133569715
0.999999529281493271
0.999998464430992939
0.968356441535134671
0.999996642606511887
0.999987947195982052
0.999984979751550762
0.999986890863305278
0.99999103691048441
0.999994286665769394
0.99999598777820653
0.999997076660703588
0.999997960651863638
0.999998436348085717
0.999999182770679784
0.999999808123934075
0.999999567535534872
0.999998370402229053
0.999992364709629711
0.966944631108726416
0.999961239437766602
0.999904787090123093
0.999890502868009734
0.999904919030542683
0.999933802257430449
0.999957924039324153
0.999969409309631185
0.999977407101745319
0.999983921886356653
0.999988180647739533
0.99999290846684008
0.999997264544375764
0.999997368543471543
0.999992177740968158
0.999964380852015777
0.966593674632957756
0.999660446729096819
0.999385172815841272
0.999343905732515192
0.999434229727219958
0.999596983496373381
0.999754927395459791
0.999820557153332068
0.999862742311197872
0.999901870233786294
0.99993312846279736
0.999957009373335981
0.999983484410503554
0.9999821842883172
0.999961424038044333
0.999854822704453472
0.96671360767540615
0.997806724621478347
0.997047246958053357
0.997091367384037142
0.997466632604752546
0.998094490395924239
0.998829297100286562
0.999233123081869512
0.999372419872743167
0.999527172310762602
0.999677289302010719
0.99981535316949266
0.999912093788240197
0.999898417058596944
0.999832466764626893
0.99948208524034432
0.960082401614344105
0.979939569187315396
0.976917670931296334
0.980858668043885995
0.987020683757223738
0.992557087646176783
0.995857240776726993
0.998102068677752197
0.998350963239030609
0.998290227074196235
0.99878303851128214
0.999328334616400915
0.999551575508787593
0.999513502887899863
0.999355377319828708
0.9983576731235142
0.956258877188415068
0.528174663990262472
0.523200652204565131
0.559977228539213501
0.617667622124552285
0.697370078542463023
0.797686677802813104
0.900997472069517635
0.968082547214860645
0.992708741927420757
0.996826073769327303
0.9980527855119814
0.998029411575806269
0.997831810513536421
0.997762201873075849
0.995381078876389047
0.961121581105054856
0.0391461415226831075
0.0393630003582194909
0.0522123553130931922
0.0715894911513133558
0.108796570429472633
0.183979400823000711
0.328343532124738657
0.548892250203974252
0.785146964910743428
0.92953473231769479
0.980262330642373003
0.989605917305460991
0.992772536804116923
0.993001330001746063
0.987901923829987649
0.966549347472184794
0.00511734047662219631
0.00531192507407805825
0.00513184773739978374
0.00578074226848498355
0.00772674066647295859
0.0112050189014481251
0.0208111183216510218
0.125524468848978804
0.334558606951015358
0.613890936090040418
0.844782242878367118
0.958730832204334082
0.983503679198910019
0.979923151403209958
0.970679392051088552
0.958497202953991989
0.00389195761867245239
0.00410073967402449849
0.00429862666182682408
0.00435016347779125338
0.0058412118875500697
0.00885961314589293544
0.0122149147882387333
0.0150386905101153948
0.0865026728983952359
0.328713852317648714
0.58602386430877107
0.793866782820151551
0.904004921247397952
0.946360981042597915
0.933473476494360743
0.949889163030265493
0.0016175928492561378
0.00177940898317398765
0.0023567525419342975
0.00367891404656958167
0.00743372009135799539
0.00985437309771446807
0.0111627432093858586
0.00976940561201786357
0.00752217627082118426
0.00467126592074806283
0.0733429505434615991
0.247438709083483643
0.38094948228271841
0.50922113982704964
0.640478450253112674
0.910697457524362486
0.00101980035519721969
0.00124187068579928233
0.00168300117365727058
0.00266832146121255293
0.00491985296629000521
0.00761297371121896597
0.0138266934661013113
0.0143012418579149293
0.004675451612966397
0.00203417118075613921
0.000929892080434979512
0.00215066978732052
0.00748901522581606541
0.0807700037144009619
0.244609680323110035
0.725470767886062573
0.000914385911366169578
0.000936756837898977375
0.0012845705674140544
0.00192788811166123104
0.00206541863170912063
0.00507339058921343119
0.0113785098541153602
0.0137183934044070917
0.00707583646919109945
0.00163052192063393108
0.000292873969393723902
0.000198761091187301189
0.00119623230505919707
0.00626121617240423846
0.0657697060690986268
0.194660407731192031
0.999999977701485188
0.999999977700487319
0.999999974218014342
0.999999962909936979
0.9999999665841105
0.999999978328644845
0.999999986133889518
0.99999999153397412
0.999999992038581365
0.999999992043892783
0.999999992043933972
0.999999970677877714
0.999999885166430458
0.999999950499168122
0.999999927403851907
0.971000389385652474
0.999999977700487319
0.999999976373873833
0.999999968713583653
0.999999958283738222
0.9999999642475218
0.999999976818089387
0.999999984612534476
0.999999990186388965
0.999999991960522472
0.999999992038564489
0.999999992043892783
0.999999991553257583
0.999999410884219286
0.999999479980929418
0.999999745457623601
0.971490925408083683
0.999999973853468394
0.999999915711276444
0.999999868942160863
0.999999870362537679
0.999999904566814202
0.999999944467453439
0.999999963553793281
0.999999977654131955
0.999999991606163707
0.999999991905292651
0.999999991821279854
0.999999991185712367
0.999999945948325086
0.999999457659923263
0.999999542911817363
0.975039395107365925
0.99999983367686518
0.999998925540312111
0.999998452567415486
0.999998627415744856
0.999999074410116595
0.999999439022902781
0.999999623670472459
0.999999734113679151
0.999999829230357129
0.999999892128668355
0.999999921573287431
0.999999982631799678
0.999999895656537019
0.999999429995120925
0.999998497355088167
0.970756802562697585
0.999997514590895475
0.99998890473499813
0.999985295373100214
0.999987147849569213
0.999991339013787561
0.999994496761122065
0.999996211385640654
0.999997176794081843
0.999998010654062686
0.999998463942367577
0.999999483337178807
0.999999708751716954
0.999999091583307687
0.999998135304970281
0.999992179985294438
0.966052256767086837
0.999971081280194074
0.999912733079229232
0.999893014506733957
0.999906735108185396
0.999936416128819339
0.99995963026150203
0.999971387201985862
0.999978550241312547
0.999984930076772471
0.999988964143289971
0.999993170856039226
0.999997354649441617
0.999995788732719548
0.999991181545009211
0.999963422809831526
0.963244490945321719
0.999737700001755436
0.999434952437512125
0.999360672730918775
0.999443809468232636
0.999614766839275637
0.999769736872107684
0.999832724399831174
0.99987502576086551
0.999911752838875123
0.999939115014517821
0.999959841622637402
0.99998291418248586
0.999979015628551626
0.999956950806711209
0.999851747018667414
0.961593521280587726
0.998188583195136481
0.997220839221208077
0.997166294061429204
0.997499245080134322
0.998176007247110753
0.998971448882659985
0.999307063893066116
0.999440163271080317
0.999574931191529625
0.999705326132962369
0.999831253524765096
0.999901572714045561
0.999888778801354405
0.999815444547138332
0.999475174633667196
0.956775548372892914
0.98282179207883702
0.978510361160067399
0.981757069161650286
0.987760433137721439
0.99300540398694559
0.99638940826539979
0.998431845925877415
0.998453200837857602
0.998454645794953022
0.998894424590577423
0.999361636414966226
0.999516739373619068
0.999473689964601508
0.999297507872694002
0.998328249901372367
0.956361627674080728
0.539502028465013828
0.532488309163115403
0.568775251867974285
0.626478072448807932
0.708937323219786197
0.812902109658342864
0.915468838933200413
0.975798261606884543
0.994551682940451487
0.997216024611997209
0.998085434764603319
0.997917107307342843
0.997929854997746668
0.997613077216812139
0.995319757520709003
0.959252546185802135
0.0397688835901283261
0.0409107382344255088
0.0545751093308159407
0.0745458140266094388
0.114011682002727155
0.195060272493679854
0.350488539578035274
0.581435205469596705
0.815044948679024772
0.943805933282202192
0.984286003300937407
0.991136703699632582
0.993731583236370009
0.992674555908229506
0.987894268033217005
0.97420896379009192
0.00476712536999350338
0.00482354796404783903
0.00491493627136473533
0.00549074739933301526
0.00746851858512715024
0.0112504133738552791
0.0224729671957488268
0.137886781188315044
0.358616074627051806
0.64593584688216632
0.868012730774494923
0.968409471716017434
0.984360752795916838
0.979330846950424383
0.970924257811174085
0.964271837024872625
0.00380163323396549976
0.00403457917027949271
0.00416220605798381209
0.00417968016128419592
0.00549849054315041177
0.00803042056297585162
0.011975388476062972
0.015496932963139632
0.0923279818446907929
0.350282090954604219
0.607027439886526854
0.806549868530785696
0.908358625274595433
0.945603866644687319
0.934413291083891373
0.953743072635323319
0.00151162964271448668
0.00169128207704263996
0.00228420510496796323
0.00344891717791164648
0.00640089084755868926
0.00889640066805219565
0.00977409024524362145
0.0101458256733294415
0.00873687544225825591
0.00575670483968153575
0.0992639632362471713
0.263123065369138764
0.387139858897325495
0.511860746134216393
0.671595921753120217
0.918375966241895325
0.000916955725197559669
0.00107609333846956311
0.00150945692933738629
0.00224792800950022586
0.00488833337473192422
0.0074678029610293524
0.0114070143756986164
0.0121997479246307248
0.00696545124072686823
0.00273114433965213847
0.00126242013008641429
0.00298967354806590037
0.00996409177034021654
0.0905416071014497892
0.259122076949844016
0.775574082527179409
0.000758527871276141671
0.000822028880613323186
0.000928473242464020838
0.00170640203375032381
0.00258805605437926328
0.00452752280710306924
0.00933110706035790612
0.0117141528098519618
0.010434016621622081
0.00157938494154645764
0.000244148229717875657
0.000200329780174825472
0.00205457494533382596
0.00776031213058366726
0.0656571224717456964
0.239160308522360504
0.999999977562995968
0.99999997744853153
0.999999968998604216
0.999999961939718629
0.999999966464069301
0.999999978381919785
0.999999986125904572
0.999999991457226178
0.999999992038735686
0.999999992042817532
0.999999992043892783
0.999999963324819219
0.999999940779278562
0.999999961011503125
0.999999950499168344
0.970211340042156145
0.99999997744853153
0.999999974931138902
0.999999960940969435
0.999999956057948669
0.999999963580065709
0.999999976809036961
0.999999984559029276
0.999999990260263094
0.999999991967294721
0.99999999203872536
0.999999992042817532
0.999999991748736883
0.99999946425802988
0.999999750663274733
0.999999789558341678
0.970905173608338945
0.9999999687995903
0.999999876520921482
0.999999826377523826
0.999999845970199974
0.999999899574822271
0.999999942518039697
0.99999996251890555
0.999999980122244114
0.999999991625403872
0.999999991862257964
0.999999991774180197
0.9999999910276689
0.999999532083393983
0.999999759874689809
0.999999607612120922
0.97774462844477994
0.999999684874509187
0.999998350235676403
0.999997997115128934
0.999998373364655802
0.999999044391110981
0.999999431593816657
0.999999631278040146
0.99999973981857404
0.999999844180684883
0.999999889484429638
0.999999929289032696
0.999999980135193645
0.999999822584751286
0.999999600140014211
0.999998543904517145
0.970780425529014113
0.999995154415516785
0.999983690416198057
0.999981833513357232
0.999985488485621854
0.999991393787529548
0.999994655335004312
0.999996355901224487
0.999997336312303031
0.999998147623690326
0.99999862333734657
0.999999670181218603
0.999999684998368776
0.999998702567822639
0.999998308425197546
0.999992037256484556
0.965058945064810159
0.999947350984650485
0.999879570770691561
0.999874027321646208
0.999900692614044906
0.999939074660120886
0.999962247711164487