/*--------------------------------*- C++ -*----------------------------------*\
| =========                 |                                                 |
| \\      /  F ield         | OpenFOAM: The Open Source CFD Toolbox           |
|  \\    /   O peration     | Version:  2206                                  |
|   \\  /    A nd           | Website:  www.openfoam.com                      |
|    \\/     M anipulation  |                                                 |
\*---------------------------------------------------------------------------*/
FoamFile
{
    version     2.0;
    format      ascii;
    arch        "LSB;label=32;scalar=64";
    class       surfaceScalarField;
    location    "0.720000000000000417";
    object      alphaPhi0.water;
}
// * * * * * * * * * * * * * * * * * * * * * * * * * * * * * * * * * * * * * //

dimensions      [0 3 -1 0 0 0 0];

oriented        oriented;

internalField   nonuniform List<scalar> 
84128
(
2.66991987828916937e-06
-3.17328933745837308e-06
-1.11479821777207851e-05
1.16513516207483165e-05
1.14313135380673534e-05
-9.56419535687580617e-06
-1.26141466584212571e-05
1.34169482965787032e-05
2.23046768198319862e-05
-1.16899048306382745e-05
-1.34983167691184145e-05
1.43148570915836127e-05
3.31853354000406146e-05
-1.16177488368308507e-05
-1.49465326507473232e-05
1.56836218412451449e-05
4.19996485962417939e-05
-9.44244346637137262e-06
-1.70650052512460764e-05
1.769313586937723e-05
4.81313182244153285e-05
-6.68154782092859093e-06
-2.00519376276995099e-05
2.06018163843917747e-05
5.20992039766120669e-05
-4.47352521982728832e-06
-2.41293450887949443e-05
2.46349844842516057e-05
5.44534566944669679e-05
-2.97910277056222583e-06
-2.96074914127462052e-05
3.02323414085999497e-05
5.58725534605617331e-05
-2.18573730297736431e-06
-3.65206690921414902e-05
3.72873095298096447e-05
5.6931215900436893e-05
-2.38528486642845023e-06
-4.52808621184588026e-05
4.6607484493873131e-05
5.86691914344935795e-05
-3.4260337384691403e-06
-5.57230500986375611e-05
5.74111082935454192e-05
6.1070920621029615e-05
-5.80051571293615947e-06
-6.89473671330115891e-05
7.23461536299583658e-05
6.71107779544133452e-05
-8.98721792352026036e-06
-8.44118948329085247e-05
8.73592553741672084e-05
6.77394746064978025e-05
-1.31076615028682479e-05
-0.000106365001514409314
0.000118843966459352665
7.39535549679695708e-05
-2.15905107036763886e-05
-0.000128644737778483024
0.00014402116863299557
-4.99666040128587763e-06
-0.000180027255318413278
0.000258557528289675323
4.1704512104869338e-06
-7.96621832045357474e-06
-1.11498836724522451e-05
1.17723613862284038e-05
1.33921876135985356e-05
-1.97345081324229904e-05
-1.22331687385106143e-05
1.31817441570060541e-05
2.31382858303765194e-05
-2.24245618449781084e-05
-1.31791980221809929e-05
1.41677549922786615e-05
3.16307711032108184e-05
-2.09868150437819825e-05
-1.45653794877971979e-05
1.54419586565651654e-05
3.88599697502551564e-05
-1.73846366515669027e-05
-1.666063387319679e-05
1.7373627978770487e-05
4.46506999131003379e-05
-1.30395310881439367e-05
-1.96788104569240217e-05
2.02460632276478173e-05
4.88277505079062681e-05
-9.15013559472301802e-06
-2.38368154570978567e-05
2.43363750604982555e-05
5.15737375786214997e-05
-6.28110551529670175e-06
-2.93291297884682383e-05
2.98851454123511489e-05
5.33829455822415201e-05
-4.77464812638707656e-06
-3.62975735548123562e-05
3.70772762923240594e-05
5.48618335813807491e-05
-5.09769067320826069e-06
-4.49176244658396783e-05
4.61511421769757987e-05
5.69444619898682656e-05
-7.42138817143099088e-06
-5.53388217042773316e-05
5.72515477023386601e-05
5.99814451505052774e-05
-1.20461606297720631e-05
-6.81356796098419649e-05
7.13443413171248862e-05
6.53248718452750923e-05
-1.88070047473864826e-05
-8.34975004383745544e-05
8.79738605215339594e-05
6.75924111753132927e-05
-2.65235982777347706e-05
-0.000104757131795611398
0.000115905529612780872
7.20672465369325108e-05
-4.66359683890897931e-05
-0.000126248817328185656
0.000146819440716707071
-1.22783264223599926e-05
-0.00018564897074488699
0.000264618934536628631
5.98269658011384821e-06
-1.47767248303473496e-05
-1.09271800853498769e-05
1.17549876753573424e-05
1.51181334589568848e-05
-2.99797722573802315e-05
-1.22630168016519049e-05
1.33728279734008768e-05
2.43443301134246933e-05
-3.27518975622246298e-05
-1.32677752308705495e-05
1.43688928707987372e-05
3.25642253776122658e-05
-3.01516783920344794e-05
-1.46447338193362193e-05
1.55896826345406733e-05
3.95481566918299432e-05
-2.51120020514756033e-05
-1.67191983653690834e-05
1.74626183311851529e-05
4.51299039186873923e-05
-1.91862255095477037e-05
-1.97414802412492331e-05
2.03064182288384683e-05
4.91426871741735459e-05
-1.36289913905220499e-05
-2.3935802787736156e-05
2.44018721200535754e-05
5.16951977817582686e-05
-9.33696426426707001e-06
-2.94926674731404675e-05
2.99960143290232742e-05
5.32410407611483093e-05
-7.0473776387679557e-06
-3.65443097260540975e-05
3.72711951854906909e-05
5.44173139073673688e-05
-7.48210519148933919e-06
-4.52410239552059382e-05
4.64491639107430805e-05
5.61378162292664284e-05
-1.10777677766624298e-05
-5.57255629867795565e-05
5.76614400694550408e-05
5.88422101311118821e-05
-1.80413493590901281e-05
-6.85257429261417199e-05
7.18165377054789294e-05
6.37244362178579932e-05
-2.83963137572401975e-05
-8.38649298686550658e-05
8.85720128705469592e-05
6.61874140633486938e-05
-3.99742463775612432e-05
-0.000104861963388812882
0.000115849634919192872
6.78483035850357773e-05
-6.80623455342519948e-05
-0.000126715334573311014
0.000146480852285317455
-2.26628980544759015e-05
-0.000186135562395374498
0.000263828777272919987
7.64988746794504628e-06
-2.34057272315717324e-05
-1.06665549150638397e-05
1.16456168643463578e-05
1.67762171443897731e-05
-4.01357461954883823e-05
-1.22444182950532513e-05
1.32738761568712687e-05
2.56161798022613027e-05
-4.25050649751087018e-05
-1.33015682318252035e-05
1.42145476514750654e-05
3.35143613537768346e-05
-3.87740612448634678e-05
-1.46711047163110438e-05
1.53950956425023315e-05
4.02524155176998581e-05
-3.23726050148117359e-05
-1.67343991297664546e-05
1.72567831736412128e-05
4.56320346683266264e-05
-2.49175731537138197e-05
-1.977976850018072e-05
2.01314099688878792e-05
4.94297440894677932e-05
-1.76876423267359779e-05
-2.40489790183236796e-05
2.43098899281398611e-05
5.16730804154538011e-05
-1.18960205953117526e-05
-2.97282889404197444e-05
3.0043994815165219e-05
5.27850414113253681e-05
-8.74617035747782669e-06
-3.69311074767215627e-05
3.7517928756773691e-05
5.3446310905290807e-05
-9.28827202181544594e-06
-4.57730169696549737e-05
4.6917903368990952e-05
5.460256860877064e-05
-1.42318313222502624e-05
-5.63680098449123674e-05
5.83657969454433952e-05
5.67936032055935914e-05
-2.36970505654321111e-05
-6.9196556148311912e-05
7.26612143006687643e-05
6.10241251226142863e-05
-3.76687491973163468e-05
-8.44873848797613548e-05
8.95292985992404157e-05
6.35535966618485564e-05
-5.36061872313493834e-05
-0.00010522630717687279
0.000116328784937093881
6.41481222305096457e-05
-8.82614173722513713e-05
-0.0001266254443484205
0.000146230154902563501
-3.3962821719757909e-05
-0.000184516673669056188
0.000260737955439975327
9.32553412237214966e-06
-3.35227385510266865e-05
-1.0323746742376841e-05
1.1114626623376457e-05
1.86367082828041341e-05
-4.99357203889893084e-05
-1.19884217498713693e-05
1.2475921139477303e-05
2.72022246115232841e-05
-5.13561279071178003e-05
-1.31061496210556129e-05
1.33901985443328983e-05
3.483289571069307e-05
-4.65274983359779894e-05
-1.45369724557826996e-05
1.46582968782156256e-05
4.13950522818398538e-05
-3.89169466196802029e-05
-1.66625509793309981e-05
1.66435329413735169e-05
4.66171184620390786e-05
-3.00182675366086671e-05
-1.97926404965291283e-05
1.96706750601961442e-05
5.01717860893912711e-05
-2.10988686521186735e-05
-2.41906964585247055e-05
2.40470607333016906e-05
5.19931221909396057e-05
-1.37072625921619424e-05
-3.00446820599690293e-05
3.00345020988783951e-05
5.24879668396511126e-05
-9.61069231920044519e-06
-3.74455433970320541e-05
3.78151618901616525e-05
5.23934399875388595e-05
-1.02718830498287672e-05
-4.64750187138976374e-05
4.75530890672847537e-05
5.27449414982250668e-05
-1.67134878283474678e-05
-5.71990272476098139e-05
5.93290814383948468e-05
5.41778475106281779e-05
-2.88848667831204647e-05
-7.00610121240220339e-05
7.38157536930219172e-05
5.761264954022551e-05
-4.66051583880626737e-05
-8.52652094938929813e-05
9.07668307104502348e-05
5.99029977273330877e-05
-6.72500022336688789e-05
-0.000105672470122121517
0.000117026048928352581
5.97527681891411703e-05
-0.000107783909800872736
-0.000126388184800410824
0.000146061844613752157
-4.62320359720643374e-05
-0.000182789790200060212
0.000254746058347718614
1.12515448767117257e-05
-4.48689649192582219e-05
-9.83717462211724807e-06
9.92790047350396912e-06
2.08670869997406452e-05
-5.91465294763698722e-05
-1.14081522277216999e-05
1.09974596524704471e-05
2.91222014591664233e-05
-5.9079189038278149e-05
-1.26172231160184362e-05
1.20784869346476853e-05
3.64742671987501626e-05
-5.32910684707789888e-05
-1.41811250092579893e-05
1.35858190426085608e-05
4.29206748021775038e-05
-4.47266617793761905e-05
-1.6436653723904209e-05
1.57937246841781338e-05
4.80612004298868186e-05
-3.45131822378315145e-05
-1.97105620345320662e-05
1.9061329611532488e-05
5.13846546541522664e-05
-2.38600750584698208e-05
-2.42941389511946986e-05
2.37310287616172337e-05
5.2693592158797398e-05
-1.47056878698288552e-05
-3.03808411041555192e-05
3.0070059649753844e-05
5.23880610481589128e-05
-9.51118346857739467e-06
-3.80350217853291398e-05
3.82408595095533874e-05
5.13040482671008963e-05
-1.02963028457061892e-05
-4.72938083654832713e-05
4.84019860533680936e-05
5.05989504887315776e-05
-1.83754274459807437e-05
-5.81783337163632703e-05
6.05448695462958633e-05
5.10361795041484539e-05
-3.34811311538460709e-05
-7.1071866774590739e-05
7.52299439037958984e-05
5.34627133667215604e-05
-5.50904923623151603e-05
-8.6162280241349013e-05
9.22207920444587819e-05
5.52275751792020151e-05
-8.07071455990197368e-05
-0.00010613802631770525
0.000117831130778316891
5.40016484179871368e-05
-0.000126484373623924311
-0.000126075088278636776
0.000146007244908051385
-6.0550578026362114e-05
-0.000178906824174201486
0.000247747708511511326
1.34150810381828945e-05
-5.71615442522513026e-05
-9.13878855144557929e-06
8.00283276003069149e-06
2.31800681902305194e-05
-6.78048880596087501e-05
-1.07395648020060237e-05
9.61801432710910468e-06
3.09713182662407939e-05
-6.59073265184236315e-05
-1.20719624584673045e-05
1.10914906242498445e-05
3.80773281030280313e-05
-5.94839397961373072e-05
-1.37225525801940858e-05
1.27876754020040402e-05
4.45750192498909329e-05
-5.03265842177218805e-05
-1.60651206101691802e-05
1.5143915606578593e-05
4.98192142374198697e-05
-3.89488957509444679e-05
-1.94749329105641992e-05
1.8643124765260861e-05
5.30008693499623191e-05
-2.64085161816545742e-05
-2.42547594114983244e-05
2.36175598314026485e-05
5.37311226325423767e-05
-1.51402193830421916e-05
-3.06075379426168164e-05
3.03124258301309602e-05
5.2442331493020056e-05
-8.52221938156880318e-06
-3.85687897589457888e-05
3.88688126769975501e-05
5.01383135195179508e-05
-9.29894162990761205e-06
-4.81197031904200277e-05
4.94258768647312923e-05
4.81576731987257752e-05
-1.90849990917787727e-05
-5.9218705054031896e-05
6.19071726510010418e-05
4.74163307601178571e-05
-3.73399391130271055e-05
-7.21502921094259138e-05
7.67464277125098459e-05
4.86197390436537858e-05
-6.29074841716804764e-05
-8.71169103621429939e-05
9.37273153177525591e-05
4.95746914950442592e-05
-9.37294358029903577e-05
-0.000106628161577297965
0.000118700092485500458
4.71550517583601897e-05
-0.00014426443063520958
-0.000125735328384798061
0.000145963489945395789
-7.78036923558300572e-05
-0.000175613846015067464
0.000240748993828352072
1.53833903187533399e-05
-7.02895475242562708e-05
-8.43839187574880998e-06
6.14220729654069631e-06
2.47512132184736292e-05
-7.61858778098145725e-05
-1.0416261275667666e-05
9.39718903231765983e-06
3.20737010610875353e-05
-7.25893611896708836e-05
-1.16864022149523228e-05
1.10222881547724775e-05
3.9201571318801031e-05
-6.59690894541107361e-05
-1.3198211713637857e-05
1.25080174441986645e-05
4.61212611527357901e-05
-5.66282287532964977e-05
-1.55071367837063495e-05
1.48225342565018837e-05
5.18216451724184168e-05
-4.43055441788561957e-05
-1.9044537403375492e-05
1.86013761988098259e-05
5.50540885156940472e-05
-2.96358880326748981e-05
-2.39699814472287584e-05
2.39122526777374886e-05
5.51510636729775903e-05
-1.5526861079295459e-05
-3.05511250561960431e-05
3.08407112967688362e-05
5.26652200913433146e-05
-6.81496280588094861e-06
-3.88518324877631642e-05
3.96359114044106574e-05
4.88500692945463192e-05
-7.15619625984120226e-06
-4.87943035959913311e-05
5.04680889988436869e-05
4.53896617983081191e-05
-1.86234921799982014e-05
-6.02119020651175729e-05
6.32062932532856728e-05
4.33289995815025741e-05
-4.0222798776709858e-05
-7.32594998791695902e-05
7.8186022730823842e-05
4.31547550776139059e-05
-6.98110959330667472e-05
-8.81659610506663151e-05
9.52289207215672155e-05
4.31049145117151205e-05
-0.000106106408257290594
-0.00010724229562524843
0.000119690398932937087
3.98332580353201647e-05
-0.000161299030574072599
-0.000125456838691615587
0.000145880690694877058
-9.95921135972628401e-05
-0.000171710454942699853
0.000234056443230119988
1.58790219886277442e-05
-8.08091835462696189e-05
-8.19108469529580369e-06
6.34248550566890201e-06
2.38710676070049644e-05
-8.021546010490344e-05
-1.01833907801697054e-05
1.00711694400245016e-05
3.1101494462804915e-05
-7.72849830295632147e-05
-1.06730055159291146e-05
1.07736950003439e-05
3.88918759669488901e-05
-7.23257098772949771e-05
-1.17707495620209291e-05
1.14113007710170294e-05
4.66872032156112041e-05
-6.40832760525374536e-05
-1.40291173110897811e-05
1.35348845386293212e-05
5.35709116821139544e-05
-5.14088533327331694e-05
-1.77499713328401178e-05
1.77013044306349728e-05
5.74559154497513618e-05
-3.46172141382675199e-05
-2.28449276203056385e-05
2.36936859312602997e-05
5.69239450062603345e-05
-1.64298512193293588e-05
-2.97291373669403183e-05
3.1063790449881775e-05
5.30697891329361642e-05
-4.52497374642995661e-06
-3.85011814894060261e-05
4.00835808835243486e-05
4.7474279178888381e-05
-3.76405646029158529e-06
-4.90343231852660569e-05
5.12571933760686037e-05
4.23280444559999693e-05
-1.67353862120858733e-05
-6.09843082178644635e-05
6.42215618960254839e-05
3.88502667622535721e-05
-4.1926109053634861e-05
-7.43508457500036862e-05
7.9461297436597396e-05
3.72131986914203699e-05
-7.56467512382764072e-05
-8.93851972853993467e-05
9.67811586483195322e-05
3.60998244242357149e-05
-0.00011770153091068788
-0.000108076664767466782
0.000120871815978423585
3.27857287408769881e-05
-0.000178184022812201875
-0.000125271986365825593
0.000145855613496305371
-0.000126970509129882444
-0.000168431535617025722
0.000227396457828736608
8.12814469756076459e-06
-2.83465270095899216e-05
-5.07602298422510125e-06
4.85707267311924013e-06
1.15592665372835456e-05
-2.72495929693291894e-05
-5.03327787027116164e-06
6.27544530465151244e-06
1.73507876602477568e-05
-2.91523650690357905e-05
-4.70795561477232104e-06
4.98079123794147045e-06
2.54817892220923374e-05
-3.16597713195032794e-05
-5.36324035630435929e-06
4.73330558903445466e-06
3.54176203511181884e-05
-3.34119455160358233e-05
-7.51769903707634799e-06
6.38445708284413057e-06
4.59178091007477189e-05
-3.2874419345266286e-05
-1.08484251293629284e-05
9.87958298460973786e-06
5.40819307831280012e-05
-2.67554720863281732e-05
-1.66531275874605666e-05
1.60220538002472841e-05
5.63104027807414392e-05
-1.39524696631962427e-05
-2.53615195897662252e-05
2.61058756314328419e-05
5.23731763435601239e-05
-1.15228610979347915e-06
-3.6139562078360893e-05
3.7988808605993879e-05
4.53169926644829592e-05
1.03864200453826615e-06
-4.8159394269538239e-05
5.05647297395189942e-05
3.84616166678890178e-05
-1.32407870635926382e-05
-6.12422612684270531e-05
6.44949650824156579e-05
3.35462987906413651e-05
-4.24552620115665086e-05
-7.52744855254230732e-05
8.0468757404565582e-05
3.03930476089370447e-05
-8.05510915206730338e-05
-9.08395287462401802e-05
9.85787229232136866e-05
2.80334627425951786e-05
-0.000128393913822573685
-0.000109260262271573973
0.000122587126713416924
2.5438803577574412e-05
-0.000195577091650339337
-0.000125321317170538221
0.000146424705992790764
-0.00015478179343754686
-0.000165027006105561766
0.000218397681957047612
1.28871590420151462e-07
-1.35084769535134075e-06
-2.3967228218517892e-07
3.6236188208774967e-07
9.18040125342392539e-08
-1.26501335818781529e-06
4.74969234425352257e-07
-9.34403442607043203e-07
3.1790761136213669e-07
-1.44499808841012931e-06
1.40903759094431634e-06
-2.51956530530820121e-06
1.31149041535268347e-06
-1.47708799787929896e-06
2.35511406023920749e-06
-4.41752697709696789e-06
3.8600140994241635e-06
-1.78179611733663866e-06
2.73311258085368643e-06
-5.74975527160933226e-06
8.94017604005842821e-06
-2.6619422971233948e-06
1.41138614827355256e-06
-4.91736768582364818e-06
1.74998275479043955e-05
-4.41910076667228432e-06
-2.49079956999410282e-06
-7.37233210429414671e-07
2.89729525195326902e-05
-4.60479084309722866e-06
-1.03034645517221053e-05
7.76367865435394601e-06
3.69954116555544054e-05
6.16738684741378921e-07
-2.3581567084729974e-05
2.14612337082525762e-05
3.58696860901674855e-05
4.18555841763886743e-06
-4.21639355003186183e-05
4.17066877087842304e-05
2.98743249316418201e-05
-8.079705429339883e-06
-5.94841924084151978e-05
6.22574914347836519e-05
2.34077002247842105e-05
-4.0833920327097348e-05
-7.60580658179597615e-05
8.10269540194528124e-05
1.88695717220167156e-05
-8.56579957797567847e-05
-9.35142981597615689e-05
0.00010215410009848107
1.56458654903223379e-05
-0.000139192000408010653
-0.000111478864360724277
0.000126539049299226975
1.52441645708155154e-05
-0.000214836234742713292
-0.000125884114219754521
0.000148482665245256687
-0.000182020496865382871
-0.000158468733831166638
0.000204112702495374507
-1.39773988025355191e-07
-5.56733092563308438e-07
1.77310778788447603e-07
-3.66204038105505068e-07
-3.21999460929296362e-07
-3.30554050578316436e-07
3.78687521910764148e-07
-7.00350238077619251e-07
-5.83801925107062339e-07
-2.21459511563942994e-07
7.59901349071994563e-07
-1.44881981039356737e-06
-9.49449337514090447e-07
-4.65738069402826473e-08
1.16886131885671391e-06
-2.18149979052333557e-06
-1.59841629174169374e-06
1.81504368654557819e-08
1.31362452610604984e-06
-2.48381990787751612e-06
-3.15119948553619741e-06
1.34036372097104608e-08
9.77560018198422536e-07
-2.05251691843371306e-06
-5.8121928383634903e-06
-2.65519307568184975e-07
-7.81243456768490324e-08
-6.81506237191983962e-07
-8.30972398005905047e-06
-3.43081307888766855e-06
-2.68503794364924717e-06
1.73411157900369118e-06
-1.07509913178268717e-05
-8.4667196936522619e-06
-1.03394165331446904e-05
7.99133342827672711e-06
-8.46026302198160586e-06
-1.31034751884321547e-05
-2.50223874984671773e-05
2.06011770499501044e-05
-3.28766639535034008e-06
-2.05378282248917554e-05
-4.95446394642699731e-05
4.56524321054141221e-05
-5.7097913507734005e-06
-4.43110817246001061e-05
-7.74737455197803447e-05
7.90138704693055472e-05
-7.65932384467010574e-06
-9.73580403975251945e-05
-0.000100226229174345841
0.000111916587308903025
-6.27953585426163621e-06
-0.000156559409555676932
-0.000114533511256978535
0.00013392029029569031
-5.03231451194792547e-07
-0.000238511590095093483
-0.000125108272823734628
0.000149934398787096395
-0.000213267455463940817
-0.000146446646859188799
0.000180965868906535644
-1.22405636638253772e-07
-3.73993523091387686e-09
1.29260946744160317e-07
-2.39993635881800921e-07
-2.4336740400385913e-07
2.38534463651423628e-08
2.62059308765070634e-07
-3.88725059321964142e-07
-3.42323214298438317e-07
6.0737061657422484e-08
3.67811684494863253e-07
-4.70646364002423191e-07
-4.64760686280531159e-07
1.3780377188915404e-07
5.77779728908397251e-07
-8.18004060614009051e-07
-4.49495935992545286e-07
3.03575438705855575e-07
9.858652462575754e-07
-1.37074847413328078e-06
-7.52873486194611309e-07
6.62332281032617219e-07
1.32359902690471651e-06
-1.81554460173597902e-06
-2.56767467489190391e-06
3.42583303604115444e-07
2.34899196332284157e-07
-7.32383928580463955e-07
-6.4094867682613974e-06
-1.59291453858399114e-06
-1.64948613775786457e-06
2.05897098475697417e-06
-1.81935092478880333e-05
-6.18461993487998649e-06
-5.47313779974353797e-06
5.37978704198318295e-06
-4.60985759405478963e-05
-1.85497549986515033e-05
-2.1388268809890416e-05
1.87371012876174132e-05
-6.46458536249939347e-05
-3.37151847578998412e-05
-4.79877912451131308e-05
4.82295144428059291e-05
-6.2221217373478727e-05
-5.1517941870794914e-05
-7.65319983923479105e-05
8.16792461782904012e-05
-5.05922795067912398e-05
-8.69736856950191928e-05
-0.000101249303054229666
0.000108913739057656903
-3.41093487476014912e-05
-0.000138017552238764337
-0.000112336278227793902
0.000130584947926914177
-2.09640015201060807e-05
-0.000248297070841051583
-0.000119894360979161941
0.000137777128583221821
-0.000248700103282509201
-0.000125500222898459552
0.000149142557247557942
-1.02047762080266879e-07
6.43526144227003276e-10
1.19518413368038795e-07
-1.93522277902110526e-07
-2.03400299289704281e-07
2.73536889444562427e-08
2.20943285907172416e-07
-3.08327316706725712e-07
-3.38175162029884276e-07
8.68686587376966229e-08
3.1729806065605573e-07
-4.90422465198534426e-07
-4.28556173752038528e-07
1.55207457013015043e-07
5.17487958472017224e-07
-8.19550874874493276e-07
-7.4383265550086197e-07
2.61456565410708217e-07
9.83073611426948913e-07
-8.97056188571421929e-07
-1.59131867706230754e-06
4.20142623849720835e-07
1.21791505344886001e-06
-9.61737070890938523e-07
-2.10608193052917826e-06
1.43707293318507663e-07
4.02033094893996697e-07
-7.83472407757246883e-07
-3.50455326344978662e-06
-1.52915417343584779e-06
-4.34719036008218405e-07
6.74448090272309883e-07
-7.5535575168328185e-06
-4.309743025149011e-06
-1.03616476538924119e-06
1.95142495835471387e-06
-1.75848314395922979e-05
-2.95226338890257062e-06
-2.83630136856419906e-06
5.41023374176951566e-06
-2.86077252672637593e-05
-2.01145972806086499e-06
-9.83277591928784605e-06
1.29482388545606372e-05
-3.18385634080310334e-05
-3.72610737355193954e-06
-2.05110916761736247e-05
1.97233399043084051e-05
-2.8752888979717461e-05
-1.04085133148953581e-05
-3.14863738221453609e-05
2.52616605525183172e-05
-2.63246058022339293e-05
-3.0917028727648897e-05
-4.86430469655651598e-05
3.22411601404485348e-05
-3.25199763934243421e-05
-0.000110034089788201678
-7.93771433599477151e-05
5.75982046105635452e-05
-0.000243583965644606393
-9.88916108644556164e-05
9.96975662085917763e-05
-5.47192224457585461e-08
8.2401700994123735e-09
7.59344993277523386e-08
-1.00517746095824075e-07
-1.43198869266598735e-07
5.48703886820986841e-08
1.42459706487511095e-07
-2.33550636135662863e-07
-2.74079683162143009e-07
6.00833862229172276e-08
2.71322825782028252e-07
-4.62861693594132789e-07
-4.22708750050190378e-07
5.18732423425153036e-08
5.41458983223383336e-07
-6.66868580113064789e-07
-7.11557181553660431e-07
1.39807370674145656e-07
8.16891821851326497e-07
-8.67951677468529427e-07
-9.23859466894714534e-07
1.32266027291185568e-07
7.71310351188829471e-07
-1.20698578806184945e-06
-1.74090473206538156e-06
3.06304992807837808e-07
1.61908228960061847e-07
-4.58218018641309655e-07
-3.21318763323963486e-06
-2.41143208926435744e-06
-5.75739023514795333e-07
7.30112748978767621e-07
-2.32473886179534127e-06
-4.71433766774871811e-06
-9.2224645448927502e-07
1.57103260027306263e-06
-7.43584700152781815e-07
-1.21172418815937883e-06
-1.11612970390877044e-07
3.13473053651758684e-07
-1.60958452033223891e-06
-1.81762737474266542e-07
1.48334170786681179e-07
-4.36302306640497155e-07
-4.15135091762241962e-06
-2.69010179759465264e-07
-1.69877748147941762e-07
-4.4633143853071858e-07
-9.02875994754264439e-06
-1.54623052064133722e-06
-3.35715229909516425e-06
3.13458070365481789e-07
-1.82246038061442476e-05
-7.33445776315790645e-06
-1.60096118439493883e-05
4.71076975123585117e-06
-2.27052841449214865e-05
-2.92557365419221864e-05
-2.04531517087085793e-05
1.66150665687847924e-05
-0.000109601114367226745
-5.69380705650560391e-05
3.21858402714153183e-05
-2.41691823597814676e-08
4.26737956259760618e-08
-5.9506790193048302e-08
2.14800517204753367e-08
-7.11159163258572799e-08
9.65068144170156997e-08
-1.67627837068702884e-07
4.0388545164683106e-08
-1.27139957419308694e-07
1.8446150643487215e-07
-2.80328718827354973e-07
1.11296046068149731e-08
-2.28607628627920273e-07
3.68226009173302131e-07
-3.8808017337030381e-07
1.30366465479471216e-08
-4.79700751215808866e-07
7.39542867000217304e-07
-6.24878828346047057e-07
1.53692136008573311e-07
-5.9288678967757131e-07
4.97971689373546973e-07
-5.34415411061477989e-07
2.61014300578701182e-07
-1.44634256705190741e-06
-8.66038176248429243e-09
6.07926449079871317e-08
3.30609872892460892e-07
-2.36585736795550665e-06
-6.20017908404245677e-07
6.22694027152534986e-07
-2.92560633332776828e-06
-2.2840049447679097e-06
-1.14236840879452921e-06
1.11338293959255233e-06
-4.10299602130789076e-06
-5.46903604642053784e-07
-1.89795802981511429e-07
3.64093542866986831e-07
-7.45403948253272717e-07
-3.28247270504575715e-07
1.23113403653416123e-07
-2.98271840330935496e-07
9.9371634430650533e-09
-4.67710004565622938e-07
1.98250180475662002e-07
-3.65425482164191229e-07
2.40099689203244394e-08
-1.59152018594889012e-06
1.49362848270238917e-07
-3.95290027932637624e-07
-1.77415166844701539e-07
-4.77376228549996397e-06
-9.74012400031995818e-07
-1.22912965986490664e-07
-2.80101572726970581e-06
-7.91696181572826521e-06
-5.22723628841644294e-06
2.37723577135957664e-06
-1.49053510316334252e-05
-1.26559654229662949e-05
9.91022083191399542e-06
-6.75458459101959936e-05
2.35918299244550834e-06
-3.28150478588830223e-06
-1.02256604381887207e-05
1.07868979585323005e-05
-9.45634121846675646e-06
-1.15855205417229072e-05
2.12315544717286837e-05
-1.14317985288503645e-05
-1.25111758626212687e-05
3.14975225425961073e-05
-1.12277809512080011e-05
-1.39847206390206627e-05
3.94760433671074239e-05
-8.97727916588078988e-06
-1.60662466580809824e-05
4.46073790532365409e-05
-6.26802913455845557e-06
-1.89152437794564917e-05
4.74457694158883126e-05
-4.22452215909624367e-06
-2.27432132900354432e-05
4.85694042336088549e-05
-2.9451849154197097e-06
-2.77859413963172901e-05
4.85880755904291556e-05
-2.41348305600417016e-06
-3.41258575032562844e-05
4.80901014951743818e-05
-2.79794231470309526e-06
-4.19849457180078556e-05
4.77782276694495252e-05
-4.05195456839172464e-06
-5.13592217056221505e-05
4.79976364593087803e-05
-6.46335466883283595e-06
-6.27034212635433757e-05
4.88662636745797586e-05
-9.25494311960410425e-06
-7.60255762237698759e-05
4.86988486266535684e-05
-1.36726703101865112e-05
-9.25249151189310424e-05
5.57099871052364962e-05
-2.31635972907953128e-05
-0.000112492277557914118
-8.37552891438042279e-07
-0.000123970626016111095
3.85985195787075007e-06
-8.17878841345063481e-06
-1.01124521377844631e-05
1.27256827394678893e-05
-1.94358817832738663e-05
-1.11194598885005145e-05
2.19994392516831532e-05
-2.17856873603171719e-05
-1.20990673856500559e-05
2.98901070629703803e-05
-2.01251816864955751e-05
-1.35586480200780187e-05
3.63727189081502377e-05
-1.64484720721858624e-05
-1.56720533076474622e-05
4.12568990486303691e-05
-1.2244022821262136e-05
-1.85869972083654042e-05
4.43834590348110287e-05
-8.70405994077450847e-06
-2.2483837793242724e-05
4.59602721239272334e-05
-6.31989527205657931e-06
-2.75312325835373273e-05
4.64614629276092721e-05
-5.36125031072996302e-06
-3.3850997184652488e-05
4.64697441667083494e-05
-6.16850872023977446e-06
-4.15553393372104486e-05
4.66885562753385612e-05
-8.86034537030337898e-06
-5.0749243020478339e-05
4.73902359510244576e-05
-1.36411906783397189e-05
-6.16595233109347744e-05
4.91560876568808604e-05
-2.00546885469036886e-05
-7.44636124297565476e-05
4.86360573585746362e-05
-2.7777785962948277e-05
-9.01319979986548895e-05
5.20346366196583062e-05
-4.58177089711886873e-05
-0.000106993273802372848
-3.5346929450325997e-06
-0.000131318942159427547
5.67728662143680421e-06
-1.50357285718679473e-05
-9.74752894845329374e-06
1.4427406150382026e-05
-2.947666328643954e-05
-1.09723698806986431e-05
2.3175222925587157e-05
-3.17480132381777201e-05
-1.2053285320008364e-05
3.07814561564784438e-05
-2.88006442242673316e-05
-1.35755215905755551e-05
3.6994430762868062e-05
-2.36504856202303505e-05
-1.57301716813379152e-05
4.16468455190609893e-05
-1.79554354913444021e-05
-1.86824900610418008e-05
4.45936311524760924e-05
-1.29675717992132651e-05
-2.26190794020297457e-05
4.59726212586764743e-05
-9.4816140221539866e-06
-2.77099400503733203e-05
4.62263258751979548e-05
-8.08427547281292527e-06
-3.40749903757936082e-05
4.59529399768707705e-05
-9.31632458821511153e-06
-4.18198230369027778e-05
4.58603307891752512e-05
-1.34487297891446741e-05
-5.104456942196634e-05
4.62745175916455667e-05
-2.06098773998447804e-05
-6.19712430536007038e-05
4.76992693742131127e-05
-3.05571824597737293e-05
-7.47871874414410043e-05
4.72709759739219659e-05
-4.17645975811161912e-05
-9.04469734880520318e-05
4.83951407900659527e-05
-6.59723350342576048e-05
-0.000107684833419228454
-9.28960987190709424e-06
-0.00013093944788916933
7.34218226244466944e-06
-2.3662064162829514e-05
-9.38245329605356842e-06
1.60737658824688072e-05
-3.95193039975060272e-05
-1.09335345661248406e-05
2.44388036275743835e-05
-4.12534114950224433e-05
-1.21614125937849204e-05
3.17071050962283778e-05
-3.70015302789786869e-05
-1.37387099893343171e-05
3.76361089556250298e-05
-3.04128489072290369e-05
-1.59011857963822897e-05
4.20424081135754879e-05
-2.3284858340545483e-05
-1.88567216167991831e-05
4.47408872671043741e-05
-1.68982014331600349e-05
-2.28168572820243538e-05
4.58008646815650394e-05
-1.23130859197131087e-05
-2.79568076838999536e-05
4.56428038093100005e-05
-1.0467851276439578e-05
-3.43894809801282832e-05
4.49010657375138102e-05
-1.21398821638143961e-05
-4.2207733465902188e-05
4.43162973652527225e-05
-1.7733277928613664e-05
-5.14987076784723756e-05
4.42917183004963805e-05
-2.73247658556857181e-05
-6.24570884486452468e-05
4.52364498148272911e-05
-4.07176921272416243e-05