/*--------------------------------*- C++ -*----------------------------------*\
| =========                 |                                                 |
| \\      /  F ield         | OpenFOAM: The Open Source CFD Toolbox           |
|  \\    /   O peration     | Version:  2206                                  |
|   \\  /    A nd           | Website:  www.openfoam.com                      |
|    \\/     M anipulation  |                                                 |
\*---------------------------------------------------------------------------*/
FoamFile
{
    version     2.0;
    format      ascii;
    arch        "LSB;label=32;scalar=64";
    class       surfaceScalarField;
    location    "0.720000000000000417";
    object      phi;
}
// * * * * * * * * * * * * * * * * * * * * * * * * * * * * * * * * * * * * * //

dimensions      [0 3 -1 0 0 0 0];

oriented        oriented;

internalField   nonuniform List<scalar> 
84128
(
2.66985159170940184e-06
-3.17323488804950557e-06
-1.11479010165623518e-05
1.16512843129058674e-05
1.14311402876024232e-05
-9.56412830035995872e-06
-1.26140781493843788e-05
1.34168917117120603e-05
2.23044103279747115e-05
-1.16898423173193598e-05
-1.34982618266613924e-05
1.43148140006094441e-05
3.31849923183004733e-05
-1.16176968487248766e-05
-1.49464867889924675e-05
1.56835876297602324e-05
4.19992397120536149e-05
-9.44239640545796868e-06
-1.70649578734657581e-05
1.76930983493096989e-05
4.81308485448077644e-05
-6.68149929998078919e-06
-2.00518759201470408e-05
2.06017610223971332e-05
5.20986721161799605e-05
-4.47346992182232846e-06
-2.41292553393062772e-05
2.46348975292629487e-05
5.44528556771879321e-05
-2.97903895618369778e-06
-2.96073585174725078e-05
3.02322104187874978e-05
5.58718716807894602e-05
-2.1856639069220549e-06
-3.65204745050268397e-05
3.72871207759393702e-05
5.69304315819719006e-05
-2.38519542345598247e-06
-4.52805817359476013e-05
4.66072191529464779e-05
5.86682676593725048e-05
-3.42591665175046742e-06
-5.57226472117263098e-05
5.74107332330989195e-05
6.10698054406895072e-05
-5.80036137609342864e-06
-6.89467828052037831e-05
7.23456123747994687e-05
6.71094214858780028e-05
-8.98702529842357721e-06
-8.4411023561373449e-05
8.73584351353891866e-05
6.77378466642589036e-05
-1.31074461116579347e-05
-0.000106363669107064715
0.000118842687543730877
7.39519348544385823e-05
-2.15902899422017462e-05
-0.000128642663508206405
0.000144018861736898651
-5.12014392942642509e-06
-0.000183203159892021607
0.000262275238956654233
4.170390977828115e-06
-7.96616970545355032e-06
-1.11498092852222658e-05
1.17722923524996513e-05
1.33920369044856318e-05
-1.97344198745646459e-05
-1.22331136906599879e-05
1.31816944827382693e-05
2.31380506043737063e-05
-2.24244656713636599e-05
-1.31791566920088303e-05
1.41677203591500567e-05
3.16304574940241506e-05
-2.09867204840637726e-05
-1.45653433855097854e-05
1.54419302386051569e-05
3.88595818418480056e-05
-1.7384540620875498e-05
-1.66605915343471295e-05
1.73735921548459616e-05
4.46502419248290952e-05
-1.30394292629766236e-05
-1.96787501686819446e-05
2.02460063393931512e-05
4.88272232090681096e-05
-9.15002114529136113e-06
-2.38367247419206518e-05
2.43362849982318476e-05
5.15731373230444718e-05
-6.28097322979488776e-06
-2.93289944320561786e-05
2.98850112359517435e-05
5.33822643320683033e-05
-4.77449439889350371e-06
-3.629737642204533e-05
3.70770862725864166e-05
5.48610529457977726e-05
-5.09750398355283008e-06
-4.49173430990068101e-05
4.61508782448927007e-05
5.69435466784487662e-05
-7.42114957693859661e-06
-5.53384220756262242e-05
5.72511775488518325e-05
5.99803470563567214e-05
-1.2045857474620958e-05
-6.81351056588514164e-05
7.13438082587186597e-05
6.53235506739889636e-05
-1.88066398238551143e-05
-8.34966583474845887e-05
8.7973064191477403e-05
6.75908805536474757e-05
-2.65231935394042871e-05
-0.000104755885754724039
0.000115904295539234693
7.20658330537510988e-05
-4.66356542913587532e-05
-0.000126246878870529572
0.000146817292280910128
-1.2550029306125772e-05
-0.000188835550285562198
0.000268331280722302517
5.98264582098820866e-06
-1.4776671220888555e-05
-1.09271142059836616e-05
1.17549224370680285e-05
1.51180208264518064e-05
-2.99796596312358047e-05
-1.22629845003168736e-05
1.33727983558404991e-05
2.43441532045560389e-05
-3.27517564934291366e-05
-1.32677577554072683e-05
1.43688806501528095e-05
3.2563966279415897e-05
-3.01515118689824925e-05
-1.46447145604574088e-05
1.55896702043295974e-05
3.95478113660101578e-05
-2.5111825963778005e-05
-1.67191650769564415e-05
1.74625910713100367e-05
4.51294785115568159e-05
-1.91860473666946753e-05
-1.97414240997448103e-05
2.03063651468700279e-05
4.91421843325561141e-05
-1.36288039127427213e-05
-2.39357144188160949e-05
2.44017846335004037e-05
5.16946165406868005e-05
-9.33675588880379804e-06
-2.94925348282327823e-05
2.99958838463618248e-05
5.3240378268087804e-05
-7.04714423977445399e-06
-3.65441173774031135e-05
3.72710123642797417e-05
5.44165561396997783e-05
-7.48182893652022225e-06
-4.52407502948861371e-05
4.64489117314612564e-05
5.61369302440003663e-05
-1.10774187003235519e-05
-5.57251765265365584e-05
5.76610863935398939e-05
5.88411515377561809e-05
-1.80409103577677292e-05
-6.85251908119374704e-05
7.18160288753725298e-05
6.37231713869570348e-05
-2.83957959740370366e-05
-8.38641243253332539e-05
8.85712568534110611e-05
6.61860064922083614e-05
-3.99737015284077848e-05
-0.000104860818691488079
0.000115848485184295253
6.7847602028320048e-05
-6.80626037868104796e-05
-0.000126713768883481546
0.000146479123169565535
-2.28416673852088241e-05
-0.000187362326453753108
0.000265501574622445781
7.64986861551755702e-06
-2.34056408209403186e-05
-1.06665272441903093e-05
1.16455862062414883e-05
1.67763178435042593e-05
-4.01356198718548152e-05
-1.22445228921340242e-05
1.3273989511945343e-05
2.56163217089993416e-05
-4.25047853225893866e-05
-1.33017036467166127e-05
1.42146980957265976e-05
3.35143464677137087e-05
-3.87735633404047772e-05
-1.46712002228626349e-05
1.5395208164785208e-05
4.02522158652869494e-05
-3.2372105264365815e-05
-1.67344319497613793e-05
1.72568309341030783e-05
4.56316942243218589e-05
-2.49171833903259952e-05
-1.97797457693233184e-05
2.01313966333447196e-05
4.94292964330875193e-05
-1.76873269648994999e-05
-2.40489094057805429e-05
2.43098266398064113e-05
5.16725398000123903e-05
-1.18957111891595659e-05
-2.97281712497451421e-05
3.00438847672628521e-05
5.27844161436190232e-05
-8.74584920934716182e-06
-3.69309316921643372e-05
3.75177696672224456e-05
5.34455945844828192e-05
-9.28790702673529608e-06
-4.57727656816714153e-05
4.69176813628898069e-05
5.46017277503564182e-05
-1.42313703123229064e-05
-5.63676475700467097e-05
5.83654817410804997e-05
5.67925983829930251e-05
-2.36964830273095715e-05
-6.91960361579946142e-05
7.26607451409952919e-05
6.10229405581122968e-05
-3.7668105595377046e-05
-8.44866414973008401e-05
8.95286054809421046e-05
6.35523775234810408e-05
-5.36056561763342148e-05
-0.000105225291089494885
0.000116327802066346241
6.41488366206630024e-05
-8.82639927282024498e-05
-0.0001266247554190117
0.00014622968384675174
-3.41250980655483874e-05
-0.000186276734336293491
0.000261709006694070751
9.32587620287956897e-06
-3.35224251829181044e-05
-1.03240968495452816e-05
1.11149673869116408e-05
1.86383953661980325e-05
-4.99356990137066542e-05
-1.19895035395777912e-05
1.24770248369857778e-05
2.720457652425183e-05
-5.13550728281333271e-05
-1.31073288857885067e-05
1.33914094226936741e-05
3.48345129968408675e-05
-4.65248897749086904e-05
-1.45378877830651051e-05
1.46592627200140733e-05
4.13958129816698173e-05
-3.89144530667157027e-05
-1.66631073160853627e-05
1.66441475158648479e-05
4.66173048768832584e-05
-3.00167647718583346e-05
-1.97929245316193488e-05
1.96710105872800339e-05
5.01716617746136151e-05
-2.10980858695295319e-05
-2.41908202458951522e-05
2.40472222702468843e-05
5.19928180532361941e-05
-1.37067197116981182e-05
-3.00447125549712166e-05
3.00345701140293507e-05
5.24875363615074145e-05
-9.61022604392062618e-06
-3.7445505004400417e-05
3.78151762422883106e-05
5.23928947851109642e-05
-1.02713905503852622e-05
-4.64749039326166271e-05
4.75530474962580221e-05
5.27442583470473227e-05
-1.67128596007098489e-05
-5.71988213936136045e-05
5.93289641962110306e-05
5.41769990195024631e-05
-2.88840697167480808e-05
-7.00606122183842003e-05
7.38154658936040884e-05
5.76117176577528126e-05
-4.66044751512683774e-05
-8.52646777011983978e-05
9.076632530590826e-05
5.99030825014530151e-05
-6.72504792395218001e-05
-0.000105672259792006552
0.000117025710349005676
5.97753234570197502e-05
-0.0001078081204630159
-0.000126393768636812951
0.000146065651558440602
-4.67627677258681117e-05
-0.000185004035254485589
0.000257417030054104569
1.12555806124026522e-05
-4.48685043982191401e-05
-9.84064729586824646e-06
9.93111310556418417e-06
2.08795750509114039e-05
-5.914864832871043e-05
-1.14149448290063363e-05
1.1003867069124256e-05
2.91375347286773044e-05
-5.9073994536966746e-05
-1.26242642635577509e-05
1.20852051361342098e-05
3.6486046095003495e-05
-5.32780323920279032e-05
-1.41868522001761489e-05
1.35914720698124016e-05
4.29276909261464733e-05
-4.47133046011251019e-05
-1.64405437979321419e-05
1.57977460809094023e-05
4.80648594049070809e-05
-3.45049447494202903e-05
-1.97129378964037908e-05
1.90639493347979577e-05
5.13866297702241821e-05
-2.38569177478550369e-05
-2.42956446559702346e-05
2.37327099255891429e-05
5.26947830961221349e-05
-1.47042673967148254e-05
-3.03819158558054225e-05
3.00713192750385435e-05
5.2388820858905412e-05
-9.51031285955218796e-06
-3.8035935806585974e-05
3.82420007224145775e-05
5.13044694274053899e-05
-1.02954736513242105e-05
-4.72946482329639819e-05
4.84031033084394573e-05
5.05990279845837474e-05
-1.83742887407902299e-05
-5.81790535312767012e-05
6.05459421947915984e-05
5.10360197945983985e-05
-3.34796451802878053e-05
-7.10722396969618503e-05
7.52308314277690631e-05
5.34629784560189297e-05
-5.50899509197093153e-05
-8.61628302751564539e-05
9.22213438197083912e-05
5.52328232543402911e-05
-8.07130591779979761e-05
-0.000106141617263436191
0.000117834343165197685
5.40800744108311317e-05
-0.000126586478488733374
-0.000126102815095404942
0.000146033915027325343
-6.18272355353660348e-05
-0.000182755227937738882
0.000251899768024723065
1.34485520376957129e-05
-5.71767377656825804e-05
-9.16178820529368113e-06
8.02144196779580297e-06
2.32555936475975344e-05
-6.78294255498316237e-05
-1.07749628701556783e-05
9.64867215226978956e-06
3.1055027975239936e-05
-6.58898309533054372e-05
-1.21076783371224155e-05
1.11240638241396402e-05
3.8146141131985876e-05
-5.94327168021442751e-05
-1.37529842929575729e-05
1.28165474400327541e-05
4.46194061824335681e-05
-5.02652476593399428e-05
-1.60875851840193212e-05
1.5166261511596942e-05
4.9843922307721763e-05
-3.88987805949893284e-05
-1.94893750908264435e-05
1.86586977008498734e-05
5.30149399953793902e-05
-2.63914466709673899e-05
-2.42643682322344012e-05
2.36278866010611519e-05
5.37403784624110656e-05
-1.51352224179140814e-05
-3.06146750423150234e-05
3.03202039712769086e-05
5.24493544075716481e-05
-8.52012850201543994e-06
-3.85751455046139889e-05
3.88760035527974657e-05
5.0143682646012984e-05
-9.29708904609850206e-06
-4.81259112460483154e-05
4.94332201215099944e-05
4.81615315025471152e-05
-1.90819800714513523e-05
-5.92248017043971647e-05
6.19146625337850808e-05
4.74190021782488748e-05
-3.73355432743721044e-05
-7.21549507299300589e-05
7.67533862239928801e-05
4.86252315930435261e-05
-6.29072726980661403e-05
-8.71226478462784918e-05
9.37337361770913385e-05
4.9597818662512963e-05
-9.37565128830750822e-05
-0.000106647453135904149
0.000118718308827353932
4.73751701194811509e-05
-0.000144589090395661423
-0.000125834627116187716
0.000146059877465019378
-8.02946085323585375e-05
-0.000179913727459791268
0.000245756264462056336
1.56020734589309656e-05
-7.04448534305593139e-05
-8.5618496854336932e-06
6.22787002817049103e-06
2.5142073214868993e-05
-7.63285346515262767e-05
-1.05847050516944131e-05
9.5437945348269539e-06
3.24868018779282553e-05
-7.25596703504409902e-05
-1.18527513620757076e-05
1.1177849824520286e-05
3.95669086527535715e-05
-6.58158753301166775e-05
-1.33454067978498986e-05
1.26484531763080232e-05
4.6385401104918794e-05
-5.63983474371907773e-05
-1.56249125150300314e-05
1.49395202099387046e-05
5.19697277352633503e-05
-4.40453187349179511e-05
-1.91277907712294847e-05
1.86900073751176698e-05
5.51291231987903555e-05
-2.94970641460852287e-05
-2.40221328212829347e-05
2.39683645022048898e-05
5.51992435204461495e-05
-1.54976839197882587e-05
-3.05878592264155323e-05
3.08802151240178315e-05
5.27000671006212158e-05
-6.80790233327692425e-06
-3.88835030585794937e-05
3.96704729725242419e-05
4.88770216544639273e-05
-7.15142478739161982e-06
-4.88259962901520971e-05
5.05033991281637478e-05
4.54096154878549829e-05
-1.86136770312314005e-05
-6.02437221470254183e-05
6.32428429860851135e-05
4.33437476122035573e-05
-4.02060160756391999e-05
-7.32846348023376607e-05
7.82209830243397108e-05
4.31797756131507124e-05
-6.98105927350309362e-05
-8.81967301314356381e-05
9.52640175618912194e-05
4.31765116444717459e-05
-0.000106201090684500309
-0.000107319469353104105
0.000119767298622897427
4.02394522953225384e-05
-0.000162099567329067291
-0.000125759050455768659
0.000146206573727477137
-0.000103060069561396146
-0.000176556183395156369
0.000239561087127413173
1.70215771688628182e-05
-8.54673774969782162e-05
-8.78990434531429697e-06
6.79083519721353271e-06
2.56225192203431828e-05
-8.47906334113179231e-05
-1.0948692026574741e-05
1.08098347686785125e-05
3.29766065323514406e-05
-8.00145186350067908e-05
-1.13859777504413413e-05
1.14867299873183634e-05
4.07471586803456591e-05
-7.32075461704871384e-05
-1.24139676126607127e-05
1.20350827834054773e-05
4.83967248324461481e-05
-6.35450067610332774e-05
-1.46075070351791141e-05
1.41046017208186039e-05
5.46833772776344652e-05
-5.0305667106454767e-05
-1.82722083860565834e-05
1.82459106500477087e-05
5.79004617490971334e-05
-3.36008898887096808e-05
-2.31840059613740474e-05
2.4070758291823452e-05
5.71288580095347784e-05
-1.60790242838307308e-05
-2.98970869662939128e-05
3.12500467169752393e-05
5.32165535986641028e-05
-4.48647160352530586e-06
-3.86320936577663488e-05
4.02229866790263874e-05
4.7583765397909293e-05
-3.74995106266677272e-06
-4.91645893125759032e-05
5.1395923939964574e-05
4.24082335806653734e-05
-1.66933103464815636e-05
-6.11182014796621845e-05
6.43733826830125049e-05
3.89100884953465676e-05
-4.18519425174263793e-05
-7.44666845902679665e-05
7.96107625914216832e-05
3.73013972615818465e-05
-7.56193863967574947e-05
-8.9521912351604976e-05
9.69393921216425442e-05
3.62651041209412179e-05
-0.000117979843841260596
-0.000108350212984469218
0.000121165245730035396
3.32914167113658636e-05
-0.000179910425042955995
-0.000126111976153964748
0.000146896506182024828
-0.000129451131830240292
-0.000173060380680586581
0.000232742847576307101
1.49515032917416393e-05
-9.99900609526928677e-05
-9.35775088785457899e-06
8.9289192563007591e-06
2.12332941559948145e-05
-9.33649753856770348e-05
-9.3659972948966855e-06
1.16585358485902793e-05
2.86123224395696494e-05
-8.7874745755860649e-05
-8.21807994717043524e-06
8.69926993846496676e-06
3.77904925314155707e-05
-8.1392485552856178e-05
-8.53355815414894858e-06
7.54032344112728391e-06
4.72077985296808525e-05
-7.13603215978155653e-05
-1.07802516864290106e-05
9.1782621726571132e-06
5.53016623144383715e-05
-5.72456447131127963e-05
-1.39804826661767714e-05
1.2826603872866163e-05
5.9548687969807614e-05
-3.73040737879017266e-05
-1.9344365492160608e-05
1.88005360967935067e-05
5.83624638258128757e-05
-1.58857239991488149e-05
-2.71124744401527163e-05
2.81054142962258144e-05
5.3052130867941761e-05
-1.15460315763598817e-06
-3.69804839890970451e-05
3.89589664758318284e-05
4.57243056499574089e-05
1.1400718444441911e-06
-4.87059189020810153e-05
5.11437388443390845e-05
3.8759256047889806e-05
-1.30378182951901978e-05
-6.1767583395741865e-05
6.50771545719144997e-05
3.37636181110279461e-05
-4.21507630104503894e-05
-7.57818301099217852e-05
8.10762936891745636e-05
3.06306189235786171e-05
-8.03317742674206184e-05
-9.13792840735662724e-05
9.92246657994822623e-05
2.83651330425571587e-05
-0.000129129233786177066
-0.000110132663335506337
0.000123547525326529728
2.60993730750959479e-05
-0.000199485761839337958
-0.000127564770447435085
0.000149405851138387089
-0.000157845392251058095
-0.00017000017574930683
0.000224493795904308775
2.499355390291483e-06
-0.00010488602473478735
-4.63547548111365681e-06
7.03206831759448937e-06
1.69726345074600819e-06
-8.39104846842627511e-05
9.15020155473167595e-06
-1.78026398903939983e-05
4.03159887027262264e-06
-7.50274636257450799e-05
2.14466461110446859e-05
-3.66282962359733557e-05
1.16312022023291916e-05
-6.88709572001741134e-05
2.59812146774615044e-05
-4.61023646734986332e-05
2.32797623424158841e-05
-6.08352155088793742e-05
2.08848990667831755e-05
-4.30585665329314142e-05
3.54533386566352471e-05
-5.09839520400909643e-05
7.18737207852395567e-06
-2.56226267005012809e-05
4.42688053204834528e-05
-3.51790622578540199e-05
-8.40583373394160452e-06
-2.53462048412698255e-06
4.8467687231049881e-05
-1.57771541385645642e-05
-2.24403935435445527e-05
1.81329668549065973e-05
4.59306767042132836e-05
2.55374089789270689e-06
-3.50800403375234381e-05
3.39087279131636656e-05
3.84612219120861426e-05
7.8968580037117736e-06
-4.89407417657344295e-05
4.96534268552094909e-05
3.08918464907651912e-05
-8.66405216578560421e-06
-6.30702189620304369e-05
6.62658397767764822e-05
2.39492760585266484e-05
-4.06450689736010426e-05
-7.84876904448592543e-05
8.39245709937649567e-05
1.93241851699363774e-05
-8.4861052343322967e-05
-9.54179784575018817e-05
0.000104572342438250391
1.61656919160894517e-05
-0.00014153012979130144
-0.000114235619190730312
0.000129794995543511856
1.60857659287907174e-05
-0.000224426277351373539
-0.00013162075968745196
0.000156641185592038137
-0.000189893755541247167
-0.000166191922442677765
0.0002143260383721474
-2.21746356034852236e-05
-4.92822612104089819e-05
3.09800655579640306e-05
-6.44092822351665929e-05
-4.06197530411796638e-05
-2.51757901841887812e-05
5.8732193724544347e-05
-9.90220972176077856e-05
-5.71661882336462073e-05
-1.33984870478601279e-05
8.94706583867158555e-05
-0.000134553434574604584
-7.38270865030776736e-05
-2.58190160385476106e-06
0.000108836592075289037
-0.000158464883888723233
-9.16497895677548626e-05
1.48998523173691285e-05
9.98932159375981118e-05
-0.000157805607607966475
-0.000104757338597467149
1.81810661386887446e-05
5.38538083222148546e-05
-0.000109911203895132656
-0.000109233908540848378
-4.37580827502125221e-06
-1.96764046685134398e-06
-2.43589111101765959e-05
-8.79254553381222785e-05
-3.4487941530777751e-05
-3.28734345283214686e-05
3.02758788693533961e-05
-4.97043162724292772e-05
-3.67726318073497305e-05
-4.96181689137039858e-05
5.07234538787730891e-05
-1.81940349322026881e-05
-2.50390166614995746e-05
-6.20682298759369191e-05
6.34938457005923567e-05
-4.43664936591364387e-06
-2.5151789608381667e-05
-7.33228468934721668e-05
7.60532098552012216e-05
-6.2461641754865033e-06
-4.55005349041953948e-05
-8.88009095658984601e-05
9.5465893857670127e-05
-8.1974211858031208e-06
-9.67879083827326205e-05
-0.000106583732021207274
0.000120461840925156248
-7.00443514050642173e-06
-0.000164643851247330995
-0.000123552442871102799
0.000145473167741048503
-5.49968068948178872e-07
-0.000262311901097541462
-0.000139178242917523527
0.000170609386271042827
-0.000232465226642035005
-0.000159428799778136275
0.000201450290626927246
-2.73928146998069841e-05
-5.06418424096530262e-07
3.19548535876138464e-05
-5.3338547122820651e-05
-5.15911860709658603e-05
3.33466803114183807e-05
6.32419549971845901e-05
-9.75668380075322842e-05
-6.99605610110529081e-05
4.92448564033967575e-05
9.01855880014485888e-05
-0.000134460080217990545
-9.26539519016611414e-05
6.93688229326376604e-05
0.000117377532136950536
-0.000166635104197836333
-0.00012512586137759606
0.000100053635657575512
0.000128263676538474861
-0.000180945477156556491
-0.000163114600174004256
0.000104179935548861532
9.36134892480921664e-05
-0.000141623310823603573
-0.000202860699164576514
5.64589040661250298e-05
9.43040138754793757e-06
-3.05186413155530799e-05
-0.000221734801233172219
-2.9251931717306221e-05
-3.70845765946479152e-05
5.07228941082027115e-05
-0.000208105356782306648
-6.53315369968162241e-05
-6.21677752906473038e-05
7.70973256052439904e-05
-0.00016550656164964446
-8.02664009819055099e-05
-8.36029240654479838e-05
9.62315405895602927e-05
-0.000120691670239169422
-8.49205102349073239e-05
-0.000101185337225985147
0.000116139175352814416
-8.6550880554689863e-05
-9.70413559080716449e-05
-0.000112994700655452097
0.000130394734502712706
-6.28733209898088357e-05
-0.000144211791129287073
-0.00012540816971542325
0.000149154490081338415
-4.32534667000218434e-05
-0.000215203787174666778
-0.000136838071286911182
0.000167778145543584256
-2.47293138001747554e-05
-0.000317165876892158932
-0.000148073032484253246
0.000184402845390871362
-0.000291926487962640478
-0.000148983112516804786
0.000183715049467289516
-4.00849935015351206e-05
7.1145471025030934e-05
5.52023040270781484e-05
-8.67700416342909696e-05
-7.17079026984814038e-05
0.000105414049260715587
9.45832091211824735e-05
-0.000135028707513657289
-8.95162748955665301e-05
0.000105378026606073511
0.000117500065124294761
-0.000155825510575100461
-0.000109507755131970958
0.000125182642110148359
0.000131185778350752772
-0.000167008362999714066
-0.000137674826072725967
0.000161593913334733279
0.00013060385474408158
-0.000163976956582734116
-0.000166318935561139182
0.000174488427569743243
9.68812504374194693e-05
-0.000138545310250291911
-0.000189915814508469379
0.000111176037312262432
2.67957516580558965e-05
-5.79156111885535541e-05
-0.000190294124806742555
-3.80689874432099239e-05
-1.69094690062016227e-05
2.61050907345154905e-05
-0.000198546629207462032
-8.08724922546558546e-05
-2.96694995365000453e-05
5.34630638350451324e-05
-0.000222700688318460543
-6.91064896104578476e-05
-5.72802078113303934e-05
7.02743842824967997e-05
-0.000208904415438545263
-0.000114415669756671654
-8.83082837078473986e-05
0.00010400718031051322
-0.000174494176384911424
-0.000145862389883941179
-0.000112368893884300637
0.000126779693390446663
-0.000130578282587548504
-0.000206408875499964131
-0.000130354910412210415
0.000148636101051467085
-8.68792899399219718e-05
-0.000292766952931027349
-0.000145018072973517677
0.000178882241489483141
-4.85859578695041835e-05
-0.00039042713345492034
-0.000153575851034964674
0.000188543767472347583
-0.000366897680964555504
-0.000137352276216942448
0.000163737502682306433
-4.21167060829150854e-05
0.000148408875746297141
6.77306042385914707e-05
-0.000102878534920083881
-7.37267447104366063e-05
0.000169801968024927872
0.000112418692106935815
-0.000145197809901665575
-9.1012528615460868e-05
0.000150007168058860301
0.000127857120970109681
-0.000155201138925269502
-0.000110370933319042699
0.000166436630233864286
0.00013206298767606326
-0.0001539588123209632
-0.000135356091500463507
0.000203242162915202992
0.000120094154073038757
-0.000136757170345649904
-0.000172380239667891679
0.000239670474746213791
8.17204787381611305e-05
-0.000109878122079663836
-0.000176217356217795655
0.000139460077354482083
1.3512046746984134e-05
-3.79586210004561071e-05
-0.000148267781120376411
-7.58416326861752546e-05
-2.78348570211366729e-05
3.76581504128716492e-05
-0.000133613022722704994
-0.000118868609808823745
-3.29457614929660049e-05
5.62872048572562111e-05
-0.000149752216067955017
-6.12155109802659013e-05
-1.55417800407480508e-05
2.37900336391267905e-05
-0.000181706236648892741
-4.0549978548165967e-05
2.54173815811174461e-05
-6.73290120241510758e-05
-0.000193717383420287804
-4.82446937376353386e-05
-9.70651211061520367e-06
-7.58999807622192675e-05
-0.00017292218497115937
-0.000165514672904578536
-7.62051038668772637e-05
1.45157327935636484e-05
-0.000129255386504457937
-0.000323958185961157935
-0.00012610383627475498
0.000113628271423310819
-7.12466279151045302e-05
-0.000463233466137509412
-0.000150650981852265483
0.000165448545887644799
-0.000451002671574429466
-0.000130812458964575933
0.000143670812112348681
-2.6065998181182528e-05
6.83068940844868186e-05
-9.02184355381775e-05
0.000196385019754376043
-5.2212225501223652e-05
0.000103240295007214371
-0.000129369258581274124
0.000222076019566451737
-7.15687679522248455e-05
0.000111964882231182112
-0.000135497030431939216
0.000192895229593039298
-9.14813746809288886e-05
0.000116432744619041312
-0.000134003110135397192
0.000203919352033736035
-0.000127604601270272578
0.000102649115262376994
-0.000110801569167359428
0.000247517896867576782
-0.000179902532569317788
5.82546655050137968e-05
-6.15969162318988204e-05
0.000295310866351024953
-0.000165569383823309602
-9.46161162590191253e-07
8.06950735314580855e-06
0.000118003831164609647
-0.000128758226009325976
-3.57135488323712482e-05
4.30168388917082044e-05
-0.000119955980514037895
-0.000109427896884367929
-4.63725644973886212e-05
5.49362741791044866e-05
-0.000146762607394687757
-0.000105638929714293637
-2.12587594507929623e-05
2.29713274483265585e-05
-6.67169801245655228e-05
-0.000134645056033793297
6.66928509310961252e-05
-8.86700445130173123e-05
1.04335191191181346e-05
-0.00016226317558101956
9.29635710296578552e-05
-0.00016977278628233514
5.61828296922157544e-05
-0.000176201575832901153
3.0776545855462303e-05
-0.000134099768178899632
-4.82529631855845519e-05
-0.000160062012562892499
-5.3879637425712301e-05
-2.45166268344883278e-05
-0.000261701492981445197
-8.81739281645809982e-05
-0.000121065898056572772
8.81061871376355199e-05
-0.000502161903058459601
-0.000137566595494132484
0.000140522293247777617
-0.000542132316635121083
2.35911353573694118e-06
-3.28145430203908452e-06
-1.02255909161233293e-05
1.07867213991932741e-05
-9.45627655447693785e-06
-1.15854604089039136e-05
2.12312852748863591e-05
-1.14317355651037754e-05
-1.25111272693016167e-05
3.14971796648453521e-05
-1.12277238688359248e-05
-1.3984681169926659e-05
3.94756394866671153e-05
-8.97722246204286892e-06
-1.60662087235135756e-05
4.46069204201179702e-05
-6.26796839117225025e-06
-1.89151960319431749e-05
4.74452556982304493e-05
-4.22445457343322879e-06
-2.27431409240494301e-05
4.8568830926333219e-05
-2.94511085574578039e-06
-2.77858256310800602e-05
4.85874356888837754e-05
-2.4134026574365746e-06
-3.41256756532647035e-05
4.80893824687103416e-05
-2.79785089036391614e-06
-4.19846721121403332e-05
4.77774098757547967e-05
-4.05184321503189382e-06
-5.13588241194640692e-05
4.79967005896709452e-05
-6.46321676016961245e-06
-6.27028531895019417e-05
4.8865220830289236e-05
-9.25477922933754584e-06
-7.60247676631661508e-05
4.86978044507957092e-05
-1.36724926407715305e-05
-9.25237655364897311e-05
5.57093528743268774e-05
-2.31634289185164115e-05
-0.000112490783308408061
-8.60651296316179622e-07
-0.000126633148138123938
3.85979008802229255e-06
-8.17874095247065602e-06
-1.01123873962176057e-05
1.27255277489610968e-05
-1.9435792298399183e-05
-1.11194097945502254e-05
2.19991997320980624e-05
-2.17855847406177449e-05
-1.20990285906102079e-05
2.98897918547708728e-05
-2.01250712776948683e-05
-1.35586150029673549e-05
3.63723344182990729e-05
-1.64483501646274363e-05
-1.56720183070479298e-05
4.12564511869939273e-05
-1.22438907296575766e-05
-1.85869503575041806e-05
4.43829500355903271e-05
-8.70391805508114212e-06
-2.24837655765145719e-05
4.59597006542717754e-05
-6.31974466106748051e-06
-2.75311168922221026e-05
4.64608253917943333e-05
-5.36109013357222486e-06
-3.38508160109427729e-05
4.64690310524660101e-05
-6.16832829791191433e-06
-4.15550682655844875e-05
4.6687749429272033e-05
-8.86012638854658072e-06
-5.07488521107184886e-05
4.73893183118481625e-05
-1.36409215268596627e-05
-6.16589688174094331e-05
4.91550884059129405e-05
-2.00543744817848335e-05
-7.44628379310841037e-05
4.86351174474667616e-05
-2.77774528283054265e-05
-9.0130958741817862e-05
5.20341284366781869e-05
-4.58174825185303654e-05
-0.000106991832464215365
-3.60844568491386656e-06
-0.000134053618405795239
5.67723393113491878e-06
-1.50356776557944964e-05
-9.74747193235545705e-06
1.44272867345657183e-05
-2.94765519474115397e-05
-1.09723374615125161e-05
2.31750370845407072e-05
-3.17478674191649243e-05
-1.20532644197928119e-05
3.07811901649602445e-05
-2.88004587346574875e-05
-1.35755009915101059e-05
3.69940847454579573e-05
-2.36502742116867016e-05
-1.57301438815611591e-05
4.16464268241672922e-05
-1.79552119490805703e-05
-1.86824479983778715e-05
4.4593143671811913e-05
-1.29673399053768853e-05
-2.26190120503949038e-05
4.59720665374610941e-05
-9.48137442509625201e-06
-2.77098303651723858e-05
4.62257050530097687e-05
-8.08402918931420171e-06
-3.40748160721899667e-05
4.59522476536834796e-05
-9.31605506659474238e-06
-4.18195606277469787e-05
4.58595504079160177e-05
-1.34484074231412218e-05
-5.10441914615003146e-05
4.62736336248214842e-05
-2.06094840275456734e-05
-6.19707093369507541e-05
4.76983049678340702e-05
-3.05567342210146989e-05
-7.47864396684496768e-05
4.72701772473912432e-05
-4.17641189799900265e-05
-9.04460291740777529e-05
4.83953129172965936e-05
-6.59726863674809559e-05
-0.00010768369928154248
-9.46685243327361841e-06
-0.000133108601172214061
7.34216084268018845e-06
-2.3661994808487678e-05
-9.38242439487760271e-06
1.60738389530787608e-05
-3.95192024065466545e-05
-1.09336027061412479e-05
2.44389004266795766e-05
-4.12531599612055494e-05
-1.21615058895146759e-05
3.17070419255684855e-05
-3.70010401838334542e-05
-1.37387770155230494e-05
3.76358815908574594e-05
-3.04123405198575534e-05
-1.59012106141329512e-05
4.20420590256313014e-05
-2.32844268772004471e-05
-1.88567085592870227e-05
4.47404442369764573e-05
-1.68978246483210118e-05
-2.28168093831704167e-05
4.5800341054795342e-05
-1.23127265421747368e-05
-2.79567148578914602e-05
4.5642211445991312e-05
-1.04675034942320924e-05
-3.43893235441924944e-05
4.49004051954066672e-05
-1.21395180426341249e-05
-4.22074880606686391e-05
4.43155524104525846e-05
-1.77328466380271201e-05
-5.14983468456613235e-05
4.42908759505412862e-05
-2.73242584531361218e-05
-6.24565819522176569e-05
4.52355495753668601e-05
-4.07171347797210514e-05