/*--------------------------------*- C++ -*----------------------------------*\
| =========                 |                                                 |
| \\      /  F ield         | OpenFOAM: The Open Source CFD Toolbox           |
|  \\    /   O peration     | Version:  2206                                  |
|   \\  /    A nd           | Website:  www.openfoam.com                      |
|    \\/     M anipulation  |                                                 |
\*---------------------------------------------------------------------------*/
FoamFile
{
    version     2.0;
    format      ascii;
    arch        "LSB;label=32;scalar=64";
    class       volVectorField;
    location    "0.720000000000000417";
    object      U;
}
// * * * * * * * * * * * * * * * * * * * * * * * * * * * * * * * * * * * * * //

dimensions      [0 1 -1 0 0 0 0];

internalField   nonuniform List<vector> 
29184
(
(0.00223462809463347055 -0.00125821410752672094 -0.0326447245850563228)
(0.0209094188115785291 -0.00652241825234897883 -0.0373540748847057957)
(0.0504934131356145552 -0.00869808061525793874 -0.0399520357316833566)
(0.0893188416295742915 -0.00939868366201597298 -0.043994396020085029)
(0.122653585224268946 -0.00816001139678402578 -0.0498780767357477894)
(0.145568263447953261 -0.00588311312464301264 -0.0582857649843589523)
(0.161726773482284703 -0.00382804298446623014 -0.0699086274779119471)
(0.171952999204512486 -0.00241218716561814039 -0.0857957141958403668)
(0.178016481772970192 -0.00161173745685245996 -0.105947187410523669)
(0.181824048294681628 -0.0015921755383632003 -0.131873561058229727)
(0.186105224662564878 -0.00219745728903259939 -0.162642784882408076)
(0.193116433383603181 -0.00377757208176518651 -0.20286997360560538)
(0.204364528509393295 -0.00589494622991287506 -0.24714568969633588)
(0.223912961543413086 -0.00887188169782105254 -0.323357968187648448)
(0.248632201084335758 -0.0151040181100228366 -0.391643497652642447)
(0.147602699493482925 -0.00358107570124046107 -0.676643975540844878)
(0.00546937278856571632 -0.00676658209397633641 -0.0329855878973428288)
(0.026860412495947155 -0.0211809847501667203 -0.0366041591416398637)
(0.0580393339799925925 -0.0248732231990480557 -0.0393867528512235193)
(0.0880632075968797168 -0.0237364072538770593 -0.0431406532778783186)
(0.113584493336865336 -0.0194106901369706514 -0.0488212932307096545)
(0.134492890600971249 -0.013973075378230608 -0.0572015539788314695)
(0.150685828603016325 -0.00939666800240538183 -0.0690223269852570653)
(0.162038968969450414 -0.00626898597888871263 -0.0849159758470843795)
(0.169403010724792635 -0.00469397460088747352 -0.105334326230773975)
(0.174590273059928636 -0.00514096711822753863 -0.130844927998758048)
(0.179987292291148127 -0.00757253197713895349 -0.161868616358887107)
(0.188357401982792744 -0.0125905937911780196 -0.20055500805942067)
(0.201633333165643247 -0.0196463733913876532 -0.24679886292650266)
(0.216593677500942022 -0.0280404044777761777 -0.317426028521008152)
(0.249302534318566443 -0.0490105067901209848 -0.396586085600232063)
(0.141806443974222041 -0.0122812675966757542 -0.690430935195851858)
(0.00897821438422966023 -0.0153669940396482727 -0.0328970723043508981)
(0.0334746854385536766 -0.0354534194568861469 -0.0371396413352119634)
(0.0629892960412524183 -0.0394735672946105801 -0.0399627169847652161)
(0.0914539034983501697 -0.0364843471695512137 -0.0435440923790510609)
(0.116135365448544359 -0.0302608714750247365 -0.0490409169997306632)
(0.136370024247755572 -0.0229849278395925921 -0.0573493327891733615)
(0.15193500538975524 -0.0163341993635337662 -0.069229929986145064)
(0.162713152192257127 -0.0112889802850573914 -0.0853061148273577818)
(0.1693901427784687 -0.00861765802213718818 -0.106000900337035936)
(0.173713436034941965 -0.00916996425740911232 -0.131801030281549686)
(0.177997058430603594 -0.0133905160483351916 -0.163088333140162106)
(0.185263872744116792 -0.0216137780611513376 -0.201852424942674497)
(0.197013764308737876 -0.033794274981490291 -0.248209105622334447)
(0.211397903366459944 -0.047283219194054496 -0.317479597558622928)
(0.242383182006904785 -0.0822092284533860462 -0.396813779408353995)
(0.126022449489791993 -0.024514201368653489 -0.684450658506813192)
(0.0119016649067899185 -0.0264768155849320549 -0.0326261139902026195)
(0.0392681568593560432 -0.0499209854481228732 -0.0370709334531795984)
(0.0680263745575026141 -0.0538057375342898964 -0.039780822441669618)
(0.0950398741320785945 -0.049319390751440241 -0.0432320242584912362)
(0.118694454313236081 -0.0411405492944723339 -0.0486850959956549798)
(0.138258965874160894 -0.0315844058091505897 -0.057100961194414844)
(0.153194329229354026 -0.0224446858877583831 -0.0692654095458702657)
(0.163163052473135561 -0.015236704420408944 -0.0857874079825391017)
(0.168695643866942357 -0.0113606241647618011 -0.107049330216647851)
(0.171526011491486496 -0.0120661773334441013 -0.133416104084359638)
(0.17404891920872928 -0.0181384635110588589 -0.165187233139389045)
(0.17950457269231665 -0.0297911629242066205 -0.204128661886712331)
(0.189391236364862658 -0.0470546401299094044 -0.250466102901758303)
(0.201988407209697407 -0.066533545421840215 -0.318655651251744054)
(0.232509679598615737 -0.111367780177410808 -0.396179631118409759)
(0.115881252702349447 -0.0396100298843882689 -0.67697854626641174)
(0.0147071154142564969 -0.0400985041410598445 -0.0314083094660380993)
(0.0453988219183417627 -0.0643354778086258489 -0.0353307677903562933)
(0.0738798164413099062 -0.0671744660980185399 -0.0379993022559635962)
(0.0997172427721884913 -0.0610223565093227713 -0.0417114259706685628)
(0.122553456277631242 -0.0509329119583039475 -0.0475612796985159236)
(0.141631116886445751 -0.0392101355639023208 -0.0564730263167821239)
(0.155985058576395802 -0.027688083613215269 -0.069247047693334951)
(0.164936970100651836 -0.0183387368211512455 -0.0864926788949104131)
(0.168859572778154721 -0.0132526975668079677 -0.108549725015977108)
(0.169516333767212618 -0.0141885986443523668 -0.135684446920939256)
(0.169501438507349833 -0.0222720220730586935 -0.168035857554920509)
(0.172351037059772561 -0.0376244980771912874 -0.207143363886083454)
(0.179605238266249329 -0.0600975236642698266 -0.25328322497887501)
(0.190150109692282132 -0.0860004440037594742 -0.320163252970090351)
(0.218626901757027703 -0.139689100954550838 -0.39529438659089311)
(0.105272911310659356 -0.0567437844070993874 -0.66792467434802949)
(0.0183829227704565314 -0.0557944290886349531 -0.0286613816806750819)
(0.0526947650800497353 -0.0781021689694304105 -0.031881122189011929)
(0.0808669374780724148 -0.0792752547392748669 -0.0349884172139133184)
(0.105412179092859673 -0.0716314142074131882 -0.0394183658251887406)
(0.127522629480963295 -0.0599557657341767553 -0.0460065923450977549)
(0.146355268636147839 -0.0461818887880273143 -0.0556799968200728593)
(0.160296194291999844 -0.0320899248610012691 -0.0692878202692820827)
(0.168135526687293285 -0.0202089587028060139 -0.087449932868770841)
(0.17002407291958993 -0.0136264411005512925 -0.110452856885415493)
(0.167837877337089103 -0.014749280980039501 -0.138477689774209767)
(0.164491296939173803 -0.0252406549537410041 -0.171445688290773557)
(0.163916819650416323 -0.0446670514376548561 -0.210668041134094791)
(0.167734149928900095 -0.0725791782858359741 -0.256499715500226599)
(0.175725946374395037 -0.105328172020536751 -0.321796305234064606)
(0.2003916571092485 -0.166917300400845375 -0.394352752709594245)
(0.0915637765949800925 -0.0765435531137343972 -0.654451183872685749)
(0.0234167640796755852 -0.0717258263800459317 -0.024238013331837456)
(0.0607449249139636466 -0.0896691829145910141 -0.0286221589647810554)
(0.0878827698014419262 -0.0888102436078412188 -0.0326993699508029353)
(0.110956613000169443 -0.0802209521660671721 -0.0377401548948696347)
(0.132703058437290022 -0.0676911651485199439 -0.0448183742766264381)
(0.151859094952837198 -0.0524636075590943635 -0.0550918496125065299)
(0.16583469356731298 -0.0361018001334908051 -0.0694044215488764243)
(0.17261828558217987 -0.0215525286384717144 -0.0884020193855800107)
(0.17208538901171902 -0.0129831687288754372 -0.112324764172182692)
(0.166388078459370814 -0.0140240791608205063 -0.141240799119236399)
(0.15894979529138667 -0.0268103246343783345 -0.174876782991313512)
(0.15428072358975603 -0.0506385891320768472 -0.214250231962586635)
(0.153978595367559062 -0.0842655273508814279 -0.259828407188964827)
(0.158823047663458755 -0.124257307106057813 -0.323604725522075087)
(0.178264833758144753 -0.193011757104762816 -0.393495586941231934)
(0.075984212272812976 -0.0998907380262887973 -0.638820998007972651)
(0.0289810210672103753 -0.0889623418410259714 -0.0199836917983241061)
(0.0679244348294361089 -0.100432321925723336 -0.0282717996543760709)
(0.0930018680471177278 -0.0963276706499439639 -0.0326913508034000835)
(0.115206588914061964 -0.0867963290513206476 -0.0373243677269609261)
(0.137662075906020087 -0.0734536354410919579 -0.0441834974009351969)
(0.158056598735837217 -0.0567340569262891059 -0.0548441583467824331)
(0.172795450910307208 -0.0381524812075409656 -0.0694733598455662404)
(0.17857731895978321 -0.0213758485350016014 -0.0888524815373666066)
(0.175184249644040946 -0.0114939649844004298 -0.113423004463947125)
(0.165178294788907498 -0.0125246591965527954 -0.143213059494214173)
(0.15280023174758417 -0.0273757428165371693 -0.177695349552360493)
(0.143459911255541472 -0.0554898484235412381 -0.217572612578528612)
(0.138461466024763946 -0.0945605869193148763 -0.263352105909805789)
(0.139778005525671239 -0.142276077062489542 -0.325966053954141133)
(0.152878658763918096 -0.218178845480560768 -0.393032660655449673)
(0.061835012689025845 -0.128279015332869645 -0.622144068673647022)
(0.0326428377013774917 -0.115316562347125728 -0.0206392106786560114)
(0.0713785011854690954 -0.119766900506680457 -0.0310689404413846855)
(0.093774048754572209 -0.112075529943350891 -0.0330694137767466381)
(0.117550952080589521 -0.101231302130707565 -0.0356967542349107339)
(0.142841989824230603 -0.0862842140694065896 -0.0419193333371715091)
(0.16565005754253409 -0.0662796344935919907 -0.0531560028905808946)
(0.182086605086976272 -0.0420305976245669358 -0.0680696044638871706)
(0.186386321398521487 -0.018577397520460167 -0.0875609279315010397)
(0.179463022671545069 -0.00572400042441387549 -0.112654537767914537)
(0.164367641079599863 -0.00817395350337450644 -0.143700865531115218)
(0.146269965170189586 -0.0265176349078586893 -0.179565681189941428)
(0.131729711899346402 -0.0595325822006543409 -0.220719701399510776)
(0.121535018714987772 -0.10404074715153884 -0.267507669509294332)
(0.119301312667942624 -0.159824558162020014 -0.329399866708737665)
(0.125873386541099919 -0.242966913517835142 -0.39357248953476498)
(0.050630338358236042 -0.164432452587521954 -0.603760036578947168)
(0.0278770920539115792 -0.144827646927149611 -0.0249341176657115957)
(0.0610610706245250379 -0.143470053341366338 -0.0332201859376469733)
(0.0777453905099012715 -0.135871404876723029 -0.0274403511550932316)
(0.1051845789521446 -0.126253487863286579 -0.0249464241086227688)
(0.135755860444062459 -0.113088439196695256 -0.0305099077062048959)
(0.164559799111148514 -0.093869204054312691 -0.0394214742726193626)
(0.185668445748598893 -0.0662778544560166938 -0.0554856942153731172)
(0.191910182541399743 -0.0317562920160393697 -0.0789335872844612041)
(0.182983366104333522 -0.00147365073516034228 -0.107536879871411292)
(0.161833422070354477 0.00233641482774755603 -0.141441557800312645)
(0.137868700587743892 -0.0213366774450370021 -0.18060226705240115)
(0.117893832844584476 -0.0614728573665916586 -0.224389004976675355)
(0.10179490833139411 -0.113055895187044828 -0.273379867439149216)
(0.0965495507243640111 -0.176400436060611093 -0.335186360374104542)
(0.0957029239673515691 -0.268601306416171748 -0.397532982808679436)
(0.0396776511602817405 -0.203811234254644841 -0.583656346669500059)
(0.00181648953087193139 -0.158660826699522195 -0.0249444950332968901)
(0.0101788880435385934 -0.137276737872353033 0.0285228705110711564)
(0.00338531690992410587 -0.133201126810573417 0.0792850208673420709)
(0.0209351923289282094 -0.126202745950173001 0.10065004859325849)
(0.0519480272294675777 -0.112999687567441665 0.0904191159797201327)
(0.0950941369621138843 -0.0973274628089359078 0.0437105333981827118)
(0.12303244376749696 -0.0763003305691516143 -0.012039677075314505)
(0.151742540333838161 -0.0499537167804364329 -0.0597545817635602855)
(0.158535534815377355 -0.0194164288324956136 -0.0988873566723779684)
(0.145817441822295724 4.63811432835038381e-05 -0.140415680725398728)
(0.117472356274704814 -0.010639749748528958 -0.184735678812549403)
(0.0907841931599319418 -0.0544750342423306194 -0.233115693599591361)
(0.0652983450687170536 -0.113997352299185173 -0.286758431493020105)
(0.060024318560526646 -0.188544729369793773 -0.349003882917796382)
(0.0524616897739837718 -0.298380804516518383 -0.411298774728105054)
(0.0230408577601611611 -0.245868946568255975 -0.55761790053676219)
(-0.0469379517758063691 -0.0976796389304406265 0.115578174165770209)
(-0.0931400338004640671 -0.0655406399224670588 0.209290564572320703)
(-0.160101975653470258 -0.0468946462904865705 0.31598888132334646)
(-0.212491887341650615 -0.0391339383046039324 0.39116226157315398)
(-0.263706715287370719 -0.0246520248378568133 0.389647365845159577)
(-0.31683272551055669 -0.0138843686929544866 0.243968031292692483)
(-0.379183133336451705 -0.0115615461764437821 0.0265348853596045486)
(-0.347271381716979244 -0.00984792773789826617 -0.0912769568404687148)
(-0.21135606314281935 0.00796783187682422074 -0.142304017602953775)
(-0.0733045175511346653 0.00667541917253103474 -0.179408280071198301)
(-0.00183631209870161599 -0.0127078380620933712 -0.215878561552557358)
(-0.00274610110622155318 -0.0440056993006715247 -0.2669775943658102)
(-0.0327905569658377555 -0.111048655820141756 -0.324607472657167717)
(-0.0195147929375029117 -0.206047919383149009 -0.381903737261239051)
(-0.0159223398048753614 -0.339645545137028326 -0.439015131314654583)
(-0.0102914732962694558 -0.29392906854464268 -0.523625099958943241)
(-0.0618420106256519359 -0.062497889710535201 0.106360609169873943)
(-0.122056255733068608 -0.0168311402089563605 0.221818967181128063)
(-0.19699558612637158 0.00978727616502216013 0.317924057205156319)
(-0.255790623281170859 0.0413226816956652129 0.409767211018454813)
(-0.349236001342537183 0.0733271875098732429 0.471060906571728166)
(-0.438229882653160319 0.077214506508874986 0.380601888546138079)
(-0.594676344941574175 0.0299967935924828379 0.0859380950812386329)
(-0.722925515615855385 -0.049142288331658443 -0.111506761039949109)
(-0.728987334202697235 -0.0715059810973556614 -0.187238585194332285)
(-0.597146127191212739 -0.0643242227132895111 -0.253391957481024221)
(-0.435944754261307021 -0.0636635596733140519 -0.308651464450242941)
(-0.308874459067569163 -0.0948907342460798831 -0.346919262854687993)
(-0.239118118403220226 -0.163291401442830414 -0.389193802542345368)
(-0.159964629129064173 -0.260502478403449311 -0.429422416458477174)
(-0.105032845262306329 -0.401322808199113257 -0.470319101237237469)
(-0.0651522846494582142 -0.362893829958963077 -0.481808726052019354)
(-0.0900472505041920446 0.0512925059362365626 0.196000730976192805)
(-0.181572018838541072 0.103752474434274156 0.332828719585589294)
(-0.265644988730961706 0.112573446521743337 0.398270942284918106)
(-0.31138949190597498 0.138859080529559031 0.439813400830582457)
(-0.393720499865438278 0.190652224449839369 0.450917337755541547)
(-0.485927230914533714 0.195912595414282659 0.373306975327084678)
(-0.579172007362116936 0.117971656923153201 0.141763001337665923)
(-0.592455571014765425 -0.0448293641885356073 -0.0573696200662272421)
(-0.61218775652610069 -0.116537853985942977 -0.110901042463220495)
(-0.708641390766223456 -0.144180357778606161 -0.180187121384899229)
(-0.709658097501363994 -0.167954303360695001 -0.272199956935388232)
(-0.622954371614435343 -0.200201272179603873 -0.339800524582327845)
(-0.493949245956288918 -0.270778905817070037 -0.399231633873532721)
(-0.335048837560323109 -0.360937947592844921 -0.453044672124357173)
(-0.196030330461666014 -0.495552557865136967 -0.484874578046525839)
(-0.14497712071871352 -0.465130947277908158 -0.437808560818395809)
(-0.0933462149538667324 0.168467450512335998 0.23747964457331322)
(-0.190282307099458009 0.204577402850250389 0.374752705981254652)
(-0.278070412842881975 0.192779360836805469 0.421882988543508863)
(-0.313437666427630213 0.21890124345104317 0.428693612327843088)
(-0.382753831125962951 0.262887537166053176 0.390877860540337962)
(-0.506697285088090976 0.289231642450717141 0.299951518278980755)
(-0.580797190294525922 0.178562422729540426 0.074482738312631816)
(-0.496035132246653299 -0.0795332994136193766 -0.100076462409724357)
(-0.429487741514593402 -0.130973072500925353 -0.130317695257535227)
(-0.471757046706737015 -0.0852826300630764311 -0.0543045100394292032)
(-0.508859086056885013 -0.145174742298723347 0.148163370578784259)
(-0.632857959080293853 -0.207274844962837296 0.055779851152335129)
(-0.623081257305580949 -0.338364044204421399 -0.18365198043919051)
(-0.469388991897892849 -0.496822265217870151 -0.362123602986299309)
(-0.288181320976830579 -0.626572667502877212 -0.466154023943165907)
(-0.247522909621667953 -0.592347155191859098 -0.412212684280113595)
(-0.0683614108891647948 0.26073396286322037 0.213026656854982677)
(-0.124013065257637362 0.283615421930010991 0.33380961953452648)
(-0.212815643382761904 0.243886936217539041 0.370395557020522737)
(-0.249463621507556299 0.261202889213786094 0.375580701274494888)
(-0.325405701415825144 0.327805571113685357 0.321907030980827458)
(-0.527436203207188647 0.396269351690332061 0.188590213975257937)
(-0.584525411331393574 0.190723610032782293 -0.0175662506569641691)
(-0.447167384906079546 -0.150289360519085979 -0.121807282238581754)
(-0.360513454523542498 -0.181441848983081799 -0.150210387809829177)
(-0.359263706291293838 -0.0657613101364646346 -0.0451687115405541226)
(-0.362464245088947368 0.00630397518769009162 0.268617866889226953)
(-0.494303102276516637 0.0498750638786331774 0.408237186868126489)
(-0.579211630763118435 -0.127105918156756759 0.199441082931274521)
(-0.476384808804138526 -0.443586943191563998 -0.0847890024569355472)
(-0.397657147144431233 -0.725361871992636909 -0.347101242547196764)
(-0.371737361829266366 -0.713842637809301572 -0.435239748739646271)
(0.00167385749271351013 -0.00131730806074602897 -0.0305132621793220531)
(0.0193260442928164591 -0.00648524219791553856 -0.0344894374775542648)
(0.0477177758534186452 -0.00857682136176247598 -0.037051976581808449)
(0.0850779488090530334 -0.00916883566812342655 -0.0412221658072972966)
(0.115969339954064055 -0.00783376179951110474 -0.0472719644925752303)
(0.135983738612813654 -0.00554741703744664801 -0.0556995686625599631)
(0.148729851723074402 -0.00358444234072060035 -0.0671254234048492548)
(0.155237484832191713 -0.00230781915327571722 -0.0822755122724909832)
(0.157097273704639773 -0.00168256269687092974 -0.10136387368239165)
(0.156241593991590877 -0.00179132254627281467 -0.125148855077788251)
(0.154801447949269477 -0.00255487601650461384 -0.153688013988702604)
(0.154588124353592815 -0.00418290537702548006 -0.188428582954207113)
(0.156840784315363968 -0.00601859682212588665 -0.230786737529113384)
(0.158836381846552827 -0.00955244393246386728 -0.2826622745584213)
(0.163020512377867965 -0.0179415730606624774 -0.353851507366994777)
(0.162259572361900778 -0.000613891328835373408 -0.399993783222867771)
(0.00495653870721583789 -0.00701079781196534829 -0.0302542191615158239)
(0.0253034783342147504 -0.0209490350189802527 -0.0330921124208192197)
(0.0551729444299896496 -0.0242732294088363713 -0.0357778115771495153)
(0.0834939026657068872 -0.0228741216122626302 -0.0398824836457257817)
(0.106886178823577857 -0.0184302259687802381 -0.04601583551316904)
(0.12518012989776453 -0.0131203224520395224 -0.0546589270451658185)
(0.138265760471779159 -0.00890843023808215659 -0.066347966776389683)
(0.146083244856152428 -0.00627100280468004256 -0.0815755740145425734)
(0.14949247684568634 -0.00526332283317848537 -0.100701544529140166)
(0.150280000559123106 -0.0061699643069007843 -0.124125063765577373)
(0.150351030903965399 -0.0090067795690015294 -0.152246388720484183)
(0.152221235829343438 -0.0141672861130765042 -0.186146771693204732)
(0.154860042431418099 -0.0206568275329632352 -0.226613352327556111)
(0.16347722135480558 -0.029477486338057711 -0.278799368746377563)
(0.154103620980117817 -0.0500664735771735869 -0.332848403253694636)
(0.152865097426684887 -0.00263279471566390828 -0.419213917107536638)
(0.00851653402008141318 -0.0157473181049610708 -0.0290900266402737452)
(0.0319142246429109239 -0.034900662346954929 -0.0327071049332828337)
(0.0600368617978250668 -0.0382934504935273506 -0.0356624905935482711)
(0.0867784414323617415 -0.0349081113093206719 -0.0398945189776058542)
(0.109272995032481543 -0.028568521242752512 -0.0461120062301156111)
(0.126809756105409482 -0.0215582161386637244 -0.0548683598592122693)
(0.139201617589199356 -0.015543988807520592 -0.0667138937043401381)
(0.146413641675320144 -0.0113924481687384671 -0.0821281119557809025)
(0.149155259029510073 -0.00972257612962580849 -0.101447142928169795)
(0.149135179291546627 -0.0111793088078687708 -0.125022948259452149)
(0.148202559680674834 -0.0160494697087517763 -0.153243894900702338)
(0.149156656372912338 -0.0245464879817767247 -0.187139688051143699)
(0.150527423677490474 -0.0362297920668129339 -0.227550415039138393)
(0.158770353370084549 -0.049452814251476275 -0.279349665575558237)
(0.148315742842205639 -0.0797577635576427052 -0.334721052377656869)
(0.137650090876408338 -0.00816581292841525065 -0.415906780004590471)
(0.0114511900275742918 -0.0268558400917578224 -0.0278157051300343891)
(0.037679173743816137 -0.0490841833299257083 -0.0325693832780096088)
(0.0650556825731029437 -0.0521506340621646566 -0.0359418054164536566)
(0.0903270373284039696 -0.0470565374734140326 -0.0402848881756219176)
(0.111702121670989862 -0.0386680263291385024 -0.0465117208392478512)
(0.128428323309768028 -0.0294934511142959516 -0.0553212799801224842)
(0.140060314848152012 -0.0213325949088566738 -0.0673270515150014154)
(0.146392989142198227 -0.0155323604998116906 -0.0829951330449496538)
(0.148009066776521481 -0.0132076256766665671 -0.102605327726731504)
(0.146607351736762481 -0.0152911296463298391 -0.126435865161711292)
(0.144100741786812425 -0.022243276125782304 -0.154826158692848853)
(0.143509413760405935 -0.0341782116585904669 -0.188741605117535849)
(0.143338639552030661 -0.050783280539936769 -0.229043291838224639)
(0.150367059209193243 -0.0694137313339087125 -0.280318026545784693)
(0.140780912119036705 -0.107799757593720555 -0.334335396187427303)
(0.126819979249709752 -0.0186277059558015816 -0.414855035485316603)
(0.0141400855881023933 -0.0404693037074599776 -0.0269297126366563992)
(0.0436770251684939007 -0.0634090490520745759 -0.032648392515596647)
(0.0709544645531631213 -0.0652737151588443781 -0.0364514710042685777)
(0.0951319968219907913 -0.0582403203098979527 -0.0409255765135409441)
(0.115619828581986869 -0.0478063334801951401 -0.0471576427733601672)
(0.131690768771454275 -0.0366109883240616635 -0.0560033280080486015)
(0.142557962239556413 -0.0265057837459683129 -0.0681638089400021518)
(0.147755693950829547 -0.0192027337689988503 -0.0841043153221176787)
(0.147745497288689687 -0.0163085700749931936 -0.10403251221271792)
(0.144263849413805323 -0.0190820359875738498 -0.128153694881790042)
(0.13939028283243593 -0.0281520585466543891 -0.156735722341929978)
(0.136427958744406996 -0.0435737628482190109 -0.190701363273327068)
(0.134026296317387106 -0.0650625922966401316 -0.230820407682476886)
(0.13978035427958399 -0.0894833296975816733 -0.281406291116612584)
(0.1301515987341198 -0.135130741877035748 -0.333413694873803346)
(0.115897976958529964 -0.0306268429090159472 -0.414711095388726414)
(0.0174297367024284604 -0.0563030425660892148 -0.0266886401709866966)
(0.0506016592877812851 -0.0774600194951431537 -0.0325549572219565875)
(0.077906520525830969 -0.0774656154811961123 -0.0364956796906103775)
(0.101065967702350837 -0.0686631408956722145 -0.0410611955839952567)
(0.120909723464478563 -0.0565623977114430854 -0.0473590454301584252)
(0.136648117608272196 -0.0435538368450552049 -0.0563350037584982172)
(0.146920306389206778 -0.0314260321056272773 -0.0687636871456273335)
(0.150822973705051322 -0.0223352880858991368 -0.085110202713060662)
(0.148654394256831801 -0.0186094754282360789 -0.105494205602535987)
(0.14226635441510399 -0.0219900349466169744 -0.130033749398552556)
(0.134067915386828412 -0.0332008130872635393 -0.158923184066511985)
(0.127811632146089815 -0.0522046511562633403 -0.192981876249518847)
(0.122520829209199225 -0.0787136649911798769 -0.232852164578910809)
(0.126630295422055783 -0.109395019346760797 -0.282494841955257536)
(0.116667558645925193 -0.162232739526996683 -0.332288127594573435)
(0.104555287950685569 -0.0456747818693707536 -0.412671415284718457)
(0.0216767987358115338 -0.0728941981397738248 -0.02700220302862405)
(0.0577899986826573217 -0.0898809627431999547 -0.03192846414722815)
(0.084474489959418142 -0.0876103194940342916 -0.0356384300327139622)
(0.106679140576583772 -0.0776452215480346597 -0.0401211754551681829)
(0.126470466458708519 -0.064685890273896679 -0.0464846245922962906)
(0.142552855925887123 -0.0504758037167639881 -0.0557053518618179158)
(0.152663493021948454 -0.0365804116559573234 -0.0685850556194262384)
(0.15520897335937367 -0.0255110053860076319 -0.0855908016688577133)
(0.150321425279922233 -0.0204192227264768239 -0.106740526055397578)
(0.140167529492576493 -0.0238349907672253322 -0.132028041796264789)
(0.127774663874533512 -0.0369728088595520921 -0.161469170052106509)
(0.117594634099678325 -0.0597664879548009814 -0.195632063336876355)
(0.108919091756353725 -0.0915926338107672794 -0.235113172799742809)
(0.110914737348310657 -0.129172831618333955 -0.283628301719578202)
(0.100128141312296512 -0.189435574034478138 -0.331193534985389226)
(0.0918119493574955509 -0.0637698367618266121 -0.408630422629358003)
(0.0259817747724094203 -0.0913410700775929008 -0.0276753493407762077)
(0.0633752815235264361 -0.101809248150197929 -0.0310207310377230601)
(0.0883897688841233931 -0.0962669960000959307 -0.0340271683766422001)
(0.110505401590477448 -0.0852860265366439663 -0.0381169492055322343)
(0.13154769660608473 -0.071350411333120603 -0.044509093985880599)
(0.148761980923641263 -0.0555696415595456697 -0.0540555800192216163)
(0.15935114105281678 -0.0396075852334859604 -0.0673664267811104056)
(0.160410096831697713 -0.0267297420193953056 -0.0851721920327148108)
(0.152240315262180209 -0.0207877936376010229 -0.10748265393528271)
(0.137585795707337671 -0.0244247639440069546 -0.134079893669052791)
(0.120406744363285759 -0.039398357665828769 -0.164495637900634761)
(0.106040168550739208 -0.0660376917362753557 -0.198837106411768438)
(0.0934935242341551759 -0.103289483978414101 -0.23784438928787921)
(0.0929008240283243636 -0.148607165349477433 -0.285155473118336666)
(0.0806238013491025612 -0.21673327503425191 -0.330632768753412964)
(0.0769169510317669058 -0.0865097571172017965 -0.403924224732451043)
(0.0280236330252730051 -0.118429206853133878 -0.028224928306983952)
(0.0643523577291735538 -0.122169470254015963 -0.0301807956160683316)
(0.0870639232681271469 -0.113195743103271074 -0.0307895023681930002)
(0.111723303817372499 -0.101233121682542351 -0.0343572867559539044)
(0.136286755687200972 -0.0851174803191198925 -0.0410354347516021303)
(0.155406407993346013 -0.0651026259010381442 -0.051099114625707695)
(0.167386755420575239 -0.0427488887458859906 -0.0643940977651668023)
(0.16646613750217476 -0.0234693276773344922 -0.0829252806888494121)
(0.154385215837563233 -0.0151645462684170326 -0.106928427770857037)
(0.134858731906298102 -0.0207434009867944573 -0.135668111538446434)
(0.11282714926483603 -0.0399321994956133158 -0.167728130802860947)
(0.0940976932023290524 -0.07143938878435592 -0.202566648571164937)
(0.076800315347507267 -0.114211338961638584 -0.241375523316159885)
(0.0733430918101775631 -0.167886690336753241 -0.287600538377635495)
(0.0587195927810615012 -0.243671967465202838 -0.33128674344268122)
(0.0593464003650058802 -0.113650358196816806 -0.399598810816636285)
(0.0216231057866374775 -0.147920789598470964 -0.027337347040045059)
(0.0506277199900713876 -0.145804999379141431 -0.0188912518121530232)
(0.0685573759743506039 -0.138672246017442574 -0.0183106572989966652)
(0.0970803695570097991 -0.128611884091149847 -0.0230778527106141086)
(0.126518429460531268 -0.11370812741311416 -0.0306358108347248616)
(0.154358159471251866 -0.0924610080403261148 -0.0402567151566968276)
(0.168128521984722779 -0.0637009109977606375 -0.0550725998054318253)
(0.168768292336216097 -0.0316846820293243125 -0.0760847469399712345)
(0.154867571629695583 -0.00929418325250931307 -0.10333011845451906)
(0.130563499820335049 -0.0110747931050148348 -0.135785719690931089)
(0.104407177422048414 -0.0352037943557269167 -0.170505746288476007)
(0.0810496220102424891 -0.0747081469651655339 -0.206635261532776865)
(0.057765911985683413 -0.12441303732615229 -0.246230065524780384)
(0.0521224085903133974 -0.186613746747359838 -0.291901362118475893)
(0.0336606809811097682 -0.269805878622363216 -0.334498178565065196)
(0.03914274320390701 -0.148586769651317452 -0.396356923534207595)
(-0.00538480644258984825 -0.162823385894445755 0.000305469783855634967)
(-0.00391460877272219697 -0.1469452483228742 0.0249304674298524431)
(-0.00678721579127777776 -0.141716688463460028 0.043118298070988624)
(0.0092588762331941403 -0.130971287016893506 0.0479466804986580231)
(0.0311419116349338221 -0.116178793748332579 0.0301721394504584801)
(0.0582073477556436791 -0.097925998828464339 -0.000894890131946280147)
(0.0857422344714950935 -0.0738489481564873346 -0.0343208918089486226)
(0.116825512831803258 -0.0473407655754690335 -0.0678707934006971131)
(0.127424006209021584 -0.0199620679934481328 -0.100612094710236563)