/*--------------------------------*- C++ -*----------------------------------*\
| =========                 |                                                 |
| \\      /  F ield         | OpenFOAM: The Open Source CFD Toolbox           |
|  \\    /   O peration     | Version:  2206                                  |
|   \\  /    A nd           | Website:  www.openfoam.com                      |
|    \\/     M anipulation  |                                                 |
\*---------------------------------------------------------------------------*/
FoamFile
{
    version     2.0;
    format      ascii;
    arch        "LSB;label=32;scalar=64";
    class       surfaceScalarField;
    location    "0.270000000000000018";
    object      alphaPhi0.water;
}
// * * * * * * * * * * * * * * * * * * * * * * * * * * * * * * * * * * * * * //

dimensions      [0 3 -1 0 0 0 0];

oriented        oriented;

internalField   nonuniform List<scalar> 
20856
(
-7.68863088273394379e-11
-5.46660338827039362e-12
-1.56348397353002047e-11
-7.44311156538518161e-11
-4.89639268490588187e-12
3.94338309279732106e-12
-1.35577435820810732e-11
-7.53361589315858765e-11
-3.69486559270991819e-12
3.89600390427931246e-12
-1.2478905104303709e-11
-7.66243216548681984e-11
-2.88907632523554447e-12
3.67164931843032723e-12
-1.20724690912239114e-11
-7.69304829245809422e-11
-3.32818477564312605e-12
3.42647431780793045e-12
-1.18237709135443231e-11
-7.65752931357932125e-11
-3.45848963569305094e-12
3.23671424813651382e-12
-1.13975760006858609e-11
-7.75150214527613238e-11
-2.98991574178601798e-12
3.40290760656025626e-12
-1.08027742749091819e-11
-8.01715923340764786e-11
2.88953076768331662e-12
3.97748087557808397e-12
-1.13722924757075347e-11
-9.24876746509984931e-11
3.37811629844660824e-11
6.18660765549880579e-12
-1.50763255937744575e-11
-1.4215777807479013e-10
9.46023424387282569e-11
1.22231068408442248e-11
-2.61100719299776752e-11
-2.77565920304115978e-10
2.89448224173035097e-10
3.16674452369548924e-11
-5.4757200151072906e-11
-6.53073181683732548e-10
9.84474750314859763e-10
1.07130360890906255e-10
-1.58245200179225706e-10
-2.03598312897024732e-09
3.72592297050356159e-09
5.23847733843084151e-10
-6.82196014317002772e-10
-1.35064004784157631e-08
1.75671365026804787e-08
3.92754957139986804e-09
-5.01939147096752556e-09
-3.24546062504266361e-08
1.18261240603279761e-07
3.12115702692506415e-08
-4.32024116024500933e-08
2.52972141423638452e-07
9.84100808727485679e-08
-1.36145263371044431e-07
-3.15382470734087294e-11
-1.01531377324436428e-12
1.46833677346445404e-12
-5.22411302017499184e-12
-3.1304464985065587e-11
-9.70522453578076761e-13
1.39207717687311157e-12
-4.82346613410560017e-12
-3.26236554521373068e-11
-9.41724638571046625e-13
1.4504812813005988e-12
-4.69394291397520367e-12
-3.37642508330578657e-11
-1.09531372446949272e-12
1.43743368922229583e-12
-4.98566796096971923e-12
-3.39926906387468324e-11
-1.32153345653549252e-12
1.42291845734826955e-12
-5.04722648684004082e-12
-3.46214689420196479e-11
-1.44603235395838012e-12
1.41950974370849469e-12
-4.82922050468190061e-12
-3.57992380620912736e-11
-5.27229156151639101e-13
1.56938830500943151e-12
-4.73236481852853168e-12
-3.75457713194051408e-11
6.93675910974867966e-12
2.17736092049790034e-12
-5.57662793751512579e-12
-5.04215173702717127e-11
2.82795075816933088e-11
3.90988026243311959e-12
-8.98566933909909607e-12
-8.9782640503187975e-11
7.97506049173854037e-11
8.9805692313045371e-12
-1.7581650523365295e-11
-2.07955457106117818e-10
2.67755794232119498e-10
2.77114204918496373e-11
-4.48936975478657543e-11
-5.6338115253242495e-10
9.50365244202419333e-10
1.05009726811533759e-10
-1.47848289293864934e-10
-1.89676381810129875e-09
3.64499291189314405e-09
5.50291400179837958e-10
-7.09045986311517349e-10
-1.28119396144582583e-08
1.56327026792907008e-08
3.48183854952863112e-09
-4.62352367491751738e-09
-2.95716462169127645e-08
8.47844824750987831e-08
2.35146921873642672e-08
-3.41472254719789974e-08
1.93887498248769739e-07
6.9885705732926462e-08
-1.00276444436128794e-07
-1.32762028412276853e-11
1.53148996827277914e-13
5.27508629606834853e-13
-1.95039784009387383e-12
-1.32650426371520588e-11
1.51247969179660173e-13
5.0669229983343544e-13
-1.75935970721728182e-12
-1.39246360593501003e-11
2.55237287070387997e-14
5.39349672363776229e-13
-1.87149157447319484e-12
-1.44862635263744128e-11
-1.93167499686313002e-13
5.63790481678952055e-13
-2.05558696522533029e-12
-1.47174200488706857e-11
-3.43052105638844028e-13
5.82209628795326779e-13
-2.10560133011837249e-12
-1.50441992261812822e-11
-2.54822665346228968e-13
6.07854652307435806e-13
-2.02974159315956884e-12
-1.59555753792340063e-11
9.93237775491657339e-13
7.43356770781972131e-13
-2.1739385889392231e-12
-1.8086971001064664e-11
6.73569329446238874e-12
1.22558765127109639e-12
-3.0737632397060118e-12
-2.75530660376095828e-11
2.09941228088409535e-11
2.50065186268847694e-12
-5.47261408165666567e-12
-5.89171086845333285e-11
6.69945713601241448e-11
6.99539096205961992e-12
-1.24849420634376879e-11
-1.45377038059873791e-10
2.38092139505637752e-10
2.40722929380661436e-11
-3.778541013092362e-11
-4.37774575797243281e-10
8.67660903691575715e-10
9.86198293444358253e-11
-1.38629607919663983e-10
-1.48170493571742235e-09
3.32074855231502261e-09
5.27589415206226792e-10
-7.04658611983984155e-10
-1.10970575783036384e-08
1.29665125806098241e-08
2.87757934980742171e-09
-4.02738322644038821e-09
-2.57799568471360428e-08
5.62496193665847738e-08
1.69852371484227302e-08
-2.59954674627133489e-08
1.3771500016122437e-07
4.84168822984834768e-08
-7.31108303960092018e-08
-5.59166616035587873e-12
3.29520634874278075e-13
2.05708409885408485e-13
-7.18819459374039686e-13
-5.63208224354159275e-12
3.66869186669363411e-13
1.948062591799598e-13
-6.84090034307523878e-13
-5.90636009376951361e-12
2.83231233822928028e-13
2.13779192830156567e-13
-7.83212297188861087e-13
-6.09237308755256028e-12
1.69530022870281745e-13
2.31436365123938165e-13
-8.43956063313131789e-13
-6.26642661520647968e-12
1.24292075680257154e-13
2.42873185334993512e-13
-8.58397507626308917e-13
-6.58207562763846549e-12
2.7788158851063753e-13
2.63695429707845558e-13
-8.92714536985615165e-13
-7.08850863200618512e-12
1.32842933040088582e-12
3.85958606669581415e-13
-1.080135797536095e-12
-8.97954315357086815e-12
5.14935062059290491e-12
7.07322740635400469e-13
-1.72541601573756801e-12
-1.61978568180173411e-11
1.5692773622691572e-11
1.69526017369577315e-12
-3.45565576485955877e-12
-3.89206084082138926e-11
5.40088534098421116e-11
5.4002411384708914e-12
-9.46984508622906009e-12
-9.58245802227769862e-11
1.99720996711662038e-10
2.03174878713696195e-11
-3.19425619440174314e-11
-3.01047598693082415e-10
7.36012972599404756e-10
8.75969208303970453e-11
-1.26304995468599407e-10
-9.53999301758981166e-10
2.76319137238590316e-09
4.55450635166171537e-10
-6.50042574379960566e-10
-8.67978749009930226e-09
9.94189757039648741e-09
2.2142749860735388e-09
-3.28946658596202326e-09
-2.03270508995909876e-08
3.50527528346516052e-08
1.15935609747118563e-08
-1.88689312720030875e-08
8.99663556657070595e-08
3.2017589098603364e-08
-5.03713666985662356e-08
-2.74206138019416607e-12
3.95331398249369566e-13
8.59210993076109197e-14
-3.18932751296433961e-14
-2.63360056010198394e-12
3.46609665135788991e-13
9.76174576747367911e-14
-2.45871470439977733e-13
-2.4473813726669799e-12
3.14267975060537236e-13
9.72576670059279464e-14
-2.89581901270028748e-13
-2.35758633468525398e-12
3.36783539322093023e-13
8.85770088243165004e-14
-2.8269706392690167e-13
-2.38655440556395757e-12
3.6013349737558301e-13
8.38222442054993666e-14
-2.88569243360868995e-13
-2.49071243178103136e-12
3.11702954186731414e-13
9.36354571831531525e-14
-3.28749214764706252e-13
-2.5739452917679907e-12
2.79167730463220995e-13
1.00854268946594649e-13
-3.52602430968426813e-13
-2.68847254380463452e-12
2.94191955255515848e-13
1.06928172239430524e-13
-3.68503339647442006e-13
-2.87672386265431775e-12
3.58247101150216003e-13
1.25478205126174957e-13
-4.14838161400129057e-13
-3.17705267397273337e-12
9.94478668302167383e-13
2.01263480994590954e-13
-5.58789515110977737e-13
-4.5827743779387982e-12
3.42349870321039798e-12
4.13894381434903212e-13
-9.87710356180371873e-13
-9.77127658855604912e-12
1.10496066157314266e-11
1.11788088911012866e-12
-2.27724564961146516e-12
-2.29320336467550622e-11
4.12985282175477569e-11
4.00763897255222059e-12
-7.09289224260149927e-12
-5.651093899809857e-11
1.56562200563156559e-10
1.62861521975055154e-11
-2.63270649318224556e-11
-1.78538236085915244e-10
5.75737153463631294e-10
7.21751332742039929e-11
-1.09744863433193424e-10
-4.95225532859366402e-10
2.0784891584144113e-09
3.53049805515600283e-10
-5.45644104422879783e-10
-5.60497551769227829e-09
7.11085775320398825e-09
1.60023093666502864e-09
-2.51351312121287692e-09
-1.44563403139169083e-08
2.06883419047978373e-08
7.4264197303270084e-09
-1.29891108854742538e-08
5.23727226856127396e-08
1.97043671321283619e-08
-3.25959194244841494e-08
-1.18876466078540539e-12
2.78532425848787134e-13
4.98951589547778116e-14
-2.14563344586311162e-14
-1.11977289922925573e-12
2.54797942509225455e-13
5.45783968795145454e-14
-1.15715389578340134e-13
-1.05009245184606924e-12
2.49923354538501141e-13
5.20637318490205721e-14
-1.33520406163590527e-13
-1.01973220686854975e-12
2.62777371272245155e-13
4.75167489737734679e-14
-1.39352930662329658e-13
-1.02820593635534258e-12
2.73542465680560065e-13
4.57153684497293819e-14
-1.47773908678161166e-13
-1.06087351030980962e-12
2.48108117661317641e-13
4.92473201405660468e-14
-1.60769337184563581e-13
-1.10944673314119945e-12
2.43225440448624846e-13
5.21111114903554719e-14
-1.71728157568733941e-13
-1.17638085409141945e-12
2.67764673804296525e-13
5.62611475577857621e-14
-1.84331388619547384e-13
-1.26304615864214772e-12
2.91642574679405948e-13
6.7395613472688884e-14
-2.07946760788394369e-13
-1.47211372624668377e-12
5.3254270280496725e-13
1.1415520763900071e-13
-2.93630416849652882e-13
-2.35747742833243916e-12
1.84465633992667028e-12
2.54489588416177929e-13
-5.72069268699804502e-13
-5.39130172444786951e-12
7.23775993862333027e-12
7.55363720879224542e-13
-1.47967386688280022e-12
-1.20401605071568379e-11
2.9709254947345485e-11
2.88684509062436412e-12
-5.18915072328768077e-12
-2.92507823201361659e-11
1.13270626534458997e-10
1.2253057902543132e-11
-2.06773020550847809e-11
-9.07959571413265976e-11
4.12421691042692171e-10
5.44379704013670771e-11
-8.86062947564165628e-11
-2.10068863938216583e-10
1.41125806440705451e-09
2.48249084902558955e-10
-4.16025121058824308e-10
-3.10123767766389548e-09
4.86671832860240445e-09
1.10041386907813885e-09
-1.8061741011798274e-09
-9.86554129393117254e-09
1.13839501960960436e-08
4.40198627140737972e-09
-8.31364763513646292e-09
2.59944925740370795e-08
1.16056291430871539e-08
-2.05031610121372774e-08
-5.83413182977465991e-13
-5.06315582464836208e-15
1.00254022293809209e-13
3.45320929783806632e-13
-4.76376831294663738e-13
1.99112201597615417e-14
5.94817064441143875e-14
2.30953741090031185e-13
-4.39199516941798743e-13
3.2467834209555931e-14
-2.39978297347754702e-14
1.92310482999709028e-13
-4.04553897448381523e-13
3.39135010289236213e-14
-6.39752006253125982e-14
1.84467606083028188e-13
-3.81214701421675516e-13
3.11024990849315602e-14
-7.18405760489460774e-14
1.86004983281073824e-13
-3.70888606618987632e-13
2.83443255858840595e-14
-7.30877594136836195e-14
1.92007372349325078e-13
-3.64548437037344063e-13
2.65649660632971212e-14
-7.28651326459422954e-14
1.94462558985854587e-13
-3.6986176657106123e-13
2.62204823931266888e-14
-7.17204709905507273e-14
1.90469992499567685e-13
-3.84661168649523876e-13
2.66569511423433271e-14
-7.09827777911203443e-14
1.92281132049733364e-13
-4.08531028779337947e-13
2.848856251522979e-14
-7.31127722111869089e-14
2.00751159654085852e-13
-4.37300359541672117e-13
3.32221624179440216e-14
-8.10289560377381164e-14
2.19290391374153197e-13
-4.58315855325804431e-13
5.08642184378483171e-14
-1.16310606222083142e-13
2.90714304521116175e-13
-7.64695546186769491e-13
1.28275872751384959e-13
-2.6342174108542779e-13
9.8602497742564042e-13
-2.33987718945565966e-12
4.65845252830080087e-13
-9.15663862651351198e-13
4.50021879933194109e-12
-5.28810713530590599e-12
1.95595140617773738e-12
-3.61565319604296472e-12
1.90430523969458625e-11
-1.16495757106728179e-11
8.51383199365973838e-12
-1.51268345228854205e-11
7.29495834155737973e-11
-3.2101266422898303e-11
3.7234914717300735e-11
-6.55225952915867258e-11
2.61506956517706791e-10
-6.79837596891766031e-11
1.6024448504271662e-10
-2.88113553082715454e-10
8.52725765500198149e-10
-2.26502419771526614e-09
7.09193124966493469e-10
-1.22709289353646182e-09
3.17556663887681978e-09
-5.60245421334813943e-09
2.32497297528036729e-09
-4.78173684954496784e-09
5.9981459617937604e-09
5.37134264403823119e-09
-1.05394503321444029e-08
1.3729044981586165e-08
-3.01535783413010713e-11
-1.6759957482286118e-12
9.72907999368841602e-13
-3.14408076305736531e-11
-1.44131347524232841e-12
9.3431940417174371e-13
-3.22326368155728431e-11
-1.28554714008964226e-12
8.29560672154421586e-13
-3.24009278564512496e-11
-9.85014371699977246e-13
7.40562498311961615e-13
-3.38455194808653801e-11
-6.34202085336699603e-13
7.34170240316869091e-13
-3.68259608231566741e-11
-1.01634716425770487e-12
9.15119572978629278e-13
-3.97495421759765028e-11
3.00631722703860325e-12
1.19136609438445073e-12
-4.92033892191895889e-11
2.22500035793793853e-11
2.115330372093393e-12
-8.65651438513083972e-11
7.03264117012778236e-11
4.97076899297532179e-12
-2.01589301170026822e-10
2.33370622892572447e-10
1.649943221365301e-11
-5.37987248304261725e-10
8.23961144107887932e-10
6.79953106088818891e-11
-1.75807962504887715e-09
3.14330579051675217e-09
3.85506269355087576e-10
-1.15671713842032379e-08
1.29216142934514933e-08
2.77202383487082947e-09
-2.82692269418641975e-08
6.88199897048110233e-08
1.98534675278641821e-08
1.64627023197008786e-07
6.14826449874883487e-08
-1.14804650083920016e-11
-2.25770371081296846e-13
3.37954047575553874e-13
-1.20081741363659795e-11
-2.74857750442826997e-13
3.5678407409693733e-13
-1.27165137956333908e-11
-3.33164725435931117e-13
3.51651352512830149e-13
-1.31944315988679784e-11
-3.03576952080485318e-13
3.27700190191411922e-13
-1.37080159990512146e-11
-2.34439659372025971e-13
3.19027225636653733e-13
-1.47742762902553707e-11
-1.23973602303948406e-14
3.49054897459335361e-13
-1.62643495681279661e-11
4.59544517060313823e-13
4.4254684806325895e-13
-1.80612350331854609e-11
5.01923705926623054e-12
7.14512664467448758e-13
-2.60827082794265915e-11
1.80546845960960967e-11
1.46034209170951205e-12
-5.62842288180282238e-11
5.70094120965743595e-11
4.15392078878051051e-12
-1.41060654546209335e-10
2.02716946163865442e-10
1.545476856041919e-11
-4.07985600402851277e-10
7.39116763661148405e-10
6.81067525676672457e-11
-1.33470188147921426e-09
2.81756067579627812e-09
3.87298855667067256e-10
-9.73281026175321586e-09
1.06580703444219823e-08
2.29768442232913227e-09
-2.34057950041583813e-08
4.67145842335974112e-08
1.40558253901221739e-08
1.18064602972606274e-07
4.20246240609920632e-08
-4.57928973288841418e-12
2.33686746578125693e-13
1.18797190667876625e-13
-4.83349847892218379e-12
1.67050630172170476e-13
1.32743975999561786e-13
-5.14608366188369098e-12
1.44438961393600841e-13
1.34625717078072703e-13
-5.36894946187166964e-12
1.34397321107906791e-13
1.33005911510789548e-13
-5.70684903320539974e-12
1.39950701794538273e-13
1.38488332717451092e-13
-6.27622407106658697e-12
1.88262356024200892e-13
1.68741146342209834e-13
-7.02369006862143054e-12
1.06700666872304051e-12
2.42829386238480031e-13
-8.55760193302459394e-12
4.27850692228744572e-12
4.36064291525994279e-13
-1.4701881888825251e-11
1.37199858312601089e-11
1.04395324748953761e-12
-3.65508551920250242e-11
4.57440919963520095e-11
3.41731000650668358e-12
-9.12003098524541692e-11
1.68190593433964323e-10
1.36731039613703324e-11
-2.7550336740234961e-10
6.20936016774431102e-10
6.24972301902559428e-11
-8.4795245287247733e-10
2.3257040303766628e-09
3.41426387026904714e-10
-7.16790548845802603e-09
8.18827571436090146e-09
1.76077497663717639e-09
-1.81564869907801426e-08
2.98153401692164522e-08
9.40905561038321402e-09
7.88437897634736665e-08
2.72863039024248762e-08
-1.8596398247774103e-12
2.85550526451362328e-13
5.14093291441120192e-14
-1.96445293218686287e-12
2.69294938031282173e-13
5.5895076267478553e-14
-2.09812650690742549e-12
2.69009375596223268e-13
5.71513257393891875e-14
-2.21932973521238985e-12
2.76491763508736633e-13
5.88703386596820116e-14
-2.3745293754065908e-12
2.98246406838887177e-13
6.47169363791692729e-14
-2.65733735035906964e-12
3.60012665536813299e-13
8.44286019197776159e-14
-3.03670114421416245e-12
1.00272100165143132e-12
1.33035405738106271e-13
-4.32487991042281781e-12
3.08574144953830333e-12
2.6559063716471629e-13
-9.22971169419138752e-12
9.57310905653661106e-12
7.37096974342434458e-13
-2.24505194430451995e-11
3.46611630536093225e-11
2.66615937741545873e-12
-5.38672996689163224e-11
1.31105343152175881e-10
1.12810148245410688e-11
-1.63295473949321157e-10
4.84346717683061992e-10
5.24396604680733259e-11
-4.42985754650713111e-10
1.75122933677058878e-09
2.65987219646257764e-10
-4.7990888845124152e-09
5.92032338166494608e-09
1.26769340016797892e-09
-1.30617973187293192e-08
1.78368162352793396e-08
5.87844522087175066e-09
4.88547219271954474e-08
1.67905208632681804e-08
-8.57031294897759825e-13
2.25622752796673038e-13
3.45390350437254814e-14
-8.31884414872347543e-13
2.37031297864239443e-13
3.20227133655267305e-14
-7.93696465319241572e-13
2.4356541765369339e-13
3.06527810376028522e-14
-7.7469664675730539e-13
2.51875837533030632e-13
2.86142445152502402e-14
-8.15187034247571865e-13
2.56759073324209405e-13
2.88887530451410453e-14
-8.71524344072925363e-13
2.6438474689361696e-13
2.91244476714282885e-14
-9.33406938518519451e-13
2.7844050601466001e-13
3.00688312438501277e-14
-1.01392748601206956e-12
3.02834527342296624e-13
3.31456363386644169e-14
-1.14378175030471225e-12
3.44125329524425764e-13
4.28751230748995443e-14
-1.37396272769367276e-12
7.13047387281268669e-13
7.28206412556582237e-14
-2.20475735847979285e-12
2.02844808925818856e-12
1.60833177315279567e-13
-5.06037940317512707e-12
6.53878057611556984e-12
4.99199161237011077e-13
-1.17967256898847208e-11
2.50960739353450475e-11
1.96050127150680164e-12
-2.80816915107447649e-11
9.56965901120983266e-11
8.59707853453886014e-12
-8.28852473016917949e-11
3.49402201616661881e-10
3.97522823042888483e-11
-1.88426360032446994e-10
1.20191564582150518e-09
1.8555406409485067e-10
-2.76605751523139846e-09
4.09296559514018861e-09
8.67941709066299794e-10
-8.63030878028649865e-09
1.00525493993518819e-08
3.42638214046721139e-09
2.68674115951064496e-08
9.64330608389750897e-09
-3.8501383700274857e-13
1.6779380664157875e-13
2.41438315882885014e-14
-3.72673651038039223e-13
1.76662222029333072e-13
2.22438890478304436e-14
-3.55907449386145135e-13
1.83208862440838722e-13
2.06863794645974088e-14
-3.47049658735503786e-13
1.90208146809352858e-13
1.87313829045419453e-14
-3.60581248828875608e-13
1.95609199530694661e-13
1.77026917968071243e-14
-3.83668629849600729e-13
2.04167204673772133e-13
1.76359138496755572e-14
-4.11616078773716168e-13
2.16091522061348773e-13
1.78901044554014365e-14
-4.48965460338217905e-13
2.34443066635351602e-13
1.91579097613896871e-14
-5.06606070916543899e-13
2.67991588779528662e-13
2.30337091394576126e-14
-6.532465972651938e-13
4.25296533420831648e-13
4.06489392953930467e-14
-1.14481979227494314e-12
1.16972276680136056e-12
9.93475482522409129e-14
-2.64156275862016051e-12
4.22090980258595352e-12
3.33904092515587185e-13
-5.67391910584762935e-12
1.71093489136330563e-11
1.36921093620224502e-12
-1.31726275099810193e-11
6.5040246008089932e-11
6.07640045116273614e-12
-3.58270693933566819e-11
2.31960723837427962e-10
2.74532591289999833e-11
-8.57560285605118561e-11
7.68467979257561179e-10
1.19351255583168032e-10
-1.46045463338049961e-09
2.62745582466263176e-09
5.55175789495895664e-10
-5.2727107632772761e-09
5.39215708570458775e-09
1.87461803607005896e-09
1.23412581482926147e-08
5.29740011218916679e-09
-1.66134364303066442e-13
1.40792443511603611e-14
1.00054555110538832e-13
-1.6734057381265357e-13
1.64769248143682473e-14
1.09091537855035367e-13
-1.62840263694243515e-13
1.62352273970565042e-14
1.16818203554910663e-13
-1.55767366094465206e-13
1.46358124492798231e-14
1.21864221767236462e-13
-1.49559765054531929e-13
1.31069072568911736e-14
1.25673095771311603e-13
-1.45665880848096442e-13
1.17766571627285599e-14
1.3104342230832167e-13
-1.47919527681805317e-13
1.090849078703198e-14
1.36679226931535379e-13
-1.53415004289900685e-13
1.04919246652815581e-14
1.42593927626139406e-13
-1.62530414688983343e-13
1.037966669302349e-14
1.51116713077701255e-13
-1.78270475786939193e-13
1.09836656627368445e-14
1.65695720264671168e-13
-1.99379671060287572e-13
1.32363706739092421e-14
1.93653875963180513e-13
-2.29024347001550457e-13
1.99771352365794915e-14
2.63566293391740209e-13
-3.8969765498793686e-13
5.47407280746648867e-14
6.30622280373343341e-13
-1.03275368194612976e-12
2.0598117505078653e-13
2.50800493312904177e-12
-2.13947072670822569e-12
8.91749517554284814e-13
1.04688130088834757e-11
-4.40144396577274023e-12
3.96112088656382673e-12
3.9851487022818794e-11
-1.12117488263515807e-11
1.73843794887825847e-11
1.3798116505912862e-10
-5.68310341678375069e-11
7.2786569162734969e-11
4.66080655220205746e-10
-1.06853657727912646e-09
3.0944346163023627e-10
1.51939610241944409e-09
-2.65859286320985114e-09
9.21256447897785807e-10
2.87389993937263015e-09
2.33494069578920568e-09
6.30468258421606276e-09
-1.09735299168154468e-11
-3.02420097452542505e-13
1.95662371762915944e-13
-1.13676567362043882e-11
-1.59792240051613636e-13
1.57732410095366981e-13
-1.18494153275102063e-11
-5.57087287924062594e-14
1.30144272994371139e-13
-1.28708372236510503e-11
-1.74656562311736055e-14
1.08387529189609941e-13
-1.47211477073968966e-11
-3.71991449982720833e-13
9.82971877959329895e-14
-1.66246570269613218e-11
-3.23141315885762253e-13
9.10245014221656445e-14
-1.84751247817128628e-11
3.78730550359286401e-12
1.28633854483409574e-13
-2.64873649542454362e-11
1.50083781049913137e-11
3.6096091263762473e-13
-5.28786402663465408e-11
4.7141836031739765e-11
1.52283068019845157e-12
-1.27296402696107246e-10
1.67414924742285534e-10
7.3858156910743735e-12
-3.62509849927985941e-10
6.1135973051664686e-10
3.85879880958051906e-11
-1.14545621450445583e-09
2.32848654000161795e-09
2.49837054042128469e-10
-7.96717750942348785e-09
8.43808178785747875e-09
1.65822410674864707e-09
-2.05167752972459887e-08
3.59104166452038711e-08
1.059423085647431e-08
9.02499279328676305e-08
3.09626238860198816e-08
-3.96215069851383193e-12
4.50445774133883888e-14
8.4873293709161003e-14
-4.24057434383091856e-12
4.44461480235721627e-14
8.19899921015095241e-14
-4.51426373783795046e-12
9.42667235073506549e-14
7.33781934223074993e-14
-4.89876695045178803e-12
1.47419848181727066e-13
6.89825191236882726e-14
-5.43796680462504658e-12
1.5923258274719448e-13
6.87960754439710444e-14
-6.11376499997003656e-12
1.4895900466602247e-13
7.39921819384576354e-14
-6.92425366740907763e-12
8.23835385162763228e-13
9.333206864162668e-14
-8.33891421639261994e-12
3.55819922231580849e-12
1.65244619568924863e-13
-1.37180135361289284e-11
1.12336269353269011e-11
4.46818209957658354e-13
-3.15765255093170619e-11
3.70504903640993107e-11
1.68575370202372915e-12
-8.00744415615927048e-11
1.35437252763243832e-10
7.56679367203049351e-12
-2.35882173517207084e-10
5.01406814765479621e-10
3.81474857775569629e-11
-6.97123419522881708e-10
1.87058674550602208e-09
2.25031355264354035e-10
-5.81771579756293892e-09
6.39681479325987743e-09
1.25099572287567405e-09
-1.56681241799443492e-08
2.30589981309036026e-08
6.88770269410630891e-09
6.06525932717092699e-08
1.97439956830091328e-08
-1.49569269830842131e-12
1.84737309862177463e-13
3.46659059175370225e-14
-1.62151553077885277e-12
1.82130704521427089e-13
3.54581352226993298e-14
-1.77747705839730506e-12
2.0095634220234224e-13
3.45721469017002726e-14
-1.96733829126864921e-12
2.22015090198105728e-13
3.56030362928507684e-14
-2.19222081434613242e-12
2.28493518389216654e-13
3.88330999051684248e-14
-2.52214864331571719e-12
3.71478563543619838e-13
4.56836665241195927e-14
-2.95528526986683632e-12
9.337988708498542e-13
6.67013574190890685e-14
-4.00946241101141128e-12
2.61149200186402178e-12
1.32054589306563771e-13
-8.0266676910531782e-12
8.05599125254030418e-12
3.7957060190578461e-13
-1.93073185437836155e-11
2.78436484934502033e-11
1.46474746131812768e-12
-4.70763465712509483e-11
1.03654540315928848e-10
6.61286281189477336e-12
-1.37230330135654232e-10
3.8439828320000768e-10
3.2869385982181114e-11
-3.54700819736348234e-10
1.38107531457794129e-09
1.75079060156361103e-10
-3.68771014657311679e-09
4.6193776560115015e-09
8.96544472392457118e-10
-1.1090968905675473e-08
1.39890041380096027e-08
4.14062937049463941e-09
3.81885853376161381e-08
1.18112587356214218e-08
-5.96368186881797175e-13
1.99165805012603084e-13
1.71853551634185671e-14
-6.46019749934993686e-13
2.07005667311808466e-13
1.72686820133185935e-14
-7.15483478329299359e-13
2.21526125155260701e-13
1.68697874423166908e-14
-7.94661299318576358e-13
2.36000907408040056e-13
1.79741459367926142e-14
-9.05006351743725823e-13
2.52075030046446536e-13
2.02600251809632675e-14
-1.06770707201710031e-12
3.46787203055618793e-13
2.61446287444632701e-14
-1.29962742553475885e-12
6.84584160279045477e-13
4.22103573631136304e-14
-2.04547924435561905e-12
1.75498371393463308e-12
9.21081998944049288e-14
-4.74104764563975099e-12
5.44214514263538989e-12
2.85746352101862738e-13
-1.08365752586148764e-11
1.98299878760676103e-11
1.13722323657765941e-12
-2.50486978720863133e-11
7.46975098840872406e-11
5.1652720129789495e-12
-6.93711754771954564e-11
2.74207323877651259e-10
2.49857482897377038e-11
-1.50036678057497261e-10
9.35803531196690281e-10
1.20103387231463231e-10
-2.1340115729699187e-09
3.20530877732012415e-09
6.0318659225373027e-10
-7.11005762438824971e-09
7.98457794196496142e-09
2.31099345298384102e-09
2.24289876565316849e-08
6.74165212610868055e-09
-2.64813850490832497e-13
1.36879118562339926e-13
1.31151419952197656e-14
-2.62153229179475188e-13
1.46831579973066733e-13
1.21483113465911239e-14
-2.56439773913863931e-13
1.55020776652621109e-13
1.13251155724596854e-14
-2.5991428945687709e-13
1.60705760300999014e-13
1.06707635792979248e-14
-2.79112765612692043e-13
1.68612197881624513e-13
1.02459357296447556e-14
-3.05148923266805143e-13
1.82960695227478725e-13
9.92726155258219026e-15
-3.37674593061101166e-13
1.96460699832600841e-13
1.00828532006064798e-14
-3.86921855665802473e-13
2.17522335822587479e-13
1.09477848488056674e-14
-4.62820118212884738e-13
2.54807396618465779e-13
1.44481455520267023e-14
-6.05628394185887223e-13
4.47934533345088933e-13
2.53372977110667275e-14
-1.06171682039431109e-12
1.13328347858787771e-12
5.7680935273964339e-14
-2.49327591408776119e-12
3.59718066414691156e-12
1.94946662073351039e-13
-5.39171930035543399e-12
1.35037739811102509e-11
8.10496621873820014e-13
-1.2121814033823851e-11
5.07429475410298993e-11
3.67821607776456585e-12
-3.1488462697493585e-11
1.82237766139460375e-10
1.71900404574051212e-11
-7.15453286057649053e-11
5.93247109194247442e-10
7.61964008334993373e-11
-1.19630198317503003e-09
2.01372299668894787e-09
3.7424906840130867e-10
-4.18535972634955016e-09
4.37432440128059801e-09
1.23006954226236595e-09
1.18632119951410681e-08
3.58271240092551984e-09
-1.3254497802580866e-13
9.26052570172713566e-14
9.29470373813172441e-15
-1.29409517214359919e-13
9.76767608455849738e-14
8.40793609815544266e-15
-1.26814968149220935e-13
1.02641646546570847e-13
7.63165151809580553e-15
-1.27237667049459073e-13
1.0952504470061718e-13
7.04376270346899079e-15
-1.33780607337173474e-13
1.16784861857822959e-13
6.6137960271179403e-15
-1.43531544982947693e-13
1.26081067642351911e-13
6.32988396086831685e-15
-1.57859423511952784e-13
1.37479193965615905e-13
6.33951686005900353e-15
-1.76797794248900832e-13
1.5480763595423806e-13
6.84232547261202665e-15
-2.09035868020002784e-13
1.80795143306234031e-13
8.28423308590441754e-15
-2.93987783283480732e-13
2.65439285472422668e-13
1.49051680407174614e-14
-5.51984750978140218e-13
6.76308683643701678e-13
3.61316974974435355e-14
-1.22467588279992143e-12
2.27576468560847974e-12
1.26329866465186141e-13
-2.49745866124843108e-12
8.72599678836126621e-12
5.39955377257374084e-13
-5.60496410422414474e-12
3.25440570291883031e-11
2.43122084870675431e-12
-1.54219044989104037e-11
1.14279669829865539e-10
1.09663185077336763e-11
-6.03807068556042796e-11
3.67658274790729114e-10
4.66468636852292143e-11
-6.66819765947403525e-10
1.14544141565480292e-09
2.04686894380878955e-10
-2.28448516649158749e-09
2.35080140844077247e-09
6.32856412624318751e-10
5.34310910787325178e-09
1.80071624640572281e-09
-7.17034226904380267e-14
7.59734474934741683e-15
5.06715014317234556e-14
-7.04888428019420411e-14
6.88549086321086153e-15
5.65177998149455507e-14
-6.74756267066846196e-14
6.1227915449564785e-15
6.06485384363829689e-14
-6.43017714183855498e-14
5.39018278571137174e-15
6.31026114423817294e-14
-6.28476565497320452e-14
4.80428071998389137e-15
6.58238114855217415e-14
-6.32550467746609504e-14
4.42148953542912463e-15
7.04433132449773753e-14
-6.48466161530725135e-14
4.13950424289726635e-15
7.59907989051407268e-14
-6.77394587063105937e-14
3.92255243547092093e-15
8.18013879150023754e-14
-7.31971586419270801e-14
3.89815235044165247e-15
8.98502543564424915e-14
-8.26794828256060078e-14
4.21469847620043558e-15
1.02953848779376242e-13
-9.62935835763675172e-14
5.18102830018657429e-15
1.26826669095759751e-13
-1.14807493528826131e-13
7.97405761105308324e-15
1.79649684890136941e-13
-2.05326795110464379e-13
2.03087848698331498e-14
3.93387402185167494e-13
-4.7769292680988575e-13
7.63490987034413007e-14
1.34573853214647561e-12
-8.88284295109672257e-13
3.34852529477411602e-13
5.10095456307897816e-12
-1.85766444969869151e-12
1.48254481664920784e-12
1.8998213914551424e-11
-6.64535949312737067e-12
6.48536786328558837e-12
6.59272912409647359e-11
-4.74323522598782527e-11
2.69340526374870154e-11
2.22753340816965134e-10