/*--------------------------------*- C++ -*----------------------------------*\
| =========                 |                                                 |
| \\      /  F ield         | OpenFOAM: The Open Source CFD Toolbox           |
|  \\    /   O peration     | Version:  2206                                  |
|   \\  /    A nd           | Website:  www.openfoam.com                      |
|    \\/     M anipulation  |                                                 |
\*---------------------------------------------------------------------------*/
FoamFile
{
    version     2.0;
    format      ascii;
    arch        "LSB;label=32;scalar=64";
    class       volScalarField;
    location    "0.270000000000000018";
    object      p_rgh;
}
// * * * * * * * * * * * * * * * * * * * * * * * * * * * * * * * * * * * * * //

dimensions      [1 -1 -2 0 0 0 0];

internalField   nonuniform List<scalar> 
7340
(
-0.0541392109852685266
-0.0416362613064999929
-0.0307964895995615079
-0.0221681366526062136
-0.0159436074624767811
-0.0117653384346655433
-0.00896530497161673705
-0.00661307835036232996
-0.00335770792151162279
0.00364203941609930011
0.0177065168800203503
0.045528819221235195
0.100474311676804595
0.222790484367800218
0.535747049888872673
1.18831507469997399
-0.0582305480267261977
-0.0451184109834888089
-0.0333383554158310294
-0.023178693176506792
-0.0146327936155855719
-0.00729904156601982566
-0.000381607772536853235
0.00714469182979190001
0.0170568672372653773
0.0320812829247165421
0.0563339749500361558
0.0965698295711198557
0.165645325463358473
0.318316640203223422
0.680502588200573522
1.2070399434437431
-0.060841604059089012
-0.0470588685242475865
-0.0342984359992379237
-0.0226475986388404889
-0.0119527406702042704
-0.00174518718972750848
0.00883466955089994704
0.0209939994328759497
0.0366262178653043377
0.0586259165929249662
0.0914519953456825324
0.142070450150494437
0.222102862952836461
0.397444344048060838
0.769381415597866658
1.18899810994190958
-0.0622941551932195969
-0.0478215527081607764
-0.0340774997715515213
-0.021008196292152493
-0.00835328377827087784
0.00443428199595115053
0.0182498591870101923
0.0344302757081586044
0.0549352731952478385
0.0827472399472207742
0.122478856428845956
0.181063732979021397
0.268697797592286181
0.453065817905855872
0.792877733909869042
1.12296786529623716
-0.111877579917560185
-0.0947865429397718867
-0.0784804679416477996
-0.0628003185994907842
-0.0476592220138851372
-0.0329746653612061139
-0.0185928361432502222
-0.00417604352728765272
0.0108800192753280549
0.027514014875797306
0.0471127574755373993
0.0716675875672901225
0.104106236020073017
0.148991822595551854
0.212843994319514035
0.304530630049041351
0.480018429153036219
0.775421058467233748
1.03326499097533131
-0.112496966261018169
-0.0952461559608976244
-0.0786526889929445583
-0.0625377575665501534
-0.0467739621511257322
-0.0312222521515531891
-0.015657982263607189
0.00031271177401488953
0.0173305070421589866
0.0363606763947777467
0.0587914131349271049
0.0865784317452795438
0.122519339737990687
0.170836148785564385
0.237280384238049008
0.32977165409192849
0.486564419710108387
0.736164344388506087
0.922188201127916329
-0.149915326648979552
-0.130615581032534595
-0.112415208527427729
-0.0950165477301204014
-0.078162512250586319
-0.0616537526696859378
-0.0453262028948509393
-0.0289954060284645931
-0.0123886882253799544
0.00492572173797542565
0.0236093627743374952
0.0446261806738688996
0.0693306757473417107
0.0995927121657907699
0.138007307926203138
0.188280901016985136
0.255265780591093283
0.345714754625973841
0.48750645939744558
0.668342506118097535
0.779120417069646298
-0.0254947874058553021
-0.0126929539047752771
-0.00159095290746150381
0.00787008365315375498
0.0161162421360861868
0.0239169754993641508
0.0323342512032050375
0.0433306509327435752
0.0599815130108537348
0.0863497928604050613
0.129386963591553189
0.201321136597374412
0.344679654189640472
0.663708704737008381
1.19740191279374875
-0.0429913427964131942
-0.0283322204583969853
-0.0147199412702299567
-0.00226016217517056731
0.00921362542377548131
0.0201863135601278755
0.0314785354186066513
0.0443468246926208842
0.0608114800659379923
0.0838499031975906695
0.117827594587051776
0.169745168527989015
0.250581173490459996
0.41167507790941843
0.734384178307975866
1.15859991186852862
-0.0453267577997977789
-0.0301392996992965526
-0.0156908557277384113
-0.00194555257934161344
0.0113532412576462845
0.0247508911837728482
0.039127029574472276
0.0558330251657996254
0.0768802420217329641
0.105236785375965786
0.145336964248946654
0.204018373776999828
0.290882391689337383
0.457506333691053035
0.763347364116107485
1.08850525464157588
-0.0468503724707759611
-0.031121816729394243
-0.0158570901956511523
-0.000921043630464108733
0.014015593004775383
0.0295462701150903638
0.0465977297571426793
0.0665456591948684895
0.0913836469142265406
0.123979978526048251
0.168662046055566811
0.231762518284301694
0.321650411622271593
0.482729355237067892
0.753798327093944787
0.994885975456309968
-0.0989890390412155596
-0.0813401697606524754
-0.06428616341555414
-0.0476904754918414595
-0.031438237851194574
-0.0154084088933435434
0.000607204134657794107
0.0169914459436938808
0.0343719672632811085
0.0536945483699764955
0.0763232239012275188
0.104184404789830334
0.139996799977913561
0.187759079987626615
0.252976629784447349
0.342989190087964357
0.489638003307333147
0.717923054080832124
0.897577129325030643
-0.099874508381678509
-0.0821302889135915593
-0.0648760648514308952
-0.047954012011460094
-0.031216560862660659
-0.0144916738459077068
0.00248032696671621374
0.020119051248784884
0.0390703948649104502
0.0602750082000635887
0.0850543652923314436
0.115227764651654532
0.153299109645074066
0.202790068815806634
0.268266498625782113
0.355820707409678805
0.486050282759283026
0.667858946354510263
0.799320998158625673
-0.137813664079309506
-0.11861788954076645
-0.100203424813062852
-0.0823758446630289964
-0.0649435280173389501
-0.0477288595994773343
-0.0305558976522846866
-0.0132162453160417897
0.00458470958995015835
0.023288532518075146
0.0435431265686048036
0.0662634368651317529
0.0927034142013398732
0.124543277060868041
0.164026258272244624
0.214138297405806033
0.278514286657058796
0.361647145468397047
0.477727284200123004
0.608974614929839619
0.688169943933145789
-0.012297968432869906
0.0024771252861712301
0.0162358235996925768
0.0291815889740545537
0.0418225550367426618
0.0550353803132414901
0.0701939876434574533
0.0894830179181492352
0.11596972876895878
0.153984045793576219
0.210462868055376118
0.295284611777872574
0.447046427495023324
0.739531706386339471
1.1346039659916527
-0.0304468876679406704
-0.0142817681021055517
0.00124041734133559624
0.0161695603484625985
0.0307829415739146808
0.0456423512434907114
0.061672352250815396
0.0802793332565699957
0.103544100015304563
0.134438517832277171
0.177257261660545756
0.238598226750682596
0.32709236152366572
0.481901866340837759
0.75408650872443872
1.05254587151403989
-0.0323317357557624599
-0.0157262271808433461
0.000500682297406153214
0.0164872584567649014
0.032571111990010157
0.0493576972839266798
0.0677922657942281598
0.0892691459975100965
0.115792289000985316
0.150177140328579456
0.19651308836615286
0.260762972865044962
0.350514606691640751
0.498287597244917169
0.741166237772077796
0.95760028517919904
-0.0337422147660235219
-0.0167144938352643754
0.000162449277096576481
0.0170933307968316565
0.0344629352464261296
0.0529024479115326809
0.0733569671583543248
0.0971843147141555619
0.126288469456635077
0.163287163033408261
0.211904107961796123
0.27723281326425081
0.365851169580318547
0.501314743101738403
0.705703356997238407
0.862184584838411094
-0.0881955828426755767
-0.0700427455251910192
-0.0522596678274927784
-0.0347284457657555945
-0.0173092218032167497
0.00015453187571135864
0.0179160848318267521
0.036392499607363446
0.0562254190517349761
0.0783435389754078143
0.104044879672940585
0.135102423684356626
0.173903419142819898
0.22370929230802164
0.288686542334332108
0.374091128898648206
0.496094420990438323
0.658493448573587825
0.774833235905256323
-0.0891842461231917988
-0.0709921639642763919
-0.053088505609287899
-0.035332200723955938
-0.0175624531514872936
0.000417292807979850495
0.0188942534555120133
0.0383036007757247901
0.0592835905674335625
0.0827322641684316434
0.109867480081770719
0.142307673472001156
0.182173723085745948
0.23221878227984788
0.295699485590035394
0.376343184403277242
0.483683552631032188
0.610216187258065812
0.697109120376432467
-0.127418827228541254
-0.108332966575816536
-0.0897532466819024183
-0.0715368419264982985
-0.0535345830439821271
-0.0355872419654120198
-0.0175142403783815383
0.000907265778460074703
0.0199855871784968969
0.0401625165114006047
0.0620608417018626499
0.0865322137542302305
0.114702033046299667
0.148017794805302721
0.188313782556308262
0.237826952199050617
0.298961167298296193
0.37398332182292765
0.466866314597414622
0.564384862478610527
0.620881730414131305
-0.0180624233391667305
-0.0006778474760182182
0.0163006241714691406
0.0329894075167331963
0.0497295214997120552
0.0671233413786401362
0.0861633084161201462
0.108343860984316198
0.13583886659829239
0.171565306048133193
0.219457438187419973
0.285533143721543037
0.377831665269278916
0.522675900308874342
0.768748360381047546
1.01457160654787004
-0.0195295964293526574
-0.00176556870143113509
0.0158211978636026256
0.0334080160355542041
0.0513716845810197123
0.0703436734435149702
0.0913045367377692124
0.115689110026990422
0.145520485769350227
0.183505818077651289
0.233346224504680927
0.300393215673605496
0.391541390016924395
0.528297221927799932
0.743161158459345383
0.921768747287611379
-0.0209530308016902533
-0.0028598041982649397
0.015250351317674004
0.0336038707663690733
0.0526066193581727279
0.0729024495517158477
0.0954524652253643524
0.121621488940947126
0.153280556401677315
0.192912373150662647
0.243869241670851528
0.310653503066671721
0.398893337216697064
0.524913320013998819
0.702275149743614935
0.831761572132222238
-0.0222554209794252889
-0.00387663927266066691
0.0146846827853836775
0.0336918202789626003
0.0535712026991932086
0.0749675798241060953
0.0988100121590512331
0.126381018100365394
0.159394039330462367
0.200083080632254717
0.251367531880771877
0.316872340786018503
0.400827993162771734
0.51496220667539605
0.655832609527663091
0.751507676108779554
-0.0790469676381799213
-0.0603924016550078172
-0.041875522971881754
-0.0233824826269181038
-0.00475831944655191741
0.014187793943684154
0.03374595439350489
0.0543536462456492911
0.0766457500540737718
0.101507964077548363
0.130129264446923493
0.164056685586282031
0.205254749025261279
0.256169719256362671
0.319576810155873026
0.398289527916088071
0.498645535042582522
0.611477253391713771
0.683521720206446637
-0.0800926631079818402
-0.061459559689969738
-0.0429066464055355423
-0.0243004488585887267
-0.00547243103863353283
0.013793954111685585
0.0338057210970678715
0.0550022571198595586
0.0779982864870493314
0.103626724434814743
0.132974392316686896
0.167413547562456161
0.208625364692894943
0.258579521521699718
0.319266544319332046
0.392269969795964901
0.479391310408322058
0.570511483504386629
0.626141897924901381
-0.118601017295575997
-0.0995886513101616744
-0.0808411883450513707
-0.0622457471943302712
-0.0436779369877414239
-0.0249901202409560132
-0.00600049836280790866
0.0135230801662848711
0.0338956091949838001
0.0555501946994295462
0.0790729004439420236
0.10523513094509386
0.135016129450165945
0.169610347777249343
0.210416424571500948
0.258950391968324367
0.316511256628280835
0.383626581451533999
0.459358102958864756
0.533132554314998508
0.574290205717673641
-0.00763004989101676544
0.0117471166489792143
0.0312918053962829915
0.0512534533336510834
0.0720819022542249083
0.0944435097429999898
0.119323775491567169
0.148165234181736993
0.182936750723461966
0.226139002176522219
0.280955221861045157
0.351783170107769161
0.444032047504345495
0.572419657821507166
0.75521499732045827
0.891182453816932729
-0.00867377235574547968
0.0108778004784582036
0.0307210990476280109
0.0511297145557498625
0.0725525138697022676
0.0956492744939195366
0.121379190616040397
0.151090800440732281
0.186578131786563184
0.230110128718812562
0.284566965385525117
0.35364757474329156
0.441606491367334097
0.55959065320750645
0.710018629421925063
0.810680875034374471
-0.0100939051108299531
0.0095833324848783371
0.0296634459906215918
0.0504378475869262308
0.0723562147412007139
0.0960680170554563256
0.122495097311526704
0.152890350065538833
0.188877530878769961
0.232478213724349209
0.286203607072065658
0.352981206894153243
0.435820258314321807
0.542118831942776436
0.664399849824069633
0.740816577796863385
-0.0116405025901107628
0.00812790465752432495
0.0283954322509714467
0.0494676040165073147
0.0717930016984896363
0.0960046112080640696
0.122975177214022457
0.153856533679187751
0.190099565016853544
0.233473889577754196
0.286068006348159765
0.350068978457243052
0.427295665931211543
0.52111157481799486
0.621423775118722599
0.680429149052272364
-0.0710932499066212614
-0.0519016829725164955
-0.0326296252828077657
-0.0131588160823634531
0.00667264475832407469
0.0270851635628335391
0.0483935234959824087
0.0710411687221338545
0.0956368463148401932
0.122995212929246867
0.154162613738513449
0.190417425594882561
0.233265725079988689
0.284369735802322443
0.345236885444835551
0.416682304293975958
0.498969571282745383
0.581769425851627719
0.628414803499330432
-0.0722980155974768668
-0.0532075499761996834
-0.0340030611559267656
-0.0145530580909370294
0.00531459913014050052
0.0258317879427382886
0.0473163364053731245
0.0702010710303708901
0.0950636962753716175
0.122654752257895461
0.153911434029326138
0.189941391587534536
0.231985374528022203
0.281301407030861927
0.338801529253589806
0.404459740192478601
0.476574064923224683
0.545309912469641778
0.58303650733269996
-0.111220724964910853
-0.0922243914217666105
-0.0732801534750350397
-0.054301535670291029
-0.0351778253846490446
-0.0157679075214199708
0.00410897627219814019
0.0246903687226398133
0.0462915124216622328
0.0693292288338059753
0.0943445417960321747
0.122019716994914429
0.153181046211560062
0.188769378849367148
0.229772377434307645
0.277080656379785517
0.331103749402872738
0.391149130357660857
0.454438472415943262
0.511968514459555379
0.542696292188877605
0.00584169638328041734
0.0274874508086190746
0.0498068870126837787
0.0730898073806371257
0.0977841944043350147
0.124518495396853446
0.154242502144543797
0.188302254181193396
0.228336016011717768
0.276298083420959351
0.334508753699406747
0.405646389444818789
0.492332540781361516
0.600871708139971039
0.728981914786611784
0.806157644342138657
0.00358797102371382834
0.0250285357775565827
0.047159980800457954
0.0702880913213657782
0.0948583765299201159
0.121503939040785547
0.15113429745875126
0.184972425308893296
0.224512339051814697
0.271526718518506016
0.328040255294097749
0.396182694916372979
0.477668786147774138
0.576365268192845281
0.683175601380094588
0.743790693745026155
0.00104987249567793216
0.0223086182669532049
0.044288884754654749
0.0673061697056153846
0.091807247023288685
0.11841340991579348
0.147981240935568831
0.181625409449513803
0.220688137182732835
0.266721845774236743
0.321419480718883988
0.386332744629959479
0.462284738394364736
0.550373726624140969
0.640206283732474124
0.688799061974287086
-0.00149522354041773157
0.0196026906085872213
0.0414561905221166038
0.0643871703948843965
0.0888381716177237962
0.115408273070561077
0.144895694910638306
0.178308688489186629
0.216830513503568939
0.261782005428281117
0.314505763406052963
0.376006293493768906
0.446352671929786726
0.524512685267032541
0.60024562917145563
0.639924143186721861
-0.0640517478621141501
-0.0443048845502823779
-0.0242935076689358917
-0.00389410259789514613
0.0170561569956569244
0.0387958387228051829
0.0616473548878728878
0.0860427764478094298
0.112551732334634627
0.141908990654841777
0.175016117744548727
0.212897755525956245
0.256637938309273561
0.307236607923090377
0.36521094995893022
0.43000536333449052
0.49922499339735843
0.563336405808571361
0.596286371355289946
-0.065660529352607494
-0.0461148306311254599
-0.0262932321856810293
-0.00606456565255038185
0.014743454133546368
0.0363704654526862611
0.0591343399211944273
0.0834510750171781057
0.109854874811428999
0.139013128184933277
0.171720305984073895
0.208845758034989865
0.251242789251646337
0.299595712835320271
0.35400766901030134
0.413412682597927905
0.474726852363975549
0.529245924185690719
0.557047752493529336
-0.105221596619448937
-0.0861835205293412232
-0.0670201621442130663
-0.0476715027993429713
-0.0280347681158209169
-0.00797297889524578758
0.0126920591489100495
0.0341985609964577525
0.0568558021903539726
0.0810590284474795864
0.107302657667434076
0.136185021348850799
0.168393059517073895
0.204645899955111676
0.245587815136669968
0.291617380098213475
0.342502009858918322
0.396810140345971951
0.451146355424895507
0.497771566089426964
0.521563355278485408
0.0220874949704383435
0.0457101677639101187
0.070248356356694297
0.0960514031701514281
0.123557056102700499
0.153301224073664366
0.186084998948135738
0.22302529944360025
0.265431586138066333
0.314931314019540332
0.373302432358928682
0.442138322807586803
0.522291492143172831
0.6150244487369948
0.710710998386559156
0.763718958752267252
0.0165747353566707001
0.0395939414334663189
0.063519960476355275
0.0886901894039429789
0.115541790661587901
0.144640343109560782
0.176781661649163313
0.213012192605057299
0.254551023035357926
0.302822581907702726
0.359286389869990008
0.425051194509165287
0.500278478147917927
0.584307321088847642
0.666763313294030269
0.710445472251225452
0.0117009029286282897
0.0342396904772617472
0.0576845722754382173
0.0823726534000262661
0.108738599706443298
0.137349777951295937
0.168969112824434664
0.204560784485149388
0.245227947402926666
0.292177334052828419
0.346551536925563619
0.408998131284557975
0.479070478501490871
0.554684032043940123
0.625713007157919332
0.662182992911910406
0.00744759877210063575
0.0295945482652688538
0.0526545822956124773
0.0769605356931342549
0.102940758536224405
0.131148468386939138
0.162298671111388487
0.197264428868786479
0.23701540632489268
0.282541340548483011
0.334676693393988978
0.393659712578782184
0.458505614935930339
0.526303182181908857
0.58754770229433384
0.618371893850685583
-0.0582335280737446698
-0.0379947965420304387
-0.0173671433015227666
0.00377414877172532878
0.0255896719943170016
0.0483275947635045319
0.0723132993030930621
0.0979627458743056456
0.125803477232881405
0.156493655562693318
0.19080940720179293
0.229580916419719783
0.273587366084932615
0.323377128382983603
0.378837513115040103
0.438574588774869434
0.499222663364212893
0.552160268286551181
0.578520801618067626
-0.0604632343753685741
-0.0405291537193265203
-0.0202078848752125194
0.000630678879884806801
0.0221550964573723787
0.0446092111166572838
0.0683083443802189882
0.0936503269645115044
0.121128998676937216
0.151339983174262865
0.184960532457395993
0.222681292069527581
0.265084503043914177
0.312463013899406616
0.36441271766357014
0.419266989161963199
0.4734660843737592
0.519368837928698257
0.542157299409224969
-0.100786835778989101
-0.0816730553359315686
-0.0623068839722544857
-0.0426512184997838092
-0.0226085959657967503
-0.0020454106894028626
0.0192130689955890069
0.0414044270219534674
0.0648309868746007739
0.0898675857137658379
0.116969281493197977
0.146667283636437551
0.179539487372684825
0.216140710682514559
0.256879084188951223
0.301821592909657599
0.350337254250692343
0.400594132139396542
0.449028473621126023
0.488957771863937241
0.508862193049199107
0.0350953830433406236
0.059735830614192742
0.0853217943761642866
0.112191611303146532
0.140718606330317325
0.171386498536862636
0.204972646091089367
0.242578878894969541
0.285473234826823075
0.335123136791392773
0.393015823432669775
0.46011552056796523
0.53637985299404578
0.620408313033086634
0.702139569402271957
0.74741579029261207
0.0260765080174772956
0.0499326781084648633
0.074748065904061925
0.100857157079156129
0.128660364992189441
0.15868294644694117
0.19168450951003474
0.228670242754520081
0.270780116834947016
0.319265090610209079
0.375282397964590952
0.439398625134804932
0.510985579103826804
0.587601569234986965
0.659047401055789184
0.696984788764859253
0.0188971768305930127
0.0421231513482825462
0.0663181240057743593
0.0918144138939624571
0.119024723664444027
0.148484623878134825
0.180917472659027523
0.217233130765431826
0.258438346721234613
0.305563975809975741
0.359466558421925597
0.420331241300081371
0.487045341660207909
0.556461154704886884
0.618830248820313455
0.650976656974437851
0.0131046394581047672
0.035816530924350623
0.0595037425371879661
0.0844953026127337609
0.111203413966688092
0.140154041615722313
0.172022149687462739
0.207621270083016146
0.247821022929593626
0.293440900983390207
0.345058224345938414
0.402522690597092003
0.464345718422800313
0.526965113165953292
0.58143509700560092
0.608977037011353972
-0.0546916676875640329
-0.0341578775534675944
-0.0131758613204643847
0.00837508839328455004
0.0306561829639824777
0.0539165493807870627
0.0784780266376769314
0.104743098844181648
0.133214589519604076
0.164511245978321036
0.199347695539862646
0.238456328507094334
0.282462981608861907
0.33168738711149115
0.3856995607207927
0.442744919452532026
0.499084841228783049
0.546730070543239299
0.570562337755462834
-0.0574549097131786049
-0.0372907451092993544
-0.0166863165255251508
0.00448468847216565956
0.0263935473184802247
0.0492818747584515132
0.0734607810252327492
0.0993159867891235948
0.127318021269451076
0.158024465621874666
0.192051129441496188
0.229996621286974234
0.272312039624812485
0.319087562084929499
0.369671362154578464
0.422143283913840872
0.472769996935230197
0.514536407107637817
0.535332984142134705
-0.0983481811877810058
-0.0791733378252925252
-0.0596802937408424106
-0.0398466799903437613
-0.0195767853341541759
0.0012612711430882368
0.0228377169243892016
0.0453882189589075932
0.0692111925690902102
0.0946704564746679578
0.122198066853815485
0.152287345001235808
0.185458965376698703
0.222186123318457412
0.262758978847422608
0.30707554554027644
0.354314584909126429
0.402475312806384766
0.44795332889098971
0.48463543538977133
0.502952776743655017
0.919238779973900355
0.592448293025554684
0.192035942306259616
-0.0668966210613516771
-0.169643269346554493
-0.245738683639897981
-0.291231721140687738
-0.320099935383214518
-0.350626470635048149
-0.382470484440718073
-0.414295697111172034
-0.436800211130491944
-0.391323440022171898
-0.284179601459121189
1.0868684896296894
0.886461127092268653
0.577429794434168642
0.243706020979140486
-0.0242419267323800702
-0.157657258225107733
-0.216795023080918109
-0.244608545738072364
-0.260824000530352484
-0.276852697990038199
-0.29440613873862187
-0.310409368786763284
-0.324067100412797404
-0.323087467347695667
-0.245682624684893602
-0.013721168504187288
0.97650179602710041
0.56888317244916875
0.272907061696328224
0.0157446644373204561
-0.132476298465667969
-0.186737208058381426
-0.207724138298734706
-0.218762571776701553
-0.226483153804509618
-0.232369108894744714
-0.236320171636530213
-0.23719220797194604
-0.232370447764396471
-0.206951783525004956
-0.0729569351916764253
0.423306434169444579
0.883401825107273608
0.285084212275484417
0.0434328801657315883
-0.117717352618122106
-0.165631167458092809
-0.181503020736443033
-0.188523819606095544
-0.19059421070471888
-0.189492988689006242
-0.18647137546711573
-0.179718342150475024
-0.167043222150407566
-0.144036245139503694
-0.0928432068758942297
0.0821744102465094689
0.645443646382388492
1.14219208686040874
1.08964572633295909
0.592301753626045868
0.22145267569535701
0.000825873957363271313
-0.120455708914203805
-0.158973190037740186
-0.167614092305504253
-0.168591725107747586
-0.165830956060876084
-0.160639596724767575
-0.153030095000099092
-0.142293241403437021
-0.12574603700982126
-0.100490865696493833
-0.0601596201666118532
0.0144522171487042207
0.233321148560661745
0.932218497926514678
1.53272141488590896
0.47479188465493638
0.0328538201406104735
-0.00625687981007687789
-0.14576264632128702
-0.170956294308651252
-0.166441954350690396
-0.15970513385061616
-0.150961448311173724
-0.142053055238839571
-0.131698652277325357
-0.118655780471063094
-0.101166072929101625
-0.0761167275011498529
-0.0394916268575786211
0.0160625965365314184
0.110224206791541934
0.369036576567635943
1.12723768292843451
1.63235699966033398
1.1799493852336882
0.3114873522381163
-0.171997624507976482
-0.15348709850699499
-0.218767853245684873
-0.202722519990531619
-0.179172677919297668
-0.160941634223132735
-0.145685007777105774
-0.132381417923674444
-0.11934706327163741
-0.104774032471604592
-0.0869041560015708509
-0.0635723636615544152
-0.031229827565716111
0.0149574710743553742
0.082773752711720161
0.191792640710534534
0.448405701075191898
1.20936650162686843
1.68025484966526406
0.285695503546522511
0.113958973673283892
0.0272595813040374564
-0.0842368075718090137
-0.15351600183611866
-0.222728572903556243
-0.279652660026433741
-0.307537690443189793
-0.336865189406003296
-0.368715953297002741
-0.400035918975451765
-0.430781706437601108
-0.419659081284391167
-0.353425453623601282
0.938513459564627395
0.283557341598971446
0.102252825257895405
0.0281981880131576233
-0.0679834082893918529
-0.137385017871406556
-0.208100384873236399
-0.235890699024582595
-0.250144000728808158
-0.264512471150419759
-0.280506781834541363
-0.296319861855629862
-0.31288285593371451
-0.317036288620533846
-0.262049910250356732
-0.0803683752603133877
0.866398384084252848
0.0901546802693268118
0.0176255318738305876
-0.0501786834165987086
-0.120709114373562076
-0.188273237951184336
-0.202517934055935961
-0.209650994028423798
-0.214976425644769265
-0.220027671993164892
-0.223858172552772072
-0.224893824893882321
-0.221868028483139523
-0.201241565240614484
-0.0994330183525200806
0.354133438887714147
0.822601777906261544
0.0137369601505715512
-0.0436631532083587362
-0.112673052814048352
-0.174239668357636074
-0.179832926345466937
-0.181139061173648197
-0.180958882876422616
-0.179108201065295125
-0.175729004721460885
-0.168894611559828128
-0.156191345687546418
-0.133949490749711575
-0.0878702720674373328
0.0569242972106235173
0.498242080870945403
1.03896047332749597
0.351612535436526763
0.0815511525785965752
-0.0039886160376738488
-0.0613730088152284747
-0.119674228492705981
-0.171016180527898631
-0.167695629339185498
-0.163082681048187794
-0.158115244082362133
-0.152065695463741019
-0.144093413317682939
-0.133098633388549964
-0.116455360450483894
-0.0911114300374635672
-0.05079955569208916
0.0187633922997404202
0.20841589650795711
0.862208142440121783
1.46184025760282288
0.0431068952917834716
-0.0575779715977968731
-0.0976418789027139744
-0.150343557451113607
-0.180611258808967667
-0.166652125012076741
-0.154927387170588265
-0.144889755212789378
-0.135218948348066859
-0.12433015098787599
-0.110963509667802593
-0.0932402919345297482
-0.0680792859387953364
-0.0314028690331093208
0.0246429469102621354
0.113915874014543797
0.345492108093644945
1.05995130536436388
1.55811113010138103
0.204858227639181656
-2.0142957542568451e-05
-0.163678060065072739
-0.183388568709821814
-0.208297667137916725
-0.201037715952654461
-0.176184395405005828
-0.156395843448544042
-0.140667111932644917
-0.126848113542077007
-0.113348077591690619
-0.098394814289919752
-0.0802681259594802549
-0.056738722049445911
-0.0243317471566274202
0.0219517129331340648
0.090545727164148701
0.194855166416910891
0.445051617842192992
1.16239595037098331
1.58324810499952795
-0.0307568793112943523
-0.0534708184656347771
-0.0648120526126451518
-0.0742379314383583427
-0.100453033997335919
-0.174768669059502529
-0.230334269201546787
-0.257265053372000729
-0.282177321971999406
-0.30960163456205736
-0.338204948000493277
-0.366459864340720143
-0.38734431525550661
-0.372820820968370492
-0.311084342363285471
0.899818627730754939
-0.100919107229847024
-0.0818852042591496632
-0.0837476426131727458
-0.109695199355653472
-0.175321124648593896
-0.204711231670446941
-0.216453910502944408
-0.227931559291874364
-0.240998506143227764
-0.255245023132760818
-0.268786778772258261
-0.281940805055352572
-0.279089152849476441
-0.223744465011370575
-0.0842319784019245205
0.881194592190585047
-0.0870892530511456348
-0.093914510836437648
-0.117357763159899459
-0.173653147966321003
-0.183423845094020432
-0.187281249512915832
-0.190710560872961038
-0.194478994502644109
-0.198602845721491089
-0.201108412759310601
-0.200599354529248375
-0.195122631932335006
-0.16948005810769623
-0.0682231092590114274
0.359711872108202491
0.840404605642177005
-0.11558234664479819
-0.134825227596536867
-0.173284123923429512
-0.171251829017884438
-0.168355076318925878
-0.165757077853222357
-0.163484645893274799
-0.160711844385814429
-0.156615242923224207
-0.148799085001989323
-0.134894740384035566
-0.111224546639413641
-0.0624414780141550607
0.0797234056669287455
0.4747502664531002
1.05812487749576123
-0.133167866444834526
-0.113317981203080009
-0.132941000559790884
-0.16029365700011533
-0.180160178997456816
-0.16863158877567444
-0.15857737685681253
-0.150721326854734189
-0.143735428793602849
-0.136498274033345385
-0.127862826687928893
-0.116284362110591274
-0.0990033444808425395
-0.0728249422527057627
-0.0320996474536336188
0.037802268190327816
0.22033441092782316
0.791896961467394744
1.42962986042354867
-0.103868644667479595
-0.139798276441178898
-0.182456644696385784
-0.190954450386550456
-0.173546147713653481
-0.157365463513733955
-0.144233540954837008
-0.132924679667504347
-0.122177338578035255
-0.110589352109586453
-0.0967275951721897342
-0.0785780226554065181
-0.0531034995492053533
-0.0160726885827597067
0.0394765631448009621
0.127092759628249896
0.346032003651778552
1.02701693327991483
1.50384517495534653
-0.0831072412294755758
-0.129801785789910001
-0.152747893029201914
-0.199450491907578908
-0.204826759767394451
-0.184096796878545077
-0.163094162005435223
-0.14507502634356742
-0.129591479624317468
-0.1155643794956034
-0.101624904221386869
-0.0862727880683459014
-0.0678245652266703386
-0.0440586836652077096