/*--------------------------------*- C++ -*----------------------------------*\
| =========                 |                                                 |
| \\      /  F ield         | OpenFOAM: The Open Source CFD Toolbox           |
|  \\    /   O peration     | Version:  2206                                  |
|   \\  /    A nd           | Website:  www.openfoam.com                      |
|    \\/     M anipulation  |                                                 |
\*---------------------------------------------------------------------------*/
FoamFile
{
    version     2.0;
    format      ascii;
    arch        "LSB;label=32;scalar=64";
    class       surfaceScalarField;
    location    "0.270000000000000018";
    object      phi;
}
// * * * * * * * * * * * * * * * * * * * * * * * * * * * * * * * * * * * * * //

dimensions      [0 3 -1 0 0 0 0];

oriented        oriented;

internalField   nonuniform List<scalar> 
20856
(
-6.09617192149377696e-05
9.18443709316861474e-05
-1.80435437202594524e-05
-5.96289571529670456e-05
9.49703757186374972e-05
1.2613077883756203e-05
-1.6224917094280023e-05
-5.88308001776076023e-05
9.70702505500525787e-05
1.13074594770042199e-05
-1.47682046617626331e-05
-5.88378257458383101e-05
9.81987187283580085e-05
1.00303809021805265e-05
-1.34576622090078981e-05
-5.97521352434129515e-05
9.91327319230537801e-05
8.90264089719526282e-06
-1.22929327698786284e-05
-6.14227769971625696e-05
0.000100613620756303206
8.15672029037848046e-06
-1.14109930041201314e-05
-6.3697732852230693e-05
0.000102341856769258229
7.82706636195884917e-06
-1.09501651647558245e-05
-6.69762181708382108e-05
0.000103477818759426535
7.6772687282065399e-06
-1.07737413342475819e-05
-7.17257281605001261e-05
0.000104300107124425149
7.6978051591311173e-06
-1.07602440137558619e-05
-7.77403202170628244e-05
0.000105588280163956344
8.16366332605215989e-06
-1.10516057135731229e-05
-8.46496841695922183e-05
0.000106712244386971412
9.15970546113600719e-06
-1.17409786563486358e-05
-9.31377054637724951e-05
0.00010766850691726931
1.09362514775191015e-05
-1.31923891626342044e-05
-0.000104735102279550747
0.000117100956520804864
1.62653365522086492e-05
-1.81472271447667824e-05
-0.000117717273791296558
0.000214054450860809469
4.72279020668065332e-05
-5.00025704205706346e-05
-9.95295914895118856e-05
0.000516003564657400602
0.000126481026049012188
-0.000132307552825868246
0.000887913464833240958
0.00022244741374755425
-0.000230595514474370844
-6.08076096729103036e-05
9.35581679772053479e-05
1.34736546395721222e-05
-1.68507053754657495e-05
-5.95798561100252988e-05
9.68267740095799103e-05
1.20733122211908478e-05
-1.51577664304781047e-05
-5.89013884376874148e-05
9.93370055942584696e-05
1.08261741564500926e-05
-1.37717816513218721e-05
-5.89842652121269346e-05
0.000101171690406842073
9.6821721064237033e-06
-1.25724784875318781e-05
-5.98902276404720556e-05
0.000102875762235812412
8.72788542286452986e-06
-1.15647837662820929e-05
-6.14987789473871827e-05
0.000104951686478206059
8.11908785515747994e-06
-1.08480003219877081e-05
-6.37739374687787267e-05
0.000107241139249466055
7.8961514176607299e-06
-1.05193754596387268e-05
-6.70665419705819771e-05
0.000109333772257038325
7.94760388182364461e-06
-1.05100617145113574e-05
-7.17596861033209418e-05
0.000111463618440674363
8.30347701144981847e-06
-1.07732840525147555e-05
-7.79063326487130006e-05
0.000113984070402619402
9.12717626691918123e-06
-1.1376151204186388e-05
-8.56722528972908256e-05
0.000116358232886402802
1.0469575420533429e-05
-1.23494677912101563e-05
-9.61511166205261648e-05
0.000119475436508570111
1.28360659669562428e-05
-1.41634208334150041e-05
-0.00011111105963521456
0.000132698669934436209
1.99962337958702297e-05
-2.06327756345729487e-05
-0.000125209486637427715
0.000229891289327433592
5.02441494314166378e-05
-5.19813593233104884e-05
-0.000103116789639101197
0.000499336787628727611
0.000119866206810676881
-0.00012529117209392329
0.000793862982903433337
0.000193583060094125497
-0.000202648606329151914
-6.00851375417692997e-05
9.5041321481564785e-05
1.31582550519807104e-05
-1.61939083176526656e-05
-5.89910655849255569e-05
9.85072782182476453e-05
1.17714559820659649e-05
-1.45465764265831039e-05
-5.84407752755388652e-05
0.000101410793305707563
1.05666351540646515e-05
-1.3191176268496667e-05
-5.85821349952051686e-05
0.000103852740726719878
9.52257419353364005e-06
-1.2062540818905439e-05
-5.94592932189520767e-05
0.0001062160490340722
8.70005192347756323e-06
-1.11631232955448703e-05
-6.10089703528720652e-05
0.000108859304226578861
8.20589705428113804e-06
-1.05633982062731114e-05
-6.32711074603651484e-05
0.000111756076175044603
8.08772518950471165e-06
-1.03398073698275372e-05
-6.65313831945079075e-05
0.00011475607155657723
8.31489717864303219e-06
-1.04761851058935201e-05
-7.11158236431224815e-05
0.000118075377455313584
8.94133661282757203e-06
-1.09682017331548534e-05
-7.728580243844073e-05
0.000121922944802124139
1.00858441023866216e-05
-1.18546845007865017e-05
-8.56061889945238408e-05
0.000126015877279430624
1.18106753799920568e-05
-1.31480006055901818e-05
-9.73590367047536307e-05
0.000131866369707667327
1.48088717784109276e-05
-1.54466636024209734e-05
-0.000114506590280759064
0.000149668453773503301
2.35721601219180447e-05
-2.33935857652891024e-05
-0.000127860491103620429
0.000244319317502509313
5.21165050069100086e-05
-5.31896134825222036e-05
-0.00010147157615919287
0.000478092705442888298
0.000111757695275956919
-0.000116901626590807083
0.000701881952269983039
0.000167360618609221326
-0.000176850466719057786
-5.91757710277551936e-05
9.63877775705790347e-05
1.29304272316591637e-05
-1.57189079577082901e-05
-5.82018800677403498e-05
0.000100072615798095973
1.15595934702265962e-05
-1.40995729529219384e-05
-5.77525358645729147e-05
0.000103337548498867328
1.03951965503780727e-05
-1.27718830830170916e-05
-5.79264987993621122e-05
0.000106293916190757924
9.43251737516281999e-06
-1.17001469754627483e-05
-5.87646517559639993e-05
0.000109225067491018456
8.7160369726314037e-06
-1.0887058143029319e-05
-6.02525799086812476e-05
0.000112409167613882532
8.32336347959981705e-06
-1.03851326629732375e-05
-6.24622307926633543e-05
0.000115917635612061419
8.30776957433178477e-06
-1.02592381234718527e-05
-6.56252208296560438e-05
0.000119760359723746293
8.68824322488771867e-06
-1.05290226484668696e-05
-7.00378631606499505e-05
0.000124170320109333001
9.53809149734407343e-06
-1.12200910305114904e-05
-7.60899143076405264e-05
0.00012937519544430664
1.09727813913601154e-05
-1.23731080897771123e-05
-8.4574322714015484e-05
0.000135396994643609584
1.31262622981042988e-05
-1.40233509800421415e-05
-9.6775680368822717e-05
0.000144113294205351129
1.6867001521590938e-05
-1.69126968832233386e-05
-0.0001143776853356307
0.000166717780955820231
2.65764011531243407e-05
-2.6023339870080272e-05
-0.000125533323200089459
0.000256177178342086064
5.28193883269261201e-05
-5.35208277667304272e-05
-9.58037148188844811e-05
0.000453278994556508322
0.00010275685687592402
-0.000107671916358989441
0.000615741729420685581
0.000143884317233334294
-0.000153547163977101942
-6.37600289784557835e-05
8.35314415522645025e-05
1.79574641376820075e-05
-2.17353717487870553e-05
-6.13655058767650447e-05
8.86948222197490068e-05
1.60581777109015104e-05
-1.93478441849931392e-05
-5.95329023485188612e-05
9.33588796157174049e-05
1.42950319839808743e-05
-1.71843981944214702e-05
-5.81921461639436544e-05
9.76149791829663085e-05
1.27231475761775305e-05
-1.52922980367561041e-05
-5.73150578130553033e-05
0.000101521500861451739
1.13746760182933188e-05
-1.37015839858537576e-05
-5.69365032890383391e-05
0.000105113587865932523
1.02518752431005336e-05
-1.24072382913184654e-05
-5.71226585968622944e-05
0.000108509569843988281
9.35877938617401492e-06
-1.1388908528851894e-05
-5.79135645073417362e-05
0.000111936499000841441
8.73064664004658903e-06
-1.06515958517682624e-05
-5.93254317867115613e-05
0.000115630306514404857
8.42844892899406779e-06
-1.02378556528211429e-05
-6.14367106124391713e-05
0.000119725633317876193
8.50920391238435601e-06
-1.02057631004569406e-05
-6.44396495846923892e-05
0.000124339598446669583
9.02150906566418574e-06
-1.05975009092971548e-05
-6.86069907725491134e-05
0.000129745216400604832
1.00554281932349902e-05
-1.14628386582108164e-05
-7.43711543469074981e-05
0.000136255489157674546
1.174830232452007e-05
-1.28647338055573684e-05
-8.25801496799249881e-05
0.000144191510716673923
1.4336722690193438e-05
-1.49228422033683657e-05
-9.43860106247549556e-05
0.000155701906070038421
1.87674175631520631e-05
-1.8550523593153972e-05
-0.00011070226864924731
0.000182408183216719905
2.87115031838686531e-05
-2.80854716117771742e-05
-0.000118453581977487739
0.000264548488906921596
5.23340054232649161e-05
-5.29533298117172157e-05
-8.6672577832373285e-05
0.000426315385292044824
9.33037019209189555e-05
-9.81203180236711749e-05
0.000538746542425426293
0.000123069839704356921
-0.000132746614765584135
-6.24196678652122575e-05
8.42081702863667716e-05
1.77764121211596716e-05
-2.13409601746821835e-05
-6.01522223237517235e-05
8.94922382147969039e-05
1.58371156500963561e-05
-1.89032443545705456e-05
-5.84232263613041511e-05
9.42979144339409171e-05
1.40682432197823658e-05
-1.67377000557347483e-05
-5.71698619884261001e-05
9.87189833329093472e-05
1.25119575019525281e-05
-1.48706330344738325e-05
-5.63665672392643847e-05
0.000102839190437399271
1.11910821048853618e-05
-1.33131648993089829e-05
-5.60329072523006787e-05
0.000106726250067280815
1.011092095327147e-05
-1.20582156166301738e-05
-5.62138929531343868e-05
0.000110503421980802957
9.2794781076930171e-06
-1.10932064391492261e-05
-5.69465222020818895e-05
0.000114367085416364802
8.72680566477353022e-06
-1.04254426494769695e-05
-5.82606896906049957e-05
0.000118531800726013429
8.50442045975969119e-06
-1.00921426937564835e-05
-6.02313832382691356e-05
0.000123172670320093302
8.67134242504076467e-06
-1.01477537128296597e-05
-6.30172532278505231e-05
0.000128480591021970205
9.29351389872588803e-06
-1.06484981979165624e-05
-6.68571312771806142e-05
0.000134774437923507943
1.04749922146059822e-05
-1.16643183506033341e-05
-7.21539801773515274e-05
0.000142467127813167863
1.23801964272595389e-05
-1.32953893781565427e-05
-7.96685721580149466e-05
0.000152153297882859768
1.5314267331264438e-05
-1.57620989404263534e-05
-9.03733758159442116e-05
0.000166212239848430451
2.01852079304144948e-05
-1.99910730873326394e-05
-0.000103996472583266762
0.000195512968626080367
2.99636820963482798e-05
-2.94452023192704409e-05
-0.000107587312123151338
0.000268924422220320151
5.07962125786147109e-05
-5.15806507680495395e-05
-7.52388920977905098e-05
0.000398839326382307527
8.38028443307557784e-05
-8.86744521035739909e-05
0.000472983874854366205
0.000104758927889156924
-0.000114234501781270131
-6.72288127821221921e-05
2.18425044618540596e-05
-2.66091331107262909e-05
7.24384357686879798e-05
-6.3774854773098388e-05
1.96722786430321917e-05
-2.36697156315469006e-05
7.89171714706247171e-05
-6.10283819952559827e-05
1.7554611869104264e-05
-2.09095453675018732e-05
8.4816019325959638e-05
-5.88802577954943078e-05
1.55832868801739198e-05
-1.84304464882723878e-05
9.0190133676409435e-05
-5.72478316251421931e-05
1.38127934573331885e-05
-1.62648886619480028e-05
9.51162799304707191e-05
-5.60716932635425868e-05
1.22744294292967975e-05
-1.44236060240300249e-05
9.96907931843784781e-05
-5.532563618315515e-05
1.09834233837001129e-05
-1.290233370041652e-05
0.000104010913707643755
-5.50186392304432504e-05
9.94526152088793326e-06
-1.16902336484634934e-05
0.000108163170862967493
-5.51807788933404537e-05
9.16938304779865112e-06
-1.07785511547913118e-05
0.000112273775247855319
-5.58438039814713235e-05
8.68226399681389037e-06
-1.01759551584105016e-05
0.00011652303131674463
-5.70411276633204378e-05
8.52939364961126235e-06
-9.91595623558366179e-06
0.000121115206357139013
-5.88383957766669408e-05
8.77008130195220303e-06
-1.00511998083973979e-05
0.000126250911468033786
-6.13622605211364423e-05
9.48039564948198514e-06
-1.06465703666661179e-05
0.000132170695046659336
-6.48063606999262152e-05
1.07744092475017441e-05
-1.17889992651577678e-05
0.000139233080992391152
-6.95019403758983774e-05
1.2835257776253156e-05
-1.36136699176397536e-05
0.000147940734319222748
-7.60328919842815553e-05
1.5993852868514321e-05
-1.64005465598185243e-05
0.000159090510778688899
-8.49930782168503728e-05
2.10712385201843931e-05
-2.09999470419906391e-05
0.000175101086563328028
-9.48399696167393614e-05
3.04049552571980728e-05
-3.01366577033992272e-05
0.000205091874156680464
-9.39191609789503235e-05
4.82272618672769312e-05
-4.93477180041416297e-05
0.000269124792695797708
-6.28880910518904586e-05
7.41347665431316957e-05
-7.90467418377745337e-05
0.000372721086485032472
8.87993104181748359e-05
-9.77765570864030296e-05
0.000419073723174691413
-6.15842018896075016e-05
9.44967702447952704e-05
9.0743201411504125e-06
-6.06635101953611428e-05
9.65920559418212296e-05
7.81825716628077704e-06
-6.05476221574352861e-05
9.81994775829078583e-05
6.59113313613527393e-06
-6.11587773852427665e-05
9.9891934632394017e-05
5.58058966369415776e-06
-6.23778307585145142e-05
0.000101850460693004994
4.92599534684483976e-06
-6.43532682582522532e-05
0.000103693873366115036
4.54562854267392454e-06
-6.7445821563323776e-05
0.000105429638321035551
4.3631085456165957e-06
-7.1830558672882121e-05
0.000107684433654936174
4.56978380564730541e-06
-7.74152235586219082e-05
0.000110699634790071492
5.44023359360036363e-06
-8.45601466742321167e-05
0.000113433267731691942
6.94405422293469694e-06
-9.46157663893151704e-05
0.000116282342747498944
9.35476684277101723e-06
-0.000109016449099282801
0.000128147831556506004
1.58603484501210255e-05
-0.000122206665834065484
0.000211416357347341682
4.56397144367959117e-05
-0.000100679981508523277
0.000451070999879007745
0.000118883925232575254
0.000712541754425816761
0.000203292305687375143
-6.23685806107342379e-05
9.30931203203016257e-05
1.01183136498217863e-05
-6.09679452818274984e-05
9.62844960756777032e-05
8.8840544637755119e-06
-6.01619802607033407e-05
9.88909373044356284e-05
7.72048495736683005e-06
-6.00672105847041945e-05
0.00010113300705967375
6.65322587866307026e-06
-6.06589416223502634e-05
0.000103407009076547911
5.80427780222956393e-06
-6.18726506933602705e-05
0.000105904667305395614
5.2788215456038395e-06
-6.3830878037126571e-05
0.000108483991794615467
5.06492399735108002e-06
-6.6816645822135291e-05
0.000111209209553841062
5.15464090624088315e-06
-7.10378935335387763e-05
0.000114510085075268702
5.69975391935708989e-06
-7.66580502266589155e-05
0.000118554735754964688
6.89258713189679602e-06
-8.4317924502461686e-05
0.000122796285045166447
8.76665950371632096e-06
-9.53879255316216932e-05
0.000128310654550714895
1.18782518574364062e-05
-0.000111551070234539772
0.000144114902938703688
2.01931943826725842e-05
-0.000124187131349560537
0.000225546951381702258
4.87507018338155708e-05
-9.86488952906107799e-05
0.000433811220861957667
0.000111588797996938876
0.000632476424042350258
0.000175000156960533029
-6.14714225577262039e-05
9.44662919645630403e-05
1.00470308587624216e-05
-6.02009099958935256e-05
9.79435335361732975e-05
8.84059329596155734e-06
-5.94821415745177247e-05
0.000100985759294987382
7.75193526432428177e-06
-5.93995699341867505e-05
0.000103765580531811703
6.80655256114610339e-06
-5.99572994772137953e-05
0.000106575520893366257
6.0887514934512341e-06
-6.1134590221560917e-05
0.000109605370493515511
5.6824293798183168e-06
-6.30358937075542865e-05
0.000112858451684377098
5.61495735785889207e-06
-6.58846320588940689e-05
0.000116453328285773584
5.9201592683018704e-06
-6.99026778056752434e-05
0.00012073801651997447
6.73203699758433366e-06
-7.54021947703809834e-05
0.000125922148053868744
8.2182394260314351e-06
-8.31841852106400325e-05
0.000131884555973298432
1.05044753880980695e-05
-9.45598698882475623e-05
0.000140130448402512063
1.4365002614790397e-05
-0.000110975262719007614
0.000160169571481535506
2.39334836908351562e-05
-0.00012155831365214861
0.000237832238642360968
5.04151471702630953e-05
-9.28025112049242951e-05
0.00041375322976134639
0.000103060830019753482
0.000557452567460551369
0.000149582659410817527
-6.0524941136714085e-05
9.57241973866223672e-05
1.00327170896577966e-05
-5.93515569573731602e-05
9.94713275308456088e-05
8.85698612332234244e-06
-5.8695991428533474e-05
0.00010289217687146618
7.8319807151874113e-06
-5.86174389159916506e-05
0.000106135286430848074
6.98323308963279584e-06
-5.91326123436821172e-05
0.000109432107980183258
6.37389577459717622e-06
-6.02475278936271685e-05
0.000112968793193318637
6.07454007633373705e-06
-6.20511447508390339e-05
0.000116836810985731712
6.1331614151137975e-06
-6.47232582161684825e-05
0.000121204550899421649
6.60960129942991406e-06
-6.84831593330051652e-05
0.000126403318909753073
7.63319614121062354e-06
-7.36983961113053484e-05
0.000132730851486473057
9.37954840487633476e-06
-8.11901373897660274e-05
0.000140415393231603492
1.2087142601830773e-05
-9.21373763510379556e-05
0.000151277592906531768
1.66671838725240739e-05
-0.000107329228863952151
0.000175227698766319297
2.67105577494218059e-05
-0.000114594403596097712
0.000247215480380454176
5.07020796574042317e-05
-8.36798661059610623e-05
0.000391747178909451397
9.38492485371277566e-05
0.000490556733057453563
0.000127100992058490234
-6.56267303269308195e-05
8.2935738749105283e-05
1.42932587624612977e-05
-6.31024433267610911e-05
8.7934530243359598e-05
1.27731012980927823e-05
-6.10851679578878343e-05
9.25603961506684433e-05
1.1335532122105279e-05
-5.95302257831365186e-05
9.68601829144852933e-05
1.00307683702314348e-05
-5.84309980553678041e-05
0.00010085841151015366
8.88696488688356685e-06
-5.78188556698253266e-05
0.000104612903190372719
7.91774088901157471e-06
-5.77339098534225141e-05
0.000108259579664129828
7.14842601538343409e-06
-5.8196522823355257e-05
0.00011199477800707177
6.62971430379279079e-06
-5.92255605401964292e-05
0.000116002443715650992
6.42333292673655464e-06
-6.08950922462320616e-05
0.000120427982989911817
6.58752274198981162e-06
-6.33495993074881502e-05
0.000125482019922180986
7.19890150535161404e-06
-6.67873249312042535e-05
0.000131509000600195109
8.38792848701953118e-06
-7.1558557959452751e-05
0.00013890170152818868
1.03488926506253055e-05
-7.83841136876305719e-05
0.000148179658826638879
1.33979802403191152e-05
-8.82203087598462958e-05
0.000161438315818988388
1.84429905784348817e-05
-0.000100727212604037714
0.000188005454670598846
2.84410794897831276e-05
-0.000103846892623473842
0.000252963739904966435
4.97061783014344569e-05
-7.22667259491341959e-05
0.000369059626212246423
8.44119750437799846e-05
0.000433833707910546811
0.000107526897840818538
-6.43456671795663356e-05
8.34415936985018761e-05
1.42858753484465895e-05
-6.19127626231545403e-05
8.85950923035436617e-05
1.27426392336084925e-05
-5.99757832109265143e-05
9.33847939774403932e-05
1.13057604353565848e-05
-5.84918636036503223e-05
9.78682154244197092e-05
1.00186787149179872e-05
-5.74488718305001572e-05
0.000102097988234157533
8.90719494431268593e-06
-5.68627637738199857e-05
0.000106148559747197514
7.98790425699418669e-06
-5.67594749355215372e-05
0.000110149280771921302
7.28534070658625734e-06
-5.71577574576910132e-05
0.000114276492464273599
6.84242953868012523e-06
-5.8079574543400124e-05
0.00011871334491687219
6.71474487844225688e-06
-5.95837362215745713e-05
0.000123638711495059752
6.96465432159588789e-06
-6.17819881270231e-05
0.000129294467164835176
7.67962058973659781e-06
-6.48357452246644064e-05
0.000136047310726323476
8.99086920684105551e-06
-6.90313187307421407e-05
0.000144371064396604738
1.11066250123763217e-05
-7.49151926630845118e-05
0.000155004315275923676
1.43735454912473883e-05
-8.30727498685591536e-05
0.000170154605636117589
1.96267303734512242e-05
-9.20418961637666302e-05
0.000197699923779825711
2.92389077473134098e-05
-9.09341106370795696e-05
0.000254991356145702161
4.76616274350253051e-05
-6.01626587259595122e-05
0.000346959956814800984
7.51320343637034365e-05
0.000387716812810575111
9.07140646418461963e-05
-6.93684780398991327e-05
1.74907176097338532e-05
7.20729431299452049e-05
-6.58787650484105904e-05
1.58700300750411468e-05
7.81927756391505497e-05
-6.29953710445425191e-05
1.42387322862522949e-05
8.3873710888360156e-05
-6.06517267016938488e-05
1.26771980250751779e-05
8.91567656101137026e-05
-5.87910478105832852e-05
1.12435284753764147e-05
9.40924847889741212e-05
-5.73699649177340922e-05
9.97523110801379435e-06
9.87452862002975419e-05
-5.63706423551804916e-05
8.89508483734014273e-06
0.000103185913959972221
-5.57977268644862853e-05
8.02051181428488046e-06
0.00010749933060746207
-5.56660018523820295e-05
7.37469124535969444e-06
0.00011181127691428186
-5.59897780373595913e-05
6.99504159095098277e-06
0.000116286715031065869
-5.67883059374782649e-05
6.93248858210415752e-06
0.000121108326518794309
-5.81049055697247283e-05
7.25075687448079215e-06
0.000126474596923688493
-6.00183452720635173e-05
8.03965478253702392e-06
0.000132648955024393058
-6.26460958550209383e-05
9.43440776343601967e-06
0.000140015458782302764
-6.61850536373005378e-05
1.16433895441968127e-05
0.000149102171308182398
-7.09590226532718732e-05
1.50134357617050826e-05
0.000160759011143601704
-7.70679948204096836e-05
2.02778842822406554e-05
0.00017705745175149401
-8.23195033883835037e-05
2.92310035242762062e-05
0.000204126091498852525
-7.7550686402596438e-05
4.47376543056670291e-05
0.000253713102420254815
-4.88941673586588762e-05
6.59748964739629098e-05
0.000326464316411363307
7.64517561901014391e-05
0.000351171110593952564
-6.28992915923595741e-05
9.40128852667633448e-05
4.94558539652873966e-06
-6.19220317451542969e-05
9.64816019047774574e-05
3.78030001623091399e-06
-6.16041686031858579e-05
9.87580084516275191e-05
2.68904527069459677e-06
-6.19071996131329098e-05
0.00010108327529375686
1.80328641019829359e-06
-6.28553743460959446e-05
0.000103522852742400973
1.19635557662520761e-06
-6.45826028657795002e-05
0.000106078323223528424
8.53942684531278365e-07
-6.7254071861918004e-05
0.000109016353791985564
8.55382890551071882e-07
-7.09597156573800057e-05
0.00011272501042109132
1.42202074701092004e-06
-7.59119221220780214e-05
0.000117148725815981208
2.73335555270551711e-06
-8.28942992744540646e-05
0.000121717225823616087
4.8176385281208024e-06
-9.32800973488626963e-05
0.000127444314267647843
8.19402668251461808e-06
-0.000108605206917741534
0.000142226575007588598
1.64023855466336575e-05
-0.000120636469515819698
0.000211739906562640238
4.48770707697120823e-05
-9.60634601714723435e-05
0.00039017608191055592
0.000108811149040970062
0.000551468984470590497
0.000173997056537307477
-6.35832026705436955e-05
9.28835042674394488e-05
6.36107123936244575e-06
-6.21036345869313138e-05
9.61644731775827648e-05
5.25126095922700013e-06
-6.11892064738838343e-05
9.90854451644762358e-05
4.20083099163896349e-06
-6.08841343333608702e-05
0.000101841676022366534
3.26335197213254013e-06
-6.11776085809368934e-05
0.000104645060860815111
2.53521594000336918e-06
-6.20806738776943841e-05
0.00010761579597819215
2.08874798680069962e-06
-6.37055410722413062e-05
0.000110817508983488962
1.95100733900894052e-06
-6.6212976037944161e-05
0.000114475104599328999
2.20417489119353568e-06
-6.97412002444119082e-05
0.000118924594384652705
3.02940433773275223e-06
-7.45772272906336216e-05
0.000124271671589643723
4.60658111847969803e-06
-8.15481013396517301e-05
0.00013037806549606192
7.07746063028088557e-06
-9.19579235871102746e-05
0.00013855791185592964
1.11752767986082995e-05
-0.000107157480298934472
0.000156985130298015055
2.0635168265478775e-05
-0.000116919111096298674
0.000223281538241678528
4.6971766346473396e-05
-8.92532815652832221e-05
0.000373831860175455691
0.000100268237370941353
0.000489500423277985279
0.000147716172046317453
-6.26575500547401661e-05
9.44166862255818503e-05
6.65707911032319474e-06
-6.12644097862283623e-05
9.80073597052533613e-05
5.60268492731325715e-06
-6.03937040324952688e-05
0.000101319223110005443
4.64587000100518785e-06
-6.0085076024879478e-05
0.000104507377849240361
3.83094329812226515e-06
-6.03439799629628768e-05
0.000107759286010675954
3.23254666072977842e-06
-6.11843964986661911e-05
0.000111218852191234847
2.9194411135363886e-06
-6.26921217253374941e-05
0.000114999100036310969
2.94134340050227698e-06
-6.50065345896458331e-05
0.000119323848762336763
3.38659240876645078e-06
-6.82823957029793295e-05
0.000124515633003934598
4.41788946692332964e-06
-7.28354267120873665e-05
0.000130815874316998575
6.22806555774833754e-06
-7.94490612817522196e-05
0.000138430500959444054
9.06651055595711144e-06
-8.92888591991038215e-05
0.000148962100252009508
1.38014316594760726e-05
-0.00010296569366260041
0.000170805412561040102
2.37909987318068687e-05
-0.000109255153082890585
0.000232443278013123031
4.75439419711632026e-05
-7.95167945724008652e-05
0.000356086153652549321
9.10692739706346497e-05
0.000434974561308093511
0.000124592541643182999
-6.1694697419982736e-05
9.57162600153060151e-05
6.95337590033946669e-06
-6.03673658150368452e-05
9.95865426624904966e-05
5.94873897147455902e-06
-5.95283368152154039e-05
0.000103242009714127166
5.06866255547694315e-06
-5.92082927924298205e-05
0.000106817340231443066
4.35199290833411395e-06
-5.94185023692410342e-05
0.000110482504751267615
3.85999484935500649e-06
-6.01754682035298056e-05
0.000114392824203444005
3.65711204781958852e-06
-6.15441320033207012e-05
0.00011869684428809067
3.80423091816284003e-06
-6.36371026292850488e-05
0.000123631605046649659
4.39551560126370152e-06
-6.65993265619226895e-05
0.000129526266425778716
5.58582420432999565e-06
-7.07238728528568128e-05
0.000136736054496939364
7.5849580110579748e-06
-7.66655622070315247e-05
0.000145745686399334338
1.07145204463658754e-05
-8.53063960834021871e-05
0.000158419104993218196
1.58518547343041824e-05
-9.61035059615289786e-05
0.0001825011230214932
2.58129229581926876e-05
-9.8154680561040095e-05
0.000238400904294118991
4.67967083854822826e-05
-6.78995706830898634e-05
0.000337972439522032724
8.17089788060197539e-05
0.000389509600190010715
0.000104667270109446751
-6.7148572384157339e-05
8.29316892525790796e-05
1.07045771994806937e-05
-6.45406675618887178e-05
8.78333510259439866e-05
9.47639451098425166e-06
-6.23911835563163117e-05
9.2452511083745395e-05
8.3010963288591949e-06
-6.06775256563426879e-05
9.68118716995677446e-05
7.22015460539993963e-06
-5.94013736957602791e-05
0.000100936279333453717
6.25965181484392294e-06
-5.85835375479842183e-05
0.000104897388201821067
5.44324127496671642e-06
-5.82444769346539948e-05
0.000108819494384184079
4.80611967952840917e-06
-5.83949360203133043e-05
0.000112861133848662611
4.4007201016078241e-06
-5.90505371770586997e-05
0.000117183948533061604
4.28738802046827875e-06
-6.02575032935403574e-05
0.000121959068097644008
4.53238214159063048e-06
-6.21018385881314921e-05
0.000127443742914530274
5.23177773974201046e-06
-6.4699988078991712e-05
0.000133974435079311122
6.53895179142808423e-06
-6.82840316427071029e-05
0.000141997452539257304
8.67259611561346634e-06
-7.33216383696733506e-05
0.000152196150596797081
1.19860275726137903e-05
-8.02775430875938753e-05
0.00016652506863823493
1.72938339884817953e-05
-8.76592894462168001e-05
0.000191475458479808405
2.6849513343358998e-05
-8.57438713732050863e-05
0.000241197288952969287
4.49955021730690026e-05
-5.62665431077550237e-05
0.000320360670575789831
7.25475976721982267e-05
0.000352977196343938536
8.77937231622257853e-05
-6.5893979523497443e-05
8.33004276210075247e-05
1.08892845989029891e-05
-6.33549540515796172e-05
8.83775215609386547e-05
9.65885127123962554e-06
-6.12691542893014404e-05
9.31752166228180058e-05
8.49654842028146204e-06
-5.96106743706415436e-05
9.77293412063988816e-05
7.44169279551484151e-06
-5.83735939378002462e-05
0.000102084737578908818
6.52053111229741346e-06
-5.75661870472385622e-05
0.000106319120058392383
5.75770130107284601e-06
-5.7199387891214197e-05
0.000110551453695767498
5.18564297752478974e-06
-5.7279703260782723e-05
0.000114932732565066297
4.8504169147171501e-06
-5.78186402415578843e-05
0.000119628733579087057
4.8085226584913541e-06
-5.88513445652254013e-05
0.000124828251051152419
5.12830908384201143e-06
-6.04159248651675002e-05
0.000130784714005485487
5.90390561529859443e-06
-6.26108575177977624e-05
0.000137872988559481003
7.28826785285069554e-06
-6.55772908337063466e-05
0.000146573931438304491
9.49761217175887262e-06
-6.95703889749912409e-05
0.000157680177886873195
1.2883550744085972e-05
-7.4619137723455048e-05
0.00017303942865904448
1.81621118287518318e-05
-7.86870412406540131e-05
0.0001977275757555673
2.70557965737379482e-05
-7.3539986426885475e-05
0.000241261353233366649
4.24516979059194475e-05
-4.57856729522937938e-05
0.000303819233043354131
6.3920435580519107e-05
0.000324146292324395684
7.37603269665366756e-05
-7.09915157881105849e-05
1.35054119576695884e-05
7.21813733484631399e-05
-6.75135407832521924e-05
1.22794817052089943e-05
7.80375535055871606e-05
-6.4560985725033504e-05
1.10176751482801151e-05
8.35685822121708864e-05
-6.20913583803107781e-05
9.78567913278936808e-06
8.87989466993212301e-05
-6.00668458064160051e-05
8.63588708811604388e-06
9.37577699273913634e-05
-5.84579362815187454e-05
7.60518479541587163e-06
9.84897056300660002e-05
-5.72514268485610725e-05
6.71887433415259851e-06
0.000103053600913676827
-5.64460568606052758e-05
6.00143114421279516e-06
0.000107532029840075953
-5.60442504699710855e-05
5.48285214336638261e-06
0.000112040786114276205
-5.60467848262902451e-05
5.204171160788495e-06
0.000116725623035422886
-5.64573843363375613e-05
5.21799955951052756e-06
0.000121753617737221101
-5.7290170297874986e-05
5.59174401476089644e-06
0.00012732026757949477
-5.85733386317499499e-05
6.41893494801288147e-06
0.000133689237863313749
-6.03445373398241018e-05
7.84351056268272247e-06
0.000141235955785073942
-6.26563494353459113e-05
1.00747230834290928e-05
0.000150455305595154266
-6.55530849350481853e-05
1.34398162269663425e-05
0.000162151449524381531
-6.86883602398845843e-05
1.85362364598640658e-05
0.000177917368925843797
-6.98193744586958931e-05
2.65993576092874894e-05
0.000201491328063755374
-6.22660564408249986e-05
3.93742428274546292e-05