/*--------------------------------*- C++ -*----------------------------------*\
| =========                 |                                                 |
| \\      /  F ield         | OpenFOAM: The Open Source CFD Toolbox           |
|  \\    /   O peration     | Version:  2206                                  |
|   \\  /    A nd           | Website:  www.openfoam.com                      |
|    \\/     M anipulation  |                                                 |
\*---------------------------------------------------------------------------*/
FoamFile
{
    version     2.0;
    format      ascii;
    arch        "LSB;label=32;scalar=64";
    class       surfaceScalarField;
    location    "0.570000000000000284";
    object      alphaPhi0.water;
}
// * * * * * * * * * * * * * * * * * * * * * * * * * * * * * * * * * * * * * //

dimensions      [0 3 -1 0 0 0 0];

oriented        oriented;

internalField   nonuniform List<scalar> 
20856
(
1.34371717346485527e-09
-1.12536227385529684e-10
1.28139742425963463e-09
2.99899100020836153e-10
2.06985421865607017e-11
-1.10683889475793781e-09
9.19865617047262562e-10
1.05092120863936595e-11
1.21069925132270268e-10
-7.77746627849684553e-10
4.98134264684008828e-10
-7.72759945213126073e-11
1.67176031664885658e-10
-5.39320831012203473e-10
3.35969272832855405e-10
-4.62470680251829178e-10
2.98640439538682417e-10
-7.08647964995378501e-10
5.3936996780716926e-10
-1.03226677933045615e-09
-1.50093810715548412e-10
-1.75628222501676131e-09
1.88844601918623841e-09
-4.34903904003489045e-09
-1.09841563613315153e-09
-9.20802610459165528e-09
1.07687068217715736e-08
-6.46661832619892595e-09
-9.07242749399200099e-09
-3.99931788068364528e-08
3.76711379391831846e-08
3.85970582354985025e-09
-5.45972555586259126e-09
-1.02267882046393485e-07
3.95845057287774246e-08
2.71454722342685989e-09
3.56581588003189196e-08
-5.40531392888889667e-08
1.42642876780284867e-08
1.14062795684228995e-09
4.07107725829361342e-08
-2.9121966557339262e-08
5.72290419978055421e-09
-5.24422820746603795e-10
2.4161746223236592e-08
-1.17085076072375088e-08
2.21415083306715431e-09
3.37353122962728475e-09
1.8464805066089783e-08
-1.07917179399467461e-09
-3.00731758068098418e-10
1.87471091821727055e-07
2.92017315024348959e-07
1.14032173076948169e-07
-9.90065619051058472e-08
-2.86822477128811115e-06
4.04398623780343228e-05
1.22830039169185752e-05
-9.74723339210913304e-06
0.000575579980405296877
0.000122889955829698697
-0.000107178099375681657
1.12504944921134381e-10
1.23546103378901177e-10
-9.29721741202847653e-10
6.22506876136843937e-10
-3.08166904607027065e-11
1.1230753148470897e-10
-5.50263258037336427e-10
3.01574582346035597e-10
-8.04267244273698132e-11
1.64796948521771557e-10
-4.23605909196937728e-10
2.38933504246296623e-10
-3.17412031136406357e-10
3.09090932488961928e-10
-5.50134183580023785e-10
3.51069666918182122e-10
-1.23882561576002964e-09
7.90184064629622403e-10
-1.35634205723434392e-09
1.27146003694531055e-09
-2.36539077217055683e-09
-7.54683618415021568e-10
-5.69975184265965804e-09
5.79359292279640589e-09
-3.48065942052921576e-08
-1.65145922361362735e-08
-2.85174934462615001e-08
3.86408793610070629e-08
-6.53838143964517182e-08
-6.18127060967818171e-08
-1.63052691991099158e-07
1.19302948657335753e-07
-3.66836322315685322e-08
-3.87749534230841391e-08
-3.30047520412989466e-07
5.30008132172574684e-08
-1.27819337915574211e-08
8.470613796088631e-08
-1.10012510847752995e-07
2.39827502205340177e-08
-6.48340424739021857e-09
8.04006222478285509e-08
-5.74247637724904152e-08
7.93140969060749476e-09
-2.23072469802112442e-09
3.3377607856919132e-08
-1.53708807638113851e-08
1.22801553118803754e-09
6.37582518598895775e-10
1.86470492845156875e-08
1.98785823282180561e-10
-4.83029796102567394e-10
2.42355422095855103e-08
3.11549429875686537e-07
8.94170903862947967e-08
-1.14774421319499277e-07
-3.06275463333411193e-06
4.78993726904584607e-05
1.3593432656060479e-05
-1.16848791209065143e-05
0.000562686986055776052
0.000110461606490298397
-0.000104842086193269478
-2.05407688898666519e-11
1.09822359954338552e-10
-4.09565677263776336e-10
2.50913949327400763e-10
-5.2271703726073155e-11
1.06325222672718247e-10
-2.80077102824458178e-10
1.55651047631846477e-10
-1.09365141231377073e-10
1.93704649763159007e-10
-3.22632751845367257e-10
1.87876972528311299e-10
-5.35665938475963128e-10
5.2246256940312213e-10
-6.59232301077787714e-10
5.06918201199100339e-10
-2.22584924028281682e-09
1.71956499303363082e-09
-2.91216483712511564e-09
2.81193692916636809e-09
-2.84065498058874494e-09
-1.66974992395553178e-09
-1.50589577641660387e-08
1.2532768434960697e-08
-9.66313199694802478e-08
-6.21215269985069027e-08
-7.60233346387897772e-08
8.08160339415615606e-08
-1.8065187802704153e-07
-2.00722243112817109e-07
-3.63712588506546491e-07
1.33246565993719558e-07
-1.3139600374741174e-07
-1.28323440388206064e-07
-5.63487827876408451e-07
7.52183462515133213e-08
-5.13248468580764985e-08
1.39407503230507652e-07
-2.06462232137319242e-07
4.6932919953063365e-08
-1.6707572747573656e-08
1.44556617206225976e-07
-1.16023938842078275e-07
1.19542445800093203e-08
-3.30188590976199143e-09
4.16900865161881107e-08
-2.17157021123311454e-08
9.65897142351023307e-10
4.83348395452809499e-10
2.1890216212232005e-08
3.56655726888561543e-09
-1.29064250065594965e-09
5.0796461708550702e-08
4.26167229645184801e-07
1.36679356816270349e-07
-1.30046999923451356e-07
-3.882185851452703e-06
4.65596524509557022e-05
1.49420671047163829e-05
-1.27258843412386535e-05
0.000550182822005112712
0.000106904438490525009
-0.000101565547406773997
-2.16324400041456582e-11
7.28993333146724275e-11
-1.93312000081340308e-10
1.1194829476551432e-10
-2.88869950246643742e-11
9.11362700224270767e-11
-1.67467282255633149e-10
9.42992452142418826e-11
-1.69120497596758469e-10
2.24558883028005601e-10
-2.81861180027485847e-10
1.76537676748124113e-10
-6.59002961394484291e-10
9.52174766497102259e-10
-1.14023680823094547e-09
8.2472165636978137e-10
-1.64567418774540717e-09
3.3961717070317627e-09
-6.35251427221076448e-09
4.15711514199326464e-09
2.07637980076049844e-09
-1.81042656862177291e-09
-3.30497396411089553e-08
1.92129536032431897e-08
-1.13338873314049187e-07
-9.08362724322027312e-08
-1.31351542371288558e-07
1.06980421074675365e-07
-2.98026960081159798e-07
-3.50118942203097154e-07
-5.13397600882205362e-07
8.30996574153051604e-08
-2.65733598076005656e-07
-1.62352488426155928e-07
-6.03128751589298818e-07
9.9082669001918786e-08
-1.08850375805405734e-07
2.10685250640919779e-07
-3.63468109221098291e-07
7.66464904937963202e-08
-2.91788430268109278e-08
2.32159607820721126e-07
-1.93675471735633139e-07
1.84936839759724896e-08
-5.01499238761863301e-09
5.02434730970711178e-08
-2.87951812567471963e-08
1.17903258176721092e-09
6.80373181369848213e-10
3.26790296446022938e-08
6.27321707400276788e-09
-1.90039846801214538e-09
8.60633707595820761e-08
4.32551536638393279e-07
1.34491398047965938e-07
-1.30144095027996084e-07
-4.42550154814418992e-06
4.30865027234509219e-05
1.45062740075672018e-05
-1.25889781957294265e-05
0.000515242022267575869
0.000102422717499693939
-9.8957846327009052e-05
4.58182159709786727e-11
1.69434799778357764e-10
-2.64432814795825938e-10
3.07251409076633041e-10
1.34152183624400045e-11
8.55125037416761687e-11
-1.75378945083451587e-10
1.63346326929587998e-10
-4.06429493316539816e-12
5.69207496371330767e-11
-1.28405608412456109e-10
8.78136091201973572e-11
-1.29397713571534045e-11
5.22058143944668796e-11
-9.76941906969027706e-11
5.48973960119952256e-11
-3.43781054766200666e-11
9.0630902265944401e-11
-1.14846208666571895e-10
6.45365778968160102e-11
-1.76751861100183972e-10
3.25009348003965151e-10
-3.22024335378346691e-10
2.05599317634134267e-10
-5.27695694718761487e-10
1.65135488819312627e-09
-1.9305478540932663e-09
1.13142557484153983e-09
3.39340841102964498e-10
5.40360963024060443e-09
-1.04115091594223473e-08
4.95390892659641927e-09
9.99225612009334368e-10
-4.8958262815585212e-10
-4.57880594532892996e-08
2.4476436810573665e-08
-9.77408467388987215e-08
-7.99255695963455084e-08
-1.46260480323056204e-07
9.21459774171501138e-08
-3.05808067851225535e-07
-2.59583693880967895e-07
-5.63294425813517092e-07
9.07836969457311684e-08
-3.35690652923025878e-07
-9.20615669102365421e-08
-5.43489739926218786e-07
1.26563788143852075e-07
-1.53060534066443965e-07
2.4952989657563727e-07
-4.18676323029027915e-07
8.21938783181270549e-08
-3.49383336038778744e-08
2.76058357777643023e-07
-1.91506315387450445e-07
1.59947938758416219e-08
-6.49297777560765573e-09
5.00025899389313956e-08
-2.33251613974430728e-08
6.92429238408944233e-10
2.13917515041790173e-09
4.79518052847483486e-08
9.28994322695165456e-09
-1.35524247942037148e-08
1.76128634115473643e-07
6.82348298330322718e-07
1.41946796833679018e-07
-5.26236027161138668e-07
-4.13442877563718525e-06
3.53952486567201625e-05
1.05559533437892434e-05
-1.12698649892859713e-05
0.000462431060577097393
9.64846969030601554e-05
-9.31671144476897668e-05
1.68213757422457576e-11
6.95677366693861238e-11
-1.22631568377789743e-10
1.29883725738141308e-10
4.33651490580723206e-12
4.25427481340651806e-11
-7.6154545003219164e-11
6.3080202619486628e-11
-2.9877185370461865e-12
3.43310798553122257e-11
-6.03797746813559484e-11
3.60370369136544686e-11
-6.91298655969644019e-12
4.25181440055849752e-11
-5.48494354635487196e-11
2.9444017821076423e-11
-4.72005393713627911e-11
1.04734364896244903e-10
-9.85028265811210427e-11
5.43832133086467782e-11
-1.78049595180465012e-10
5.28885395605234283e-10
-4.73400542416577518e-10
2.63415094852881972e-10
-3.6594752420152059e-10
2.68137299275105434e-09
-2.85335883153457898e-09
1.38745143179330788e-09
7.88196517578534879e-10
8.22784597748014994e-09
-1.34774744888179834e-08
5.7080020774244374e-09
-7.24866477332025213e-09
1.40321016958280928e-09
-4.60971716907836951e-08
2.52750592919227571e-08
-7.05436252516096174e-08
-6.64161821471023085e-08
-1.42618217402374247e-07
7.54933128449647508e-08
-2.06819220913524317e-07
-1.67636525641777176e-07
-4.58059648619869412e-07
1.12636781700450393e-07
-2.56841559357753954e-07
-1.29188542349255354e-08
-3.45417943670513063e-07
1.32770850332391852e-07
-1.58101139276255212e-07
2.72698890044189282e-07
-2.97322787362058003e-07
6.88073327962359863e-08
-2.53339862284403746e-08
2.43755767855055624e-07
-1.21840348432592408e-07
3.03367658846677412e-09
-3.09832107198640364e-09
3.92858039714967943e-08
-7.28262562015205651e-09
-4.54582707630500264e-10
-7.33596230242013447e-08
1.24604526899469843e-07
3.50947398167933785e-08
-3.1758475566017235e-08
-1.17098685261110721e-06
2.29166659181466703e-06
4.85472649945527255e-07
-9.03579456445924023e-07
-4.23750062239417992e-06
4.28949996166727885e-05
1.11500929599099113e-05
-1.1388829332356502e-05
0.000420294058933863254
9.35069637150634487e-05
-7.99941165439526096e-05
4.5475374422910253e-11
-3.22257141419004932e-10
3.58943799559072382e-10
2.362171236548012e-10
1.64627137125422423e-11
-1.23289779688425618e-10
1.32663508377694357e-10
9.14043614389918785e-11
6.1713882602111115e-12
-5.1374601433419964e-11
5.0161391498126788e-11
4.48411577745021963e-11
1.3131106211542158e-12
-3.2697659494064847e-11
2.42480113560221763e-11
3.05404156564171617e-11
-2.07449015071372728e-12
-2.82355721501867997e-11
1.54084955114346046e-11
2.59774935929784494e-11
-8.75814837637440791e-12
-3.77591347710319787e-11
1.85992949847046963e-11
4.32132604992491045e-11
-6.12275165057965223e-11
-1.14407412529138922e-10
6.01674309903706814e-11
1.51264639636636352e-10
-2.3128517698856336e-10
-7.34578652172685568e-10
3.61454084720560426e-10
9.11031315895911124e-10
-6.07950613651145427e-10
-4.25788361828221696e-09
1.89421814028815962e-09
4.43949488506787109e-09
-8.70935219401791769e-10
-1.79363291499747189e-08
7.57949001652170712e-09
1.3108945882044241e-08
-2.00142342578576823e-08
-5.73166710425337469e-08
2.88836532048601107e-08
6.75302553118666208e-09
-8.70144846553530669e-08
-1.6926309929870695e-07
9.00231014450103919e-08
-6.46906487061273492e-08
-1.97325435599476416e-07
-4.39466319913112997e-07
1.2280602418015814e-07
-1.31071967752097557e-07
-2.25946696848476411e-07
-2.84311263820560638e-07
1.35329649590744976e-07
2.14640556815123271e-08
-1.29597858529171454e-07
-2.12485070004935081e-07
4.97853687640493117e-08
2.52218469067701937e-07
-1.29286156344289936e-08
-4.67738473724282902e-08
-5.33996214303543506e-09
1.65735023086625502e-07
9.55083252281550427e-10
1.4462368019162015e-09
-8.20051505713027372e-10
2.45381948282302419e-08
-4.576086987905785e-08
6.17143148128284533e-08
-3.5358784177600465e-08
1.53367566196105427e-07
-5.53758803853069277e-07
8.96380879620623048e-07
-8.98568842316408747e-07
3.09719555634759494e-06
-3.73073813869065942e-06
1.32216275771326777e-05
-1.15358355996137607e-05
3.99511179815038636e-05
9.00544235864128416e-05
-6.73466440304584953e-05
0.000385793151202080422
4.44369712110974475e-10
4.56415274558409273e-10
-1.57258872829610304e-09
-2.04800141992990663e-11
3.64290649900876715e-10
-1.19589266264396697e-09
-2.14571215384036228e-10
4.54590669331080509e-10
-8.46237760765966264e-10
-5.42210722293805271e-10
5.28739679451875072e-10
-1.13761127563931606e-09
-1.15101049156642495e-09
-5.05435018962280656e-11
-1.52340200424394541e-09
-4.13871386842584401e-09
-4.25938539565486149e-09
-4.28541601855938879e-09
-2.22710400628107332e-08
-6.01513027995402706e-09
-2.44085933890267012e-08
-3.13294473624416881e-08
6.67719389087821759e-09
-1.59509985840149589e-07
-2.71759445701411127e-08
1.26563083898006493e-07
-1.3460965784511615e-07
-3.08313852739111854e-08
2.40010896622274989e-07
-1.72421549914233033e-07
-2.05070565970949527e-08
2.50194253071866419e-07
-1.38417847721914974e-07
1.36671231611501858e-08
1.78915023547070458e-07
-1.78364051447543193e-08
7.65499484658268981e-08
3.79107663762683928e-07
1.28905736323648429e-07
-6.20276055131246101e-06
4.64388616177864415e-05
1.67638765467762354e-05
0.000612584062382838914
0.00012373896760430091
1.2537687058009481e-10
4.88357187329178301e-10
-1.1377048875839361e-09
-9.39397072939948722e-11
3.41258331780221846e-10
-8.6329770827613083e-10
-2.08219277602677069e-10
4.05176221934607282e-10
-6.9433951013156555e-10
-4.06606530910395556e-10
5.97459840110170669e-10
-1.0132197442145204e-09
-1.49865330615962836e-09
8.01752311272049099e-10
-1.3894981556677961e-09
-4.64118210354938583e-09
-1.17786363569081458e-09
-3.06326501066642448e-09
-1.75709950924967728e-08
-1.31046562193431953e-08
-1.26529571104395938e-08
-1.69064052072803581e-07
-2.59698688526552322e-08
-8.76869070943371461e-08
-1.71869412617602507e-07
-4.44302246418591741e-08
-4.30614355754755998e-07
-1.262390089140026e-07
3.2465528852710093e-07
-3.56343667551883193e-07
-9.11854303925304901e-08
4.42531791330803812e-07
-3.02305628061664245e-07
-3.66016603763479053e-08
3.46887836788293796e-07
-1.77581497769810922e-07
7.88295314384407817e-09
1.28964138348412537e-07
1.39440116122617459e-08
6.73801102437135611e-08
3.02486866598159332e-07
5.90851482791252191e-08
-6.33782249108805592e-06
5.20116290907965257e-05
1.68052593958181585e-05
0.000576412959405941841
0.000118847857969235353
-5.93935446046156537e-11
2.87433117466048982e-10
-5.85995067239770884e-10
-1.20847290848907081e-10
2.60805575741955458e-10
-4.60170953901738175e-10
-1.72788638760130316e-10
3.90841798216748393e-10
-5.79192755613764822e-10
-8.00924239360799209e-10
6.73870606944666234e-10
-8.4695286195013969e-10
-3.49485619979404577e-09
1.32439825294076745e-09
-1.9450631117127183e-09
-1.08634052803627285e-08
-3.98547799888422678e-09
-8.46095721517913321e-09
-6.25844069714186141e-08
-3.35056055933127368e-08
-4.22757850275042468e-08
-5.17238578804161402e-07
-1.33718978827504954e-07
-2.5713797431958272e-07
-4.7641998888126852e-07
-1.41982126891049452e-07
-9.48605291322650242e-07
-2.93741630379472314e-07
7.6084317856955524e-07
-9.91337273950682823e-07
-1.63146085484982916e-07
6.85436174975483025e-07
-5.03142320677061482e-07
-3.63129506356751647e-08
4.39054301136313054e-07
-2.49705854561731842e-07
4.26182179720942579e-09
1.12509907770094602e-07
7.76548392036044652e-12
-5.69923848108650339e-07
8.3492740818930884e-07
2.08117049264227378e-07
-6.45578246091181529e-06
5.14044071771785685e-05
1.78671152971248716e-05
0.000537275387851401205
0.000113129859414902735
-5.08422495832498014e-11
1.77625314504377367e-10
-3.09048401325121979e-10
-7.08949301952522769e-11
2.10559639196156602e-10
-2.95268184528734872e-10
-2.82377276957451752e-10
3.77539006229448248e-10
-4.45693292482252709e-10
-1.43847909072205905e-09
1.08799606688748276e-09
-1.00278004000808869e-09
-6.43241168472058013e-09
2.54565779490717201e-09
-4.31286694293282204e-09
-2.05497500836046617e-08
-7.45450945224542268e-09
-2.44486621406274349e-08
-1.62000031894521639e-07
-6.00510575901935998e-08
-1.04396072086211067e-07
-7.07494718240987762e-07
-3.23321965540453919e-07
-5.10035054463400487e-07
-1.00998573968512504e-06
-2.05081363966482356e-07
-1.27772771398944175e-06
-7.3271354646236691e-07
1.37626281455391556e-06
-1.70000261599047913e-06
-2.55021415735262729e-07
1.01945575489776636e-06
-9.33562694850241966e-07
-3.87846866817843619e-08
5.28339377454282293e-07
-3.49869262101685688e-07
-2.62835464059725881e-08
1.18120276585561986e-07
1.08896597849693716e-08
-5.84201931486009473e-07
1.13546993031988554e-06
4.02692658545207495e-07
-6.29901399332991891e-06
4.71609916046637529e-05
1.76539236818306229e-05
0.000497132949138024533
0.000108226835395206099
4.86401137773741358e-11
2.33007553485464528e-10
-2.24819281504512704e-10
1.62016726716900302e-11
1.56460213281795964e-10
-1.84545022631116713e-10
-1.17630923771172486e-11
1.39939533553789658e-10
-1.83823908986734575e-10
-3.20061549704181712e-11
1.25888122420637451e-10
-1.67494527625161953e-10
-6.46470522575757407e-11
1.86374217698385512e-10
-2.06036694587764052e-10
-4.02410962585945674e-10
4.80387958037371353e-10
-3.94568705845809065e-10
-2.21118064747808431e-09
1.95516364559658923e-09
-1.64220986433278948e-09
-8.83069600247995415e-09
4.2450094586547426e-09
-8.68037072812606784e-09
-2.90481068295896442e-08
-8.12217245553170856e-09
-4.20259997604870034e-08
-1.23519163288683458e-07
-6.57457791462003658e-08
-1.57141131922190276e-07
-7.05899229776669441e-07
-4.24553845050472044e-07
-7.83508873243513179e-07
-1.42970490532236925e-06
-2.03083028129763874e-07
-1.58097803610348597e-06
-1.12717008533977519e-06
1.03091562014223109e-06
-2.12207787314315796e-06
-3.08616268664686905e-07
1.12306684131752024e-06
-1.47026478704223199e-06
-3.69257289790880723e-08
4.95933241603206862e-07
-2.76926219905627326e-07
-4.03253322549571789e-09
8.51988411136977616e-08
2.12245769089241594e-08
2.46500655475634819e-07
7.65220697159112604e-07
2.808049294390408e-07
-5.96707640237835751e-06
3.87307876898723837e-05
1.63730322340421031e-05
0.0004561231413294056
0.000100492339922191699
2.11567725769749486e-11
1.23038323125402821e-10
-1.15988170377474484e-10
5.35629402960770731e-12
8.88087677438359819e-11
-9.53482916918993346e-11
-9.06528109560378763e-12
8.58562498732897933e-11
-9.92357410131683809e-11
-1.88111099995031022e-11
1.01825305879216189e-10
-1.01602260949744212e-10
-1.13201429259247204e-10
2.01130718043794272e-10
-1.62073299833183553e-10
-6.18396591012280952e-10
7.79982754252951887e-10
-5.10987378178788197e-10
-2.97441843563595911e-09
3.28976519351999408e-09
-2.72566199598210469e-09
-1.12935411060721089e-08
6.75054436374711961e-09
-1.28954280158331086e-08
-2.81831150881796059e-08
-8.1613296212232214e-09
-5.39952371604356313e-08
-6.47220108159791828e-08
-6.73822020466102699e-08
-1.86137231540661354e-07
-6.50571838796159174e-07
-3.70449727879756319e-07
-7.08561940832694674e-07
-1.41188182851045586e-06
-1.07649597590182708e-07
-1.64896991714773381e-06
-1.06241400487534308e-06
7.28095315786770061e-07
-1.66404200983856336e-06
-2.87227037631463972e-07
1.10611108006528744e-06
-1.15166923359585444e-06
-2.52314650186757881e-08
3.84400684081900377e-07
-1.6635701758117659e-07
-1.77015758865125785e-09
7.44964897096776159e-08
1.29306326932895011e-08
2.5578167293173678e-07
8.18059758889120297e-07
1.56717114496651895e-07
-5.96611087399473378e-06
3.84954839154698732e-05
1.17963178462971813e-05
0.000432483281258442263
9.47937477134186315e-05
6.10172308077087196e-11
-2.42133182793311712e-10
3.10315709859569224e-10
2.32276416387571557e-11
-1.01696587986562622e-10
1.51057405217638781e-10
9.01382756435396901e-12
-5.58787776316625454e-11
8.22183184479184954e-11
8.45655197430442095e-13
-4.75970836996973318e-11
6.161094182249735e-11
-6.90305474675420555e-12
-5.38160946825493832e-11
6.48439474105404296e-11
-2.31269008639924269e-11
-7.80881038036034534e-11
1.04676519075228168e-10
-1.71222276812552001e-10
-1.80004977200197815e-10
2.85560811365961896e-10
-9.44877935165712558e-10
-8.66046161177071993e-10
1.40315222258447374e-09
-4.54348250941629868e-09
-4.6396604071410674e-09
5.75253228645733459e-09
-1.63732044938282477e-08
-2.04412094294836963e-08
1.23919830773351278e-08
-3.50667052783125942e-08
-7.60459772188481019e-08
-7.38918632335854224e-09
-1.28202010533962352e-07
-2.26629146323003849e-07
-1.28508449849857024e-07
-7.27627854262873031e-07
-7.23983585052169325e-07
-4.82623760983567826e-07
-1.0429779768061913e-06
-1.36119209136980822e-06
-3.93439294556235672e-08
-7.34992297192747813e-07
-9.23003387310682153e-07
6.34206948089827215e-07
-2.27104628737896082e-07
-3.92763555407023799e-07
8.37255818107315519e-07
-2.96359743175418024e-08
-3.71158294487472108e-08
2.12905125238490719e-07
-1.07763485058479204e-07
5.9699268657929338e-08
1.46696187518355784e-07
-1.29650058310423364e-06
4.44456532788474665e-07
2.47364467467311588e-06
-5.99480905231327089e-06
1.3615468631870476e-05
4.66490566020137594e-05
9.0742217081732235e-05
0.000404225030514045527
3.61444804115269999e-10
1.38124497841641931e-09
-2.00185127974477382e-09
-2.01248195351705747e-10
1.08872105966175438e-09
-1.67967819884218762e-09
-5.03682308675486468e-10
1.19787085448899564e-09
-1.49324280772863815e-09
-6.96793111072573904e-10
1.16351341144130322e-09
-2.03597287120800641e-09
-7.85728384049844283e-10
5.8141092338353114e-10
-2.03094566969178077e-09
-1.45438138201068772e-09
-1.16337686042315814e-09
-3.17988500522485731e-09
-2.37799347052226025e-08
-2.62465154099121659e-09
-1.44105498461961756e-08
-7.28127131397087634e-08
4.18832184870337789e-10
-1.1579161983405004e-07
-1.61017081205589185e-07
6.00432571200661992e-07
-3.61081064876305502e-07
-3.04718839492348663e-07
1.11811975853029454e-06
-6.31868656977539814e-07
-3.09358193942049525e-07
1.73396082327694475e-06
-8.30944077147576506e-07
-9.10186166030846784e-08
1.87533567311491334e-06
-4.56121594429907704e-07
-6.68341412080295019e-07
2.18138522801065756e-06
6.79370882651347529e-07
-1.10124177496678937e-05
5.58383133439274411e-05
2.38829506557581641e-05
0.00058101491689063246
0.000117807695417318151
-1.81050417668855076e-11
1.1647605250144105e-09
-1.50854179021600638e-09
-2.83215255617553593e-10
9.51269517499558219e-10
-1.29004666450065137e-09
-5.01278943384700006e-10
1.0822923667452972e-09
-1.19444960662124416e-09
-7.11271509885650315e-10
1.31112960977980196e-09
-1.75031071491058375e-09
-1.03837806957229155e-09
1.19176434302290852e-09
-2.73802267859831678e-09
-2.96179687719992374e-09
-2.78722107244509629e-10
-3.03078099604153427e-09
-8.01371897440076141e-09
-4.83815452726572057e-09
-6.4119904309841476e-09
-1.05017450899747445e-07
-6.2883127909489966e-09
-3.68592610921574955e-08
-2.7968755898670526e-07
1.52157027315285908e-07
-2.59024114722835359e-07
-4.95472123569708167e-07
1.41400681281868452e-06
-7.75641290758196446e-07
-6.06675137858769719e-07
2.10638024345150951e-06
-1.0985513723522441e-06
-4.23297289635645021e-07
2.28070827875351944e-06
-1.19277456253828275e-06
-2.7510802787694038e-08
1.87902855593609006e-06
-3.33427995215448622e-07
7.31698977543510932e-09
1.5356701244111515e-06
6.47325457370092039e-07
-1.01341301718868583e-05
6.15345192078869274e-05
2.60505707691221712e-05
0.000544625854666363801
0.000111458051585542657
-1.62614432531917195e-10
6.73779285138964527e-10
-8.45611147208464259e-10
-2.99345303816429632e-10
6.54472147954733047e-10
-6.69020881596558178e-10
-4.07790263884115814e-10
8.53840885082561241e-10
-8.67851115149749842e-10
-6.10996709028141967e-10
9.94396365614553876e-10
-1.54235022931156047e-09
-2.38091746023105754e-09
8.99486686167656818e-10
-1.80857261900539615e-09
-8.00426568974996537e-09
-2.41199423832265052e-09
-3.36727615095252535e-09
-3.26179315013611267e-08
-1.4760244014873779e-08
-1.34845404269882733e-08
-2.05071198867245139e-07
-2.38489068711171236e-09
-1.12952449354948368e-07
-1.10890341730845096e-06
6.41097796648895254e-07
-6.03080002862499006e-07
-1.20694935323973788e-06
2.17984060759206152e-06
-1.44123809303679413e-06
-1.0284940402546854e-06
4.00342537455348902e-06
-2.34739489600131447e-06
-4.91266360017726291e-07
3.03583839330869782e-06
-1.61293419593204658e-06
-5.15807137973657294e-08
1.82285015211324827e-06
-3.69375039643206638e-07
-7.07850625784088413e-07
1.89377317036438241e-06
3.43871041813754491e-07
-9.46576791713468295e-06
6.73628856619924038e-05
2.54428653473474806e-05
0.00052231583691526699
0.00010563944671109453
-1.23531201791693479e-10
4.17839845670481698e-10
-4.51248017057747861e-10
-1.89211723828325383e-10
4.74707173597294969e-10
-4.59390990816488339e-10
-2.79317919978588287e-10
6.37947442578811479e-10
-7.61125651502165572e-10
-1.29512429390598124e-09
9.39730120279408105e-10
-9.90065984268456641e-10
-5.80063415953229469e-09
1.15269257223033324e-09
-1.8217263954697129e-09
-2.30874792768063411e-08
-7.2842255350260796e-09
-7.13406840974470363e-09
-9.1723267591055497e-08
-2.64372937569573505e-08
-4.77528594913282594e-08
-6.54993512429748994e-07
8.22846008003574119e-08
-2.80557916390982338e-07
-2.11261522366076168e-06
1.21681555932868197e-06
-1.22787605648916883e-06
-2.64623177514822476e-06
2.7157466705509566e-06
-2.73894639056371152e-06
-1.89452888665623242e-06
7.12687667730667791e-06
-4.26362403548623183e-06
-5.18429114891190396e-07
4.06537391317805966e-06
-2.55139350675406408e-06
-1.10682273299611908e-07
1.64335629961458295e-06
-2.36600653045878508e-07
-1.67161366475297526e-06
3.00918208767757453e-06
6.73343732950493156e-07
-9.69162059848836284e-06
6.83805622003086247e-05
2.61903000162362585e-05
0.000496234284341424991
0.000101710238300321899
6.59375190038924952e-11
4.08304596270580412e-10
-2.69381574660596566e-10
1.85305073197714536e-11
3.15067434436451338e-10
-2.54535991956993892e-10
-3.32502011359666447e-11
3.0336970772392968e-10
-2.69480491728355421e-10
-8.09193769898933126e-11
2.94919509301372033e-10
-2.66749369762311946e-10
-1.19285700205861714e-10
3.77411685252170975e-10
-3.51134815802779923e-10
-5.78177866487053673e-10
5.88417046669856892e-10
-5.29317188724720845e-10
-2.69308359315976463e-09
1.47556483119134567e-09
-1.00371946782216108e-09
-1.06008601191126683e-08
1.22976612035629447e-09
-3.30252518111943449e-09
-4.32852542218261118e-08
-1.20241511912476756e-08
-1.68269992449578441e-08
-1.59263074556224823e-07
-2.64357475620604595e-08
-9.62713434107909177e-08
-8.80891227251163109e-07
1.7539805223375192e-07
-4.84329426759658407e-07
-2.69805493335103454e-06
1.14358483579477132e-06
-2.03959883685854787e-06
-3.68241366202823574e-06
2.91608296183437048e-06
-3.59535749915235879e-06
-2.98903887846137661e-06
6.16144402606571137e-06
-4.50901426395852971e-06
-5.67483514389107016e-07
3.87770931694662842e-06
-3.19675092930644913e-06
-2.77463535242962742e-08
1.12414049946534509e-06
-7.3875904831497253e-09
-9.28221131339731637e-07
3.09114027802155628e-06
1.00915580822360654e-06
-9.51779772175187245e-06
5.95598688902000413e-05
2.36076808413416512e-05
0.00046553129742072318
9.9300711754716066e-05
3.1809298087423646e-11
2.43868694648202344e-10
-1.71235636048622719e-10
3.72484835120552455e-12
2.07894228697157724e-10
-1.5332572617084568e-10
-2.78904563425700959e-11
2.15736134817792915e-10
-1.60753928757102549e-10
-5.42327570842753563e-11
2.44232318149873133e-10
-1.80057160399779193e-10
-1.69037617625766818e-10
3.7692088457000054e-10
-2.98397923396821851e-10
-8.5698637863814086e-10
8.32107142741420078e-10
-4.89929383951181753e-10
-4.16529132453031879e-09
2.54657296678650964e-09
-1.43013413875531728e-09
-1.50606860291975276e-08
9.91278401871365049e-10
-6.25257749966521432e-09
-5.97292571235832957e-08
-1.68792158445452586e-08
-2.66344922921922672e-08
-2.02565948931986049e-07
-2.40947874405794759e-08
-1.28721014556538263e-07
-7.41329829795222374e-07
2.03210926452503266e-07
-5.51434543835013944e-07
-2.21445111754667904e-06
9.67776578488016579e-07
-1.84005090563647778e-06
-3.69184938367067947e-06
3.04311709260930033e-06
-3.40724790864993675e-06
-2.23424988103943968e-06
3.49905063158688906e-06
-3.76160605267069768e-06
-3.02174236205641837e-07
2.59057391638556099e-06
-2.06035442058443922e-06
-1.11452636920633571e-08
7.91237971022813491e-07
6.66976795196932594e-08
-6.32811141706555785e-08
2.19799847683102227e-06
9.96937213535495216e-07
-8.89263747545757385e-06
4.43405705765570837e-05
1.73079660896993403e-05
0.000419922612842902276
9.25114706239643962e-05
8.4615683756585914e-11
-1.79163858112950345e-10
4.52614915497120169e-10
3.64976547860606625e-11
-1.14336665939735541e-10
2.48006101910616456e-10
1.54987063506029139e-11
-1.0608107364625918e-10
1.7621766820852211e-10
-3.59056770267481978e-12
-9.472973762978708e-11
1.71195167781788892e-10
-2.44103544103940808e-11
-1.1212904333793677e-10
1.93114942169731945e-10
-5.32342452338077066e-11
-1.69392199310352639e-10
2.57810919433523685e-10
-3.133965451133395e-10
-3.14526888303937136e-10
4.73794731460964281e-10
-1.58337896518187531e-09
-7.57714270499810814e-10
1.50489024196742758e-09
-7.03183142808147706e-09
-2.85005763427214133e-09
4.60130131704238419e-09
-2.46658248019373507e-08
-1.21381191213772545e-08
1.7882807644418954e-09
-8.84259659287757089e-08
-4.49865562607001332e-08
-2.12363077041035234e-08
-2.51670416868843519e-07
-1.72814818914004723e-07
-3.26645288780753185e-08
-6.1752669412239136e-07
-6.1359687958105671e-07
1.69506876676685818e-07
-2.19490874259332762e-06
-1.74573976354698233e-06
7.93363263218496102e-07
-3.27981763252606626e-06
-3.0823785588972322e-06
3.12996810481374457e-06
-1.44768131721515253e-06
-2.57315573192169532e-06