/*--------------------------------*- C++ -*----------------------------------*\
| =========                 |                                                 |
| \\      /  F ield         | OpenFOAM: The Open Source CFD Toolbox           |
|  \\    /   O peration     | Version:  2206                                  |
|   \\  /    A nd           | Website:  www.openfoam.com                      |
|    \\/     M anipulation  |                                                 |
\*---------------------------------------------------------------------------*/
FoamFile
{
    version     2.0;
    format      ascii;
    arch        "LSB;label=32;scalar=64";
    class       volScalarField;
    location    "0.119999999999999996";
    object      p_rgh;
}
// * * * * * * * * * * * * * * * * * * * * * * * * * * * * * * * * * * * * * //

dimensions      [1 -1 -2 0 0 0 0];

internalField   nonuniform List<scalar> 
7340
(
0.553531306115703226
0.544959096682261057
0.532333724260174446
0.517704351698729526
0.502463429687016849
0.487512842032483851
0.473410683928384812
0.460486410898195031
0.448921781592287461
0.438805604943660998
0.43017067333201775
0.42301809564370163
0.417333119959790944
0.413095374429566953
0.410286199062340096
0.408892635061121168
0.5289863938000815
0.523776843605214926
0.514251057376699072
0.502321516380897393
0.489353757377783583
0.476277515112693117
0.463700567767463823
0.452006322875809718
0.441426491832597911
0.432092769480024674
0.424073026815852017
0.417396088046538882
0.412068516780060901
0.408085834475319875
0.40544061603989956
0.404127060214028055
0.505263164534617504
0.50295009702363247
0.496188014880655337
0.486737647913444926
0.475909841086444851
0.464634854560774246
0.453548907982668226
0.443074232823841563
0.433482273185186895
0.424940956766552025
0.417549030754785555
0.411360460606220446
0.406401592135261114
0.402682934468250209
0.400207756786976232
0.398977169966116207
0.482446018781655273
0.482609493569727266
0.4782903841570601
0.4710934062544328
0.462256745987332573
0.452691139696320466
0.443043847401693003
0.433762429436129693
0.42514829081118205
0.41739880542475688
0.41063906768779046
0.404945282882557489
0.400361758600888851
0.396912832903784707
0.394611719738128419
0.393466003119448293
0.409269113878521829
0.435669050197997842
0.452152999755022544
0.460581161254826676
0.462847749803309338
0.460671240509602231
0.455504028188672527
0.448501475757127011
0.440540609072141987
0.432265900317105656
0.424138590001343407
0.416481061405132802
0.409513564995238777
0.403382962781130006
0.398184629644474208
0.393978800777129989
0.390802277466704262
0.388677293617588959
0.387617174280741938
0.386065378604228071
0.412441695195880087
0.429798354606969468
0.439688421611822922
0.443725333137886313
0.443413557217729348
0.440060118163985436
0.434732305439353761
0.428263984239113826
0.421286151912595108
0.414263954045731353
0.407532773319466801
0.40132962785404569
0.395818705953831618
0.391111435660845053
0.387281819496045177
0.384377627910100939
0.382429114876318532
0.381454584963739796
0.283703968276476759
0.329129237284370157
0.36458713671721682
0.390764851162317961
0.408723884137909999
0.4197709842311102
0.425286106486591486
0.426586445750674836
0.424841569677417041
0.421030403984483603
0.415938097106233029
0.410174259944593889
0.404200073356190459
0.398357085152603319
0.392893587326689053
0.387986913981740456
0.383761473771271233
0.380302826593080123
0.37766814378426472
0.375894334038652522
0.374998997348081342
0.50677660648347278
0.499841583602694373
0.490394851251137465
0.479707630537934526
0.46865717722508432
0.457832834192039351
0.447622473927919262
0.438275928623613087
0.429949392061784785
0.422736892697056554
0.416692195337158511
0.411843743697061115
0.408204823894859625
0.405781252396360703
0.404575831954867071
0.48892245551351704
0.488824624479510972
0.484272429003984317
0.476936518895073269
0.468056885035946002
0.458522510239006809
0.448952138578970317
0.43976853806928512
0.4312554951478903
0.423599418414931261
0.416919738274720786
0.411290711853192326
0.40675684289100178
0.403343632033095756
0.401065692934359064
0.399931501389627242
0.468874251213885318
0.470988556644791279
0.468582172298400823
0.463201275564486648
0.456036666832518478
0.447968945687961806
0.439631089092340388
0.431470045731282781
0.423796147759242403
0.416821051094685757
0.410686379955173819
0.405484919548881106
0.401276067609427467
0.39809681877065628
0.395970110500500849
0.394909870148152875
0.449385783257884863
0.453403957359922116
0.452907146337585498
0.449316173953004827
0.443758277243252508
0.437090641027343685
0.429948017742577904
0.422791681321224078
0.415951253502016061
0.409658531615006261
0.404073889890565974
0.399306410981400961
0.39542895382925547
0.392489057456110957
0.390517345225663115
0.389532819489598725
0.371306351998243356
0.399727316441581826
0.418933677667560234
0.430532090576397131
0.436170759405668129
0.437357290445095082
0.43538842850965026
0.43131898947495606
0.425972540813593481
0.419975451811604117
0.413794617075593896
0.407772192349888929
0.402155135736957436
0.397119059598169788
0.392786946266033887
0.389243486645904857
0.386545641842075183
0.3847309441625551
0.383822827039726255
0.351659969648449977
0.379898421181882606
0.399678287299499724
0.412359438746031925
0.419361109483374961
0.422017672830754753
0.421504794977924646
0.418800791510749171
0.414688631066882307
0.409778241017902056
0.404534746830407188
0.399306783281635824
0.39435179185668956
0.389857173356114028
0.385957343117717178
0.382747082013559281
0.380291549223780945
0.378634354123253081
0.377802695133707844
0.250773035153682988
0.296719495349633211
0.333339404662652106
0.361245297448940794
0.381379052060084989
0.394899574472425852
0.403034168573448481
0.406962487505802661
0.407744276605883693
0.406281013485297493
0.403310784754578044
0.399421023844383216
0.395069081707381142
0.3906048326186497
0.386291944109351804
0.382326315929160554
0.378851340708832418
0.375970101530358036
0.373754669516811078
0.372253538928620342
0.371492134246499128
0.472386718063200983
0.470447884779956804
0.465578055302342531
0.458937258051417218
0.451374616964501596
0.443499667076863335
0.435745241363782398
0.428416147000831915
0.421724580844469177
0.415816539782273065
0.410791127161371727
0.406714323016301005
0.403628869465019191
0.401562176306581031
0.400531054422279154
0.452835725773936104
0.457224378487551153
0.457063004969634756
0.453804326722608897
0.44857389743903392
0.44221897889719497
0.435362295397324073
0.428456381743551662
0.421827010159796068
0.415706098099815957
0.41025691198250791
0.405592948255553309
0.401791806882984104
0.398905306589378061
0.396967524660413462
0.395999624389596072
0.43598371752271009
0.441997886175151566
0.443452606122171522
0.441699378856052371
0.437817680488428673
0.432638916344027957
0.426788615212295219
0.4207315490231337
0.414809169561938307
0.409269505278478218
0.404290730406024479
0.399999262878485695
0.396483403329233153
0.393803432333759418
0.391999675424438754
0.391097467578973013
0.419416026643315731
0.426837264390485915
0.429740444374954955
0.429375941754310209
0.426766543190925385
0.422717300676039021
0.417847920169749032
0.412628401079838336
0.407410635218418749
0.402455024186866628
0.397952079318058705
0.394039426696702333
0.390814925214541808
0.388346534398690768
0.386680293903002237
0.385845396986478406
0.337336530291572678
0.367348707473011071
0.388860024957059125
0.403222467399752205
0.411843573800152851
0.41603022343084467
0.416931841578397355
0.415507936414166668
0.412530171007310986
0.408605229884321852
0.404202054653942711
0.39967804932616946
0.395302298396387031
0.391274985941971909
0.387743076986520607
0.384812689406478836
0.382558552051123602
0.381031774728533168
0.380264840042465468
0.320822274184406009
0.35052523058872681
0.372352865859729265
0.387467238074536646
0.39709502820027115
0.402405495991461915
0.404448471322768011
0.404117136561961798
0.402144838355075307
0.399119426879379346
0.395503394795407748
0.391655192823078813
0.387849074604678379
0.384292244128049854
0.381139069505596728
0.378502543194085495
0.376463177719208619
0.375076464374868801
0.374377580970595258
0.221885598328833616
0.267907293975688965
0.305286241725600482
0.334554759943476221
0.356525055197091656
0.372202249486394188
0.382659823145706735
0.38894206529189751
0.392002233357212959
0.392666900423080001
0.391628037515958038
0.389450237750130046
0.386585119675510569
0.383388268263632648
0.38013586393651061
0.377039574652036302
0.374259237906909459
0.371913301759218606
0.370087022433318646
0.368839222309992276
0.368202345590202706
0.435965996784221987
0.442793287231872612
0.445025339455009994
0.44400782414303952
0.440800259388430704
0.436219192448007442
0.430882671520257166
0.42525472001668585
0.419681608803008699
0.414419510481717934
0.409656285001881837
0.405528190521995513
0.402132356107083533
0.399536225534028122
0.397785481758995529
0.396908945953119097
0.421795411587656488
0.429924639576524825
0.433451805155366632
0.433643589500684379
0.431523912656666286
0.427897316302270458
0.423383329533902453
0.4184543528892819
0.413467656655149729
0.408690942724930506
0.404322911718498379
0.400509333888274477
0.397355343202320188
0.394934850213934985
0.393298407972455466
0.392478080768801307
0.407584100477112465
0.416866241266245607
0.421580874024218899
0.422912736266734368
0.421841321515817713
0.419150227437809164
0.415453539563598317
0.411226842420478023
0.406834693594812946
0.40255373919648757
0.398591777812096038
0.395102955639390574
0.392199656495288707
0.389961730359755787
0.388444242937163231
0.387682360644020119
0.393452456780980786
0.40373613704887179
0.409523087140791331
0.411914287763878728
0.41183821922862146
0.410050777593785054
0.407154649099187693
0.403623705514549069
0.399826078051286837
0.396044643347506609
0.392494368727768883
0.389336441455914117
0.386689576881702912
0.384638924108986091
0.383243619369582567
0.38254166690049024
0.308217771132657248
0.33944566650832847
0.362830014867106865
0.379494868043682099
0.390633168218494031
0.397374282982143057
0.400736327138160153
0.401592797063149931
0.400666921946749244
0.398544988924701304
0.395694731931345911
0.392484316082753637
0.389200129687386431
0.386062283681944507
0.383237547626295083
0.380849938588535997
0.378989173118195855
0.377717920521504769
0.377076507226638824
0.294329669487104595
0.325150238151516613
0.348641799037694988
0.365786376354874987
0.377636809514641625
0.385213797531238744
0.38945411269537844
0.391173723115072092
0.391059752835634378
0.389678049357704559
0.387486358940710429
0.384849629559359863
0.382055138630203739
0.379326109310086867
0.376833385901188256
0.374705197939042001
0.373035037137148806
0.371888526330560742
0.37130776784997499
0.197446255428601863
0.243289890788764868
0.281137773520365675
0.311447977026299228
0.334911313117708387
0.352390673326178683
0.364818623094645855
0.37311626506285378
0.378140310569789972
0.380648903257111704
0.381291046199887462
0.380609020796243869
0.379047387275652403
0.376964992441996327
0.374647556631963807
0.372319450008868791
0.370154087909362939
0.368282795542806296
0.366801994487073735
0.365779317673313342
0.365253300166785311
0.408476307478165546
0.418654022317863694
0.424180789582367102
0.426236043684316057
0.425790912494408813
0.423627305819917421
0.420362871189482401
0.416480931023248124
0.412356839273363474
0.408279260642343211
0.404467954309139288
0.401088072180594502
0.398261313012834961
0.396074809163457497
0.394588925725251116
0.393842194600754925
0.396497976386794571
0.407572421586745115
0.41403257627456419
0.4169921003545356
0.417386496233143389
0.415979827758788612
0.41338348262973601
0.410081253600626527
0.406452358619314558
0.402790988027809826
0.399322916502694691
0.396219056556319171
0.393606278020890155
0.391576114831848843
0.390192387802644702
0.389496016924849031
0.384348165625929328
0.396219916620263346
0.403542227315554336
0.407360785510749557
0.408569682567775372
0.407909321423131077
0.405980106281656206
0.403262675196369769
0.400137473721736359
0.396902324285834218
0.393787689924419371
0.390969340856392455
0.388578692674574899
0.386711233101073859
0.385433931441917788
0.384789972160767879
0.37213808295132611
0.384702562861249264
0.392807393579163167
0.39742898390825171
0.399415877168537381
0.399480282323503855
0.39820752886300409
0.396071672020269161
0.393451726347036845
0.390647143100744332
0.387891596680012052
0.385364660791726821
0.383201556762292783
0.381501200853591849
0.380333334917980548
0.379743167550877336
0.284518701206732005
0.316640709226109707
0.341475489578659974
0.35996041365471404
0.373112873925174837
0.381915165130582324
0.387275836859702072
0.389995183138043822
0.390753796549559163
0.390118494073726285
0.388553620262327704
0.386434197423972225
0.38405928078382473
0.381664201545098225
0.379431193565652247
0.377498465573070208
0.375967765523777309
0.374911143113619172
0.374375345820972871
0.272714559117062438
0.304356816225427818
0.329138870669882733
0.347893104931909114
0.361527783462370633
0.370939723612626782
0.376970565128232848
0.380370291485165046
0.381785575471891792
0.381761928422790164
0.380751228814773246
0.37912212977503873
0.377171323124200542
0.375134237058433739
0.373194590466626896
0.371492716967044889
0.370132545818969871
0.369187929877259957
0.368706642019619057
0.177712686173662926
0.223272409353445611
0.261392912359067753
0.292470409945609466
0.317093458030843656
0.336005023823091831
0.350019086994265649
0.35995303225443287
0.366581683845321915
0.370604503747674563
0.372632970035089328
0.373189089253445405
0.37270996319319416
0.371555748247325679
0.370018927690500321
0.368333517837575675
0.366683551608145086
0.365210598906579975
0.364020067071690268
0.363186746306352892
0.362754171779486823
0.38773147737553687
0.400350937503773874
0.408303410197560668
0.412641658848346526
0.414265415017975369
0.413925023710842943
0.412232803175032025
0.409682521320915372
0.406668386814132699
0.403501439365900383
0.400424124677788706
0.397622545278720874
0.395236448149662356
0.393367578936505646
0.392087311470377065
0.391441610153673625
0.377334560253340556
0.39057013017353176
0.399202654845710714
0.404228468742464597
0.406512890162608498
0.406785461258763081
0.405647522512365188
0.403588229420796585
0.401000902266010706
0.398197971353580094
0.395424476281048376
0.392869569809925434
0.390676108715229009
0.388948737826253388
0.38776125785732013
0.387161400662242194
0.366687007774434193
0.380470478708780646
0.38973418249546804
0.395417080997643056
0.398346230831260806
0.399226268371251747
0.398644210129957988
0.397081968383227013
0.39493000970020542
0.392500701703478838
0.390040628115519539
0.387741253705283895
0.385748014556094254
0.384168063095068235
0.383077350789797322
0.3825252550346534
0.355890131823287992
0.370146783867572327
0.379984691431540678
0.386284742528304303
0.389832820351246223
0.391305521633566689
0.391272651349539702
0.390206380131001618
0.388492339584780355
0.386441301536158577
0.38430023049729739
0.382262053017132508
0.380474174183302261
0.379045806544997366
0.378054714351788168
0.37755168545614376
0.266573857743415021
0.299318003721726122
0.325204652460672983
0.345031576350268931
0.359684344544573487
0.37003352890768143
0.376903256634019967
0.381036333382029913
0.383078957898748518
0.383581284006494494
0.383003448603762953
0.381724334356593753
0.380051566721895717
0.378231271649869971
0.376456924033385099
0.374877229571634218
0.373602952498318985
0.37271324747694784
0.372259842238251148
0.256309158269945603
0.288523492550496585
0.314243514030243754
0.334188345783183849
0.349156507345750378
0.359950000685298588
0.367336669807913518
0.372014603021597556
0.374598034543533465
0.375615471743197427
0.375512984536355177
0.374660922210102221
0.373362254985723951
0.371861049949741285
0.370350394622433299
0.368979590075820763
0.367860394948241742
0.36707289723715536
0.366669273661949457
0.162834510710200414
0.208107907184387347
0.24637679821339703
0.277989552645469484
0.303457160874558929
0.323430825208276929
0.338633651914202249
0.349802950814356528
0.357649673013008762
0.362827036477659459
0.365916497575596023
0.367423324299029075
0.367777807242179622
0.367340158576708598
0.366407275366714469
0.365219985469584008
0.363970054552738453
0.362806647821860673
0.361841911332706101
0.361156056602054465
0.360796517874648781
0.373879436963040379
0.388083631080515523
0.397623741392554408
0.403467282819179374
0.406464011163840011
0.407340345286912153
0.406702392790111056
0.405048723093715313
0.402784488738550495
0.400234522439129048
0.397655658769019538
0.395247501981766725
0.393161571021304557
0.391509251491252985
0.390369257908443179
0.389792756155629139
0.36450147975064745
0.379147387342283482
0.38920823961001233
0.395601468726551275
0.399143792861632929
0.400539523568735956
0.400381238725028954
0.399159960917226497
0.397277097512783006
0.395056299141598732
0.392754814485766879
0.390573556814239997
0.388665831668907891
0.387144956659261907
0.386091401695482506
0.385557686452728032
0.35482954754054169
0.369866506583138521
0.380411809230470854
0.387332589988495457
0.391409704167346051
0.393322210640242087
0.393646586572330814
0.392864233606821545
0.391371231063724734
0.389488858676595051
0.387473903879394288
0.385527955357955143
0.383805633071932384
0.382421827437625594
0.381458503442508368
0.380969405801914962
0.344956792682534041
0.36032739374263717
0.371313426454543738
0.378731257310191027
0.383323680316041082
0.385742160374820842
0.386544863655499449
0.386201605700657924
0.385101555981417654
0.383562378923823777
0.381839438729296488
0.380134281994626178
0.378602312705346833
0.377359588969933157
0.37648924975128395
0.376046026621691176
0.254557764509541207
0.287692144752374424
0.314259559516590459
0.334965884164301897
0.350609648413794328
0.361986767486820848
0.369864102388370253
0.374944961948566247
0.377851459294004766
0.379121581479560266
0.379211757002542948
0.378502721281887333
0.377307268782397898
0.375878338117754007
0.374416668837327604
0.37307787110431273
0.371978710261678391
0.371203098353485805
0.370806291518064879
0.245302716291126932
0.277876346326235923
0.304204736779683738
0.324931919058410679
0.340783430983600588
0.352497400125320881
0.360791442767566917
0.366327982595403223
0.369698629646768362
0.37141966129741516
0.371932517383532668
0.37160807723628253
0.37075304548563931
0.369616933635890932
0.368398890185907546
0.36725412020192616
0.366299591978223593
0.365619563286017246
0.365269342819914966
0.1528926331346947
0.197943440964367529
0.236285754086497379
0.268235348540748542
0.29425180211041857
0.314925069704389493
0.330917294294157005
0.342911509887991017
0.351575051961331431
0.357529314433462253
0.361334852628135861
0.363485000140979508
0.364404859561511585
0.364454175295242877
0.363932414772624557
0.363084691689102901
0.362107776892998279
0.36115583431383641
0.360345487398881725
0.359760571393575201
0.359451321926885392
0.366961560678338794
0.381941526117559604
0.392263517158806307
0.398852281493827621
0.402531744032241845
0.404015431138168624
0.403905503336253247
0.402702197895692893
0.400815548130301569
0.398576853301625122
0.396249839148096084
0.394040653029107901
0.392106592266474485
0.390563848117473911
0.389494817143595351
0.388953309219526422
0.358080460274335877
0.373419157581152017
0.384185576919405469
0.391257444463410098
0.395426475699815705
0.397383678492263137
0.397716608040438235
0.396916637347216883
0.395388733641915735
0.39346179115506047
0.391398892783330898
0.389406652002074194
0.387643520768872984
0.38622715862207474
0.385241384109661689
0.384741141377679063
0.348886676518794403
0.364541315237441876
0.375721444619774692
0.383257922465427558
0.38790795716648746
0.390337310761117162
0.391116679967915271
0.390726737716070083
0.389565979978494015
0.38795983756721697
0.386169963498935176
0.384402854826316975
0.382817669568269903
0.381533184636009881
0.380634380226783919
0.380177196891586966
0.339468990053952702
0.355390011791863747
0.366946105593984717
0.374920955013679558
0.380035391187531657
0.382927917673792195
0.38415046006436171
0.384171270158798484
0.383380974078060544
0.382100430770491162
0.380589002333635185
0.379052418740736918
0.377650047640608111
0.376501389469497127
0.375692266298863653
0.375279376002584764
0.248547338872675772
0.281867990310321892
0.308767705147248439
0.329906902801854085
0.346041567504675018
0.357930148153651928
0.366310444877133323
0.371865714390592961
0.375205701539260916
0.376861956172926005
0.377288737318314582
0.376867455852277711
0.375913284302841766
0.374682399776963881
0.373379072469037787
0.372162339229639594
0.371151979126115139
0.370434263838724631
0.370066196758231714
0.239789695061362579
0.272535013998126019
0.299160947831367097
0.320274189566848833
0.33656432692958671
0.348737109377134535
0.357484749378409461
0.363451602703984855
0.367217679900955107
0.369292845411683668
0.370115965455464879
0.370057981406962666
0.369427297441319025
0.368476011236290979
0.367406219989739824
0.366376057374732889
0.3655050983837978
0.364879654988332414
0.364556581695046844
0.14792437980349224
0.192854431488260258
0.231224957742362847
0.263335961970949939
0.289621367320928857
0.310640667179524876
0.327025578579995813
0.339431596883639053
0.348504024213099006
0.354848102448544478
0.359013680445955052
0.361487873538084592
0.362692977143339201
0.362988336880763651
0.362674570998231527
0.361998827773852616
0.361160312524073379
0.360315661388183273
0.359583726556418848
0.359050120017416485
0.358766461767618283
0.788939264612239732
0.739156337670955788
0.690296043889768063
0.64496249495832636
0.604396474995320898
0.568977531548940263
0.538609734037719057
0.512963484716802864
0.491621361944772739
0.474161488934367548
0.460200270007543377
0.449417408288856457
0.441557571437560525
0.436424589892617953
0.433891650936725271
0.783769786620457598
0.745455990530703883
0.703535928556645374
0.661526200885781956
0.621812653946265836
0.585703158540652136
0.553747216253189678
0.526039738463863649
0.50242302674083017
0.482621347159126857
0.466323854713713459
0.453230167823787666
0.443079599661526879
0.435660606204265555
0.430806561861303505
0.428408566039252647
0.735733496987919233
0.704411982207394538
0.669287641998032923
0.63334880116994785
0.598750340122429892
0.566796035378846375
0.538138323862665469
0.513011356879836122
0.491394208790407516
0.473130138686791268
0.458004817051594848
0.445793710473906812
0.436290770744758916
0.429325337765801396
0.424759155005743738
0.422500624328419283
0.691132285686724468
0.665752036985731599
0.636503871956186074
0.605930416937688787
0.575958747595130105
0.547844978018647955
0.522296020829502883
0.499643498800160235
0.479972388954546636
0.463223688852661353
0.44926572652362734
0.437940522765187468
0.429092055660370342
0.422587157477778197
0.41831419814184212
0.416197894909807464
0.665248854327660788
0.669482583008028209
0.663801077741475565
0.649711593189986281
0.629391353302414025
0.605226685965673528
0.579384908722912262
0.553577077972226439
0.528987745719172175
0.506343846025058553
0.486041220592733858
0.468244420797893635
0.452972931026238423
0.440164514461250767
0.429718563300499179
0.421524092607899525
0.415481516006009799
0.411503859057319732
0.409530855366212865
0.61814789417897531
0.624204831893167
0.621491496263817167
0.611235668178382818
0.595230490783115851
0.575462994079914303
0.553784832266022375
0.531708296800426528
0.510333979889797007
0.490385191812649834
0.472295862713839942
0.456288151665145303
0.44244310498661904
0.430755802748527428
0.42117416375420319
0.413626698962745454
0.408043548880871798
0.404360371479458636
0.402530067245493117
0.536407576587590529
0.559528077988984074
0.575161935357285214
0.582729191081123865
0.582500008479480358
0.575482763892625981
0.563159507796497039
0.547194563250251398
0.529172942658146406
0.510427836764465348
0.491971359635308414
0.474507188267848268
0.458487348512305659
0.444173718815130736
0.431694463053729383
0.421089868508151499
0.412348612513366908
0.405434204196276848
0.400303280452390442
0.396911086431984694
0.39522199513008327
0.780321633426848682
0.731752798196808274
0.684066086058531142
0.639788199634240495
0.600135889022358593
0.565489697297137828
0.535762292726809863
0.510636541485357198
0.489709990754402302
0.472576335574494744
0.458866850974741614
0.448270559847602945
0.440540338273999188
0.435491969665384893
0.433006142734196242
0.774806057500924683
0.737558561963110648
0.696726819338682857
0.655762419922977902
0.616997810715592454
0.58171645026175145
0.550466161876490889
0.523346959709441228
0.500211362825905947
0.480796279077380206
0.46480369680090361
0.451946303076389333
0.441971996994398264
0.434675798027059246
0.429902044586769005
0.427548956873401553
0.727530505932610927
0.697189012701475486
0.663040657437720116
0.628033402155905751
0.594284901960143275
0.56307795789444659
0.535061904737459848
0.510473279441391758
0.489299185801486958
0.471393317653183208
0.456552154159687029
0.444561676627492353
0.435224337363937841
0.428374701096996213
0.423884347231116954
0.421668391855469893
0.683636433362918905
0.659153333290450894
0.630781597951277972
0.601039486214488217
0.571828165545338774
0.544387224762831967
0.519420014135797303
0.497258663334199658
0.47799427179011128
0.461576245549246367
0.447881873300636446
0.436761854112901748
0.428068286912648421
0.421672112658308562
0.417470403940780499
0.415394218351505584
0.655641816252958809
0.660890026540303932
0.656108254333608309
0.642866103248680654
0.623365993050013611
0.599990354232860401
0.574892065935613816
0.549764597081567108
0.525780408034159819
0.503662913058163686
0.48380740135238437
0.466382937831123945
0.451415644169763097
0.438850603155907737
0.428594686921198731
0.420544297924431987
0.414603296960500523
0.410692180515984606
0.40875661986365136
0.609285327391057563
0.616312876293400369
0.614452534299147146
0.604985292399697228
0.589729305410513605
0.570673822596639568
0.54966214087421017
0.528195202237990102
0.507365392105992852
0.487892504067143074
0.470209630420356517
0.454542104929404278
0.440976061196721503
0.429512283026428354
0.420105642833672355
0.412691329334913648
0.407202601665946573
0.403581132509735596
0.40178582034368987
0.52565188729569734
0.550204418300326736
0.566966288430021614
0.575465329997603914
0.57604720587295255
0.569767421744146851
0.558133844833829995
0.542816830666575267
0.525396710972702685
0.507200283854193801
0.489234829183080144
0.472200795166667908
0.456549969794293076
0.442546416950472477
0.430321945775824666
0.41992241390498658
0.4113426349371751
0.404551197142444863
0.399507338995038264
0.3961713346832334
0.394508978445790581
0.804751916063885742
0.762200164160084848
0.716454988690250927
0.671372337599430491
0.629365871395589527
0.591634612362974877
0.558579127385895546
0.530146748755548014
0.506060483511043491
0.485957554956999493
0.469467303127271862
0.456251357528048074
0.446022460983244995
0.438551446983092619
0.433668914932650362
0.431265101501059733
0.755940813736515671
0.721186382800629855
0.68279815232413843
0.644105365563580001
0.607348576811965968
0.573785945644655571
0.543974970054038276
0.518039483935283651
0.495862541913631161
0.477212876307964218
0.461822057988028833
0.449428483816765312
0.439800986801053007
0.432750267274725653
0.428133906602929548
0.425858763017891495
0.710525763757428597
0.682373433050481148
0.650356761220590496
0.617340448436031197
0.585369223144164397
0.555698747168616447
0.528982324811879789
0.505472556949711049
0.485179533539435714
0.467982266087947962
0.453701640879390966
0.442145303846562698
0.433133951462398747
0.426515799502553861
0.422174161670361647
0.420031932858218826
0.668273054851463266
0.64572760201720536
0.619229296112121963
0.591239636506091237
0.563603595757819265
0.537535842720786583
0.513740424061115197
0.492560099455667477
0.474103105799776103
0.458338876881323187
0.445164746812232004
0.434449621076671955
0.426061249461055225
0.419882469915623613
0.415820667690110835
0.413813884374756191
0.635847762925142668
0.643284985946215082
0.640414574324230212
0.628961903790014709
0.611187565683606437
0.589467364536369387
0.565916740279671537
0.54218765027139848
0.519430906241954204
0.498368895558979452
0.479403811206107255
0.46271740833805669
0.448351599973663584
0.436267876426911061
0.42638832862096715
0.418622616565019423
0.412884974305169072
0.409104907837399778
0.407234337926278167
0.591317283331745824
0.600350689977482199
0.600237093446535308
0.592387935386298525
0.578674347713358683
0.561087202686242459
0.541446155189159062
0.521222380602426094
0.50149023245475699
0.482967491684833827
0.46609167412755842
0.451097470161920755
0.43808344109203784
0.427063820437991848
0.418006019661537831
0.41085637909647732
0.405557163655750286
0.402057920216021658
0.400323097816340567
0.504164454405590989
0.531658058532889943
0.550667301012952026
0.560992289910619002
0.563165074705721302
0.558347366742095841
0.548094545326188287
0.534083129952577895
0.517879460717144635
0.500789410079232389
0.483806002805547253
0.467626913072858641
0.452706742822646779
0.439316413818560347
0.427597533578518985
0.41760678185267075
0.409349441283618332
0.402803417177946377
0.397935622300536695
0.394713192896200771
0.393106598666749352
0.774948698680679726
0.736358830561618216
0.694554911082768345
0.653148458863510806
0.614386533685249203
0.579412419528358758
0.548640917097823921
0.522066636190855471
0.499471041110810032
0.480549239070289735
0.464982204742999006
0.452474795536818408
0.442774155817888038
0.435677340825231629
0.431034180943107526
0.428747265871530947
0.729065825113418664
0.697797496523270833
0.662846610568718408
0.627370097597300558
0.59347988025742382
0.562381903688822349
0.534636486650963638
0.510399308262678875
0.48959751605423335
0.472046005991925144
0.457519100607250762
0.445791992750813104
0.436663436746714761
0.429967232620443951
0.425578127714474896
0.423414101754461869
0.686245338153877227
0.66117909403429509
0.632178131542621147
0.601986871091421683
0.572552240958817182
0.545084080859819742
0.520232262340807217
0.498270436036564457
0.479241661912470418
0.463061525208977698