/*--------------------------------*- C++ -*----------------------------------*\
| =========                 |                                                 |
| \\      /  F ield         | OpenFOAM: The Open Source CFD Toolbox           |
|  \\    /   O peration     | Version:  2206                                  |
|   \\  /    A nd           | Website:  www.openfoam.com                      |
|    \\/     M anipulation  |                                                 |
\*---------------------------------------------------------------------------*/
FoamFile
{
    version     2.0;
    format      ascii;
    arch        "LSB;label=32;scalar=64";
    class       volScalarField;
    location    "0.119999999999999996";
    object      rAU;
}
// * * * * * * * * * * * * * * * * * * * * * * * * * * * * * * * * * * * * * //

dimensions      [-1 3 1 0 0 0 0];

internalField   nonuniform List<scalar> 
7340
(
0.0195426140755350849
0.0202811379658922493
0.0210277889346829373
0.0217524764116463661
0.0224371503399098185
0.0230726840314553379
0.0236559319179243978
0.0241875014510934336
0.0246701187066735474
0.0251075092569488997
0.0255036784517402582
0.025862469361044093
0.0261873028792320682
0.0264810241684936068
0.0267457983974818646
0.0269718664793636986
0.0197058905180166784
0.020377733326000437
0.0210650065622908673
0.0217398792694672612
0.0223844957793795651
0.0229886377823626566
0.0235475920013189753
0.0240603970477687792
0.0245283865967193433
0.0249541308158366046
0.0253407118331208832
0.0256912469235112996
0.0260085888036721384
0.0262951366762330073
0.0265527013208339442
0.0267722753490280442
0.0198696092960236291
0.0204825978359831039
0.0211156163602519431
0.0217434503428342515
0.0223490149720664381
0.0229215808665006113
0.0234553813969553583
0.0239482479083656975
0.0244003516124341804
0.0248132421464312899
0.0251891509262973101
0.0255305051399422438
0.025839604213933668
0.0261184058044361365
0.026368368813128866
0.0265812004110866154
0.020031226468608037
0.0205921168462917283
0.0211756679616140614
0.0217595171355362237
0.0223275419966688857
0.0228689213097084468
0.0233772541475673508
0.0238494770026770921
0.0242848170743669052
0.024683945546076648
0.0250483290517179748
0.0253797544894878921
0.0256799958827921074
0.0259505837946158759
0.0261926315312389427
0.0263985148493345832
0.0190311134533548386
0.0193278100954140004
0.0197222106595238214
0.0201890123688518545
0.0207036010793494735
0.0212421825643297341
0.0217851322593494365
0.0223173983066386611
0.0228283807850253005
0.0233113516840603267
0.0237626092979605387
0.0241806340593862072
0.0245653578904545151
0.024917574766068467
0.0252384898925002536
0.0255293886633063787
0.0257913965925644882
0.0260252925458526949
0.0262240383076351134
0.0192761714598975176
0.0195513577849422727
0.0199135856923283311
0.0203418476666923399
0.0208151139812112022
0.0213128706481875048
0.0218178972271615146
0.022316329887489831
0.0227979816545014549
0.0232560115023546163
0.023686288645912934
0.024086719432390255
0.0244566265905151146
0.0247962241985274535
0.0251061994632470024
0.0253873922404378692
0.0256405516169956743
0.0258661544811504794
0.0260577027071888165
0.0192917351273265147
0.0193576697372637926
0.0195222507538659988
0.0197790017926105094
0.0201135375891532651
0.0205085270713333545
0.0209455972146317254
0.0214072076273398339
0.0218781612143801631
0.0223457680115219277
0.0228003436891899662
0.0232350724299520452
0.0236455461725224372
0.0240292330513967554
0.0243849571145355881
0.0247124375145750842
0.0250119065110982579
0.0252838044517544741
0.0255285318812407333
0.0257461686935515147
0.0259307450460672939
0.0209832977656228825
0.0216290894122651046
0.0222597185657977745
0.0228599804325441448
0.023421963992777909
0.0239424408812419012
0.0244212170348297036
0.0248598823631041577
0.0252609238614538226
0.0256271444784715446
0.0259612923823906647
0.026265830709598325
0.0265427903672483291
0.0267936622339169477
0.0270080634326899487
0.0204470923506033554
0.0210289206658505132
0.0216267985829908631
0.0222172924510480665
0.0227852811018682648
0.023321835755008985
0.0238224617783379666
0.0242857357057386716
0.0247121525881935297
0.0251032857250457972
0.0254612014314274902
0.0257880621480490319
0.0260858673035297348
0.0263562804206730512
0.0266004984384283667
0.0268089353656485209
0.0205535667537849083
0.0210863500362296272
0.0216396670148481171
0.0221916257191818109
0.0227276216247509696
0.0232382009539195446
0.0237179848339996585
0.0241645768953093129
0.0245775422168251073
0.0249576371319409178
0.025306243071808749
0.0256249622215686396
0.025915340576971372
0.0261786767365226707
0.0264158753569964863
0.0266181100970781168
0.0206629642473790502
0.0211518838065052513
0.0216639327434288986
0.0221793769404267302
0.022684207218244351
0.023168804855437989
0.0236272387279735166
0.0240563744743187286
0.0244550111261673635
0.0248231942364187386
0.0251616845679303071
0.0254715615933652703
0.0257539390352747137
0.0260097613253821892
0.0262396450776107848
0.0264354765732432717
0.0197922152728723412
0.020034245073332145
0.0203694056579640237
0.0207729966912823909
0.021222589965778263
0.0216966959816967293
0.0221778092536654217
0.0226526228283892329
0.0231116258201051299
0.0235485853287561442
0.0239598302299710887
0.0243435463376441875
0.0246991757079417992
0.0250269294265871266
0.0253274097002465226
0.0256013268825178754
0.0258492885515778925
0.026071631331078305
0.0262608699855233392
0.0199821606609556571
0.0202049344496499257
0.0205118075694887339
0.0208820766444444521
0.0212963228696953361
0.0217356898875098042
0.0221846615090483916
0.022630802855582572
0.0230648811293263922
0.0234805381915279207
0.0238737350710920768
0.0242421815393409658
0.0245848188196412694
0.0249013815463238024
0.0251920451653549898
0.0254571511890628148
0.0256969934241336566
0.0259116571459023538
0.0260942383288198902
0.0200452906342494276
0.0200631489963364884
0.0201788164031272178
0.0203853183941127107
0.0206679481879802653
0.0210095010670595002
0.0213926530502266642
0.0218011191806584403
0.0222210537457456295
0.0226409294752972223
0.0230518825585188346
0.0234475487800170947
0.0238236468078757875
0.0241775199200201241
0.0245076966613798179
0.0248135027620225122
0.0250947370776550271
0.0253514090768968241
0.0255835200763255728
0.0257908036861456101
0.025966925132048433
0.0216918704752720633
0.0222346335149901132
0.0227706138310481213
0.0232867148043018092
0.0237756537565637568
0.0242338239809477968
0.0246601251326530393
0.0250550041314441009
0.0254197511879477693
0.0257560257908347121
0.0260655413918502304
0.026349858530452918
0.0266102426715214453
0.0268475542417039512
0.0270507984036023885
0.0212007495426526499
0.02168801007528387
0.0221941700693727047
0.0226993013434609696
0.0231904763311824025
0.0236596023485056185
0.0241021301519543964
0.0245160500249834191
0.0249009861644958683
0.0252575324648052907
0.0255867789533729025
0.0258899796821143342
0.0261683263145885275
0.0264227884518584491
0.0266539877430218078
0.026851769510872741
0.0212499710789677103
0.0216988044370169629
0.0221700948000457289
0.0226450094514251757
0.0231109872537031379
0.023559495032818515
0.0239853106486054464
0.0243856875185074831
0.0247595401306096967
0.0251068329657858323
0.0254281223429975688
0.0257242203343049577
0.0259959564566462388
0.026244005694063214
0.0264687520633776693
0.0266608437898375253
0.0213067020910605864
0.0217205458714578963
0.022158961685799821
0.0226047907216708789
0.0230458308634106553
0.0234733998425097137
0.0238818498260044386
0.0242678653395910077
0.0246297691010504451
0.0249669729071336222
0.0252795460366658856
0.0255678860782346806
0.0258324760183894706
0.0260737040884723506
0.0262917193198112242
0.0264779244805091671
0.0205715803724329169
0.0207577120324960451
0.0210308571607031279
0.0213682552661123917
0.0217503218581092637
0.0221580837902450346
0.0225761859201343458
0.0229928817071860768
0.0233995568990999041
0.0237903268152208636
0.0241614567362498922
0.0245107911739393565
0.024837269075943115
0.0251405258505845858
0.0254205791015354177
0.0256775875841968142
0.0259116660018613616
0.0261227337265104199
0.0263028624586641099
0.0207029587096307366
0.0208729675236771495
0.0211226649755295176
0.0214327491766871658
0.0217859249431723336
0.0221652932824247528
0.0225571163745945866
0.02295028472851934
0.0233363854008957344
0.0237094308901977593
0.0240653966552494478
0.0244017535726040666
0.0247170460134504971
0.025010531684897145
0.0252818874124097273
0.0255309749726459409
0.0257576538285218086
0.025961638808715045
0.0261356218062993063
0.0208035753742647871
0.020778477244619814
0.0208475399974577258
0.0210040337100981522
0.0212336079358310392
0.0215200889475219703
0.0218476695477192104
0.0222016196412176056
0.022569539188289512
0.0229410148999025891
0.0233079143000223359
0.0236642414836221032
0.0240057798847774992
0.0243297109582059391
0.0246342519727585675
0.0249183347164620393
0.0251813339630719765
0.0254228432214203166
0.0256424821911504265
0.0258396558711841834
0.0260076626808928811
0.0219540586849741037
0.0223782346198857819
0.0228216028578130115
0.0232667641343830937
0.0237023916207671215
0.0241214819267405178
0.0245199733123647526
0.0248958910618347282
0.025248618613635955
0.025578350100864667
0.0258857030284804675
0.0261714488611818827
0.0264363266738151595
0.0266809067204382168
0.0269054803094024991
0.0270984729321946081
0.0219346750749526108
0.0223287483292718761
0.0227457253117876214
0.0231684484664964503
0.0235857414134222135
0.0239901009530531471
0.0243768082506063098
0.0247432448330034312
0.0250882031156559743
0.0254113665259657756
0.0257129268377552372
0.0259933058097094674
0.0262529567532680183
0.0264922172978733321
0.0267111888213596889
0.0268991767837100451
0.0219300483560070543
0.022295913179019286
0.0226869529066328034
0.0230871110821857274
0.0234854368979582652
0.0238741044791636291
0.0242479236946681574
0.0246037511077944575
0.0249398635452165
0.0252554785500268553
0.0255503861267190671
0.0258246699425417545
0.0260785018863914295
0.0263119873706755339
0.0265250385238378697
0.0267078036476003609
0.0219366884782991114
0.0222761625297222196
0.0226422495308028007
0.0230202551438822012
0.0233994421736921678
0.0237718649737017201
0.0241320399155684762
0.0244764154606332066
0.0248028344733519542
0.0251101024971568318
0.0253976408325143795
0.0256652147144890812
0.0259127259765728375
0.0261400534889200606
0.0263469215090757457
0.0265242715976780098
0.0213394787808362969
0.0214696040026412863
0.0216803528291614964
0.0219516672719477779
0.0222667534485835178
0.0226092051288261375
0.0229657414820936025
0.0233259262721090474
0.0236818729765196322
0.0240279386777095434
0.0243602690018916886
0.0246763539927589773
0.0249746448590493358
0.0252542330813422498
0.0255145910927374597
0.0257553675172725247
0.0259762245505975493
0.0261767017088475884
0.0263484467775911037
0.0214123706574601974
0.0215301079894975218
0.0217227151929979649
0.0219729274346660633
0.0222655628425288445
0.0225858214696919891
0.0229217013533812193
0.0232632509667606534
0.0236027451428000787
0.0239344761533826188
0.0242543812756658879
0.0245596746268049275
0.0248485109507069896
0.0251196939282302897
0.0253724330178543948
0.0256061447654602169
0.0258202888987387226
0.026014242334843788
0.0261803088764138471
0.0215451562346978265
0.0214805994354248277
0.0215050031175223928
0.0216124203507836593
0.0217893700020518853
0.022021228941969586
0.0222937953393698637
0.022594026212869156
0.0229109606415523331
0.0232351940827544845
0.0235592254994610242
0.0238773522480155882
0.0241853754534867016
0.0244802950780808187
0.0247600188919827602
0.0250231009668037824
0.0252685166603177497
0.0254954721465852838
0.0257032351154480483
0.0258909103538399119
0.0260514419789611151
0.022692575720900842
0.0230192354184424637
0.0233706494918884781
0.0237321373623647497
0.0240936089412025871
0.0244482260607413182
0.024791492825214697
0.0251206565988594949
0.0254341699192651427
0.0257312681770246361
0.026011655636774756
0.0262752768176574211
0.0265221495917889634
0.0267522356023592277
0.0269653323777309072
0.0271493368510112194
0.0226223152957025601
0.0229290052307920024
0.0232628107956223337
0.0236091296855448912
0.023958029368885022
0.0243024038291239433
0.0246373391495705793
0.024959656534467245
0.0252674050087340687
0.0255594611373397528
0.0258352228946490819
0.0260943775210154341
0.0263367279796262212
0.0265620576163754125
0.0267700158961842218
0.0269494154043998999
0.0225691264523521264
0.0228565371640198668
0.0231724274226948745
0.0235029415696096193
0.023838382442985296
0.0241714562837224353
0.0244969475802868167
0.0248113286250416405
0.0251122936278670023
0.0253983895981313192
0.0256687238247731778
0.0259227337679120637
0.0261600101102869159
0.0263801576637349294
0.026582678164585781
0.0267572627114300264
0.0225298774410002921
0.0227988025283343589
0.023096917173929192
0.0234114836456246408
0.0237329744602172397
0.024054026509395067
0.0243692460322412867
0.0246748345797833009
0.0249681862000664945
0.0252475551971920523
0.0255117809696100775
0.025760064908166392
0.0259917935696085053
0.0262063972202010304
0.026403230222085336
0.0265728116549643414
0.0220680095665877346
0.0221434992895781814
0.0222939075755948617
0.0225018311749045907
0.0227532841879328762
0.0230341600181346653
0.0233329241503773821
0.0236402474713642841
0.0239488313831817227
0.0242531966274343661
0.0245493451141858485
0.0248344268332076727
0.0251064439172012273
0.0253639956191518447
0.0256060658655592466
0.0258318495775644828
0.0260406096911684239
0.0262315546416947258
0.0263959433422765247
0.0220854504355467163
0.0221525571031963679
0.0222901090188580356
0.0224829134827572302
0.0227179626701159085
0.0229823577377353677
0.0232656140830499354
0.023558771124394761
0.0238546693309339003
0.0241478061395135855
0.0244340500563243329
0.0247103618130410686
0.0249745330028401692
0.02522495344363921
0.0254604118441486664
0.0256799276107251978
0.025882607226447054
0.0260675330447839616
0.0262266527999360996
0.0222488375688969509
0.022147043508534827
0.0221286869173514672
0.0221888736256004651
0.0223152297112735425
0.0224947786528275386
0.0227149736845153292
0.0229643512744309129
0.0232332360840534317
0.023513098942230224
0.0237969672609309839
0.0240793633889907904
0.024356073000755693
0.0246239107216917469
0.0248804922268075768
0.0251240248303404509
0.0253531226927309235
0.0255666455407674229
0.0257635496168315235
0.0259426782432351302
0.0260966521401028856
0.0233564881509094359
0.0235961152417698862
0.0238658973232650472
0.024153143921517798
0.0244487163342840576
0.0247459189694881933
0.0250398852186410996
0.0253272094960324268
0.0256055639500539882
0.0258733766730686321
0.0261295805114143825
0.0263734206617509855
0.0266043059892540623
0.0268216870055147903
0.0270249518611337704
0.027201541277976176
0.0232421890995698627
0.0234703308133707329
0.0237298145975806118
0.0240079734624899094
0.0242958839621944256
0.0245867289342251889
0.0248753988372951915
0.0251582288295281419
0.0254326331508616804
0.0256968016240399569
0.0259494575973843733
0.0261896650551469608
0.0264166769086708296
0.0266298107533077706
0.0268283413178123792
0.0270006556755539792
0.0231465278880255768
0.0233630045550267777
0.0236113455144973151
0.0238794559611856909
0.024158649546074891
0.0244420149007394116
0.024724273223046371
0.0250015486915619277
0.0252710280276002806
0.0255306812415610138
0.0257790317100966733
0.0260149665945210266
0.0262375841013183474
0.0264460681024659416
0.0266395799439202545
0.0268074156545143466
0.0230667379879698521
0.0232715660339155826
0.0235083213415254698
0.023765854902263038
0.0240356076459912853
0.0243106465950452856
0.0245856099612536787
0.0248564617535502567
0.0251201968079618233
0.025374589812999334
0.0256179792590845584
0.0258490846058699458
0.0260668549575360786
0.0262703430580669001
0.026458596379194229
0.026621768596528525
0.0227329494423736816
0.0227566167725431236
0.0228507677374517847
0.0230003460142879125
0.0231937950912236707
0.0234189202544501616
0.0236656125365648819
0.0239254340529637746
0.0241915314061580053
0.0244585217543009069
0.0247222551918431441
0.0249795723398982296
0.025228080256897923
0.0254659517718938549
0.0256917517317247143
0.0259042891361208616
0.0261024906861036139
0.0262852901286785186
0.0264436097215957518
0.0226999685061547336
0.0227192486902959151
0.0228054995881628135
0.0229453905336293243
0.0231278437692365238
0.0233415508885585349
0.023577281658320199
0.0238268801703803434
0.0240836226161582241
0.0243421421337895044
0.0245982196810391011
0.024848579594945016
0.0250906904185850266
0.0253225812006024828
0.0255426784055094065
0.0257496630230901087
0.0259423439358900387
0.0261195593183443722
0.026272948408577107
0.0228630761362373265
0.0227571169778675655
0.0226980928102991468
0.0227138664893199414
0.0227931414178020111
0.0229244569541749016
0.0230967562075049017
0.0232999166199765011
0.0235253383717381019
0.0237652083318613989
0.0240129665079405821
0.024263292479111926
0.0245119314235984487
0.0247555197797368585
0.0249914103424336877
0.025217506264591065
0.0254321096504819891
0.0256337845307545026
0.0258212247774863568
0.0259930574941767065
0.0261416237793537301
0.0239296277917929144
0.0240944563498224594
0.0242944341090810915
0.024518314329931002
0.0247576367797846496
0.0250057810717230836
0.0252575614162090026
0.0255090361206216851
0.0257572425567329163
0.0259999532724389665
0.0262354754677107116
0.0264624887945350967
0.0266799125558031917
0.026886790983435771
0.027082192751971778
0.0272531901046866969
0.0237776800196405555
0.0239379618956158009
0.0241336760289380878
0.0243535237429226906
0.0245893191915933576
0.0248344248829799157
0.0250835388716169477
0.0253325852497501593
0.0255784545987399574
0.0258187752194924784
0.0260517217574998891
0.0262758539449472091
0.0264899829821970273
0.0266930569282610025
0.0268840585159711397
0.0270510313637832046
0.0236455708587460268
0.0238005419656752044
0.0239907431934118683
0.0242053537220548697
0.0244364327588713175
0.0246773161417204352
0.0249226321191602547
0.0251681990770767014
0.025410778406196665
0.0256478646483257119
0.0258775046043092337
0.0260981397693016912
0.0263084730937901412
0.026507354966958812
0.0266936819247742436
0.0268564310978989008
0.0235308844358524671
0.0236799735968452434
0.0238637814951829265
0.0240723343878471892
0.0242977880497914182
0.0245334944997594
0.0247740736931825155
0.0250152698748104287
0.025253737349198363
0.0254868522849619472
0.0257125427748642436
0.0259291374856729789
0.0261352345193302735
0.0263295878953923347
0.0265110066844673996
0.0266693494340587596
0.0233136567159600398
0.0232896434184095349
0.0233332958428619994
0.0234313955506898867
0.0235742888515054969
0.023751211591262901
0.0239531230537165969
0.024172241368375362
0.0244020137564928512
0.0246370920738979253
0.0248731747995933963
0.025106833365664237
0.0253353436824201132
0.0255565277784408629
0.0257686101642870778
0.025970090219045637
0.0261596288932048823
0.0263359469020916746
0.026489694343550009
0.0232364710951549897
0.0232119012117762667
0.0232521056747144461
0.023345256830849398
0.0234817934342029175
0.0236516125927314358
0.0238464316570808597
0.0240586846477732277
0.0242819460145261949
0.0245109179527762504
0.024741282128354157
0.0249695524364645823
0.0251929241287684874
0.0254091282043605662
0.0256162964797392728
0.0258128384753587917
0.0259973281801575869
0.0261684149037263308
0.026317488375289827
0.023389570820202734
0.0232920306057675351
0.0231949412590188586
0.0231701502482755013
0.0232072002950732999
0.0232958841031468585
0.0234263271103897358
0.0235894325917072913
0.023777413702126677
0.0239829817309225694
0.0241998622524246566
0.0244228244622144777
0.0246475534095207151
0.0248705224800611149
0.0250888598351870946
0.0253002162290780833
0.0255026395531400864
0.0256944567201251757
0.0258741548989706166
0.026040194720789573
0.0261846921838441091
0.0243742526187744439
0.024477464939156944
0.0246203478951024027
0.0247925707922514588
0.0249860745239678175
0.0251942217463169346
0.025411543263482099
0.0256336684351691699
0.0258571411928997692
0.026079232260627444
0.0262977753489185249
0.0265110267549033413
0.0267175446507602679
0.0269160811029621298
0.0271054842913777648
0.0272725795941117823
0.0241907589238576637
0.0242950759433650035
0.0244386505493058466
0.0246110157822150358
0.0248044415451034589
0.0250123514403171945
0.0252292527276822727
0.0254507338556748432
0.0256732765419552811
0.0258940800393618921
0.0261109056084751941
0.0263219377894056694
0.0265256643811912704
0.026720769979847684
0.0269060375115818678
0.0270692814635577761
0.0240283510608079037
0.0241325403124157921
0.0242752039077180522
0.0244462776220852919
0.0246382912183709842
0.0248446936923836584
0.0250599966747961159
0.0252797618751069639
0.0255004163282185684
0.0257190913677439285
0.025933475986640888
0.0261416818608051597
0.0263421245426963997
0.026533418581716775
0.0267142809925650891
0.0268734769099224571
0.0238848273010769212
0.0239878533919847849
0.0241283552905556739
0.0242970585341298374
0.0244865755994916438
0.0246904016487618609
0.0249030970237830197
0.0251202142402854114
0.0253381374004383493
0.0255539379143954609
0.0257652365824318531
0.0259700743090001823
0.026166795631405098
0.0263539449147424318
0.0265301710531439215
0.0266851367293863516
0.0237690277109822677
0.0237028264756529473
0.0237032133234475438
0.0237580922492260753
0.0238591898760485456
0.0239966703915603652
0.024162154618436564
0.0243482706854838173
0.0245486280936930423
0.0247578621349660993
0.0249715314481039515
0.02518599130374162
0.0253982638385928244
0.0256059089371515405
0.0258069016301880304
0.0259995189966250144
0.0261822368567724388
0.0263536340494827347
0.026504180152667093
0.0236548985110342225
0.0235916487270335408
0.0235924474695533709
0.0236463672570942397
0.0237449433121381809
0.0238788348661579941
0.0240403714694554585
0.0242223522682096445
0.0244185184214721768
0.0246235843661449273
0.0248331323180735232
0.0250435047169121315
0.0252516867923353282
0.0254551871785414358
0.0256519226071892578
0.0258401088476334639
0.0260181574588380961
0.0261845930932031803
0.0263306397895548307
0.0238189753506492519
0.0237119352654542662
0.0235801883333927494
0.0235197577212370931
0.0235207410497129989
0.0235736736326845261
0.0236695136751868991
0.023799815645807295
0.0239573300567301126
0.0241350941465554823
0.0243269953864529882
0.0245278332825342102
0.0247332241688685596
0.0249395062277484626
0.0251436344132548242
0.025343071484907137
0.0255356805567488812
0.0257196203555872423
0.0258932361820184559
0.0260548797982486716
0.0261965165784565149
0.0177818976439878366
0.0188405375091519819
0.0199042063572619533
0.0209169598439947584
0.0218469733288286887
0.0226827068240873474
0.0234248679031528774
0.0240802126589124456
0.0246582144468668329
0.0251690702604054628
0.0256228108396304895
0.0260281352188871627
0.0263922490088039641
0.0267213664565962017
0.0270102386175301232
0.0171551609300476769
0.0180665924450682108
0.0190360194966514573
0.020012241841703516
0.0209498518310609269
0.021820467279625784
0.0226112739966168423
0.0233200938531602855
0.0239508847610316947
0.0245106325256381832
0.02500747754297903
0.0254497034851551875
0.0258449942096283386
0.0261996486110877037
0.0265191198287222374
0.0267985039366110782
0.0175007566657574831
0.0183425392084044028
0.0192330466691621321
0.0201310198057254933
0.0209994386338335642
0.0218132645101751857
0.0225594882127011787
0.0232340659954413109
0.0238387788317815201
0.0243785763997480739
0.024859819362832318
0.0252892006568121927
0.0256733193577389496
0.026017660639902452
0.0263269259452931295
0.0265965123474063772
0.0178296442971107236
0.0186086854034032446
0.0194286697754807135
0.0202563115028541393
0.0210611196013449423
0.021821162417771451
0.02252385305456725
0.0231640408232909462
0.0237418364774488778
0.0242605424396665666
0.0247249849391273924
0.0251404954810030695
0.0255125556135433196
0.0258459068632617868
0.0261445392704601487
0.0264041042090813784
0.0163516001713134573
0.016880344054327312
0.0174771808948385246
0.0181423530448092223
0.0188643450790595725
0.0196208675527047259
0.0203849707590337825
0.02113129769505619
0.0218407126101986156
0.0225013881111018194
0.0231075760622448459
0.0236581526090698414
0.0241550811291194566
0.0246019057297685965
0.0250027887452555254
0.0253621269412000437
0.0256839730126551848
0.0259716751286612618
0.0262210594000572839
0.0167475310515667296
0.017253272984756797
0.0178173726090673674
0.01843932815940812
0.019109092406157966
0.0198081607584528405
0.0205145644177695576
0.0212070966262974392
0.021869064068700636
0.0224895351286136247
0.0230625022639131677
0.0235859683016034875
0.0240608138030294037
0.0244895363610738576
0.0248752778696748819
0.02522143647290798
0.0255314127466590712
0.0258080278563659476
0.026047227043573911
0.0162842965549769569
0.0166986871755745621
0.0171391421553677738
0.0176220935695064265
0.0181550967221736637
0.0187374981683598972
0.0193603698359574583
0.0200084076673128913
0.0206634956022063443
0.0213078149047660446
0.0219267495233564681
0.0225102172130555028
0.0230521923734011806
0.0235500724302915021
0.0240038634654691774
0.0244152130260265714
0.0247863733925083665
0.0251198707382030151
0.0254184665367287489
0.0256844947676782426
0.02591417510803996
0.0176059843829155308
0.0186897753763920101
0.0197754305552743162
0.0208073734983258915
0.0217541999884286984
0.0226043681608461521
0.0233585544405174698
0.0240238843401364421
0.024610241135694183
0.0251280663829292032
0.0255871433552150099
0.0259961938700956664
0.0263625627295019822
0.0266924907539164945
0.0269792501236153261
0.016973514147464043
0.0179070474424410514
0.0188980931072860979
0.0198937715892154796
0.0208484728132549181
0.021734036175444265
0.0225377912837762227
0.0232576178015515764
0.0238976355421737577
0.024465107250014384
0.024968383473422031
0.0254156631909046998
0.0258144280592825653
0.0261711397655715813
0.0264913163031302509
0.0267687330678906439
0.0173357165560698613
0.018196608156830215
0.0191060195477288815
0.0200213871651781679
0.0209052006388122172
0.0217325065130099249
0.0224904606531145246
0.0231751518583743175
0.0237884308220286875
0.0243353992051426639
0.0248225741438209864
0.0252567003104497492
0.0256440767854701733
0.0259903027255471153
0.0263001812597612426
0.026567953136653201
0.0176784746625312066
0.018474412777427722
0.0193111878735756567
0.0201544892595956274
0.0209732710742152363
0.0217455882034515748
0.0224589940287708463
0.023108491216811456
0.0236942562634585505
0.0242196337171198296
0.0246895625002453503
0.0251094790087964433
0.0254845999147789333
0.0258196830445254454
0.0261188425702008897
0.0263767438406410024
0.0161633885061618285
0.0167101153386259756
0.0173227685175248204
0.0180030569809681747
0.0187402891757680566
0.0195119289195350085
0.0202902278580046336
0.021049322170113214
0.0217699980795608358
0.0224405199637161198
0.0230552939436697822
0.0236132828143512698
0.0241164239681615072
0.0245683167447288998
0.0249732419202799774
0.0253354509324044512
0.025658894220212447
0.0259470326945651225
0.0261948837354817644
0.0165737209309588414
0.0170956991065414378
0.0176744257713704334
0.0183103819432145175
0.0189941367787825229
0.0197069918502073144
0.0204263724301579908
0.0211306379261827215
0.0218029937309758524
0.0224325390079000569
0.0230134280644826161
0.0235437672121202139
0.0240243888500835806
0.0244577344672963805
0.0248471072324009598
0.0251959197730747438
0.0255073742061765439
0.0257843183175097204
0.0260221280880352721
0.0160840136686163336
0.0165191788809524454
0.0169769527897038267
0.0174749818466020321
0.0180218548391352512
0.0186174951066878959
0.0192534159088350934
0.0199141773357381022
0.0205812496899050075
0.0212364239219682352
0.0218649900772623085
0.022456881405593463
0.0230062171944612169
0.0235104991078287986
0.0239696674684186026
0.0243852203357715659
0.0247596275938404414
0.0250955595810546522
0.0253955354673154506
0.0256617086718608813
0.0258896314283851361
0.0166619439695776389
0.0176682752156873298
0.0187380300933870057
0.0198078505286925013
0.0208254926188521025
0.0217607994221912307
0.0226023118591962141
0.0233503139292858888
0.0240113699800248541
0.024594780889336209
0.0251104604627570248
0.0255677854787871132
0.0259750437760152587
0.0263392521228335633
0.0266661947455420593
0.0269489451757068191
0.0170330434019499398
0.0179592557724625006
0.018939190930707988
0.0199220846948552112
0.0208649447958672643
0.0217406803121293797
0.0225367998376623732
0.0232509806123674112
0.0238869584628693607
0.0244515352966368435
0.0249526211212442693
0.0253980614596592581
0.0257949942746557685
0.0261495569695951932
0.0264668417550181674
0.0267404443410103991
0.0173859747924862973
0.0182407708272760531
0.0191410771200465173
0.0200459912904742757
0.0209199568928791872
0.0217388945061188048
0.0224901603078461187
0.0231697535711070345
0.0237792695019671957
0.0243234493711612064
0.0248084449906988656
0.0252406909038708216
0.0256262293770577569
0.0259703401033921262
0.0262774319617607305
0.026541587411911479
0.0177216083210739693
0.0185120662766030848
0.0193411719529109002
0.0201758059598706463
0.0209863499147490591
0.0217515419917352001
0.0224591159732209084
0.0231040494646820929
0.0236863464223895752
0.02420907761361802
0.0246768815561243839
0.0250949223371620608
0.0254682202182745197
0.0258012386678123373
0.0260977236721589879
0.0263522048949926257
0.0162140629772389647
0.0167551553143704922
0.0173640751044394602
0.0180405142342085108
0.0187726142217354286
0.0195376485841160172
0.0203086568738898125
0.0210608057089325049
0.0217754065505313434
0.0224408575840984205
0.0230515709016988202
0.0236063902010310821
0.0241070504344324428
0.0245569077175541127
0.0249600030208117045
0.025320421285859717
0.0256418635255963069
0.0259274435789028437
0.0261720648731028072
0.0166220831118790609
0.0171372973829608394
0.0177114441081617016
0.0183432042146136551
0.0190220828089423949
0.0197291513466110562
0.0204423167579521163
0.0211406756206346212
0.0218078362794847207
0.0224329890235811444
0.0230102925949812777
0.023537764437901388
0.0240160850785969236
0.0244475396115752114
0.0248351888677726361
0.0251822771413005714
0.0254918054173294724
0.0257663110920043209
0.0260010382886661957