/*--------------------------------*- C++ -*----------------------------------*\
| =========                 |                                                 |
| \\      /  F ield         | OpenFOAM: The Open Source CFD Toolbox           |
|  \\    /   O peration     | Version:  2206                                  |
|   \\  /    A nd           | Website:  www.openfoam.com                      |
|    \\/     M anipulation  |                                                 |
\*---------------------------------------------------------------------------*/
FoamFile
{
    version     2.0;
    format      ascii;
    arch        "LSB;label=32;scalar=64";
    class       surfaceVectorField;
    location    "0.0299999999999999989";
    object      Uf;
}
// * * * * * * * * * * * * * * * * * * * * * * * * * * * * * * * * * * * * * //

dimensions      [0 1 -1 0 0 0 0];

internalField   nonuniform List<vector> 
20789
(
(0.024170202722698677 -0.00544415178103782246 -0.000199167241592911162)
(0.0120000819624036179 -0.0107589698414708671 -0.000200545179130359578)
(0.0120165093934003538 -0.00533319347034313419 -0.000171793687837448186)
(0.0120138652119687085 -0.00533280013615811555 -0.000205108729966328718)
(0.0492670501087354024 -0.00566418768279995828 -0.000213827695038065551)
(0.0364680781775216373 -0.0111729299953109412 -0.0002221439379674819)
(0.0365424427450717834 -0.00555532826238664887 -0.000191437120020639264)
(0.0365316645548283206 -0.00555471073885273163 -0.000228813926676675519)
(0.0753334048767791142 -0.00597400281603126335 -0.000206715280919839069)
(0.0619189360546650372 -0.0116082522351522947 -0.000229165137102587969)
(0.0621285445112925161 -0.00577387492100479415 -0.00019480479207337656)
(0.0620983641965461783 -0.00577271014117719701 -0.000241198244853253589)
(0.103197635137534716 -0.00646835405947812896 -0.00015214532279502125)
(0.088758578772050109 -0.0124140856930152858 -0.00020664201724968011)
(0.0891751798628360598 -0.00617621028011221696 -0.000166754677035915554)
(0.0891030201378637116 -0.00617409217640433466 -0.000226878982261914539)
(0.133700254915476269 -0.00719256712455946384 -6.33263884550813033e-07)
(0.117714721342228504 -0.0135964444163028161 -0.000117648295139585794)
(0.118301935976556763 -0.00676431346916451029 -7.20574686657987336e-05)
(0.118143297889140408 -0.00676076337648177927 -0.000151721584558475606)
(0.168080546309512469 -0.00825475716308526376 0.000332561653872507344)
(0.149904466911856826 -0.0153305651685081805 0.000102373227659600878)
(0.150767103924568324 -0.00762636898953085625 0.000148299885415404363)
(0.150447809833620078 -0.00762122641725931135 4.71435212183505089e-05)
(0.208173363968199687 -0.00980773577459423916 0.000986263788923916022)
(0.186638752679100961 -0.0178700263219802799 0.000563225420421128455)
(0.187914404956603498 -0.00889017119005540077 0.000586079188292873464)
(0.187314700208794621 -0.00888441484067311639 0.000483952772999658915)
(0.256744635476380711 -0.0122551935560055204 0.00211710532857309255)
(0.230866190400422416 -0.0215912523905131687 0.00144266444289143118)
(0.23293480948503939 -0.0107336963963744203 0.0013697788013788115)
(0.231899033062394122 -0.0107306058750897097 0.00136186965051666715)
(0.319585206516962095 -0.0165196202950822178 0.00394468807157525268)
(0.282061879173925112 -0.0277322130709778264 0.00292910767703718653)
(0.284708631363128628 -0.013786371216757326 0.00255847075647401513)
(0.283114061327673805 -0.0137919542581016203 0.00295244335921324846)
(0.408998366449597306 -0.0237592761872624028 0.0070990574503128779)
(0.368852940399179985 -0.0388292073179217281 0.00529001613088799123)
(0.374745296228609248 -0.0191932297616840275 0.00406014858800344929)
(0.372429966843826343 -0.0193388581358370608 0.00588031211415510156)
(0.55367356282260749 -0.0673408647691560724 0.0203086240650568253)
(0.346909340063912941 -0.0608733944025602117 0.00937652230875852394)
(0.346005485886411557 -0.0278411966537877656 0.00588939197065204041)
(0.345354449907813832 -0.0288911673386594708 0.0127430397333284946)
(1.00053574056211847 -0.0873952551431693841 0.0583299371446641957)
(0.654256842374032477 -0.183913297995192626 0.0345294177950862743)
(0.684334989367459179 -0.107324805716882243 0.01710642803987375)
(0.6918842796262612 -0.110136596531245523 0.0464906287664761039)
(1.28648116705157189 -0.0465657403673935405 0.10272893921855171)
(1.11157716519725991 -0.073244706058363418 0.109067596975719716)
(1.21355963526457078 -0.0821834526063387749 0.0299851511095144858)
(1.25308908899129023 -0.0821950780315747059 0.137669717742485626)
(1.41961527645568886 -0.00431057119464905384 0.0742861214772783662)
(1.3112346871330145 0.0145408594427518315 0.146645655462418284)
(1.39199586946080101 -0.0452147557742928821 0.0373472294100161833)
(1.49575136356642879 -0.0396713998161290979 0.184770930795963573)
(1.21871523057550624 0.0795649990970499904 -0.160563626871561144)
(1.3146711785312355 0.143648458734233042 0.0176112751242084829)
(1.35792655803963092 -0.0015467587217238123 -0.0350337428563059355)
(1.56964480314033894 -0.000160832590801403887 0.0736852927459235585)
(1.19019614104771465 0.412617857067291649 -0.459290697598540465)
(1.12255323941039031 0.135910829511443371 -0.247150192394855306)
(1.43451580159473302 0.093698220242732666 -0.505217253758197371)
(0.0241142053886917902 -0.0163600528614596258 -0.000223521875504930316)
(0.0119457222372622747 -0.0214936558889567524 -0.000223820610836056278)
(0.01198699983449978 -0.0160479157866750648 -0.000195777279784805383)
(0.0119848212583363589 -0.0160469665890808771 -0.000230035160269622649)
(0.0489930716388795318 -0.016983378026734202 -0.000237481380032004318)
(0.0362461625991555708 -0.0222495837163187542 -0.000244931606557025842)
(0.0364067275153833955 -0.0166730081801707009 -0.000214929087364050661)
(0.0363969630083852969 -0.0166714166823750259 -0.000253667142973399296)
(0.0747867036961533116 -0.017894150650836875 -0.000229091873432428982)
(0.0614357634002250796 -0.0230958818160141195 -0.000251504883677353673)
(0.0617437859603062189 -0.0172960607132420681 -0.000217037144750010158)
(0.0617145918234733928 -0.0172926147430151125 -0.000265119483957961617)
(0.102355399328883975 -0.0193769284974986966 -0.000172144989594244708)
(0.0879465938638664124 -0.0246978550024053618 -0.000228664079882059983)
(0.0884217450088143619 -0.0184978119759746443 -0.000187618047801697867)
(0.088347566828729393 -0.0184909873384840259 -0.000250323302661998757)
(0.132551458937361116 -0.021540307533601543 -1.46418035954338729e-05)
(0.116578965255674599 -0.0270582760490279094 -0.000137929143527940252)
(0.117296760641009148 -0.020266689036832413 -8.97120259691244992e-05)
(0.117131068448361339 -0.0202548325475119875 -0.000173085152044452428)
(0.166479408297872944 -0.0246841519361655423 0.000333036994208222681)
(0.148286035607634287 -0.0304624362518499912 8.80747455418584845e-05)
(0.149371078572668126 -0.0228308144095579132 0.000138544432909918979)
(0.149034296203862604 -0.0228129502584364478 3.27831784496680886e-05)
(0.205796286848971471 -0.0293070568183157777 0.00101962607438864481)
(0.184295487774192968 -0.0353981517685610786 0.000565657608394061484)
(0.185953324409689341 -0.0265609692931003741 0.000595526479602434349)
(0.18531530362161111 -0.0265383925222465247 0.000487975414068561911)
(0.253384446516032258 -0.0365594427659456517 0.002254666791355523)
(0.227116656794476124 -0.0427491582104157081 0.00148562124884114486)
(0.229741483375969974 -0.032082480814383231 0.00142258367631121411)
(0.228626363741551791 -0.0320622354559187486 0.00140775913815986372)
(0.314318474559178274 -0.0492200975113288933 0.00427443573634994547)
(0.2763768862206889 -0.0546274951342989937 0.00309630823812396356)
(0.280597097118928496 -0.0410656316530734616 0.00275208932973949752)
(0.278823792479982235 -0.0410673189659684149 0.00312572466587065709)
(0.400116200488259299 -0.0700115403732337049 0.00756748098933363988)
(0.355803933350059998 -0.0760760532201898432 0.00569261475021428601)
(0.36392914086111533 -0.0572574708590890269 0.00451360467757278092)
(0.361298041897551381 -0.0575080493109860272 0.00628516893752258284)
(0.514500570232391485 -0.168011377940150891 0.023597316038787973)
(0.333305910187929433 -0.108375899138835621 0.0103035593363339784)
(0.345856313167304252 -0.0819461868816995231 0.00649955432413835445)
(0.343644041535614786 -0.0835252099790477764 0.0131695182322244791)
(0.794638951836917018 -0.186274972206006639 0.0852670776261419128)
(0.588676914461623735 -0.294464038531428274 0.0399165476365853159)
(0.609425978673879376 -0.255053003452635096 0.023399998948097335)
(0.612934394178152542 -0.260409113563874306 0.0513106924639803799)
(1.06791868315876082 -0.0492460529967666538 0.152984313219586165)
(0.902069975107985034 -0.141259606012637984 0.156097343929841453)
(0.953768866375984237 -0.153843522153546075 0.0667503886001095253)
(0.981887223609141602 -0.152622328608839453 0.173637544399229515)
(1.22089894561751522 0.104712336861864735 0.0899708091093481682)
(1.10306050142167411 0.0163218120276939979 0.202527375497068979)
(1.15248032587404259 -0.0277243529693817527 0.0736264555082692673)
(1.21258735318163779 -0.0332569532763255377 0.213170447774402749)
(1.12966850730399671 0.3858450111777042 -0.281115795602769669)
(1.1103473974260174 0.235985122331075797 0.0156787860506139437)
(1.18328574863315739 0.15251584409184718 -0.0715067501401117078)
(1.33325382062427811 0.105506280713795156 0.0320730767712930284)
(1.15708557633097908 0.783650941011847513 -0.602134023363404158)
(1.16131366912673339 0.598797534357163763 -0.441079163636443117)
(1.43107136961813786 0.418763463827490634 -0.703162628259219824)
(0.0239527865738822406 -0.0272279717741149008 -0.000245230341888151831)
(0.011836815221604062 -0.0321571370868433751 -0.000244730561858816061)
(0.0119072562637754838 -0.0267700522605824227 -0.000217254472009163177)
(0.0119057306679685015 -0.0267688909319024268 -0.000252611058195858693)
(0.0485341328262095181 -0.0282110931746674051 -0.000258955110202375223)
(0.0358568116255579966 -0.0331945991186250455 -0.000265306508440148908)
(0.0360973353547110673 -0.0276872076530686045 -0.000235695311356569635)
(0.036089175264333917 -0.0276845203668913999 -0.000275618749234166451)
(0.0740884644675220694 -0.0297261582472590213 -0.000251077090126984592)
(0.0607167915636500771 -0.0344778028005088347 -0.00027287617877128843)
(0.0611607751485318332 -0.0287393312700585241 -0.000238174258598534418)
(0.0611334067915430684 -0.0287329469781204619 -0.000287388220433261725)
(0.101336314310212838 -0.0321754658667718491 -0.000194448233815755798)
(0.0868659095129803993 -0.0368399682830816769 -0.000251818654076008206)
(0.0875517616476215732 -0.030723174511987545 -0.000209510305429618275)
(0.0874786920392250089 -0.0307101639910708109 -0.000273800001341456989)
(0.131077463278654133 -0.0357296122206381753 -3.52125943906477726e-05)
(0.11501364852878472 -0.0403192509512105141 -0.00016285532139603248)
(0.116035099108556986 -0.0336469556340883158 -0.000111740951975407843)
(0.115867938798791134 -0.0336239554333610385 -0.000197328799394841479)
(0.164336910920628937 -0.040846811742022239 0.000320695359727698874)
(0.146026885043923388 -0.0452985493080086538 6.36382625708223197e-05)
(0.147543403127574552 -0.0378436346304588389 0.000119061333882989104)
(0.14719808884294211 -0.0378075899520518913 1.09603884371163785e-05)
(0.202591397558343322 -0.0483506028809620667 0.00103165278284656154)
(0.180975339150534403 -0.0524548112615453727 0.000549662732608971775)
(0.183257490389062028 -0.0438961999375786366 0.00058661860342478769)
(0.182594445881562428 -0.0438462593234385245 0.000477625627836639199)
(0.248181853507029926 -0.0599283536714290202 0.00232726269560958304)
(0.221968680999118789 -0.0630176993308781408 0.00149777179309880425)
(0.22549672180861971 -0.0528661720458948325 0.00144322995512536712)
(0.224321225355514631 -0.0528082731811822942 0.00143131072501770525)
(0.304514670088459172 -0.0794824675168277067 0.00451448725198831495)
(0.267884384660843855 -0.0794705033858369991 0.00317796167331600363)
(0.273497491891445732 -0.0670548914221890946 0.00284747913175565541)
(0.271575564467608443 -0.0670087044571686108 0.0032354478768161928)
(0.377151841410598265 -0.110678514461020644 0.00842869309721461929)
(0.339961060966766704 -0.107489028152948918 0.00599866620800360538)
(0.348990098505346236 -0.0917989638232010324 0.00488356592062800729)
(0.345732531569811374 -0.0919732978490883368 0.00662402203959016212)
(0.473382231671097609 -0.231417015081912369 0.0266227909341313525)
(0.306240720544199485 -0.147637886376233679 0.0114855207805541377)
(0.319762321589617537 -0.128629121052048767 0.00775146851994385194)
(0.317202209857440742 -0.130044385379801314 0.014765653397347412)
(0.6605317943958392 -0.257132318575715224 0.110746813940285196)
(0.537882592518943881 -0.364514945689635605 0.0442698400751284221)
(0.554927215982808253 -0.334858207786055129 0.0282007738222334915)
(0.557316281728707508 -0.342059893598271714 0.0544547344637718797)
(0.918669742892190611 -0.0848897756910981099 0.205640406207324211)
(0.767003941538676459 -0.204174851275114533 0.203760233914264732)
(0.80178708454390879 -0.225801202350396274 0.105702146117427634)
(0.814763766992845029 -0.218062606272261428 0.209329090256430789)
(1.05498138351080528 0.141595213823887955 0.128235352438334227)
(0.962613219890468885 0.0188562113602464484 0.258780670247159506)
(0.985015990667729602 -0.0573847885428359766 0.113801237045326617)
(1.03585436287954424 -0.058148275037046615 0.240034694250919584)
(0.952295609191732284 0.601595796058222998 -0.305339441710020532)
(0.954861929892475869 0.32389968864349028 0.0364026858520670737)
(0.982926131709433548 0.208391692615481849 -0.0561726977634447802)
(1.14899301304242685 0.139080522031968162 0.0283777803520124938)
(1.05179539805237909 1.08459738941870687 -0.678557552587509272)
(1.02702445431850542 0.949720729847695622 -0.519976492085575059)
(1.29022498494148885 0.662132027613228535 -0.764569487574428108)
(0.0236714498381125141 -0.0379592087207587803 -0.000264806728410813138)
(0.0116702554497452194 -0.0426961113419384169 -0.000263285733936887865)
(0.0117684021242558026 -0.0373804539252712426 -0.000236349767219406587)
(0.0117677656410168242 -0.0373794251690296869 -0.000272769385218817148)
(0.047868044878184253 -0.039289950667665885 -0.00027922757700906206)
(0.0353103186102350433 -0.0439690714209354794 -0.000283921756340089755)
(0.0356259700363674367 -0.0385395742782182887 -0.000254626566909238721)
(0.035620192262874821 -0.0385358719119671886 -0.000295488712887164611)
(0.0730436969891605919 -0.0414017784957272372 -0.000273617742720311827)
(0.0597329375665591605 -0.0456919073827480246 -0.000293865795027973067)
(0.0603031347671447657 -0.0400468214299260633 -0.000258932276802097594)
(0.0602791533445608124 -0.0400371400244006748 -0.000308914903472207723)
(0.099807484276165398 -0.0447616665395019833 -0.000220225741656285268)
(0.0853784961468246339 -0.0487674712753560224 -0.000276888937244061206)
(0.0862580130793343947 -0.0427722039967827206 -0.000233365895416017346)
(0.0861887369635860462 -0.0427520988759736362 -0.000298365352637962268)
(0.128882436705726244 -0.0496129745239636821 -6.40044644345625778e-05)
(0.112868624141732432 -0.0532846355978638525 -0.000193549767384790559)
(0.114165773827930486 -0.0467803713462923779 -0.000139491012591513739)
(0.114001390089186777 -0.0467443939413535528 -0.000225774578293275581)
(0.161169730929780652 -0.0565398172830681167 0.000292605635452098149)
(0.142958575725037923 -0.0597028437235720827 2.71924849153103255e-05)
(0.144857968999681647 -0.0524942366334452057 8.8035947522552166e-05)
(0.144510625697737705 -0.0524360551963410845 -2.04613385719439042e-05)
(0.197891721219121297 -0.0665807697421095107 0.00101578174286121514)
(0.176520335357101599 -0.06883021699166815 0.000511511715546960526)
(0.179331180819224306 -0.0606598598051267951 0.000557394157211869943)
(0.178653228055936197 -0.06057347206928404 0.00044858500003668874)
(0.2407665306113074 -0.0816900319946813058 0.00234847077080522527)
(0.215244523606617832 -0.0820782274215160895 0.0014699004580638309)
(0.219490623712884775 -0.0726073526332006725 0.00143046859777958544)
(0.218274080089838229 -0.0724885426689104578 0.0014203728755801657)
(0.292059205286782197 -0.105919034080168839 0.00466214062933129492)
(0.257241168963682765 -0.102076256320243614 0.00318270981511195724)
(0.263756724014669153 -0.0909061599826759825 0.0028879062179433348)
(0.26170541853819046 -0.0907456817479449368 0.00326972962725290573)
(0.353657962227652611 -0.142602060565106048 0.00905549389134312037)
(0.322460614717349769 -0.134050506728513763 0.00616181283563938323)
(0.332645535536189585 -0.120899266320991267 0.00518547380131449947)
(0.328959318328163441 -0.120891291656594249 0.00681686889634509647)
(0.432417232129357565 -0.277278149632525173 0.0291325699215512733)
(0.27894295609397024 -0.179003128045873067 0.0120932788494550678)
(0.292161015463426155 -0.163458722371099902 0.00876130960436977656)
(0.289671218705402744 -0.164305321866785703 0.0160393131315646024)
(0.571644500911857034 -0.312380139271307644 0.137283260049108097)
(0.490487363162116052 -0.416095557032194252 0.0481341271253352965)
(0.507911506087911135 -0.39177393726522558 0.0340069529231513748)
(0.508164635971879886 -0.397414856935533412 0.054603574686049941)
(0.813165922801747931 -0.110712383292329616 0.256900497954099971)
(0.663378425190580878 -0.265481668828004891 0.250467905639234212)
(0.703017921167797488 -0.285225247793050529 0.148179262857411342)
(0.693806871952931559 -0.26942686126785742 0.240250655524236967)
(0.966559989341412185 0.186768253248746519 0.16694800366089213)
(0.86664198985426133 0.00750975957652613626 0.293495042041406196)
(0.903831789793980711 -0.0533360477228428595 0.143265657815883352)
(0.940470964908873053 -0.0631409582287989352 0.256921944644624312)
(0.855452783968423613 0.795092500100331057 -0.336815425025422388)
(0.842006182365572453 0.392183164107007209 0.0348898789133194887)
(0.876213653451606178 0.293703618838087155 -0.0398055505048536401)
(1.05503859459498961 0.189988978559022109 -0.0020002985762341205)
(0.996682376402493131 1.34348006603603953 -0.7747207384301531)
(0.958745538483355197 1.2455737648103169 -0.602740372727731288)
(1.21260658996993032 0.886781370407399239 -0.845378318649463001)
(0.0232759684256802872 -0.0485273772384225838 -0.000282400761866164482)
(0.011451008478950031 -0.0530597658232758868 -0.000279526061848771703)
(0.0115730650901884457 -0.0478377681771874202 -0.000253134776203181176)
(0.0115735920057482896 -0.047837288050437507 -0.000290518420800250682)
(0.0470074046732219947 -0.0501843480628523866 -0.000298559974359000762)
(0.0346169931341964721 -0.0545372313417790411 -0.000300921057487680145)
(0.0350013986251776626 -0.0492185892340065365 -0.000271937174147664749)
(0.034998864778547141 -0.0492141135621597878 -0.000313673580363899506)
(0.0716760925006908745 -0.0528555400036209433 -0.000297136989551722338)
(0.0585017632946823116 -0.0566810588474073174 -0.00031470254461296403)
(0.0591886825528947572 -0.0511586080744224625 -0.000279546972784655112)
(0.0591697808371393144 -0.0511456442338466405 -0.000330050543296784757)
(0.0978079648965399367 -0.057054946594175926 -0.000250212962972566524)
(0.0835172390503599871 -0.0604143312786592016 -0.0003042931265011324)
(0.0845717647860080857 -0.0545733100896554288 -0.000259501002293542615)
(0.084509222596029665 -0.0545457370845739906 -0.000324709313473777654)
(0.126031695827679979 -0.0630828240031797993 -0.000102352818034917798)
(0.110199195436780806 -0.0658716264341215191 -0.000230765163909199599)
(0.111740161190133497 -0.0595765365561461355 -0.000173594855355171598)
(0.111583390355346701 -0.0595263741836022792 -0.000259628962116724318)
(0.157098946160138975 -0.07160749286987933 0.000246098565010174322)
(0.139177557742989705 -0.0735644192543570136 -2.26901686573657541e-05)
(0.141404922034028241 -0.0666571275757682075 4.40461432854765062e-05)
(0.141063491425642229 -0.066573729413469368 -6.35341900062505661e-05)
(0.191949478538799262 -0.0837788199365189223 0.000965630430749574989)
(0.171114613475710636 -0.0843734413246836346 0.000448159980301451183)
(0.174354845667617248 -0.0766655300585621508 0.000504830748846015961)
(0.173676090448728393 -0.0765352277109279389 0.000396710378293695077)
(0.231734629248118135 -0.101635636701372906 0.0023041395023705633)
(0.207295663887411719 -0.0997668067249193324 0.00139440889806134423)
(0.212076875245035268 -0.0910537081558447925 0.00137705526112912838)
(0.21084720709524496 -0.090855168147023338 0.00136428139451046006)
(0.277679645180876844 -0.128905179272835846 0.00468238202142004512)
(0.245250662483343818 -0.12232113593376992 0.00309586473660644233)
(0.25234572273286604 -0.112441641871591461 0.00285742567268849109)
(0.250217280922378993 -0.112129376777873824 0.00320729743988610368)
(0.329563247047450381 -0.168511599837088244 0.00919959779375133756)
(0.303536387250433359 -0.156394838050280455 0.00615214842667368388)
(0.314308807589590455 -0.14546700959818934 0.00538195892693578253)
(0.310481876886279928 -0.145194447496358098 0.00681192118940557659)
(0.39183609859098506 -0.315050201810863517 0.0310948360532390423)
(0.253304119171482378 -0.20317998334763171 0.0119914891980395337)
(0.265871181639665721 -0.190876564455716102 0.00927644729678495789)
(0.26341676401122216 -0.19059509536188296 0.0162763456365381115)
(0.495896902434148856 -0.366375935814758413 0.161318772715461467)
(0.445438974941780974 -0.456927614108539326 0.0511822779101065717)
(0.45894871597768544 -0.439064632035577385 0.0424346899369591746)
(0.461668342645883911 -0.439350294083029835 0.053268783457656961)
(0.724414630449657149 -0.149655489500250316 0.287062449726540381)
(0.578672522053346072 -0.332255700931698372 0.285375446088022788)
(0.632066765346879444 -0.347345377350281814 0.19169482784986086)
(0.582891686051005942 -0.322474349613223021 0.261273216324239166)
(0.892002839854929785 0.206466339651347419 0.161436917293834081)
(0.783533435127865663 -0.0237316633354595075 0.273854643101061224)
(0.857353341932667212 -0.0537952727465542332 0.143560576102091025)
(0.871887022156418667 -0.0890182000002969626 0.230048702434477254)
(0.756966206470511493 0.94464989028766555 -0.403015434491412639)
(0.708843303983851647 0.43390750039587983 -0.0297595018977987388)
(0.778294398234127938 0.401356770124388973 -0.0521849683662100328)
(0.972287332760459866 0.208992325203536611 -0.0887679486441324689)
(0.960964163517682435 1.55714836235110643 -0.890158471546769525)
(0.936428207022101611 1.47783209993954134 -0.70066690871236792)
(1.16913085552818274 1.0628199733294259 -0.946192769219663221)
(0.022781120745003533 -0.0588842428412554228 -0.000298046357470287419)
(0.0111854258821489742 -0.063203878360513055 -0.000293337558607670225)
(0.0113285148370132673 -0.0580977976837949023 -0.000267570152732168507)
(0.0113304997074061223 -0.0580984502332336922 -0.000305882675980079525)
(0.0459614975546833171 -0.0608408632417750603 -0.000317063627741643466)
(0.0337890465910399632 -0.064860889417882539 -0.000316291959768340172)
(0.034235421960480579 -0.0596717591462851971 -0.000287651001374723294)
(0.0342370444107182731 -0.0596670094341294754 -0.00033025091382318084)
(0.0700113849220752593 -0.0640292725398472762 -0.000321858681562374037)
(0.0570426922784164556 -0.0673954375276871048 -0.000335435116582106846)
(0.0578346627862687881 -0.0620200215963059992 -0.00030005990477648478)
(0.0578226214938188099 -0.0620040949222671195 -0.000350991657923907616)
(0.0953823610818063938 -0.0689863379740387611 -0.000284845327437765366)
(0.0813187806529031137 -0.0717229949187179888 -0.00033420421742283874)
(0.0825273308850362486 -0.0660645126222322576 -0.000288064850939995969)
(0.0824746486436843673 -0.0660294772989231948 -0.000353264313935330637)
(0.122600920058925561 -0.0760520443452086109 -0.000151102514531647504)
(0.107067342627270495 -0.0780114571030292164 -0.000274861333320400574)
(0.108816976933099926 -0.0719592126417464562 -0.000214467640153247988)
(0.108673104802991444 -0.0718942697620480187 -0.000299705334309429143)
(0.152259370032822167 -0.0859384433410341486 0.000179371246633911537)
(0.134789136881151905 -0.086799016714908625 -8.67249334555388903e-05)
(0.137285923941253662 -0.080233834281964303 -1.38117416086037782e-05)
(0.136959446485138969 -0.0801234307108532884 -0.00011981989631093808)
(0.185019255673787519 -0.0998251249777064725 0.000876938447613220427)
(0.164942872979416455 -0.0989874942080682108 0.000357946121128122552)
(0.168513756239965923 -0.0917876320176573696 0.000427004711662406285)
(0.167850944888633669 -0.091608929927251323 0.000318761570346156404)
(0.221548219881090164 -0.11969463368207503 0.00218613413229722543)
(0.198448852060915337 -0.116013356124289077 0.00126764338273114706)
(0.203600285734700293 -0.108087692518206824 0.00127853107583997217)
(0.202389894706789197 -0.107799518737066891 0.00125538044558305586)
(0.262245170865779698 -0.148743329374937894 0.00456563114186007892)
(0.232452830235542446 -0.140268212846822671 0.00291291018315943022)
(0.239878847437988263 -0.131627513250738182 0.00275092497807202969)
(0.237736161173335236 -0.131149913020172731 0.00303161981517135635)
(0.305781567065745885 -0.189610429861744756 0.00894403983096189389)
(0.284011644746253122 -0.175174101469892485 0.00595532409566723684)
(0.29504480195444005 -0.166138865584447654 0.00545122595974211095)
(0.291313059201251778 -0.16554245163142034 0.00659170970515499024)
(0.355825412082061032 -0.344541681862448823 0.0320789310549069867)
(0.229461414719370704 -0.222380860082643045 0.01129819874265473)
(0.24193075090059929 -0.212594724270109281 0.00959414264937625584)
(0.239291447518668571 -0.211444685374225116 0.0156756661565310533)
(0.432043829743677776 -0.419909404261219588 0.175238951282668615)
(0.404767127409127681 -0.491812840477118762 0.0521058744003133692)
(0.415926923764768974 -0.477600535170531137 0.0542269138867983169)
(0.420590830625943213 -0.467811965381625339 0.052205839756010862)
(0.651253283862851862 -0.200912911350344447 0.27216763946254352)
(0.491550254409631737 -0.404062508855961511 0.300124714067928622)
(0.597322633987227736 -0.413545927563661042 0.227214994698094613)
(0.497524901733396308 -0.371327190831727383 0.278454795248546993)
(0.816414269928781633 0.205286446292663599 0.0826582239094285354)
(0.716351822533923044 -0.0716284199853818027 0.207480851493093754)
(0.81698126839885965 -0.0634029305360525042 0.118563613629989406)
(0.823017712924887235 -0.134269677748177885 0.169582469626151089)
(0.629376817369245667 1.05070502065567695 -0.51690253895315641)
(0.556844060400541796 0.462085637568602214 -0.14347136768711774)
(0.642474117105125919 0.5322331197045298 -0.100898016841326155)
(0.896005434560510738 0.187067268444854051 -0.210796343284864768)
(0.928716043867708674 1.71803052485495633 -1.01066108935676047)
(0.931949979150636376 1.67130643074799412 -0.818730979626880351)
(1.14678110585801063 1.17699737159700302 -1.05641262413100723)
(0.0221981738161326145 -0.06899009789007364 -0.000311583160905722978)
(0.0108786797109742955 -0.0730892894440171859 -0.000304436751424793208)
(0.011040193887633741 -0.0681184106707469483 -0.000279423734618091833)
(0.011043931712113382 -0.0681210009613043704 -0.000318668713299269401)
(0.0447447923846752763 -0.0712176201162088296 -0.000334663448608803606)
(0.0328394757671227749 -0.0749033155774719434 -0.000329856351221455898)
(0.0333406456372158724 -0.0698615712878854073 -0.000301612775102789879)
(0.0333473684868762013 -0.06985737968157954 -0.000345101730245447175)
(0.0680789840700742055 -0.0748732416769986864 -0.000347780652442571656)
(0.055378463658250221 -0.0777919343259192431 -0.000355913919715379991)
(0.0562626015472352248 -0.0725844980666898176 -0.000320332540365453442)
(0.0562592730326924376 -0.0725662411253587408 -0.000371743094572104063)
(0.09258076882701817 -0.0804986070903210282 -0.000324220223305474056)
(0.0788231186350114854 -0.0826453227972800131 -0.00036654306519507524)
(0.0801634646310451088 -0.0771925516621002755 -0.000318981965164591831)
(0.0801238797685727838 -0.0771504448884518107 -0.000384233108749871188)
(0.11867337786554949 -0.088454324299364423 -0.000210483752244291567)
(0.103539124206587424 -0.0896503840190862045 -0.000325781673378292935)
(0.105461021977238098 -0.0838666854829438896 -0.000262153728678843768)
(0.105335546521045806 -0.0837870595204232016 -0.000346475301956263655)
(0.146791863374308523 -0.0994602270079626982 9.1849941038672897e-05)
(0.129901464748837708 -0.0993484176526531759 -0.000164824033948513806)
(0.132609128206620325 -0.0931524370507717248 -8.56547153839957927e-05)
(0.13230715548508673 -0.093014785162593927 -0.000190193042259723864)
(0.177342940470757826 -0.114665228705216046 0.000748651056246049727)
(0.158182055790461878 -0.112620849227329387 0.000240783376765762796)
(0.1619905529358448 -0.105951131615906316 0.000323379044464491329)
(0.161361245619068394 -0.105722936880914137 0.000213259752714567284)
(0.210598002640614512 -0.13590744823266912 0.00199441943359335121)
(0.188988550301734143 -0.130814200822124194 0.00109038924273783568)
(0.194368550987147282 -0.123670924212199912 0.00113341477058359489)
(0.193208862495181433 -0.123292734301777424 0.00109180552061822664)
(0.246339801289917754 -0.165816381167811472 0.00430260313696658857)
(0.219252516874028136 -0.15606647064408341 0.00264233326673962102)
(0.226809238156066795 -0.148576290974390013 0.00256836770408326413)
(0.224724013979194975 -0.147948788820252225 0.00274245520924004541)
(0.282606195886414668 -0.206796658067040812 0.00830948300736008422)
(0.264474120698527271 -0.190922605976486082 0.00558110373092138637)
(0.275515914319840072 -0.183565781270576711 0.00537308548640250648)
(0.272065489994521847 -0.182652892102644987 0.00611285859556479939)
(0.321520672641856575 -0.367827083662666643 0.0313251420880612322)
(0.207384047402176724 -0.237433106459560173 0.0100717108320135459)
(0.219858078844858418 -0.229956211912171249 0.00974312329674556499)
(0.217273220781395104 -0.228385673757509122 0.0142290667016914049)