/*--------------------------------*- C++ -*----------------------------------*\
| =========                 |                                                 |
| \\      /  F ield         | OpenFOAM: The Open Source CFD Toolbox           |
|  \\    /   O peration     | Version:  2206                                  |
|   \\  /    A nd           | Website:  www.openfoam.com                      |
|    \\/     M anipulation  |                                                 |
\*---------------------------------------------------------------------------*/
FoamFile
{
    version     2.0;
    format      ascii;
    arch        "LSB;label=32;scalar=64";
    class       volScalarField;
    location    "0.270000000000000018";
    object      alpha.water;
}
// * * * * * * * * * * * * * * * * * * * * * * * * * * * * * * * * * * * * * //

dimensions      [0 0 0 0 0 0 0];

internalField   nonuniform List<scalar> 
7340
(
5.88992380089426443e-07
6.31243319068742761e-07
7.50934610750614295e-07
8.39121788399583227e-07
8.62482704501344342e-07
8.38478702048733013e-07
8.45037314656125061e-07
9.57334883047858356e-07
1.13478181915841161e-06
1.6704739649518028e-06
2.4748766895838533e-06
4.48647687179268288e-06
1.06387827983519102e-05
6.05703598996059375e-05
0.000266370254700996282
0.000243694780124322727
2.48148312075265151e-07
2.59497237614346376e-07
3.06589162724797648e-07
3.46201502662873809e-07
3.53532162541938109e-07
3.47507583652445643e-07
3.90350929870994113e-07
4.29427272439548589e-07
5.86201861683609344e-07
8.82314450246990903e-07
1.52105026445687743e-06
3.14963107968225758e-06
8.68232119474648874e-06
5.62884509168018769e-05
0.000214672330269693139
0.000225856706595513519
1.02726170679947967e-07
1.05942256131123227e-07
1.26806531590988782e-07
1.40656509675004135e-07
1.43784585350510112e-07
1.42742207713499505e-07
1.71757507517154808e-07
2.03558300178362883e-07
3.02432934948765619e-07
4.86778913929254432e-07
9.37663886709510168e-07
2.31845547541084387e-06
7.10571099956447057e-06
4.81484962596087651e-05
0.000171791275740152332
0.000195849635107852161
4.09289362531461607e-08
4.35086158505301766e-08
5.19713073442823561e-08
5.61700191423291519e-08
5.78703144650013173e-08
6.0995335207121971e-08
7.20973422833949599e-08
9.90175135645821486e-08
1.55302627469552285e-07
2.81804500563031549e-07
6.0942149757498152e-07
1.74177089054277984e-06
5.69917791528716115e-06
3.83462990794835386e-05
0.000126227326111351054
0.000154409256317666004
1.63073339267357155e-08
1.72426345243870499e-08
1.68575563381061994e-08
1.6197784680291022e-08
1.82406130696752396e-08
2.10229766122738299e-08
2.24049505474631605e-08
2.3195883879980071e-08
2.61983611612890691e-08
3.18970152125823726e-08
4.83364664407390091e-08
8.4007755168127654e-08
1.66708977483361135e-07
4.1035006648080067e-07
1.29776158623630216e-06
4.41444311930448787e-06
2.66601184720933134e-05
8.7185369150725043e-05
0.000116829178253806656
7.06378257174289959e-09
7.3189476898748882e-09
7.1965221064411046e-09
7.08278557066187479e-09
8.02001668913401027e-09
8.78986410001541632e-09
9.40226144926003256e-09
9.9835211299204262e-09
1.13730663606118943e-08
1.44819062832286237e-08
2.34258096722012204e-08
4.3805887176884728e-08
9.7756891623540427e-08
2.77708887163064009e-07
9.4006724459184276e-07
3.2598967976776823e-06
1.71204240948752476e-05
5.69685580743281377e-05
7.70295048334050707e-05
1.72729945280009721e-09
2.14673822139087598e-09
2.35599895195290457e-09
2.36837714253432146e-09
2.30904442940018219e-09
2.32675244692012659e-09
2.40569586879175101e-09
2.38084830720717833e-09
2.40758850365726771e-09
2.50501191940233273e-09
2.64574000422576962e-09
3.41886404371590265e-09
6.82568838479185196e-09
1.84183210715172942e-08
5.53374178801866622e-08
1.82701792281655876e-07
6.52430374804254878e-07
2.28886877336943716e-06
1.28488380549177931e-05
2.92676239324961834e-05
3.28663958681107868e-05
2.17829336423793201e-07
2.67670896853677903e-07
3.06681078398159679e-07
3.27800583097508641e-07
3.3704910561437359e-07
3.95677858974794228e-07
4.60982294800529355e-07
5.63231558864675884e-07
8.66686082588241316e-07
1.45465978099930324e-06
2.973462919422214e-06
7.9093800189982319e-06
4.88872410879175821e-05
0.000197437747227312591
0.000210418507917923002
7.28556145688408875e-08
8.40720714552680127e-08
1.0355629298691282e-07
1.17460655613616172e-07
1.26590596551901326e-07
1.38677155605227803e-07
1.68398357631629578e-07
1.94929498014377079e-07
2.84867029736881664e-07
4.66109552096847629e-07
8.91228672930604468e-07
2.09480523931451211e-06
6.30371501956308278e-06
4.19430289651998757e-05
0.000152558845430666214
0.000177053074241433951
2.92943019989770368e-08
3.33716529192452366e-08
4.06095164409444898e-08
4.55071000401299632e-08
4.89121593237887228e-08
5.52906926472948455e-08
6.75350162836682709e-08
8.84779467871788158e-08
1.42966458634583536e-07
2.56972568170040225e-07
5.53103228962894461e-07
1.52789005287873393e-06
4.97034508179128127e-06
3.26752330508648287e-05
0.000113727340660810803
0.000141295678475354317
1.18610549102579036e-08
1.34864204379072746e-08
1.61135062964495764e-08
1.79462235101417546e-08
1.93500699019537596e-08
2.23356693293599729e-08
2.79565260267815452e-08
4.21476933083995206e-08
7.27582733698390228e-08
1.49088243838682366e-07
3.60198267800889474e-07
1.12031057504516763e-06
3.81530487685706778e-06
2.31464320231597917e-05
7.97538641329751437e-05
0.0001038104605074471
4.54432119940982385e-09
4.93609963010987952e-09
5.01563180240692698e-09
5.03951243124344227e-09
5.66216246783047385e-09
6.64630567739785333e-09
7.33480044064785141e-09
7.94265961225004632e-09
9.34989968363690384e-09
1.25282708751308282e-08
2.04803749221404296e-08
3.95051169514052926e-08
8.76082323427475615e-08
2.40399854964428599e-07
8.07142121270720496e-07
2.81461768122842381e-06
1.54087139538131758e-05
5.11703148108230598e-05
7.16050097889805559e-05
2.32266494197571635e-09
2.46488496722987044e-09
2.54132223467570653e-09
2.58031370422746502e-09
2.7596645227378258e-09
3.1081899591087125e-09
3.4300926085987903e-09
3.73183075688920739e-09
4.33463506948217211e-09
6.01294569323760315e-09
1.04105087762652917e-08
2.12072968564251308e-08
5.19774447701467794e-08
1.60178101998398677e-07
5.62667315406815363e-07
1.98108273698767221e-06
1.0360856395830623e-05
3.00125834408490562e-05
4.6051499334297526e-05
9.21221886672788814e-10
1.05437782010777713e-09
1.1076642717929306e-09
1.12557940418039211e-09
1.14918999619129716e-09
1.17553662856047944e-09
1.20230963414914164e-09
1.23486338291790957e-09
1.28999653042256971e-09
1.36814111976601482e-09
1.4695625589861037e-09
1.78804361830504567e-09
3.71092854808017881e-09
9.91734083763789727e-09
3.04246560482646179e-08
1.03558572254293575e-07
3.76311156413962866e-07
1.32727431884521775e-06
6.71788264681801659e-06
1.43753337907718209e-05
1.75259488384826162e-05
7.3619972012748426e-08
8.9136706922243509e-08
1.01373937271294331e-07
1.12731496579943876e-07
1.34505677059272579e-07
1.60396164516259741e-07
1.8560178300747769e-07
2.63821255639733746e-07
4.1423217420472905e-07
7.94185615249163816e-07
1.82323892244639581e-06
5.3107235892529458e-06
3.3935666402687989e-05
0.000130874375264946512
0.000153551098936795287
2.09023053398906036e-08
2.58666790154492651e-08
3.16417740187113288e-08
3.68526871615295755e-08
4.30791506848550425e-08
5.13848611445507437e-08
6.22482474480050285e-08
8.02855916768635322e-08
1.24084878095358436e-07
2.2625063093805888e-07
4.81758815982836559e-07
1.27393703119890871e-06
4.08417445821854477e-06
2.64442935125312654e-05
9.62853556293902116e-05
0.00011641206563573282
7.71228207544295522e-09
9.52098857924320884e-09
1.15323177579462558e-08
1.34802164283271195e-08
1.59527685367140852e-08
1.92541257891518095e-08
2.47101572984820969e-08
3.58698989992879965e-08
5.94195412269645309e-08
1.24508783369062288e-07
3.00181929947740494e-07
9.05928901030294554e-07
3.07263337274512129e-06
1.81849354214446023e-05
6.69564937469941507e-05
8.3529321049554691e-05
3.46792296348170174e-09
4.00830434564634375e-09
4.75884330602717905e-09
5.46523193675191332e-09
6.3600109619218528e-09
7.7574882093062994e-09
1.05737726298043626e-08
1.65808210385406151e-08
3.19264633008876984e-08
7.20616333114063616e-08
1.93743156039244386e-07
6.39904678257244258e-07
2.23479056238502564e-06
1.22528600997584717e-05
4.24604615595221868e-05
5.66868883214393759e-05
1.52793602861096988e-09
1.63640810800328671e-09
1.74639057956578881e-09
1.84863308036916649e-09
1.98146566232971603e-09
2.25484962747856999e-09
2.55227725005096772e-09
2.82931961675957937e-09
3.42378804634728128e-09
4.84239215984785292e-09
8.13329047128857655e-09
1.72206498746878581e-08
4.21181055400822203e-08
1.26499359142197541e-07
4.41557729430570152e-07
1.56172647368744137e-06
8.81550376601334334e-06
2.40090915154589411e-05
3.5387838135036531e-05
9.04326517044377922e-10
9.47899526505785792e-10
1.00108800332551224e-09
1.06586814903487771e-09
1.13312373548951877e-09
1.22901429050613523e-09
1.34840234465820961e-09
1.48386113969038422e-09
1.6963380343976816e-09
2.36153511737721777e-09
4.28691692144391267e-09
9.31461754127714126e-09
2.50214470501045794e-08
8.19716988330405758e-08
2.94865379237310056e-07
1.04561454077292858e-06
5.07068675467246753e-06
1.2882116703514321e-05
2.14292450761262979e-05
4.24945223944667872e-10
4.63977459737034156e-10
4.93051522028440233e-10
5.16295042396050236e-10
5.37942500559720319e-10
5.66743562053766921e-10
6.06503389487252069e-10
6.41225434917175233e-10
6.81526777437135917e-10
7.53171312384378245e-10
8.24905087016362782e-10
9.72419746293977905e-10
1.80430303346327837e-09
4.62604188505115937e-09
1.47302340892570633e-08
5.15853862819241688e-08
1.89371251242228519e-07
6.93311233200096054e-07
2.82566046094771217e-06
5.99193772218831703e-06
8.25310371925900177e-06
1.70268531375239652e-08
2.07493858146642314e-08
2.49512606862838813e-08
2.96219209119875098e-08
3.53764952315614643e-08
4.40795791474612924e-08
5.6842274102637975e-08
7.71495696638165155e-08
1.20676831286644352e-07
2.14296258133901733e-07
4.12297663438818917e-07
9.82302587483014677e-07
3.02859701584867998e-06
1.90447642829707286e-05
7.63672076699932717e-05
8.59434606391402625e-05
6.37348254652896753e-09
7.77723500518972411e-09
9.50744229300091124e-09
1.16299452221840225e-08
1.4194808342728563e-08
1.79660372540419152e-08
2.3858296246496715e-08
3.4475768220282468e-08
5.54181703093587876e-08
1.09677225048590712e-07
2.37288060435825642e-07
6.66933801898108532e-07
2.23195985705143983e-06
1.35353288566880951e-05
5.0276742194676402e-05
5.89323761308897239e-05
2.57769548358071932e-09
3.12288247057586196e-09
3.85825242465122047e-09
4.73850333386890764e-09
5.85733317183891177e-09
7.4731069766458205e-09
1.03106018563784808e-08
1.57887243580442262e-08
2.7531923383518476e-08
5.72266560437770745e-08
1.44592018413215747e-07
4.57576573301224723e-07
1.5966215705569845e-06
9.61870551839507377e-06
3.01131954098070332e-05
3.77947170051886586e-05
1.22267536377111307e-09
1.42837806077010662e-09
1.72525082398671147e-09
2.07696740281823548e-09
2.54716162674357867e-09
3.32786383939272025e-09
4.63635373077166262e-09
7.13136154636015855e-09
1.40442635691782623e-08
3.19101802661541868e-08
9.0976416349177084e-08
3.1015232673298613e-07
1.10197495950976254e-06
6.46688483818867588e-06
1.68428294818984093e-05
2.31195838063723146e-05
5.82562096559217389e-10
6.21229202381873489e-10
6.60823977914663351e-10
7.22539774734863074e-10
7.93600749827503333e-10
8.77787818436323757e-10
9.96932001013514632e-10
1.20536014613720582e-09
1.52093465505721111e-09
2.18098726614501654e-09
3.33081626383548778e-09
7.22674683161423121e-09
1.83765398086076235e-08
5.7670074463589566e-08
2.05153904377827418e-07
7.39453578014475611e-07
3.74706535333593547e-06
9.05496938049502216e-06
1.37330066843157753e-05
3.50165653594878242e-10
3.83510875760961932e-10
4.14550508423222606e-10
4.49028881818667806e-10
4.84645577555457676e-10
5.2174395596084787e-10
5.79094170855156666e-10
6.77249087162207181e-10
7.84848107714473902e-10
1.02001373966001407e-09
1.72705752393198789e-09
3.82937565305697636e-09
1.07289282141378831e-08
3.61587116874089103e-08
1.31556058691539842e-07
4.98803528339621122e-07
1.97932973420128332e-06
4.62687021031172914e-06
7.95159940874512959e-06
1.41076871830539097e-10
1.56930702997242639e-10
1.76390715535103736e-10
1.96839796953651643e-10
2.14832246179631253e-10
2.31592842013706639e-10
2.52963418728209041e-10
2.81296170852920715e-10
3.19088843814124204e-10
3.63693756730196616e-10
4.21510015744142525e-10
5.06556429552406962e-10
7.96608100345556993e-10
2.01602153239471582e-09
6.28987009219714939e-09
2.21465796663171357e-08
8.13475922535015132e-08
3.02396345953628428e-07
1.02165152662094039e-06
2.19275713844916521e-06
3.38667758883507213e-06
1.07205634835851354e-08
1.34487900206910638e-08
1.66223844262754765e-08
2.00893417347516775e-08
2.35373853326366159e-08
2.65857663498069242e-08
3.03011194319229607e-08
3.6153383191277158e-08
5.5335930364446822e-08
1.14682083643411697e-07
1.91397272232919513e-07
4.62767681457905918e-07
1.45249130791666539e-06
9.04785442853562264e-06
3.19861486243246004e-05
3.36629316547365026e-05
3.51769830007200466e-09
4.4437529529606314e-09
5.53990234853864875e-09
6.76939745415374227e-09
8.01468823600154311e-09
9.32213358646060212e-09
1.09964821889591186e-08
1.49860402268690851e-08
2.74983927584669093e-08
5.35926803896894579e-08
1.02741317736026161e-07
2.97871704242846722e-07
1.00124822261537775e-06
6.43102724719431632e-06
1.83372931544983376e-05
2.11210378717801916e-05
1.34461563980566702e-09
1.67437861505682968e-09
2.06351631528522071e-09
2.50314998259326406e-09
2.99890771695968206e-09
3.58537359518826836e-09
4.34665144901808008e-09
6.70863569456107776e-09
1.40425488795278247e-08
2.50004403736813929e-08
5.96964080996053489e-08
1.93914332424083627e-07
6.78023126283087665e-07
4.1448593412451251e-06
1.0115580646005751e-05
1.28419303488149001e-05
5.74710793801514863e-10
7.08681600664607849e-10
8.66645838467667125e-10
1.05081579622472142e-09
1.26524688046533056e-09
1.52952775493127951e-09
1.94550855371591264e-09
3.25041140275139522e-09
6.70864378172548717e-09
1.27687590022069453e-08
3.60424494252465982e-08
1.24705621653339204e-07
4.53965882694941431e-07
2.3510000078007347e-06
5.43636762912330211e-06
7.48397085088802995e-06
2.30490195463158083e-10
2.64724104879886734e-10
2.98029680443154956e-10
3.369780788074401e-10
3.84645549739645873e-10
4.32922271265631284e-10
4.83346068282251365e-10
5.5205434335962246e-10
6.78073839788478813e-10
9.43563843086923627e-10
1.66723693567604956e-09
3.11016669045959454e-09
6.9362662348919834e-09
2.19415111560609254e-08
7.88305490119119614e-08
3.04509577620091876e-07
1.2746826463534336e-06
2.85135381776029e-06
4.26656579835267547e-06
1.16016381887719895e-10
1.39856192740941135e-10
1.64694409119358525e-10
1.89865945420654963e-10
2.16140862323730196e-10
2.45949249105973094e-10
2.78089580876599131e-10
3.13574927611189476e-10
3.65899487511660858e-10
4.89329395424006266e-10
8.94230118943955096e-10
1.52623443993240646e-09
3.91514095894131213e-09
1.32164701469304031e-08
4.89067258193557925e-08
1.89745596525483651e-07
6.54318727793842335e-07
1.41682807803841499e-06
2.36893286906218831e-06
3.10445670714027183e-11
3.74082593241124732e-11
4.58546882108694123e-11
5.53229682326755958e-11
6.51103879626786573e-11
7.59953228483548046e-11
9.02515797068181809e-11
1.09201773119587664e-10
1.31938837586575518e-10
1.56662291596519246e-10
1.88310980424898296e-10
2.47709515992397352e-10
4.13262926534394734e-10
8.06451481205801257e-10
2.26961518156661546e-09
7.87813554121089381e-09
2.90978705346788196e-08
1.05764866764293907e-07
3.20371952342319303e-07
6.90443954096716952e-07
1.18477148057714724e-06
2.35369471035163702e-08
2.70891288320626719e-08
3.04185895666956811e-08
3.38592455669402358e-08
3.74324099127993798e-08
4.11878566386192383e-08
4.49795156469664359e-08
4.89492241109693123e-08
4.80279026367453981e-08
4.73513094434378821e-08
5.74125129840226156e-08
1.36760797371621592e-07
4.69425268523467237e-07
3.29141374248144594e-06
8.98136893407005075e-06
9.11516550844988823e-06
6.99466249156293465e-09
8.19737721007702856e-09
9.38173538420700875e-09
1.06332515634926673e-08
1.19755255353306179e-08
1.3429564287177278e-08
1.50232794682597197e-08
1.68921947685944726e-08
1.77621427766039802e-08
1.87203612280172666e-08
2.98663706829713439e-08
8.45881557009591071e-08
3.14294379448886957e-07
2.18430263690467886e-06
4.92840798476770012e-06
5.43530421783363778e-06
2.09131837981296908e-09
2.49486065405926933e-09
2.91300036662957522e-09
3.3696084882958574e-09
3.87826239893023724e-09
4.45173591526023172e-09
5.1380794185583247e-09
5.910202874265463e-09
7.04584651853999751e-09
8.08293491240215657e-09
1.65914614073444748e-08
5.49282546450853526e-08
2.17345170125423292e-07
1.23749031580294798e-06
2.67341366766888818e-06
3.16086168415905502e-06
6.79141725853295248e-10
7.85453972437047292e-10
9.25044779391035668e-10
1.09435450165465016e-09
1.28852562949564096e-09
1.51879274574141006e-09
1.82598888266920409e-09
2.17132539601553961e-09
2.79254794268933929e-09
3.8008207017879959e-09
9.72665142250771655e-09
3.4434391816150005e-08
1.58264896437167853e-07
6.71695736497981949e-07
1.41909646395305021e-06
1.77235948945309579e-06
1.34410112047696828e-10
1.62192902450255235e-10
1.92466739285740205e-10
2.39891490240855716e-10
2.8929811670425547e-10
3.44893987292642844e-10
4.07628588017769188e-10
4.80772503292971955e-10
5.69845016094022538e-10
7.0358041796401494e-10
9.39925585213468804e-10
1.27578812403148939e-09
2.10328088556218039e-09
5.90174250509150626e-09
2.12315983915723287e-08
1.01498385860105995e-07
3.58906032425526835e-07
7.42423309308772242e-07
9.72505990004428424e-07
5.68948817697513918e-11
7.11907880983724457e-11
8.52442337568678713e-11
1.02622621139957225e-10
1.22478946723751499e-10
1.45205655209828568e-10
1.70168712388266403e-10
1.95463848368715669e-10
2.29339755826491934e-10
3.0684871711683428e-10
4.49395604636686542e-10
6.03101996155210263e-10
1.19370739809376621e-09
3.48882443109244383e-09
1.33640214244236342e-08
5.75316461581600184e-08
1.83814487380788347e-07
3.68735662406437899e-07
5.2445672127123598e-07
8.46389970790513706e-12
1.21491994104506237e-11
1.70447196942918923e-11
2.29210503108408018e-11
2.96038531136014321e-11
3.6207322961208043e-11
4.39589237942375772e-11
5.30692800172379676e-11
6.33478977213661958e-11
7.48327604998072433e-11
9.00593559934472951e-11
1.19893303149901838e-10
1.86494472122671082e-10
3.08199659790690699e-10
6.74156164244185381e-10
2.0751704142795636e-09
7.98426978248645118e-09
2.95064311603863087e-08
8.72756056657621956e-08
1.76360131679306101e-07
2.81035909864368711e-07
5.40873743802417324e-08
5.9008988880144602e-08
6.17644008553599741e-08
6.15044950407967215e-08
5.76517236804050561e-08
4.69903631878564684e-08
2.89052088162122041e-08
1.73192674336888961e-08
1.07396801396314981e-08
8.4200014863362476e-09
1.22887559440866604e-08
2.86004331204010752e-08
1.10338423830108982e-07
8.37661540987066418e-07
1.66765271974073693e-06
1.97616223861242076e-06
1.58568599350208363e-08
1.76300664750867322e-08
1.87516215976405334e-08
1.89331929101985333e-08
1.79799242530482757e-08
1.4825181921395482e-08
9.25985391633906334e-09
5.7000963958923682e-09
3.77264698427124344e-09
3.53609409479356682e-09
6.55821769414623286e-09
1.64639112347519148e-08
9.33625720840276498e-08
4.89275479878179628e-07
9.47194360842495908e-07
1.15388997297209453e-06
4.60629070479112858e-09
5.22235523114245285e-09
5.6518183393576232e-09
5.79854410343043027e-09
5.5941669968543254e-09
4.62810278983554243e-09
2.95462607415126446e-09
1.89011005672735592e-09
1.3786561337848929e-09
1.59651244777014178e-09
3.41858224395017997e-09
1.23844709251613352e-08
6.55761701867372399e-08
2.77435382678077249e-07
5.24939785632846216e-07
6.57312290176520763e-07
1.3285592671917831e-09
1.53779325565264555e-09
1.69541537480949172e-09
1.77006667109857704e-09
1.73924651590818233e-09
1.43623343678543876e-09
9.4289370699071654e-10
6.36001621734885764e-10
5.28771935529102317e-10
7.68487555566032938e-10
2.03910603280410702e-09
9.29654641061577936e-09
4.04288384063006205e-08
1.53317009996269778e-07
2.8509527340700048e-07
3.61343454978522756e-07
1.89284274805467784e-10
2.50408318275898897e-10
3.16291625420888678e-10
3.8052539690818784e-10
4.50043537708620037e-10
5.06449989263446743e-10
5.39185885117030286e-10
5.40863285974981125e-10
4.44680469101008927e-10
3.02350419529797457e-10
2.26971237545413663e-10
2.36659127183776481e-10
4.9920054841641934e-10
1.44147255164301807e-09
5.98995572244682819e-09
2.39519962966105965e-08
8.28600242585555464e-08
1.52107656078638748e-07
1.91753075045408845e-07
6.37938391917701861e-11
7.87422922790384414e-11
9.53073403622887142e-11
1.1999333960177184e-10
1.43334040232834195e-10
1.63112533761691587e-10
1.75756713135042513e-10
1.77698060929697509e-10
1.46313395576040473e-10
1.25610056262982766e-10
1.34287512652105891e-10
1.76889548017068659e-10
3.77985118089865048e-10
1.07155312855734342e-09
3.58633469402665232e-09
1.33334460162351079e-08
4.28003493832516853e-08
7.82335621983812542e-08
9.8654408430441076e-08
9.55521898171245835e-12
1.40425417830237088e-11
1.9122972973004471e-11
2.46202649826772507e-11
3.02004992245497839e-11
3.69500568293533631e-11
4.33486986405863689e-11
4.84477038741783429e-11
5.18124926778616299e-11
5.3754522231905004e-11
5.17144947852086067e-11
5.46762145109962752e-11
7.16628853462848875e-11
1.25514636504857592e-10
2.6289215903313393e-10
6.67202625422508286e-10
2.01097879518981533e-09
6.74860484407771638e-09
2.0072197615976007e-08
3.59114234223257395e-08
4.12277795449370942e-08
5.44261835341649195e-08
4.90729214829542149e-08
4.10609375714994386e-08
3.16148535190720455e-08
2.23858395163874732e-08
1.4764678139653348e-08
9.24845456516438086e-09
5.72612788599180108e-09
3.82479353142266896e-09
3.60816308762025141e-09
6.62824254456929152e-09
1.25846987406055979e-08
2.87986865844160576e-08
8.65701885831554967e-08
2.84505516611242359e-07
8.48892064696864007e-07
1.58378825776472951e-08
1.4511504592024406e-08
1.23093615093532544e-08
9.59756472224772686e-09
6.88689735541855274e-09
4.61228511558900291e-09
2.94967374287330401e-09
1.89313090043215589e-09
1.38887229122527705e-09
1.61586159629778187e-09
3.43405770079849949e-09
6.63379507893238734e-09
1.65048860420836951e-08
5.45662230406334959e-08
1.75752925315269307e-07
5.11591774068964278e-07
4.51893090574208361e-09
4.21451198150748485e-09
3.63185136337529507e-09
2.87539766059967134e-09
2.09787047043687683e-09
1.4326124163480525e-09
9.41356698779569377e-10
6.35953827341236848e-10
5.30046585052756889e-10
7.70718532507030859e-10
1.61800667803763184e-09
3.43531208370291078e-09
9.56218306477994852e-09
3.31861001537198526e-08
1.04159110127533068e-07
2.97194154648492511e-07
1.26929468819529236e-09
1.20714975498165826e-09
1.05906660172170458e-09
8.53617321144101783e-10
6.35124311020563594e-10
4.44099494512909083e-10
3.02068575073548591e-10
2.20527650867845445e-10
2.16786276158181882e-10
3.8455362953561948e-10
7.7107819763776225e-10
1.80995354048068747e-09
5.75779992935398973e-09
1.93170071346107861e-08
5.96269889383274599e-08
1.68122486080232143e-07
2.47550394975089963e-10
2.97508190777205711e-10
3.35762146848642302e-10
3.52229597675935576e-10
3.42078992178308613e-10
3.06186511689962219e-10
2.51862108052926323e-10
1.91692583561782593e-10
1.39248661861554833e-10
1.01322495646704916e-10
8.47147494808662163e-11
9.52101021635237398e-11
1.92937617731227114e-10
4.00060616026383811e-10
1.07789273470019104e-09
3.53108374057338742e-09
1.08779038468042454e-08
3.32084277970555176e-08
9.04073373487540519e-08
6.86324071126759321e-11
8.48204088459936341e-11
9.72136657211642424e-11
1.03082033279865637e-10
1.0237762072477729e-10
9.33934318444509644e-11
7.85885747767154875e-11
6.18924625876893929e-11
4.75414796566510662e-11
3.86128942182300137e-11
3.66438977141702244e-11
4.38049074890090694e-11
9.96332771869229346e-11
2.42858947742465655e-10
6.97446467056615203e-10
2.02052520209924705e-09
5.92607750234204807e-09
1.79746050942052908e-08
4.1226643964877509e-08
1.29486273965511517e-11
1.68694506160983743e-11
2.04804771917825883e-11
2.4507883683214797e-11
2.70449244534580629e-11
2.80929059295715588e-11
2.83914762312867729e-11
2.59543109853534898e-11
2.23323204879497918e-11
1.80773827298959183e-11
1.44489129756402404e-11
1.27365715309715883e-11
1.36075324976850794e-11
1.98056193032893695e-11
5.01175126111587013e-11
1.51821624237507315e-10
4.12467031382979994e-10
1.11577663737776484e-09
2.99411543954032906e-09
6.35371277118424233e-09
1.0441020056486702e-08
0.000752497835798617682
0.000444307497202292426
0.00019478188293597858
0.000151107685139895869
6.84955950383699368e-05
3.2390937553859079e-05
2.17707668208743662e-05
1.74450394620219475e-05
1.61866263042187131e-05
1.89753663634435874e-05
2.73920188172130072e-05
4.2179779988765786e-05
8.18042797831135791e-05
0.00022860274581474978
0.000347256848114139895
0.000651042952249495949
0.000425854942695080775
0.000159477112176176461
9.45505652496369674e-05
4.05474616291126924e-05
1.97732792579805996e-05
1.32948945741923345e-05
1.01963170501118879e-05
8.73671636383340492e-06
8.84386318816718399e-06
1.18839063531073169e-05
1.75731100023390648e-05
2.93775203683611364e-05
8.76462020461667786e-05
0.000318438345595295209
0.000284792904046247334
0.00038684994980212788
0.000156998533821000035
6.59794661253320714e-05
2.59660312380910206e-05
1.23471390644208188e-05
8.27736546773232428e-06
6.01786822403107631e-06
4.85194625614790906e-06
4.38610627177912612e-06
5.01023182761558061e-06
7.57439040947913107e-06
1.17842432993320219e-05
2.23341317515271415e-05
8.86020828399998234e-05
0.00038890244396435833
0.000176505658355256438
0.000155347811444394413
6.03378190492025402e-05
1.99761322931943976e-05
8.34918064258531958e-06
5.13932401078785979e-06
3.58161694503747072e-06
2.74129566790585131e-06
2.34750921068095914e-06
2.2648104742038787e-06
3.00698611786529763e-06
4.63673028489111526e-06
7.96843935092936162e-06
1.81383361708904495e-05
8.45052437144097287e-05
0.000371131123661846138
0.000284738637298384404
0.000553764382047439684
0.000346880736607886651
0.000144899436623352907
5.61445095057400105e-05
1.71933743272279426e-05
6.37261067487436601e-06
3.30375372073460316e-06
2.15093716625660138e-06
1.5600149665607055e-06
1.22485627252762625e-06
1.07791511016197033e-06
1.18847358280486513e-06
1.85183024536337832e-06
2.99283526792546702e-06
5.78606152269666039e-06
1.52268648960868442e-05
7.97036768049590335e-05
0.000334485425252521219
0.000347489229481116706
0.000268881038245517758
0.000112781096467058425
4.67617499224022885e-05
1.37614090693055263e-05
4.52735890181456866e-06
1.93328337247918519e-06
1.15024352695043655e-06
7.80077370726351634e-07
5.8246291134899617e-07
4.81219501684439527e-07
4.40469494056962374e-07
5.54020660615280914e-07
1.00055318646314746e-06
1.84663863917018915e-06
4.3165711490076044e-06
1.26991204198698628e-05
7.00164616224150185e-05
0.000298126690692997491
0.000336043099898357606
0.000480460850339433461
0.000146244534415497279
2.11272394805906852e-05
1.2477563828024438e-05
4.70082649502178911e-06
1.71028006883307286e-06
5.95229228338965296e-07
2.33440538657416678e-07
1.20003504639390623e-07
1.04585044806730571e-07
8.44983534444273646e-08
7.66965683459071689e-08
8.61586173094844094e-08
1.55566587474066675e-07
4.55474191856863556e-07
1.13489388862928258e-06
3.23185918862026751e-06
1.03173861781117797e-05
5.20366758414974863e-05
0.000222494699954748298
0.000304116839376191057
0.000359631150770016168
0.000251092780159599589
0.00017874932233688355
0.000127932682603376608
8.72704847320906172e-05
3.38216501630088666e-05
2.14220697006662008e-05
1.75347582359579126e-05
1.59897028149612772e-05
1.82378820444565321e-05
2.53596849376281524e-05
3.72145075717912038e-05
6.4949319958428612e-05
0.00020706102557498671
0.000319977055857623529
0.000292437538647377399
0.000223550931251893402
0.000145366238159526378
9.29361242310331408e-05
4.61922907443517653e-05
1.90781766566062094e-05
1.31902542661384116e-05
1.0227504402525182e-05
9.03186486782309877e-06
8.81034684330263634e-06
1.11826107898309295e-05
1.61235061624310889e-05
2.55371821390584569e-05
7.69620040327523216e-05
0.000340437097012197612
0.000245432593845746683
0.000195804946853640033
0.000132028213431174281
6.789739067348246e-05
2.6832272300217754e-05
1.182960886655698e-05
8.07376491478013522e-06
6.14460021153514824e-06
5.0277868752072896e-06
4.52415942527033259e-06
5.07431800314884745e-06
7.44307130564798903e-06
1.10861238787823222e-05
1.92484810442497314e-05
7.78528677156094338e-05
0.000383783899167363675
0.000173475697429403537
0.000128010946754824185
6.0962179051069073e-05
1.65531906579379124e-05
7.49813671728945269e-06
5.0448299290048696e-06
3.6735529028329289e-06
2.81851056957868434e-06
2.44582026966664382e-06
2.32599709972896757e-06
2.89159941461350615e-06
4.51207353351785899e-06
7.41147447659256504e-06
1.56941633455863305e-05
7.69938157243933057e-05
0.000336985679645709977
0.000229958360950428993
0.000248587875374479755
0.000168293861821888237
0.000124273033405058905
5.53150234511881297e-05
1.13238887758607826e-05
4.84391854757936625e-06
3.11868008603605297e-06
2.15850110992878291e-06
1.60893958971957259e-06
1.27873985315929574e-06
1.13000872768526467e-06
1.20734575776901373e-06
1.80996596717606187e-06
2.87850339122657429e-06
5.34224398986521078e-06
1.34039641271859211e-05
7.5219639441683847e-05
0.000365798774530698553
0.00034098635989576444
0.000155376608422961248
0.000113726051302370814
4.98443438233201556e-05
7.33389253131890484e-06
2.90129956720041931e-06
1.70335936880947811e-06
1.09750918851295061e-06
7.89193748325808025e-07
6.05563111584579987e-07
5.04963835915009702e-07
4.61518424588686753e-07
5.64988239669825075e-07
1.01271594744371227e-06
1.80484969222058507e-06
3.98917008201847841e-06
1.14283406231693863e-05
7.26331294710173023e-05
0.0003343210623592451
0.000316000023310702201
0.000224778213495689465
9.57736869401383507e-05
7.18043928555302442e-05
2.77307669360788706e-05
2.03317882424109239e-06
8.40801128165060173e-07
3.5468118680624324e-07
1.78771946192448344e-07
1.40755291242311789e-07
1.08865943113259166e-07
8.93635911770763444e-08
8.13709023449388646e-08