/*--------------------------------*- C++ -*----------------------------------*\
| =========                 |                                                 |
| \\      /  F ield         | OpenFOAM: The Open Source CFD Toolbox           |
|  \\    /   O peration     | Version:  2206                                  |
|   \\  /    A nd           | Website:  www.openfoam.com                      |
|    \\/     M anipulation  |                                                 |
\*---------------------------------------------------------------------------*/
FoamFile
{
    version     2.0;
    format      ascii;
    arch        "LSB;label=32;scalar=64";
    class       volScalarField;
    location    "0.270000000000000018";
    object      p;
}
// * * * * * * * * * * * * * * * * * * * * * * * * * * * * * * * * * * * * * //

dimensions      [1 -1 -2 0 0 0 0];

internalField   nonuniform List<scalar> 
7340
(
-1.17927630735190814
-1.17084102817882241
-1.16456899717431961
-1.1604653786019643
-1.15818216645124683
-1.15709177100125782
-1.15646580520393361
-1.15538083974766725
-1.15189027603894401
-1.14255152346742683
-1.12301600640813382
-1.08708893100248183
-1.02565985157160733
-0.938938382336954147
-0.819358713834361985
-0.212770523916855803
-1.30613096640017012
-1.29680490412510085
-1.2891246917371999
-1.28297268602188641
-1.27794727390843299
-1.2733831414098391
-1.2684145555792099
-1.26182104390989469
-1.25148601906545531
-1.23405442191967052
-1.20492832793092508
-1.15774297912371305
-1.08436517874606664
-0.975569414140115776
-0.816420669123856135
-0.348915750032306793
-1.43159822095184697
-1.42135810463858214
-1.4123212714216451
-1.40427411092280252
-1.3967643377689154
-1.38908385845075899
-1.38025479449488131
-1.36887167080606753
-1.3527411164057328
-1.32855759966620512
-1.29155167465493825
-1.2353837695541765
-1.15304350129220268
-1.02870915047742173
-0.850589236366884993
-0.501729032990797963
-1.55590514131273649
-1.54477135721695502
-1.53446123206044516
-1.52468853862929743
-1.5149551721696537
-1.50451287061405692
-1.49231013569680648
-1.47684409389030069
-1.45590693705135976
-1.42627981854167318
-1.38321521510961309
-1.32063672180083502
-1.23265334266889082
-1.10116546727863351
-0.921649447680688794
-0.669431686731243758
-1.71972954818631329
-1.70537286102803698
-1.69191487834564969
-1.67925186755610989
-1.66727685959449135
-1.65579904673892697
-1.64447871987018823
-1.63278190133387668
-1.61993084406873744
-1.60483689891280035
-1.58596787140817064
-1.56115773190898421
-1.52734132132102651
-1.48007097153750822
-1.41387132188309783
-1.32329019264684034
-1.19267207864543101
-1.02500649581909853
-0.846413633998387649
-1.84337561911082259
-1.82883076056447158
-1.81502098510524901
-1.80182018319029669
-1.789076432906056
-1.77655039946765192
-1.76386471881080098
-1.75046147390518314
-1.73554935174381808
-1.7180348169584887
-1.69640948419490134
-1.66860372147048297
-1.63177548974282116
-1.58197811554899626
-1.51452751029046029
-1.42422653051103199
-1.30071814794129903
-1.1528255158510845
-1.02695222531460173
-1.99798007640603381
-1.98170629459023706
-1.96627469566478918
-1.95156291925802128
-1.93744064787942216
-1.92375780905704596
-1.91032760579929239
-1.89687800005574458
-1.88300758359350895
-1.86814617565620655
-1.85150507665425734
-1.83201341429536657
-1.80822751085196609
-1.77822036017135576
-1.73942607404611582
-1.68845680848388269
-1.62144400624196994
-1.53416365125884857
-1.42162521715868673
-1.29661278785728884
-1.20568453513251761
-1.15226777409490677
-1.14346153925313043
-1.1363454646150084
-1.13050729683977402
-1.12530954941358075
-1.11990538449438692
-1.11297281239539747
-1.1021731047749066
-1.08399204529266768
-1.05394214573071121
-1.00544513362345866
-0.929986914932119157
-0.822276387906183626
-0.66572624889391574
-0.202116390177764949
-1.28921986826191981
-1.27794625889154001
-1.26796885936101278
-1.25911795642849245
-1.25095246158654194
-1.24278038160591553
-1.2336318441594214
-1.22204924977395635
-1.2057256050398113
-1.18131183120470307
-1.14419410090122953
-1.08789735408589983
-1.00506809145153708
-0.884090362214816627
-0.710945341220168059
-0.366997864887616432
-1.41460145541360061
-1.40261812789532581
-1.39153338199262611
-1.38110400789784449
-1.37085270624299049
-1.36004826702022408
-1.34764869218347183
-1.33213224207800285
-1.31124142767514562
-1.28177497231890292
-1.23917075188506276
-1.17730827485163214
-1.08998895529928519
-0.962889783075084438
-0.789138727750161029
-0.54203966319411645
-1.53913619576244343
-1.52646454544491017
-1.51435488282465092
-1.50250757413785463
-1.49041227265099696
-1.47731082596225738
-1.46212883528838966
-1.44333734177303263
-1.4187609764504836
-1.38537970609402228
-1.33891697435368662
-1.27391427288797798
-1.18484155567492944
-1.05872767776720034
-0.896212891978293014
-0.722445877779588908
-1.70608909013178001
-1.69109582600861219
-1.67673942865222592
-1.6629550607482948
-1.64963897103690482
-1.63659915178208304
-1.62349391378655983
-1.60979036618079019
-1.59471849671541177
-1.57720201005629335
-1.5557465228270384
-1.52829756307657094
-1.49206831913167792
-1.44324868363240455
-1.37722752124675818
-1.28901552474998526
-1.16956528455555175
-1.02508159039054902
-0.903434611976179802
-1.83000020190352686
-1.8149180269022942
-1.80034129089451134
-1.78617308732320268
-1.77227248063539622
-1.7584062977352688
-1.74420437822590957
-1.72912222931241599
-1.71239356935021436
-1.69296631336241177
-1.66941529965319702
-1.63984107264258316
-1.60173696970220902
-1.5518306881006394
-1.4863735244988272
-1.40140777320668586
-1.2920697973110391
-1.16828415152158382
-1.08204597247014855
-1.98513409462113888
-1.96895724905387581
-1.95332236808156789
-1.93816473905815201
-1.92339321406365915
-1.90888448472207162
-1.89446734866057342
-1.87988156036881171
-1.86474094555187531
-1.84849954281120432
-1.83040850224796592
-1.80946131045242131
-1.78432889067233647
-1.75329217302450924
-1.71415528159053276
-1.66419975707074275
-1.60052652247389426
-1.52050231433187188
-1.42276263899185396
-1.31952367426013639
-1.25591745492263418
-1.13711348211787966
-1.1256575103622275
-1.11529594373056384
-1.10560928078005682
-1.09589966548515361
-1.08513568733395793
-1.07174155623648781
-1.05328906864599503
-1.02643235337470951
-0.986678142621399523
-0.927568241433119223
-0.841972543443031629
-0.721115417087987209
-0.549811102759256043
-0.22855729109634515
-1.27527271258227781
-1.26201618132231896
-1.24963296846790195
-1.23790022713843872
-1.22635371661280024
-1.21425729102104007
-1.20054048221981269
-1.18362696193701633
-1.16121055756734326
-1.13013608350929973
-1.08604418651106482
-1.02295984325509859
-0.934738686639839167
-0.810455553261017037
-0.642236794170791714
-0.412593225337920089
-1.40022503917930052
-1.38644531414772398
-1.37321498095981354
-1.36025788378874779
-1.3470775003397224
-1.33291747269423078
-1.31669468378814991
-1.29686268545514727
-1.27124440311184639
-1.23690045914882796
-1.18979180961387598
-1.12468630103965306
-1.03621343586718817
-0.914315202647363656
-0.758465783621795953
-0.597451302344630952
-1.52471478012828965
-1.51044569908476167
-1.49645017991147244
-1.48241044384248499
-1.46780859147332299
-1.45188312869669023
-1.43356215951257804
-1.41135890299174283
-1.3832448538072013
-1.34653140417099015
-1.29763453159517428
-1.23219278221157458
-1.14560788882074105
-1.03071371547143054
-0.892714171457414274
-0.779960434586969509
-1.69471327739809219
-1.67902948385733652
-1.66372995851637095
-1.64877435302775632
-1.63405814424193685
-1.61938150095294531
-1.60439676885178417
-1.58857585885119534
-1.57116544324943153
-1.55112496137864597
-1.52705121469759697
-1.49708780974577094
-1.45882931643700609
-1.4092041774122166
-1.34471888026757913
-1.26188599643258392
-1.15683917516139978
-1.03846484651912041
-0.958105513274939091
-1.81868973288096836
-1.80301638437563327
-1.78762499688713095
-1.77243948882173763
-1.75732670343316366
-1.74205594489443949
-1.72626180114253192
-1.70941587670258111
-1.69078513141791253
-1.669378753933352
-1.64389494972326489
-1.61266802832435929
-1.57360017822320808
-1.52415136865310274
-1.4616656909300314
-1.38391329053900569
-1.28981078828305229
-1.19021026935817398
-1.13103416630044418
-1.97432345081754868
-1.95814638837888211
-1.94224123620627775
-1.92658876042232197
-1.91112361546891552
-1.89574280893508251
-1.88028858543830246
-1.8645112101461625
-1.8480386498784549
-1.83035087961450293
-1.81074519435703274
-1.78829570781148361
-1.76181647197328806
-1.72983866599329117
-1.69058428230134195
-1.64203183350853177
-1.58229900347255237
-1.51031863174249947
-1.427142516287768
-1.34433556536428744
-1.2986502117643306
-1.13805546908533017
-1.12304281196614175
-1.10875139064045647
-1.09494526640282341
-1.08116599373809463
-1.06665585403711294
-1.05028264541821037
-1.03039554260197308
-1.00465028790319244
-0.970015376923550332
-0.922541757134432205
-0.856692470550977747
-0.766187280283312511
-0.644462646925021643
-0.482361473562265775
-0.280676645536638292
-1.26259855585305703
-1.24725430048348485
-1.23235391489613422
-1.21762113115445314
-1.2025624109060542
-1.18641135666335829
-1.16805643052370067
-1.14592313114231859
-1.11784489766259321
-1.08102434963969407
-1.03181658827950162
-0.965450251245884572
-0.876694955271872689
-0.759199827939250671
-0.611685412700154196
-0.469914092400243399
-1.38720202432661921
-1.37156421992562882
-1.35612671329380596
-1.340579482880073
-1.32441020486206562
-1.30685638021370432
-1.2868380521923708
-1.26286789399189781
-1.23296172610060295
-1.19458212073358716
-1.14449202964452001
-1.07875621012700895
-0.993306548807178391
-0.883527186931413078
-0.754102365813030806
-0.653796390203605915
-1.51172582631348651
-1.49582555673942208
-1.47991441846663419
-1.46365675492787428
-1.44653290870326479
-1.42779559818166879
-1.40641001745460237
-1.38098934542632379
-1.34973793420121191
-1.31040329474223105
-1.26021630884510749
-1.19608026958277636
-1.1151477420720548
-1.01508540860471386
-0.90429563825721837
-0.831535057044939685
-1.68494873033219528
-1.66850989003444905
-1.65222986083142542
-1.63607913521871762
-1.6199466957123092
-1.6036229028082587
-1.58675545847511312
-1.5688263633826145
-1.54911307725626157
-1.52663918358276973
-1.50013001082283859
-1.46798460519334029
-1.42825193341528411
-1.37865182093633409
-1.316883886451921
-1.24127928724438741
-1.15161456552810026
-1.05811242169113973
-1.0033899070447676
-1.80897654759070758
-1.79266253713817103
-1.77642833182214455
-1.7602108158658003
-1.74388000648413577
-1.72720574372785141
-1.70982804131705035
-1.69123869118654913
-1.67074826428319345
-1.64744951213239821
-1.62018888891651636
-1.58756283396126907
-1.54792742721648313
-1.49948172831809057
-1.4406463390069697
-1.37077588071095846
-1.29127882126696525
-1.21284574441158122
-1.17012501363453714
-1.96525234860303466
-1.94896420931591918
-1.93272274445732273
-1.91653604081761997
-1.90035583084168125
-1.88409356535181782
-1.86760168674992966
-1.85063975197395503
-1.83284886926332291
-1.81373775358856903
-1.79265713544363026
-1.7687763686009359
-1.74106842880128987
-1.70832481207713149
-1.66920052096841554
-1.62234004380399077
-1.56678941055229215
-1.50273150743205597
-1.43271941584131768
-1.36705918122855108
-1.33247148375620617
-1.12452332532954924
-1.1069728619514374
-1.08967084731672448
-1.07233525270863495
-1.05448083915400526
-1.03535002684016986
-1.01378452752638615
-0.988170454507106943
-0.956422706559057811
-0.915978409216912315
-0.863637316360460483
-0.795319726555880013
-0.706775894113491954
-0.593975988973312496
-0.456600563168837459
-0.339077888325445498
-1.24918962010864787
-1.23166376358223717
-1.21420434471616079
-1.19650317549427654
-1.17805336088831503
-1.15809717486242403
-1.13553862888986989
-1.10888649442531695
-1.07623824861459849
-1.03526829541392207
-0.983143985525914088
-0.916564106465212136
-0.832394469225690492
-0.727933250785227526
-0.608296348578154289
-0.523167308265953368
-1.37422189362583191
-1.3567131886249042
-1.33910078410546274
-1.3210547688172174
-1.30206203875621451
-1.28138156265882874
-1.25797778233783442
-1.23047863877741226
-1.1971728233338641
-1.1559992599441653
-1.10454996220613766
-1.04028094635908586
-0.961172997582562361
-0.86626882457245924
-0.763935257487434183
-0.700304939607705124
-1.49933685006382955
-1.48183705855261016
-1.46408028866820938
-1.44572218318595547
-1.42625317158660292
-1.40495936029463442
-1.38087238050476668
-1.35274230927569539
-1.31904928299115709
-1.27801668896323806
-1.22767746065856098
-1.16619473434712129
-1.09256608842647895
-1.00746125848579782
-0.920739528923519401
-0.871445681865648969
-1.67618009236193077
-1.65894571418808257
-1.64168312105346792
-1.62436404053303773
-1.60686919862318867
-1.58898374412998722
-1.57035672408354654
-1.55048901490084723
-1.52870161241507629
-1.5041006916961257
-1.47556158273249571
-1.44175573264255497
-1.40119541267917791
-1.35234211252901071
-1.29399485437620676
-1.22601366626894359
-1.15033350447342597
-1.0770737241026267
-1.03764295392319505
-1.80045775013926979
-1.78348116765760745
-1.76641470443348125
-1.74920415375558735
-1.73171794869083828
-1.7137277956677881
-1.694883612649835
-1.67470309441621934
-1.65254821741164415
-1.62760442356723112
-1.59887522355047018
-1.56521957119578703
-1.52542963451272828
-1.47836577981197115
-1.42337456604452584
-1.36099807111138871
-1.29402403942116395
-1.23208701465790993
-1.1997493407510551
-1.95763124689486379
-1.94113916259370578
-1.92451866440276764
-1.90778502884120371
-1.89090585545728573
-1.87380443913410444
-1.85633795991563488
-1.83827376788051655
-1.81926940973875806
-1.79886507320745581
-1.77646844783865165
-1.75134644685674523
-1.72263077741611625
-1.68936213567511917
-1.65058987913929434
-1.60553493484428289
-1.55399745021696645
-1.49702873035960504
-1.43791518566628862
-1.38543527466181393
-1.35833597156761554
-1.10718685828472418
-1.08718890870803486
-1.06715102161767583
-1.04678102799091399
-1.02557677013591642
-1.00275740298197458
-0.977226387561246912
-0.947514259119752289
-0.911839282002542717
-0.868129476775152509
-0.8140179668110199
-0.746928099540442147
-0.664808398165860348
-0.56621537192945337
-0.457061658222338796
-0.387352653749239662
-1.23401409080228541
-1.21446691655162331
-1.19474602404246144
-1.17453173738179562
-1.15331370224397389
-1.13034243610723628
-1.10458480555074701
-1.07468786427358398
-1.03903616324208148
-0.995786741686726762
-0.942917203220393407
-0.87847999780876318
-0.80134120296094502
-0.711570074772410854
-0.617707878222346629
-0.563331671071904405
-1.36083126206303606
-1.34163887269379511
-1.32213950311286466
-1.30199867801592051
-1.28071053255586431
-1.25755903427432969
-1.23157964039042755
-1.20154100674238551
-1.16600392493735083
-1.12337659326934691
-1.07200901965415474
-1.0105505349803654
-0.938688850948448561
-0.857836209344214007
-0.777619387092778225
-0.733976250629569948
-1.48742021639557942
-1.46851110633636894
-1.44917336623387438
-1.42906605358717864
-1.4076947501198025
-1.38438128372707636
-1.35823572511413104
-1.32815339512371078
-1.29287321379069908
-1.25106211974076986
-1.20144115281296182
-1.14319866737556763
-1.07671266835381796
-1.00439958040983668
-0.935959482792720121
-0.90011913934573895
-1.66819174753502586
-1.65019623377896396
-1.63203426805373164
-1.61367597603426183
-1.59499916563672617
-1.57578874486127196
-1.55570289593862965
-1.53426431980468148
-1.51083734461068064
-1.48461171418370319
-1.45461057504728419
-1.41975031844794297
-1.37894862233457416
-1.33127840377833895
-1.27639358435400041
-1.21521753702429391
-1.15082027004337184
-1.09236109437441131
-1.06239219766871296
-1.79304874507262202
-1.77544996308477709
-1.7576352341216519
-1.73955507812617727
-1.72107742513786111
-1.70197858891046816
-1.6819219566797623
-1.66045221810690657
-1.63697996915665556
-1.61077680096872822
-1.58099257212786348
-1.54671649976014236
-1.50709955526037342
-1.4615362010254489
-1.41006407434522241
-1.35400589224128631
-1.29678109770717853
-1.24669821047355622
-1.22126968455022622
-1.95136117096815243
-1.93461935499120075
-1.91762062588037763
-1.90037987684973619
-1.882879948795668
-1.8650515061098496
-1.84675490178695223
-1.82776649657141177
-1.80776041061654746
-1.78630733033904754
-1.76286696878707927
-1.73679286456687931
-1.7073573340209125
-1.67381429562636397
-1.635527273697575
-1.59217050229974744
-1.54408860527271141
-1.49287342969902381
-1.4420617358996779
-1.39900617512787395
-1.3771364028638533
-1.08840620150111822
-1.06660098802463255
-1.04464828838630508
-1.02227462572585859
-0.999009924338413402
-0.974120638862351784
-0.946579763743131242
-0.915025405137416925
-0.877865251326962692
-0.833320815649563729
-0.779543445184489592
-0.715021321242398367
-0.639324728076972604
-0.553378393962034698
-0.466439524045257903
-0.418166720501955913
-1.21906198929910126
-1.19802804057979451
-1.17671068231085552
-1.15480505231153208
-1.13182632587074083
-1.10706299848505285
-1.07954452113602439
-1.04802686243428611
-1.01108807261257549
-0.967209981692800591
-0.914909399346156338
-0.853194104778908557
-0.78229788119250232
-0.704272752715732087
-0.62896505214854781
-0.589030845318797236
-1.34863335888113123
-1.32820546602756906
-1.30736790438179074
-1.28579899079082116
-1.26301430387426716
-1.23833323818546948
-1.21085402999280167
-1.17945642171605303
-1.1428937394646792
-1.09990202762846767
-1.04934763178227186
-0.990705312778115132
-0.924770271254451881
-0.854401142034555861
-0.789272204356204043
-0.755773345553066189
-1.47723815282586401
-1.45729777528466742
-1.43683605138119264
-1.4155245475715732
-1.39288978639726979
-1.36828937347884927
-1.34089782179853367
-1.30972354211113928
-1.27369247413076425
-1.23177982226800009
-1.18318145765568383
-1.12777551841860668
-1.06679996026786883
-1.00361576812746867
-0.947256700619131253
-0.918806623618103613
-1.66158749841969566
-1.64298582202384447
-1.62413507736104101
-1.60500163749219449
-1.58546254644337403
-1.56530812011308829
-1.54421020341964099
-1.52171359668611328
-1.49722000509675235
-1.46998452882588548
-1.43914265824039656
-1.4037890934119257
-1.36311877012288729
-1.31662916937390428
-1.26453243346082189
-1.20839014279711487
-1.15181029839212457
-1.10295027106839205
-1.0785172820627964
-1.78722845495119564
-1.7691396946816742
-1.75075821609050841
-1.73203439711379636
-1.71283552482068613
-1.69294548651306354
-1.67204291627330082
-1.64969575899160548
-1.62535376988821834
-1.59835331122751678
-1.56795251106819356
-1.53340866999566838
-1.49411642381814436
-1.44983627235032309
-1.40104727748322322
-1.34952277384848207
-1.29891945124968178
-1.2564421994040309
-1.23524282973353516
-1.94668804108764704
-1.92971757185671744
-1.91240590358518903
-1.89476956735281221
-1.87680266064693924
-1.858438611607095
-1.83954006113505453
-1.81989117495634734
-1.79918313591706425
-1.77701068100118831
-1.75287355834002812
-1.72618854595309767
-1.69633084799559852
-1.66270814582989557
-1.62489822633951331
-1.58287611633660474
-1.53733221229693551
-1.49015475233238059
-1.44490804329981293
-1.40787110950589245
-1.38929855594587814
-1.07524605790038263
-1.05270314990035341
-1.03007663119622905
-1.00709161821877324
-0.983260886973602144
-0.957834221974390498
-0.929766675543972854
-0.897714943511132679
-0.860173566708104187
-0.815547793955290756
-0.762316430735755501
-0.69954075540512739
-0.627603564827126537
-0.54879831181630756
-0.473569245855461896
-0.432882197146274739
-1.20916422930482725
-1.18746053131740736
-1.16548825430573477
-1.14294413695511654
-1.11933828153294268
-1.09395611160063355
-1.0658337464772476
-1.03376799942410269
-0.996431848440479939
-0.952496703268447709
-0.900782114350300311
-0.840794131647300436
-0.773435360080362622
-0.701758629877809348
-0.635942303121196484
-0.601555182495024821
-1.34096491739076851
-1.31994667599032089
-1.29850750186271924
-1.27633014768343167
-1.25293171332029951
-1.22763774427470862
-1.19956750400575762
-1.1676547860638038
-1.1307508274181084
-1.08776728440107084
-1.03785085910024044
-0.980895387266166763
-0.91822498717053469
-0.853373703485094004
-0.795834525548805516
-0.766466076620026637
-1.47111632964842731
-1.45066503615085196
-1.4296694082098822
-1.40780701622060223
-1.38461013261350496
-1.35944858084483111
-1.33152585137349178
-1.29990960105494202
-1.26362326589589635
-1.22179804193750496
-1.17388507542017861
-1.12010338750379135
-1.06209311663055783
-1.00362811861381918
-0.953292733301398965
-0.927967337790191138
-1.65767070186728938
-1.63873312078691313
-1.61951372920680092
-1.59997685652620714
-1.58000072421883342
-1.55938229120649918
-1.53780087103918084
-1.51480986558130959
-1.48982713549161216
-1.46214039964165177
-1.43094502818712588
-1.3954281087000735
-1.35492455867995898
-1.30915409395444371
-1.25860025759180205
-1.20511702907227125
-1.15252689363031835
-1.1084261326306557
-1.08639512151090822
-1.78391173846789397
-1.7655523437557783
-1.74686752874999152
-1.72780740753145023
-1.70823772262053342
-1.68795013626275647
-1.66663240457572659
-1.64386237370981525
-1.61910849551098734
-1.59174176533244238
-1.5610766019465625
-1.52645573038917726
-1.48740205818853521
-1.4438564653887338
-1.39651465032985689
-1.34735086874828625
-1.30009585245803594
-1.26137618427814058
-1.24205790940973859
-1.94412270472002358
-1.92701524377750899
-1.90952322025588428
-1.89166889898613255
-1.8734522847888293
-1.85480873919101152
-1.83559838661692543
-1.81561303773127558
-1.79455445591962781
-1.77202807377097926
-1.74755438071452618
-1.72058485798558558
-1.69054426514164025
-1.65692078870745352
-1.61940614884245382
-1.5781190643757248
-1.53391764085502458
-1.48881935759244932
-1.44636915947936062
-1.41230467811996396
-1.39523188656720709
-1.32530298241361377
-1.38034782983994941
-1.42242657615363899
-1.44823784314583426
-1.46167606569886721
-1.46883021205813424
-1.4756997037486419
-1.48645076286547395
-1.50105326785472637
-1.51783706139629992
-1.53491143825393195
-1.54397515383051198
-1.51574254968339539
-1.52703376706321459
-0.428344146183513574
-1.43870196289598384
-1.46868599834908498
-1.50413243635825844
-1.52891675200285304
-1.54248830555958949
-1.5460981884405649
-1.54762613381284986
-1.55051123577930183
-1.55458192749703628
-1.55830898048179045
-1.56022303438257115
-1.5584473366506415
-1.54316607840237818
-1.49832462464071847
-1.45824295874391874
-0.533030448316462957
-1.57813708037443279
-1.59676175067337667
-1.61431906028836547
-1.62553808563109081
-1.63039487728006827
-1.63171870932261331
-1.63092419824710921
-1.62847730026871806
-1.62430739622948517
-1.6175664366466842
-1.60599333438018732
-1.58633024824397295
-1.54811459512089056
-1.47710791533825514
-1.36558447143917094
-0.581583732209387305
-1.71060021132529694
-1.71443113627093924
-1.71800381308261008
-1.72105024674574114
-1.72333404464545858
-1.72116708390483097
-1.71566182963383462
-1.70784373905473696
-1.69679596859756199
-1.68077062600868832
-1.65670236444601415
-1.62036819630288176
-1.56101482992817431
-1.45943122439660078
-1.29195984354477966
-0.622628984384959505
-1.85554008695312644
-1.85304358595998564
-1.84422829765589769
-1.83367168043866924
-1.82549496987998561
-1.82178737116327949
-1.82138679969266626
-1.81841966257055598
-1.81208167069040993
-1.8027660183323102
-1.79027208635289425
-1.77311698922224092
-1.74880912729061433
-1.71351034991403983
-1.66235169448954467
-1.58438886767478393
-1.45515174381688883
-1.2490746838753779
-0.678983385959370356
-1.98965325439324747
-1.98597352828859508
-1.96703507817723211
-1.94694872040497247
-1.93433128030325285
-1.92811110779103001
-1.92227773284495052
-1.91518463963151553
-1.90563210550941453
-1.89295617861694665
-1.87620001446217577
-1.85353475519401356
-1.82201625247626287
-1.77723020082507133
-1.71389055286520886
-1.62096922107022801
-1.47068068616254433
-1.23617597873537743
-0.76763343373097781
-2.03869358777769527
-2.07059534823234515
-2.09823183721263007
-2.09731659338111553
-2.07592621715987358
-2.05654893131399996
-2.04360433527225593
-2.03343420815050058
-2.02427972847424265
-2.01430218514171244
-2.00195522717956997
-1.98615210833512479
-1.9655755968063493
-1.93814984566956183
-1.900656045115235
-1.8484297612247913
-1.77591264761897905
-1.67177531514569311
-1.50928252217140968
-1.27046492769105246
-0.896050782857945816
-1.40662526931833831
-1.41790071674278018
-1.43107557367815486
-1.4422351042030348
-1.45002677419194059
-1.45697666486680166
-1.4644539682498563
-1.4747584978857764
-1.48854900486816066
-1.50514514431225366
-1.52324842140015826
-1.53490107934696773
-1.53004362237874925
-1.56246120251073917
-0.478677580026377392
-1.52348209164080406
-1.51510864654775257
-1.51871835629320695
-1.52670780415399898
-1.5332498782186188
-1.53613995478458665
-1.53731586034401557
-1.53938180495257382
-1.54244157543069238
-1.54577425149960557
-1.54817402807527582
-1.54777927157790973
-1.53519021030757785
-1.51094797163683614
-1.50654410758929469
-0.574988788484501301
-1.62804499256436364
-1.6173429170733935
-1.61757459207907317
-1.62102050292416933
-1.62294169356069395
-1.62221430727085814
-1.62009211832778655
-1.61722465211235855
-1.61314761706652954
-1.60647033636410685
-1.59517826576342081
-1.57615981763339397
-1.54060150511623162
-1.48706849458460333
-1.41627211730999725
-0.62305412307125807
-1.73221839148765233
-1.72086179629058678
-1.71743871278443305
-1.71669421594021854
-1.7152050594063224
-1.71145139735874396
-1.70568958145768379
-1.69791345524473858
-1.68704967021229235
-1.67111842553369505
-1.64706949604865627
-1.61043136825120659
-1.55359416135569073
-1.46725051843269494
-1.33398377689979153
-0.656450702514290052
-1.92665454074247466
-1.89218409447777458
-1.86083404830313115
-1.83945240223470763
-1.82619268539315227
-1.81934850209125543
-1.8152929355823848
-1.8104279059330266
-1.80349368639566388
-1.79413736032509141
-1.78168013314614426
-1.76459861854427835
-1.7403667157593421
-1.7049890656784763
-1.65275993026402279
-1.57719092824989349
-1.46090966391880617
-1.28177988174314406
-0.707170974807850738
-2.02113461722503063
-1.99406505713283844
-1.96843763257181381
-1.94667597880011156
-1.93226686113023338
-1.92324429697496346
-1.91605255644013428
-1.90814278980839691
-1.89824561294649996
-1.88548814094745154
-1.86873407859101537
-1.84610954837776675
-1.81467684243443017
-1.76973062016963922
-1.70484674793875746
-1.61413018137925945
-1.47417482287107027
-1.26623817694893903
-0.796168708155078786
-2.15523138290901572
-2.12179707970642717
-2.11052875335178181
-2.09538386065426963
-2.07359170359282263
-2.05374762669189392
-2.03923784248354423
-2.02843796103234197
-2.01867068328456511
-2.00816793142994499
-1.99555861442940885
-1.97967888212730303
-1.95910207803713865
-1.93170727425390543
-1.89427206337156107
-1.84175656545091115
-1.76777933020894684
-1.66567471195444994
-1.51130151496994714
-1.29753671466604636
-0.925619462640488111
-1.38178656577422232
-1.38237462338178063
-1.38863735476443195
-1.39806508819920117
-1.40773662714276115
-1.41738504675767429
-1.42585305500624626
-1.43593418214708324
-1.44797099498696236
-1.4619540849873518
-1.47721058526089655
-1.49205969614997969
-1.49671739659743697
-1.48775074268087959
-1.53114805046957292
-0.476018520304361648
-1.49840722854675512
-1.49396656070969258
-1.49595001858396648
-1.50056836048978015
-1.50485372849255739
-1.50794449271928355
-1.51082538694232604
-1.51449412443458664
-1.51852270311882642
-1.52184858970891157
-1.52312983324045015
-1.52034401325200497
-1.50251869706396013
-1.47127146605657066
-1.47212496507037516
-0.567575731590232779
-1.60857262266077305
-1.60156906667526222
-1.59965856640310156
-1.59955556058189474
-1.5993886371941084
-1.59868641038954773
-1.59736986665010372
-1.59546606172962879
-1.59198809763538485
-1.58521636598090643
-1.57298951073903992
-1.55230424143045309
-1.51315613093135837
-1.45225798869563216
-1.38307558016479559
-0.61476990455462488
-1.71737009933000406
-1.70744818522382524
-1.70192131686701709
-1.69856163275987293
-1.69544925545827585
-1.69150754881838239
-1.6862267585171582
-1.67900458413794396
-1.66848451049836588
-1.65242927141370299
-1.62767944400392217
-1.59014142668956993
-1.53120582164136043
-1.43890614147072471
-1.30807560032991566
-0.653735094326386879
-1.87905624910894553
-1.86059162921084353
-1.84170996378228291
-1.8252546186503682
-1.81324437465229948
-1.80541159816116892
-1.79952136165157617
-1.79362903034342724
-1.78654300822924528
-1.77742235842440532
-1.76526967279963043
-1.74838952830662553
-1.72409534260383257
-1.68833300144932519
-1.63596508543305563
-1.55966942573913059
-1.43977337987741927
-1.26561833737836538
-0.714056334575146945
-1.98496889869701998
-1.96851453250021757
-1.94991216926191302
-1.93294610157474267
-1.92008490806106047
-1.9104905042263276
-1.90229770755135807
-1.89378204979884424
-1.8837211873227937
-1.87106242701932746
-1.85449530331558332
-1.83204108136366073
-1.80068141855880293
-1.75572988134322427
-1.69134550659678906
-1.60106465917773666
-1.46037757989455352
-1.26126952088709099
-0.812785469169449382
-2.11532487095648181
-2.09866456314248229
-2.088453437697249
-2.07451092504277268
-2.05721780653798181
-2.04111683333692584
-2.02786188620725794
-2.01686552320649648
-2.00663826891585861
-1.99575988265904103
-1.98301434724525105
-1.96719373078545101
-1.94677458974401185
-1.91958610218243586
-1.8824130171650002
-1.83030478554278364
-1.7571711694806027
-1.65659301497410105
-1.5044654826770596
-1.30271498640220806
-0.949618441311517403
-1.34561495674550891
-1.34525765098408834
-1.34939760511280449
-1.3558339197732181
-1.36352335063754948
-1.37244634445306057
-1.38295666040210663
-1.3953137374135296
-1.40925667595684057
-1.42360346076566269
-1.43725087181254474
-1.4484595004465457
-1.44636385617063246
-1.43149354026557685
-1.47510085968983184
-0.448856587858837308
-1.46262960107299822
-1.4592205830797218
-1.4596148752752125
-1.46203854209429362
-1.46513430739718031
-1.46916376222260747
-1.47391535706565935
-1.47921929068374824
-1.48428547012979717
-1.48741469639150203
-1.48693220802640647
-1.48035912485760424
-1.45682307673744282
-1.41684330080329901
-1.4029030107149536
-0.536651397888230353
-1.57604231036254427
-1.5699482750062268