/*--------------------------------*- C++ -*----------------------------------*\
| =========                 |                                                 |
| \\      /  F ield         | OpenFOAM: The Open Source CFD Toolbox           |
|  \\    /   O peration     | Version:  2206                                  |
|   \\  /    A nd           | Website:  www.openfoam.com                      |
|    \\/     M anipulation  |                                                 |
\*---------------------------------------------------------------------------*/
FoamFile
{
    version     2.0;
    format      ascii;
    arch        "LSB;label=32;scalar=64";
    class       volScalarField;
    location    "0.270000000000000018";
    object      p_rgh;
}
// * * * * * * * * * * * * * * * * * * * * * * * * * * * * * * * * * * * * * //

dimensions      [1 -1 -2 0 0 0 0];

internalField   nonuniform List<scalar> 
7340
(
-0.013653354180438575
-0.00516890452382847559
0.00124241992190391977
0.00544866831197107684
0.00775906725588266719
0.0088215275064274061
0.00945512603715188693
0.0106707803223480835
0.0143678519066163905
0.0243300282993546418
0.044801687178774717
0.0830698076832012133
0.151658771947511484
0.296489240614957739
0.65557318005279408
1.23577227481630136
-0.0182492794455647589
-0.00890861933200712448
-0.00116783378107790164
0.00503512429431355636
0.0100699656518447658
0.0146263488856046685
0.0196500430387128548
0.0262938176281231929
0.0368304976975442691
0.0546429770446762789
0.0845906609029237894
0.133870812396453265
0.214365173406061066
0.384395509544865566
0.74726946907677283
1.22916057112779331
-0.0212660026531929745
-0.0110213555917093448
-0.00195512925686321982
0.00611154277688303466
0.0136257226928135633
0.0213047335330041332
0.0301746735849602911
0.0416025975089948027
0.0578724442515759357
0.0823156634239416568
0.119956784955408929
0.178069917919623261
0.267154363153165653
0.449308858684106305
0.801613915381273356
1.18436698961054754
-0.0230299676640212773
-0.0118922333572720716
-0.00156914945317560288
0.00820997338006164597
0.0179459434673961797
0.0283930303037778532
0.0406127654989551987
0.0561200296169282603
0.0771433747074998094
0.106964202965885227
0.150530479650749421
0.214842916584132376
0.308886192708236917
0.490365941592579513
0.804452392801061733
1.09982457102997921
-0.0642650794099778322
-0.0499068454683504539
-0.0364494996213605149
-0.02378757995035281
-0.0118091935957878279
-0.000326779317305013126
0.0109958330351390288
0.0226939596028076472
0.0355499823110181357
0.0506533517988054932
0.06954956657299384
0.0944186986096240966
0.128371878995593075
0.176045158041784194
0.243712392949621631
0.339447834199792742
0.506855447067841469
0.774616603794812009
1.00223386537437342
-0.0653005718237704286
-0.0507552600315908722
-0.0369457020350275056
-0.0237451021485130809
-0.0109996870752220796
0.00152771383115710233
0.0142144822798891315
0.0276187596680312793
0.0425333500569648956
0.0600534070262673456
0.0816946267062556158
0.109536590245179671
0.146460654302427662
0.196577674425427479
0.265204816526312004
0.35962647343853843
0.507755094941828244
0.726429347283159665
0.88793658534930664
-0.0972892966326118491
-0.0810147183920126579
-0.0655827221250488285
-0.0508709222147362486
-0.0367487634963098372
-0.0230658910501842437
-0.00963553789570182131
0.00381402066762395481
0.0176844879037914189
0.0325460808273911398
0.0491874470419720045
0.0686805773985930401
0.0924729496751258706
0.122502112293803131
0.161366499913192629
0.212577603269921533
0.280482319949782899
0.370869922583568434
0.503459487095938907
0.659647690498944228
0.757409243916255082
0.0129232297101310022
0.0217874687924075328
0.0289489424094691687
0.0348116884848066813
0.0400201990877484051
0.0454925945414771105
0.0525011661510894206
0.0634198686596344208
0.0819540801905492139
0.112688247410188028
0.162952800937776143
0.244155304520376842
0.399554741928257684
0.728983884131040982
1.2077003959793029
-0.00156365591084370575
0.00972438090691620655
0.019726842503277147
0.0285956302689657493
0.0367728687251257721
0.0449604953437432939
0.0541472624275163225
0.0657639831539193753
0.0822033122810594402
0.106850213830288393
0.14451476420434245
0.202359641392374584
0.290602719191269787
0.457422404745956912
0.772849778151234235
1.14830356711646697
-0.00437268626555919245
0.00761638533218734343
0.0187113277728077967
0.0291476014722495923
0.03940370009737032
0.0502171252531695422
0.062633949615268053
0.0781799036460877894
0.0991474802282272388
0.128774544805070501
0.171795947395371462
0.235031681990858499
0.327200654087238973
0.493329843927624356
0.781265269583748201
1.06720198299625735
-0.00630553316998674115
0.00636860603676401172
0.0184822914602350771
0.0303324065496736878
0.0424298577179962749
0.0555358761944934193
0.0707264739720485786
0.0895396981336056691
0.11416293681562549
0.147661089705413251
0.19444708993726964
0.260613735939280278
0.353813243184621429
0.509528483427963641
0.758725080168166865
0.969329471745486226
-0.0506440748148946282
-0.0356501627755855879
-0.0212936338903188978
-0.00750922649303264068
0.0058078929458194508
0.0188493397590285099
0.0319557163748417292
0.045660269247205329
0.0607344659809715137
0.0782562089733541688
0.0997248472496417154
0.127205269777220326
0.163514065791497909
0.21258638533556401
0.279544815915288236
0.371076739484026197
0.511354870187458621
0.71498045837606794
0.870421968797973733
-0.0519335761899368739
-0.0368511485654865953
-0.0222742767833753047
-0.00810600395212574508
0.00579492131374842109
0.019661723294184634
0.0338642145942103442
0.0489468994804813304
0.0656766301946023895
0.0851068673394462655
0.108665692371528302
0.138259097548784182
0.176417857024038033
0.226516333769168632
0.292688432697020218
0.38017369322842548
0.504396530664047327
0.663089233373566955
0.777817089120905303
-0.084444845417168915
-0.068267747015174976
-0.0526327648632561457
-0.0374751018228233063
-0.0227035319968493347
-0.00819475262862373773
0.00622243426910445204
0.0208082843734955676
0.0359490038765247835
0.0521905549971116572
0.0702817881380414372
0.0912295846612215938
0.116365655589852887
0.147414157891488234
0.186589988345146868
0.236684378580574784
0.300875512187300853
0.382705396641321804
0.490680687985846353
0.60845951996706682
0.678048085608425888
0.0279096947856007395
0.0393837244916000473
0.0497595324761849617
0.059459413042592453
0.0691943685313085727
0.0799884773214366712
0.093411942026127126
0.111955459292722978
0.138987218664134826
0.179183608807159278
0.239491093999705695
0.329145430957162421
0.483315480361613981
0.767434404308417584
1.11507876478802004
0.0123166735292168164
0.0255795903386148299
0.0379702315529964127
0.0497096755494367201
0.061264195019054439
0.0733713040380172543
0.0871020861407826863
0.104038807407399847
0.126511549701473491
0.157717437006869771
0.202137987779853701
0.266241290020085619
0.358077184606145127
0.511121578724045844
0.769175145623567258
1.02470719711192859
0.00997332570871537968
0.0237555988049791868
0.0369887655078043748
0.0499486068343241787
0.0631324735586638874
0.0772971520813531959
0.0935276273208405923
0.113375347244764529
0.139026805789753738
0.173462446000389264
0.220818579878656912
0.286777451042856735
0.378302720317966357
0.521490821803645033
0.746048505693517661
0.93041041007851033
0.00810303023170263342
0.0223729387502639293
0.0363696072086183778
0.0504104249561674531
0.065013647482275283
0.0809412501874309243
0.0992665318906702093
0.121478986882715662
0.149616534537545365
0.186391442344348124
0.23547464336426005
0.301599590824177144
0.390626700573255659
0.520861340313108934
0.705117170850556807
0.839655546047231915
-0.0392732505248959002
-0.0235892775949607392
-0.00828957036695644918
0.00666620420847206709
0.0213826326704331313
0.036059728076922086
0.0510449520585505509
0.0668663202268357931
0.0842777189498253032
0.104320546882647372
0.128399735992293706
0.158378169456096979
0.196677837730442256
0.246442524958850689
0.311448859984911397
0.396134258796132122
0.513177246838735002
0.65667845836606642
0.755855758663438126
-0.0406256265398499405
-0.0249522006364564335
-0.00956071867009069751
0.00562490446326805761
0.0207378093168934692
0.0360087381845181562
0.0518030940035684173
0.0686492590568690275
0.0872803817609386356
0.108687940824725701
0.134175165060547497
0.165411017085820872
0.204506766983791499
0.254056736399850269
0.316920573854265808
0.39600651829739264
0.497258693686709552
0.610734534064337642
0.685092768235653016
-0.073635143937161654
-0.057458007384600468
-0.0415528000065502057
-0.0259002800881032759
-0.0104350940307893041
0.00494576719011996079
0.0204000661823358388
0.036177507404236961
0.0526501441956028354
0.0703380504972528492
0.0899438719618683297
0.112393638606307647
0.138874454013517834
0.170857617874034862
0.210131187272891456
0.258753616142658793
0.318748072161973373
0.391685318484059464
0.47891031053208255
0.567729346963924741
0.617708172739993122
0.0269018462991770374
0.0419188355997580989
0.0562151469521297784
0.0700267067759825779
0.0838126764564134097
0.0983329445676650871
0.114721006060780076
0.134631741950409861
0.160427652481988509
0.195171515181912336
0.242875563573860337
0.309388206248407405
0.402274817826601516
0.542638627206779578
0.771450087398812046
0.984279495881491773
0.0249721421978072178
0.0403182031789856635
0.0552208142886071243
0.0699563281526105751
0.085018347520159715
0.101174252600088041
0.119536757804812516
0.141683714174294401
0.169788885340957874
0.206679225426100954
0.256051129405604871
0.322970108988468785
0.413738458753758809
0.545772826339927963
0.740546800724006249
0.893451646024243207
0.0229891070722967952
0.038627679520345258
0.0540662221246756974
0.0696146926159191409
0.0857855468160189927
0.103341647729858349
0.123363973149602749
0.14734184880477158
0.17726456024842957
0.215685998881117058
0.265899168310589407
0.332075913368189202
0.41913023543807032
0.540210927178520595
0.69850792068718448
0.809635449645661254
0.0210885459444618076
0.0369891305068886234
0.0529007233749086772
0.0691589254901212452
0.0862834917135951868
0.105021997708631284
0.126409582099689749
0.151834074682756753
0.183096071494317808
0.222458068668635572
0.272735501493289623
0.337207160375180726
0.419352189799576114
0.527629700789406408
0.654307944408438646
0.73667999202121226
-0.0295102669014498109
-0.0130713626567372301
0.00320873202741545375
0.0193595597046017157
0.0354921167303756183
0.0518160488614903547
0.0686836902331476734
0.0866131300203740323
0.106326938038189045
0.128801923294849879
0.155312997621352006
0.187464846270939733
0.227215957376621674
0.276881052798357064
0.338892893395190908
0.415381107818984352
0.51001976394026205
0.612300024246810404
0.674758993073947155
-0.0309134255969065359
-0.0145993559137712111
0.00163490453747235
0.0178524817372137067
0.0341833543842618645
0.0508576830378182979
0.0682354873189132405
0.0868250118004655208
0.10731562983028646
0.130614799702133771
0.157876678828886258
0.190506468099108761
0.230154130411734992
0.278644999838759955
0.337649841972743225
0.408172636233800734
0.490299531336577721
0.573435393137328386
0.622061788648451186
-0.0645645807281307604
-0.0482764113379694979
-0.0320349095289580582
-0.0158481670608083963
0.00033207707895407376
0.0165943743936167835
0.0330862935736738681
0.0500482821475052367
0.0678392366183664525
0.0869504369883400963
0.108031164914028879
0.131912093241732697
0.159620583787665693
0.192366515917967995
0.231498922153967945
0.278389507829421345
0.334052551183106894
0.398530178761789422
0.469907982604401198
0.537791897108951367
0.574646594987663906
0.0404266509680878128
0.0579802893813873427
0.0752859973581940511
0.0926256267160741192
0.110484053009237707
0.129618412945261219
0.151188236085021993
0.176809119808292059
0.208579191878420556
0.249092554645442305
0.30152292653350149
0.370156329774612158
0.459851975417930992
0.581491155760111234
0.745561538980198835
0.865035607907649551
0.0383774046185130918
0.0559044523058148668
0.0733652811213867662
0.0910680318120104249
0.109519448204294947
0.129477315964372536
0.152038015609570698
0.178695281742639239
0.211359621878828313
0.252363139507696954
0.304550668056135898
0.371381538442545345
0.45645591126927576
0.56790131838521829
0.702852952028067302
0.7915626534025062
0.035967500638175734
0.0534766702017011528
0.0710896229295061438
0.0891362575636881899
0.10812968603693951
0.128810988334149001
0.152215841126111973
0.17971831219635212
0.213034459490406947
0.254223460109035737
0.305721636739230584
0.370179735753002004
0.449969686015095349
0.549757859230990631
0.660502843029422748
0.727973980516410379
0.0334765299791347642
0.050976526637130086
0.0687335384089594603
0.0870919259069288798
0.106561265860244836
0.127855481840148499
0.151943098612963901
0.180075168013262094
0.213773489818796542
0.254815363578057119
0.305190230412131669
0.366808724838233569
0.440941560308509839
0.528951280071459529
0.62039757040073984
0.672826870680158229
-0.0207422111813793456
-0.00350777639210599589
0.0137548718226720001
0.0310740167552642881
0.0485689374967224197
0.0664544718291000119
0.0850815752655114527
0.104949398076723724
0.126737008971277265
0.151338368752833435
0.179878674514042131
0.213686910895329346
0.254253558393501888
0.303131673948563551
0.361573014171725937
0.429927426208384422
0.507212042822493436
0.583079293695026313
0.624850516062596895
-0.0223950440611757999
-0.00541841923322840518
0.0116480881106345874
0.028858683500336272
0.0463449352368121292
0.0643351412080358787
0.0831793813163594492
0.103359962582044385
0.125514932529921491
0.150458945620959017
0.179188864856573704
0.212845639830696098
0.252639819891227246
0.299720196398269856
0.354774806211436311
0.417401471038803595
0.485200716752181183
0.548492175007723071
0.582521057837742551
-0.0569436879478494931
-0.04045159156339663
-0.0238310773344900598
-0.00709742379468146674
0.00978176817346046446
0.0268832051648129483
0.044349711452874474
0.0624139394703702027
0.0814183407849666529
0.101822724260837341
0.124219409723754851
0.149341523490816863
0.178057507282078781
0.211326895604318193
0.250101930376081971
0.29516752405558988
0.346745300435876314
0.403859594574633385
0.463380632371913903
0.516563231212995522
0.544601156895530569
0.0577780333685200681
0.0777801168768417206
0.0978218787022517994
0.118195876470063937
0.139404292675688074
0.16222803031548963
0.187763458364937574
0.21748020664422385
0.253154111552780392
0.296863129379576152
0.35098634829633496
0.418168558923164568
0.500675406081791508
0.602552585075881941
0.718328112516821715
0.78819282577214056
0.053557406256773861
0.0731061275292352181
0.0928285434486333244
0.113044439903194655
0.13426420157438565
0.157237338004727917
0.18299701851711217
0.212896363733186489
0.248549183757008407
0.291799837844741949
0.344683713143690174
0.409191305815924222
0.486625566022337364
0.578802038965355314
0.676193909450235164
0.73122212452118307
0.0493591841388506883
0.0685521420092923828
0.0880521006559632502
0.108193569012069848
0.129482431052215186
0.1526347372302293
0.178615098019286711
0.208654819417336351
0.244193501091371695
0.286822293785976234
0.33820185402025682
0.399714346698594014
0.471804839996205871
0.554094638937127959
0.636334357429161668
0.680664199599023689
0.0453933235603504182
0.0643025964133447092
0.0836405502684067909
0.103748122175640764
0.125119722973320496
0.14843354196940467
0.174579570985554794
0.2046624297827635
0.239943562381242065
0.281756200378767141
0.331386241410788929
0.389666561309172377
0.45634217946734007
0.529441473627643155
0.599026050797134224
0.635407338739409133
-0.012754025249993162
0.0052415344527484628
0.0234035502443090022
0.0417619206939819354
0.0604388127993096963
0.0796493255182177951
0.0997352781902174912
0.12117397528826071
0.144601097788785715
0.170826949384971921
0.200828479384788816
0.235689291427572639
0.276492356033626596
0.324168856417552997
0.379079028082577485
0.440387819185614926
0.505210782315176798
0.56430421197730618
0.594653615293230797
-0.0149861440111296509
0.00261266337031207429
0.0204274172963540314
0.0385076041607877451
0.0569852924195864627
0.0760841690160775214
0.096140845588272919
0.117610629092485972
0.141082938215983861
0.16728624408187262
0.197070726126555268
0.231347071520547926
0.270965065103500602
0.316532496119093565
0.368022163958056314
0.424158800326448426
0.481607909106143206
0.532019268945127966
0.557724399761909906
-0.0506736548970113318
-0.0339318319224613668
-0.0169330935160879985
0.000307666672451895821
0.0178076074157377424
0.035636062640138029
0.0539326816816730684
0.0729211041958378325
0.0929272096676054815
0.114380311752411021
0.137820702216438301
0.163894863084943332
0.193330520092331842
0.226873789579085466
0.26516150638125946
0.308520938006468737
0.356614055153459675
0.407870096723347342
0.458791481869413098
0.502016195164409873
0.524084724415635916
0.0765942439011630255
0.0984051850175671899
0.120361091328749309
0.142734451517940314
0.16599466915578634
0.190871547233028488
0.218391375345802607
0.249932250550825019
0.287084747218113889
0.331626483317142506
0.385408356132505014
0.449949463156942953
0.525741180753270476
0.612533953556027244
0.7004387444337552
0.749070582890389636
0.0685209069824205819
0.0895571365328590718
0.110875937430043231
0.132781800979995451
0.155759301255203875
0.180518570774896747
0.208029889581993421
0.239542969456849802
0.27647928004868827
0.320357066696410453
0.372661536324898623
0.434389572337485874
0.505384708744069711
0.583919090071568392
0.659815800218745419
0.700015874434069318
0.0615606303567084526
0.0819893911079981885
0.102827557771659944
0.124396678066557284
0.147181077061280557
0.171860781780740712
0.19933763241737848
0.230733741028113226
0.267295702754804299
0.31028772150204792
0.360844684238834923
0.419499634183551462
0.485509610966348204
0.556177202638245882
0.621654818904224249
0.655340161088561857
0.0555763815699557989
0.075517079506908627
0.0959790447739329172
0.117290662895566014
0.139925376875591728
0.164525325796238825
0.191916122035447473
0.223089931785225432
0.259120835566960361
0.301033854501383757
0.349634164785965151
0.405051217194076163
0.466074447591172059
0.529431503095686762
0.585992359982039357
0.614559194274716614
-0.00614968538475733646
0.0124520920969413106
0.0313029457163751662
0.0504364918138815038
0.069975697830556044
0.0901302174448201376
0.111228188276304707
0.133724797783887961
0.158218230307831359
0.1854534711958159
0.216295217120564709
0.251648797970693672
0.292319555446024948
0.338810714507545019
0.390914972620507117
0.447086968584722355
0.503764234029692504
0.552738781844800742
0.577237335733143397
-0.00916584163519259393
0.00892294518703411893
0.0273044532024372469
0.046028316028505066
0.0652272297813390606
0.0851173032211919728
0.106019895920613547
0.128367056650694589
0.152708990005989753
0.179709411891671639
0.210110227464625127
0.244654144210482594
0.283946747590938575
0.328228131032823112
0.377021592867281707
0.42856341014417515
0.479219074344847729
0.521759265654992421
0.542994908556851064
-0.0460005229443231287
-0.0290300451929241497
-0.0117183672747393965
0.00591797939582210109
0.0238848966973703412
0.0422489585531862707
0.0611475211748834582
0.0807964170355139621
0.101504462463813658
0.123676921067189929
0.147814039854772789
0.174499057865377283
0.204356788076943768
0.237979592495641212
0.27578977283665107
0.317812650538941366
0.363359106123081033
0.41054556182950025
0.455817569524318233
0.492884578631319736
0.511467226818230314
0.089754781798696226
0.112291459819230124
0.134908654396307087
0.157882674280319851
0.181702665052215079
0.207120460752922619
0.235181587553695837
0.267229220399390011
0.304768384481664545
0.34939390512591173
0.40262878303105526
0.46541139032197415
0.537367450294156335
0.616239936193895721
0.691699353858650445
0.733043220147143626
0.0784186425665956144
0.100120634467255165
0.122090078917471243
0.144630708151846921
0.168233076910523
0.193612321066115423
0.221732547614161779
0.253796935662728151
0.291132438031139695
0.335067875173826135
0.386784802792054461
0.446776901237050383
0.514148369740899613
0.585874057287321781
0.651846263461828834
0.686665365182191567
0.0692289487765682665
0.0902467613185419237
0.11168511460708358
0.13386140311155717
0.157258742112023814
0.182551773957161489
0.210621322156202523
0.242533609853519488
0.279437419299495671
0.322421301369711977
0.372338920310858967
0.42929695232355819
0.491975983816025475
0.556860548339893069
0.614499711442432206
0.644140103762449678
0.0616981139967463579
0.0821493123330476332
0.103144713517292874
0.125006790906262544
0.148203339939451839
0.1733645991957041
0.201287111177981565
0.232903236634570771
0.269189566064524988
0.31101504692165699
0.358928605316202409
0.412711884041300603
0.470728200171518951
0.529213961126828614
0.579611072295589391
0.60510260475775568
-0.00223279247288644695
0.0167048712267963209
0.0359243260706146941
0.0554612259847833203
0.0754373415052679575
0.0960557151592623115
0.117637045485855796
0.140627951436446269
0.165610594795327415
0.193297267923674576
0.224492611912607914
0.260009548756685804
0.300513260396812865
0.34628406765862757
0.396839025007867718
0.450326310570680732
0.502928596051941401
0.547066286871559226
0.569191892521917486
-0.00584911655721726507
0.01251030690939447
0.0311951439291293132
0.0502552755715616958
0.0698249592312414208
0.0901125296305435031
0.111430235019936083
0.134200236228801895
0.158954088936203386
0.186320803255040718
0.216985963143423
0.251606847420798252
0.29066061878850491
0.334206465997836155
0.381549088533449265
0.430715220279185573
0.477977173941207034
0.516718243733158888
0.536077820836346253
-0.0434351801333408491
-0.0263277117460180184
-0.00883568136782402792
0.00901864754911423094
0.027235266563716342
0.0458788141514280129
0.065089167292435815
0.0850745115504275978
0.106133086484687653
0.128659460554116728
0.153133146720879798
0.180102666198448447
0.210143260696162543
0.243766748899195251
0.28128144632001878
0.322568723901172638
0.366770642331934738
0.411870261029516238
0.45432402570755126
0.488394886226056368
0.505475438703985369
0.715370852229447851
0.301662544717123449
-0.0308072651206607873
-0.107445365197135004
-0.217025271541101211
-0.266197027659302088
-0.285425982657923127
-0.301211204587843062
-0.317278216282435965
-0.330816550659138564
-0.338095858322975784
-0.329949983187299678
-0.255603473376734225
-0.0960546637718473484
1.14072134579195228
0.686280769818551462
0.366643041450096296
-0.0114385238611665642
-0.119736229595787141
-0.202770621886818603
-0.23310181489883644
-0.242962744125361424
-0.249833468702938793
-0.255781608202191257
-0.259370840912171829
-0.257374563480972152
-0.24828098568070231
-0.217816010226659862
-0.0980250115816726775
0.238918804334273038
1.12085402653606736
0.377035852248569003
0.0346017218694123357
-0.111181185320135628
-0.178770229927201402
-0.202813007891829489
-0.209870244644400794
-0.212258862023479433
-0.211454488461587514
-0.207940849223588076
-0.200320635717573969
-0.185135205015295096
-0.159541373638894229
-0.106463277014952729
0.0579001888069818824
0.592479968393620049
1.07726093480937402
0.06009323683708407
-0.0892245595728455576
-0.154602267467228494
-0.175452816020481711
-0.182651802180258171
-0.182870126628489227
-0.178651639260138301
-0.171436545884202013
-0.16051541032237604
-0.143353589245806767
-0.116789733544344826
-0.0753537869837279661
-0.000427464184643009607
0.202782438790512193
0.809158207517656325
1.34619800715648719
0.715703014928326109
0.37605905406892437
0.0508412914981588235
-0.0853833977102152197
-0.141623375823768022
-0.155810961937875941
-0.160485611050397381
-0.159424981267436705
-0.154064245921480353
-0.145302872999663046
-0.133051949678810566
-0.115714012929243409
-0.0903091036480374032
-0.0531233526319271621
0.00265469026921265859
0.0962305483584762894
0.332098267198449704
0.959528812574925838
1.55112556866844775
0.266018449381107303
-0.0075797217899724106
-0.105910409519801824
-0.144442043637093287
-0.148226903142981953
-0.146614546623217185
-0.142172073168693208
-0.135736500337848703
-0.126534985704564035
-0.114038895905082829
-0.0973551153546893117
-0.0744881569165084662
-0.0421764854222578048
0.00411245465137295707
0.0718394052901355495
0.179650528901525358
0.431750964986167829
1.07144432234597042
1.60733719494773286
0.774286638769356994
0.107779345116003747
-0.157428213502355474
-0.172936859732336051
-0.166312849803275792
-0.152613974073618069
-0.141786621863070644
-0.132303454334194659
-0.123364367402179445
-0.11341610043784868
-0.10110728282037118
-0.0853189779025855383
-0.0647244999600188886
-0.0371669578848004348
0.000896303273696957554
0.0544126603245246379
0.130911463988230115
0.248502701668776249
0.490211531682763046
1.05269257443416775
1.582089761208747
0.17684109656810687
0.039251671448806251
-0.0581145167770215701
-0.128413058342203817
-0.183526278544658333
-0.252678456388618078
-0.274586051300258482
-0.289414527360697615
-0.305003127449579858
-0.318982897590803838
-0.328798015876102412
-0.326654356507968591
-0.289519885858096293
-0.156551762183458593
1.05864043821025411
0.140235485105504987
0.0600018135763434324
-0.0441749073899516884
-0.119603896767234458
-0.186271392328446278
-0.224037674297997064
-0.232787066862229192
-0.238663922366434467
-0.243261614012324406
-0.246879223164383016
-0.246227616080499118
-0.23947750969654788
-0.21477987294773368
-0.124391174709732821
0.218914098092751419
1.02826750582489934
0.057988074238312981
-0.0211570653816469736
-0.11173478852032212
-0.173032306464800417
-0.196088908973739678
-0.200652670432457464
-0.201248244955393313
-0.199954120030481353
-0.196586583910075857
-0.189134252284859944
-0.17450513577270399
-0.150354437829400805
-0.103297181721005882
0.0327963591662111045
0.534581432739772433
1.03152200373740044
-0.00338532894434574131
-0.0946991498039464613
-0.159278648166618048
-0.172399971490934723
-0.174667513809145136
-0.17301366041767885
-0.168561153473483688
-0.161355720346522152
-0.150675418100293168
-0.133878078085710006
-0.107347749498274039
-0.0662698279307755572
0.00325049218771273187
0.183461047649186804
0.71484804932006607
1.2284923645798953
0.139893128506825282
0.0415747754321184604
0.000123965194618769312
-0.0925359086643658124
-0.152027941257887933
-0.155900216485057336
-0.154697818397422304
-0.15142071551554015
-0.145395350962539333
-0.136585103293332455
-0.12437384498182924
-0.107164431786844358
-0.0819359265090909283
-0.0447911484032203835
0.0115124770199145875
0.100413807190041143
0.318924726537568648
0.978609070060206698
1.51218365074493488
0.0329209342682072678
-0.0139927420661097365
-0.101837400341050294
-0.155586399630431998
-0.149050827860489649
-0.14215614623667755
-0.136040567948565477
-0.128678457235073151
-0.119107460615468425
-0.106528681544215353
-0.089851790595798911
-0.06704346856027045
-0.0348154708573778018
0.0115378062506793638
0.0803016527964727084
0.184232302216125604
0.43290477465522037
1.10567362324825602
1.54319971550135904
0.172262024613908882
-0.0392557659599889336
-0.0735000191181320456
-0.142041546095531102
-0.169043630453899307
-0.151463624597799162
-0.137876878523394725
-0.127411011218466125
-0.117715918993764948
-0.10727371821283084
-0.0947014320209641769
-0.0788368761310091343
-0.0582438354830934341
-0.0307160840973903296
0.00728226518783112176
0.0610093454126951137
0.138619035254533396
0.253033192640996385
0.49814474151281013
1.04370563404327887
1.52742880472955123
-0.0414965482588893972
-0.0521801167956947795
-0.0504036040732965679
-0.0845587153576733697
-0.132077422721232435
-0.20222501096449455
-0.233715321130622988
-0.250931743912661875
-0.26711291736998416
-0.281968926861553837
-0.294224597856721115
-0.302671672967925409
-0.295227022932020466
-0.256177808811906715
-0.14387282995917286
1.0075103249041315
-0.0763455023363738966
-0.0563365505061483862
-0.0869774335897820494
-0.144598062968835345
-0.190340694603152061
-0.20343452318099417
-0.210777860167956438
-0.216767512946347912
-0.222007211001600063
-0.224900130118337815
-0.223510157258942549
-0.215266367061321628
-0.18666674828226737
-0.0963220799489761248
0.150711371695022578
1.0210929800481976
-0.0691262639342515861
-0.100772157603892326
-0.148623858036984802
-0.173290166563613318
-0.178550624202825248
-0.180372356536915829
-0.180714088244272847
-0.179821685567164297
-0.17674118657554827
-0.169106247065764964
-0.154272193133774688
-0.129100337315908475
-0.0793696978866909042
0.05487523360381414
0.53540452328997945
1.03174487069307097
-0.111070900327858157
-0.149822791292021557
-0.158779508570313393
-0.158765959381808486
-0.157410894766643605
-0.154626564158140856
-0.150092537544898735
-0.14329454203966871
-0.132809218917570609
-0.115945261680087119
-0.0891767240364116226
-0.0477703698427167089
0.0225431597813452213
0.196953615128044379
0.696681743856481073
1.25111270828055288
-0.132899127129315897
-0.102626144167799735
-0.122564996369131832
-0.153065134489482807
-0.150547918042200801
-0.145432324660274004
-0.140840120600304208
-0.135713835646576159
-0.129145351178253653
-0.120350850040991428
-0.108366828122342343
-0.0913303194259307005
-0.0662016643978589753
-0.0289491288846390575
0.0269411547736893991
0.114950116903628677
0.323787375610875394
0.926893067825259598
1.46588079262644921
-0.107276288993961938
-0.128943326653021245
-0.159810934745114208
-0.149909365524494104
-0.139278163971295721
-0.1306618439961231
-0.122977601602253808
-0.114745065306151514
-0.104868077779875321
-0.0923092879950105083
-0.0757779847464080808
-0.0531493334571960241
-0.0211714050861835958
0.0249628964826191721
0.0926947159409744759
0.194404174150226344
0.428945429036384995
1.02890833533403936
1.49624295864704226
-0.115723463352800676
-0.107537418743690605
-0.142248120644053677
-0.169105204348392185
-0.155271341531952517
-0.139735756029004787
-0.126809856121752579
-0.115937986374946303
-0.105768418701370617
-0.0949252155456474511
-0.0821997568559039576
-0.0663863522246468107
-0.0459494851019276382
-0.0186523317953272566
0.0189750445036455349
0.0720947051860967719
0.148307407603262525
0.259394919440134986
0.487821721946670284
1.00280328013043385
1.46302173649291567
-0.093770331863211917
-0.0763348367743625494
-0.100572264207091533