/*--------------------------------*- C++ -*----------------------------------*\
| =========                 |                                                 |
| \\      /  F ield         | OpenFOAM: The Open Source CFD Toolbox           |
|  \\    /   O peration     | Version:  2206                                  |
|   \\  /    A nd           | Website:  www.openfoam.com                      |
|    \\/     M anipulation  |                                                 |
\*---------------------------------------------------------------------------*/
FoamFile
{
    version     2.0;
    format      ascii;
    arch        "LSB;label=32;scalar=64";
    class       surfaceVectorField;
    location    "0.270000000000000018";
    object      Uf;
}
// * * * * * * * * * * * * * * * * * * * * * * * * * * * * * * * * * * * * * //

dimensions      [0 1 -1 0 0 0 0];

internalField   nonuniform List<vector> 
20856
(
(-0.19093101740955723 0.140531958864386158 0.0346387733533559047)
(-0.192465606940379952 0.139740847602172369 0.0353215617728627751)
(-0.188187118965201794 0.137900483051542427 0.041848509894288323)
(-0.187670404841789762 0.142961681008228425 0.0314568490838034731)
(-0.188453691896535769 0.143353686386219703 0.031943263325696275)
(-0.190975705999514106 0.141599442196086611 0.0289057290119931753)
(-0.184569023583220471 0.141439730658531798 0.0379465541833352848)
(-0.186859341687758834 0.14439485771638802 0.0289571145248437925)
(-0.186586753688576551 0.145540467102184629 0.0291992138635091825)
(-0.188724753566798686 0.143509459089164543 0.0259025211005806666)
(-0.183007015644556154 0.143224128421770958 0.0350272651531286713)
(-0.188656079326934289 0.146197103242938636 0.0272466699467361212)
(-0.187291302878388827 0.147529516729193094 0.0271900894387601157)
(-0.189127329625277701 0.145309756542741753 0.0235460066663317445)
(-0.184102228666087053 0.144681002147951349 0.032998094704780434)
(-0.192451951525984793 0.148927715431982355 0.0264750423915331434)
(-0.190205565073903626 0.150374551392025685 0.0260390004929387207)
(-0.191609910678145701 0.148052197178870637 0.0221340593473175404)
(-0.187579548363273702 0.147015215617922773 0.031671911890608348)
(-0.197569015060586883 0.151608576555655489 0.0265908724071228786)
(-0.194571144311645489 0.153870513804441167 0.0259104430252700239)
(-0.195402283425840068 0.151259720763894268 0.0218159191130898183)
(-0.192599101558723035 0.150153854445349066 0.0311182497944435289)
(-0.205087482549147854 0.153170949033611892 0.0273198069449303305)
(-0.200438845107196395 0.156658930433776156 0.0265925792109837147)
(-0.20079707603578828 0.153576125501085098 0.0222242367167215966)
(-0.199026056314465821 0.152302028247437909 0.0313054178325696056)
(-0.216956139746190907 0.154574096501707281 0.0288539385366581302)
(-0.209987048077631161 0.158606873521385 0.0279168162711062734)
(-0.210057433911001123 0.15524233555317693 0.0231524998766958652)
(-0.209229996193015189 0.152822071059239728 0.0321959300674828156)
(-0.233380626929056006 0.157626553606462327 0.0319056400700842707)
(-0.224186744207448468 0.161585462713522393 0.0304474035998090926)
(-0.223829017106680267 0.158330036711949451 0.0253764936255048909)
(-0.224391328647537219 0.154021109577540644 0.0342519934172405005)
(-0.253255326130706948 0.161800748732753685 0.0367155321543348664)
(-0.242344895613905625 0.166579648641248718 0.034819921645570559)
(-0.241116862442891711 0.163583770361701741 0.0297730137649797402)
(-0.243319872750913074 0.15749538900711868 0.0378757956098926263)
(-0.276700556299418754 0.16535373292354183 0.0435096525685897614)
(-0.264385591566979494 0.171456021877635811 0.0407887229190355555)
(-0.262055066793315028 0.168448927249910646 0.0359980522744462461)
(-0.265404175897786809 0.161190053928279536 0.0426863524213659459)
(-0.3071362113715842 0.174364713523762538 0.0579798055354650774)
(-0.291992871407723342 0.176020020494181501 0.0495350658056453313)
(-0.288523899297956909 0.172506533229980025 0.0447127704978418014)
(-0.290438250638022921 0.163950939044049476 0.0497591841861087444)
(-0.349672486118735193 0.260999220005166011 0.117479820151800141)
(-0.328252864990638438 0.194341858280355301 0.0729104101637132879)
(-0.32325681833958908 0.189420146580390636 0.0667123652437756204)
(-0.317109232112073425 0.178159697274874157 0.0700491547462466085)
(-0.391382359841706773 0.582790010771295663 0.287637001555557603)
(-0.38505850194508856 0.350898011595799808 0.169432844380759728)
(-0.379349528402111669 0.336125399997872554 0.16285053757857576)
(-0.36537828746640022 0.348315631443018581 0.168645554064127234)
(-0.328082197786779828 1.12687725597129074 0.547673001015352878)
(-0.454685540933380872 0.80969042526030699 0.396760957281824644)
(-0.448680037772521301 0.772311039861332538 0.397835836759669215)
(-0.462709165917032039 0.880554969953958322 0.412386682364161816)
(-0.100573185590085989 1.35014920956851814 0.642354306848713197)
(-0.0950331573355793352 1.28660181443680721 0.665308384442214074)
(-0.0616075948526620815 1.56915159060834197 0.689565315209241469)
(-0.189782301955738031 0.142717600809589507 0.0326260517452031593)
(-0.190494349533799817 0.141525560902362041 0.0336885688230414773)
(-0.193451314862002011 0.1401339848246895 0.0305353816458254872)
(-0.189124166889116707 0.140685030836882385 0.0385533906921510724)
(-0.187055031765104379 0.146081299491323008 0.0296856281054019705)
(-0.187013733236991275 0.145794023517604371 0.0305032035307156967)
(-0.189527106163778908 0.144229413384725502 0.0273866080576487328)
(-0.185846725024778836 0.144676462102066028 0.0349947734216586939)
(-0.186563860794644459 0.14878777202392543 0.0274321887774254779)
(-0.185529251028696135 0.149091373010813599 0.0279645106607936261)
(-0.187648485195716641 0.147301509902080685 0.0247121800149433732)
(-0.184634782121986696 0.147494842457030345 0.0323062499020351432)
(-0.18833553348541901 0.151756675200733798 0.0259824199849627256)
(-0.18629211641740534 0.152280864118245485 0.0261734065897138643)
(-0.188063870425856372 0.150301033633560288 0.0227153133012177808)
(-0.185804701941176265 0.150149731756269111 0.0304452493549071078)
(-0.191913696899812747 0.155305149517914104 0.0254744011266755978)
(-0.189007164065241651 0.156039237318130075 0.0252595959787958804)
(-0.190374830758335445 0.153912301279856473 0.0216310792012235215)
(-0.189047735694290425 0.153404272208949116 0.0293798002716519069)
(-0.197040990991347642 0.158876813072776651 0.0259121498291308427)
(-0.19321816034141609 0.16023912505172111 0.0253575592863669041)
(-0.194090324119176205 0.157852229590579818 0.0215922364308744827)
(-0.193815918444027152 0.157124860965209279 0.0292025194993526874)
(-0.20467401672010424 0.162027166905420017 0.0271895885371596507)
(-0.199275578142647125 0.164199070551801496 0.0263836527699372811)
(-0.199688684851001996 0.161440809634694038 0.0224361697456915248)
(-0.200348443030026607 0.16032660840489113 0.0298876072079727363)
(-0.216249282931433806 0.165496282300402947 0.0295102813342571976)
(-0.208634141171989418 0.168058459933882964 0.0283275859769258551)
(-0.208668668126457901 0.165014852530343037 0.0241280750888787088)
(-0.21038934550278246 0.162878444287668067 0.0314610694821498837)
(-0.232161705370736438 0.170360912233348261 0.033361685175295315)
(-0.222183286300182081 0.173044018700708624 0.0316279396625005552)
(-0.221721435167203357 0.169918989367367074 0.0272602257374175462)
(-0.224979448677676941 0.166233640826556978 0.0342699133897794717)
(-0.252266236229290564 0.176099422714285081 0.0388931124102712272)
(-0.239908087667826175 0.17970548590791216 0.0367137557668062789)
(-0.238643748098350483 0.176590680104187103 0.0324161567469691478)
(-0.243709291595396865 0.171221165177389972 0.0385707296071093608)
(-0.277957634582043367 0.182119463904121925 0.0468141361560911601)
(-0.26238142259421543 0.186625524769805012 0.0434776993820826518)
(-0.260072347187711717 0.183388798186388507 0.0394226026250413461)
(-0.266612512771229326 0.176144843809913187 0.0440803826563995402)
(-0.313376634795307751 0.19605161084564135 0.0644656704338937708)
(-0.292508920351035484 0.195068738874628306 0.0538286216670548767)
(-0.288957184281548096 0.191331492196333081 0.0498529912889493568)
(-0.295354932424779337 0.18149358128603596 0.0525398826616805814)
(-0.364938300225787382 0.285332400764273963 0.124863434392674139)
(-0.336525885727374241 0.220202197470839633 0.0816892360663317857)
(-0.331152769776372147 0.214628825287348973 0.0770499286313864884)
(-0.333729502742186268 0.20158344768168443 0.0772104345006790482)
(-0.408181653312085613 0.579890451498469739 0.278556800107031655)
(-0.396785534432890552 0.374086544353453565 0.173679178720717614)
(-0.390596328970807316 0.358950011103439159 0.169693635123157882)
(-0.391620020828916504 0.371718604967268884 0.172821745555966771)
(-0.330102328844686821 1.03498642847353794 0.491442263115183631)
(-0.439451463479125115 0.777650509852082394 0.370624103231132318)
(-0.433004515442348248 0.743138300700422638 0.373842303399941789)
(-0.458537640748732656 0.850352992932056351 0.387834414587760745)
(-0.131895221806450941 1.19823108098388675 0.557751071107857377)
(-0.12771942865543548 1.14362561211587166 0.577261226364722213)
(-0.113107316741208344 1.40705950418141623 0.603522002834754545)
(-0.187480542140146728 0.144717883621233501 0.031565720608554039)
(-0.187773558559882675 0.143169753488510992 0.0327361013706891288)
(-0.190736777566142435 0.141902747515539024 0.029575809063780642)
(-0.187324622922772688 0.142788964876603502 0.0368427108037778506)
(-0.185169936881846298 0.148913492167298239 0.0287820860861073315)
(-0.184729301634026732 0.148055631367472268 0.0296807384310411385)
(-0.187282805549754044 0.146645294505103774 0.0266093406103831386)
(-0.184465681756046773 0.14734904168723717 0.0334416715921531035)
(-0.18485390612376626 0.152665497610394885 0.0267057284730819744)
(-0.183500848659328586 0.152278576806785332 0.0272955162723438026)
(-0.185663107398219146 0.150679791560260429 0.0241808696766889486)
(-0.183544159964977055 0.151116460203679331 0.0308684178805569004)
(-0.186521878409051656 0.156601297747863216 0.0254505825835470191)
(-0.184237870914446322 0.156446861876933768 0.0256779569743396559)
(-0.186033779891780326 0.154664255861778899 0.0224589422390737252)
(-0.184719955096682847 0.15478380986138851 0.0291202260983358593)
(-0.189903862261410594 0.160966646189822538 0.0251427541384871868)
(-0.186744712560175691 0.161028721618578341 0.0249505193962105756)
(-0.18814500581059565 0.159071712898774836 0.0216326670985620452)
(-0.187761322239737793 0.158868251971150565 0.0282315357715425298)
(-0.195002688071790914 0.16551902698685661 0.0258290622271733251)
(-0.190822294619734434 0.166016253623332721 0.0252319345075707017)
(-0.191771289272082313 0.16381564917032046 0.0218281169881188834)
(-0.192399545306018022 0.163325190062936415 0.0282897129448968741)
(-0.202585031116060049 0.170151848631516361 0.0275216502097034507)
(-0.196875317340365535 0.171137042993849436 0.0265322282028227774)
(-0.197381956497787447 0.168616388864056943 0.0230144402132659021)
(-0.199019231569738719 0.16767362560589652 0.0293119473075294963)
(-0.213693311804871139 0.175469739163853028 0.030445244305169171)
(-0.205888397490301356 0.176660012903581409 0.028948252495336925)
(-0.205974197416363358 0.1738510294893649 0.0252893276626516179)
(-0.208836434889732664 0.172031872377201744 0.0313831503038107321)
(-0.228890893051041683 0.182196219227088646 0.0349800102540114149)
(-0.2186574819877318 0.183476115530740613 0.032854931981413496)
(-0.218217062112803228 0.180467011394540577 0.029126930676359665)
(-0.222774014771611489 0.177378774220696894 0.034794007394327503)
(-0.248770380059497531 0.190058536476286344 0.0412983427386177521)
(-0.235629786715270073 0.192014626958175672 0.0386183771477054266)
(-0.234422736105608764 0.188831315139963457 0.0349948370289673016)
(-0.241050772518955569 0.184180254267555299 0.0397423660655950028)
(-0.27561670496644497 0.199517263119311866 0.0504921848930464726)
(-0.257831910690740906 0.201595079727220572 0.0463971932589327951)
(-0.255633225584120161 0.198133942471297675 0.0430047527288155013)
(-0.264320177022582703 0.191340298372794426 0.0461121934577281081)
(-0.313661895567778015 0.219292499853343731 0.0710521872994930997)
(-0.28881411472016455 0.214456258721247128 0.0586353263736752797)
(-0.285356308452551777 0.210395081708256937 0.0554183262480688471)
(-0.295631730131151571 0.200767731348686335 0.0561591822236757673)
(-0.369448540538409032 0.309573471446528858 0.130504980394377273)
(-0.336095350001162085 0.247272267453422706 0.089405390908233115)
(-0.330803508118867384 0.240830705516002191 0.0863125549225400995)
(-0.341830032301171149 0.228071493665856412 0.0846664732852831503)
(-0.408634818713287384 0.572645238000507151 0.265746481844821081)
(-0.393776993742098236 0.394493429825305997 0.174629390489926539)
(-0.387706866786444171 0.379251617135623165 0.17280710337766958)
(-0.402793118693499097 0.393579533332135412 0.174426625144148306)
(-0.318119548145194553 0.941394434761396837 0.436932911223807841)
(-0.412420095317214463 0.739230742850508493 0.341195214339618025)
(-0.406083423687481848 0.70826847813091387 0.345796856125897778)
(-0.443499684022326923 0.813142161606023595 0.359463365757310749)
(-0.144889728300798826 1.05274523199768066 0.481141303831442768)
(-0.141454794224105562 1.00650197356728688 0.497400822719412883)
(-0.140338393649258153 1.24552455839423315 0.524541980723761903)
(-0.184760011784638994 0.146613510101266331 0.0308511191931762283)
(-0.184775633164606767 0.144751859981119863 0.0320157191519093373)
(-0.187779412813773361 0.143562322568100587 0.0289520346699762114)
(-0.184606644308581869 0.144630160417436426 0.0357153878075287534)
(-0.182747996228737858 0.151518642950277782 0.0281941686172776061)
(-0.182060515089797509 0.150191047946132417 0.0290710987327704867)
(-0.184674176492074765 0.14887937106401275 0.0261351368564457023)
(-0.182108873133559251 0.149741815085230795 0.0324174988008819054)
(-0.182518234636385779 0.15613158544757702 0.0262677447736014633)
(-0.180996132886895394 0.155179750436476305 0.0268190150738267762)
(-0.183226630873471186 0.153706952308345579 0.0239058755716691669)
(-0.181386367187643838 0.154311042788117886 0.0299346807533155852)
(-0.184063597921737016 0.160906377720309496 0.0251778937870032055)
(-0.181670895994221926 0.160164232202980317 0.0253538738309714261)
(-0.183532478095728591 0.158521325656660328 0.0224078096621143016)
(-0.182521927410526197 0.158831737370144166 0.0282934489890684718)
(-0.187263829372991908 0.166072573681192492 0.0250396997652940941)
(-0.183982928401966783 0.165503445103180463 0.0247855336638044266)
(-0.185457907520849757 0.163679632900105676 0.0217963093811603011)
(-0.185386653377670491 0.163689046715374154 0.0275468494183810537)
(-0.19223207678699078 0.171596889633964078 0.0259351004832201297)
(-0.187887882162730807 0.171289920447929594 0.0252277445212403632)
(-0.188942390660267606 0.169231697413436022 0.0221961043256312766)
(-0.189898350819351525 0.168940333518511676 0.0277800340302806342)
(-0.199560127775248675 0.177570636491813538 0.0279588304884562204)
(-0.193741105774121736 0.177496386549405305 0.0267570811788182365)
(-0.194370027774317833 0.175143072417895229 0.0236658640716191082)
(-0.196441791312388703 0.17441695363028703 0.0290577571406121539)
(-0.210047745146741516 0.184539640032952257 0.0313579401715812292)
(-0.202248877559956824 0.184470546724162299 0.0295404671569442535)
(-0.202443648606742382 0.181818291286455297 0.0263855890696397116)
(-0.205891526226727239 0.180367470754245807 0.0315164016238684702)
(-0.224350515098398817 0.193115035985934991 0.0364932988751075077)
(-0.214111495773992411 0.192952666220507441 0.0339287389386061095)
(-0.213777893876825664 0.190021067396626192 0.0307741139761447575)
(-0.219076693173295867 0.187548060480762085 0.0354262159330013815)
(-0.243485568254215079 0.203356624927310187 0.043717227668020546)
(-0.230002083537297231 0.203430990410929602 0.0403260566785119748)
(-0.22894530892253237 0.200188763954772725 0.0373071872999080137)
(-0.236617619373674509 0.196348200320071609 0.0410160127077698472)
(-0.270110832059424599 0.216399427317639559 0.0545403347395617549)
(-0.251139773768091545 0.215887941876539202 0.049243838999621023)
(-0.249158168469564872 0.212174531603520872 0.0464977627118932577)
(-0.259586216576724482 0.206280906687540927 0.0484731526523329084)
(-0.308095210976174594 0.242248360131012974 0.0769885299824151492)
(-0.281172139055184567 0.233146019432800444 0.0634038344064108833)
(-0.277990404389400925 0.228547282956578834 0.0610494342945929677)
(-0.291672054657926949 0.220016334598224339 0.0604531216833578272)
(-0.362504655585939251 0.331960526662192168 0.133529801003783533)
(-0.327116384672669569 0.273368738888241147 0.0950047757805013715)
(-0.322328628501995396 0.26633523024411393 0.0931946867003322355)
(-0.340851273282153366 0.255413674128687762 0.0909759427977246543)
(-0.392789140519692992 0.560663883740358249 0.250078122984722817)
(-0.377035604915160694 0.410195140227200161 0.17228864827492596)
(-0.371674227612568575 0.39549297088629487 0.17218370016881035)
(-0.39891115046748904 0.412222998167184551 0.173293921662310613)
(-0.2937539810149149 0.849940318582382059 0.385403606947256505)
(-0.374129891362771638 0.696439483853154351 0.310175830691441057)
(-0.368174416622680911 0.668980742373930237 0.31558311708936293)
(-0.415914768268791479 0.769319589474948162 0.329026738254223683)
(-0.142917641383479815 0.919568254413795194 0.412790456257462857)
(-0.140039617579427345 0.881193392172597512 0.4260511217559243)
(-0.150530612327798879 1.09184749425529848 0.453444505018420263)
(-0.195860952337042565 0.128778955305214493 0.0411718194811623792)
(-0.197354544832116313 0.125346690012619055 0.0428471095400189961)
(-0.201177348513053827 0.124485243871489959 0.0389184849796843368)
(-0.19721021847233941 0.12601201975434731 0.0478920541966712729)
(-0.18977844937863525 0.13588953399728862 0.0371333953050427962)
(-0.190694789119973812 0.132863191816837062 0.0386922373765880775)
(-0.194348496906846552 0.131879124267612585 0.0351947698044246943)
(-0.19043637207618036 0.133384072692356109 0.04314970297932786)
(-0.185104984765076558 0.14244210030600174 0.0334258339755732284)
(-0.18547711535626385 0.139826328442968467 0.0347941133469867186)
(-0.188862169468941271 0.138768255232443211 0.03163914195182084)
(-0.185255897592838115 0.140153950419376505 0.0386899846777432055)
(-0.181810021115482306 0.148423384421503962 0.0302356986915035819)
(-0.181612085116002603 0.14625931743492171 0.0313504375322645537)
(-0.184656126606871529 0.145128985764903462 0.0284494036902241884)
(-0.181546241215711474 0.146333720655492161 0.0347629009994071189)
(-0.180007623672966105 0.153933061705151919 0.0276959451893196637)
(-0.179139800838215901 0.152185698216785625 0.0285136744576921612)
(-0.181809021328125819 0.150950981783439908 0.025766605141122112)
(-0.179334052204705524 0.151940079111955173 0.0315615440526515398)
(-0.179811725661919192 0.159268901346238168 0.0259051441311967078)
(-0.17817364828263868 0.15781573848979899 0.0263859953151212405)
(-0.180471071958677426 0.156442557006865351 0.0237065070294899746)
(-0.17874088155652168 0.157183415106630808 0.0291719776387136046)
(-0.181226365017019109 0.164784951940012636 0.0249615137077726507)
(-0.178766088769900661 0.163496619427403095 0.0250576643377668322)
(-0.18070086830830312 0.161967455656552461 0.0223947547680705926)
(-0.179813658561550821 0.162438301434830429 0.027637952439639242)
(-0.184222965555307094 0.170711515556600635 0.0249735784197506958)
(-0.180879233699675929 0.169530466050719503 0.0246291397883298957)
(-0.182441104260491399 0.167823981525897836 0.0219643648357528455)
(-0.182503061179963233 0.168018740435300323 0.0270177482217283903)
(-0.188944773690307516 0.177149840399685676 0.0260497252168384631)
(-0.184541477638656776 0.176079435567875392 0.0252148165412152438)
(-0.185709297648776583 0.174148303976403324 0.0225421066108742012)
(-0.186827749051355324 0.174058004051667353 0.027399789698522449)
(-0.195853826693344779 0.184320090106449702 0.0283387178473062662)
(-0.190040891633010939 0.183270592384388309 0.0269347425319110684)
(-0.190802817110613809 0.18105993223453587 0.0242455333738582288)
(-0.193125558834632033 0.180590078273450888 0.0288858104649114059)
(-0.20558056323963525 0.192759995632671988 0.0321112659239690471)
(-0.197905284438760098 0.191508289799085241 0.0299992140949352261)
(-0.198239396285755209 0.188988547304119403 0.02730126050404659)
(-0.202055814121752525 0.187949440114662164 0.0316514271547433876)
(-0.218782749056251308 0.203091800565748715 0.0377614967420105835)
(-0.208723948463353903 0.201481673051948584 0.0347611135661048051)
(-0.208549123050983609 0.198628932594918012 0.032112096809942009)
(-0.214350289832243329 0.196805491734701132 0.0359744028115874595)
(-0.236589598887947394 0.21570135262462084 0.0458526680101126113)
(-0.223187583174459997 0.21380782986114949 0.0416975421505629412)
(-0.222350462607023985 0.210553783485211449 0.0392154981862661775)
(-0.230796630340236342 0.207633955214977961 0.0421740754137973212)
(-0.261536590943681202 0.232184627618326256 0.0581073386664701444)
(-0.242496619096061738 0.229035788679758268 0.0515937728834612516)
(-0.240817885274059063 0.225194424327397419 0.0494341180943852973)
(-0.252643618154573313 0.220512869503396852 0.0507933480767035761)
(-0.297109527166173948 0.263649701488418486 0.081420080204496828)
(-0.269997475640654738 0.250489053499141634 0.0671324115466308408)
(-0.267204287028890597 0.245643624848990688 0.0655031131798029798)
(-0.28364473624086306 0.238541325140549487 0.0646193754720936625)
(-0.344860319404055482 0.350711972698226737 0.133763623051644492)
(-0.310689554318271166 0.296189409951421789 0.0982879571007059943)
(-0.306460076410424664 0.289084754627393914 0.0974362551854121017)
(-0.331004426426658782 0.281595718206153756 0.0953225227011487153)
(-0.363001344040556062 0.544361739263086952 0.23238635598164406)
(-0.349002630741954312 0.419961192752366708 0.166913572633497487)
(-0.343821329674388831 0.406122935797282592 0.167964424204039869)
(-0.380872472920845584 0.425776860665593337 0.169348442161323665)
(-0.259829636906916628 0.76446161568263149 0.337562680001649407)
(-0.327925855249097897 0.651631272640332049 0.278916315190143205)
(-0.321893867530300304 0.62753057497076481 0.284450724256457566)
(-0.376900995704196384 0.721082756106386169 0.297999197083849032)
(-0.129701942618221933 0.803195817286656122 0.352375046886087118)
(-0.127366880345364974 0.771863372393584934 0.363014032234472594)
(-0.14622956063232731 0.951836508381005864 0.390093338766420938)
(-0.191929115435336389 0.12950800498251297 0.04036752743544475)
(-0.193190553491192935 0.125963440929612647 0.0420027679488267081)
(-0.197124296298754637 0.125058766568581281 0.0382733875911105761)
(-0.193016362089773519 0.12671089128964913 0.0467993634387994795)
(-0.18614126526279437 0.136870036590842459 0.0363529554185319792)
(-0.186836140124207184 0.133712136589428321 0.0378420876999489356)
(-0.190568753220610398 0.132708950314705976 0.034557884998213155)
(-0.186606831724919764 0.134349658905160874 0.0420435892976590911)
(-0.181738534697196613 0.143704393823626958 0.0327187169036780509)
(-0.181893252796928501 0.140918875066742 0.0340002732685059997)
(-0.185341343049276852 0.13985184890851915 0.0310660143377881372)
(-0.181747533333259381 0.141370205944214122 0.0376555766726122815)
(-0.178680096130192673 0.150069868806536222 0.0296284132984531191)
(-0.178272743021505614 0.147657352770521694 0.0306488353602349974)
(-0.181380883971738016 0.146529804731438451 0.0279744112737850582)
(-0.17832238317798832 0.147856936747366136 0.0338353556778069747)
(-0.177019394108978684 0.156099576085314246 0.0272037245834937241)
(-0.175979054422797238 0.154012635410298637 0.0279208780496002368)
(-0.178722989332554566 0.152797421402762201 0.0254182618067492101)
(-0.176323681852691788 0.153903297784509618 0.03073953887048669)
(-0.176817038928710812 0.162051267991637993 0.0255385155216913302)
(-0.175063061506477241 0.16018839785890665 0.0259118297726055324)
(-0.177445206288572688 0.158853724329147794 0.0235069047537960832)
(-0.175802980742504583 0.15972093059430098 0.0284522014707268324)
(-0.17808373045262918 0.168221385876106438 0.0247252904183240807)
(-0.175555322801303565 0.166471856645561106 0.0247070547893282165)
(-0.177583176931345482 0.164993160932123684 0.022352749885410559)
(-0.176790690019661439 0.16561337243214852 0.0270257286859814129)
(-0.180835190781289318 0.174846854233872001 0.0248703779097944402)
(-0.177450861317559133 0.173134761501547885 0.0244016419886668202)
(-0.179119506831371733 0.171484428217847484 0.0220753792382434762)
(-0.179282478211288676 0.171857555949589874 0.0265228150723150306)
(-0.185211659071976786 0.182115338143710753 0.0260998338562878525)
(-0.180803509109184163 0.180385679133597515 0.0251123211795351124)
(-0.182098814834239064 0.178518751490274297 0.022804466012854345)
(-0.183341885568722912 0.178639780535051362 0.027037661063252498)
(-0.191569065805311661 0.190332191066174078 0.0285952387795400421)
(-0.185837971495731447 0.18845039648405526 0.0269852224708657246)
(-0.186745931973504448 0.186312035443327084 0.0246909743059359928)
(-0.189251612129115787 0.186124982892245022 0.0286964737060310428)
(-0.200400667483496137 0.200048729907609302 0.0326490617370708835)
(-0.192946800435623261 0.19777565856998694 0.0302557068744063462)
(-0.19344213955011097 0.195316609754442733 0.0279908841081360216)
(-0.197519736676021407 0.194712283846926737 0.0317018582457108192)
(-0.212283848923155966 0.211944474843376862 0.0386971589746571629)
(-0.20259275794832865 0.209042867156205681 0.0352875575974350431)
(-0.202607497636599965 0.206208672125640535 0.033104310554926554)
(-0.208760170657076943 0.205052946746854009 0.0363542405322740195)
(-0.228237651904551475 0.226751373932239209 0.0474386470239117619)
(-0.215358383280640164 0.223005823190470354 0.042614619880282173)
(-0.214767787196119164 0.219699380004858724 0.0406193396959880076)
(-0.22373341500152169 0.217762810644775262 0.043070774794261156)
(-0.250377552543415927 0.246660141821476053 0.0606188457636219619)
(-0.232271473869010203 0.240676685973506416 0.0531571308086080524)
(-0.230910807533018153 0.236714301564044188 0.0514944074094221063)
(-0.2436689565209679 0.233445686625905757 0.0526397500224520046)
(-0.281507585494869927 0.282162698582813676 0.0840002884428397295)
(-0.255943788051148036 0.265764470422572063 0.0694082671237754995)
(-0.253598836494212942 0.260781952489235191 0.068284273377675106)
(-0.271985994035116141 0.25566328785159248 0.0677027524957599797)
(-0.318882271975768961 0.364121758505557891 0.131437906682559891)
(-0.28848215826760587 0.314088889282936212 0.0993255997082994752)
(-0.28508745493469323 0.306834719640230291 0.0991981540353541746)
(-0.313588228050055484 0.30393611969139378 0.0976180690840558196)
(-0.323452706853560257 0.525052704779866986 0.213443531841998241)
(-0.312715739002506932 0.423381925143611226 0.158689664756101967)
(-0.308751606839515413 0.410761790349906619 0.160685082266845802)
(-0.35153260713142076 0.43331688333817725 0.162952651558195827)
(-0.220898295386589422 0.688447931987196005 0.293728682074580749)
(-0.277595753566809711 0.607265649885821768 0.247671567269027004)
(-0.273119174529129372 0.586937928261367481 0.253613401549683926)
(-0.330006590731059091 0.672241673627920977 0.267433182564056682)
(-0.110444108416523246 0.705728747305119808 0.299417149934553206)
(-0.10854637370313755 0.680802384645020298 0.307934648858986748)
(-0.131424451061136094 0.829891825019859031 0.333895261485465278)
(-0.203425926528452844 0.113297538995837818 0.0479045721892678994)
(-0.209848929485403402 0.108203887149502229 0.0448876137382140383)
(-0.206100395902292399 0.109550078027544989 0.0554958216451407749)
(-0.205836405783282078 0.108685161035338373 0.0496317241995972713)
(-0.194822396664819653 0.122132429280831206 0.043704074155550221)
(-0.200616203381267066 0.117244962620624033 0.0413340582300516513)
(-0.196445706937685066 0.118935283494864583 0.0506029641050905477)
(-0.196586949110180986 0.11793896681582236 0.0454373842350137003)
(-0.187849596264356072 0.130304391925267438 0.0394773282133309353)
(-0.192910733655464905 0.125680567029281764 0.0375645567070980665)
(-0.188701241472703035 0.127510524281948701 0.045613894334704648)
(-0.189008950916889323 0.126503314759862817 0.0411182925293147455)
(-0.182345720169882319 0.137894296778936692 0.0354894055499229699)
(-0.186627675255876702 0.133554496181957222 0.0338611208093547514)
(-0.182649534822763637 0.135364584589386328 0.0408505269632497003)
(-0.182948715699932818 0.134455345911429047 0.0369695671094775608)
(-0.178187291568182415 0.144997788364293556 0.0319303917250629843)
(-0.181644773703864171 0.140940459099517273 0.0304332931167446488)
(-0.178091494620393254 0.142617583837322121 0.0365341954460180682)
(-0.178251902883225233 0.141888721483651531 0.0331976210421160919)
(-0.175319511570515507 0.151720161917851509 0.028941300111382063)
(-0.177892934726470359 0.147920078940481731 0.0274389776759327228)
(-0.174908103970604495 0.149396850922758756 0.032824175607518144)
(-0.174826603114881074 0.148912085587071114 0.0299490502520778114)
(-0.173753403413257734 0.158216768593904683 0.0266289832387120416)
(-0.175375999295310642 0.154594998442287052 0.0250025534818314743)
(-0.173067014267949765 0.155846946762567939 0.0298412180193322642)
(-0.172651195628793636 0.155645967582088651 0.0273359724312473434)
(-0.173514711317365095 0.164718105281769334 0.0250803690402424014)
(-0.174123933887364135 0.161154064853174489 0.0232234496215928052)
(-0.172578013760735755 0.162175719264707807 0.0276623554240089317)
(-0.171738299984238285 0.16229052180621556 0.0254439964988792643)
(-0.174614648461520611 0.171485909136846942 0.0243834063596709526)
(-0.174154725025679302 0.167848359122196145 0.0222037460139303047)
(-0.173459614321029132 0.168643927645734548 0.0263432794847304509)
(-0.172102588384583838 0.169097501515640652 0.0243532698611467792)