/*--------------------------------*- C++ -*----------------------------------*\
| =========                 |                                                 |
| \\      /  F ield         | OpenFOAM: The Open Source CFD Toolbox           |
|  \\    /   O peration     | Version:  2206                                  |
|   \\  /    A nd           | Website:  www.openfoam.com                      |
|    \\/     M anipulation  |                                                 |
\*---------------------------------------------------------------------------*/
FoamFile
{
    version     2.0;
    format      ascii;
    arch        "LSB;label=32;scalar=64";
    class       volScalarField;
    location    "0.630000000000000338";
    object      rAU;
}
// * * * * * * * * * * * * * * * * * * * * * * * * * * * * * * * * * * * * * //

dimensions      [-1 3 1 0 0 0 0];

internalField   nonuniform List<scalar> 
29184
(
2.81564082786386968e-05
2.68234762378958669e-05
2.55258882347870801e-05
2.43266195203905989e-05
2.33363650140955566e-05
2.25263495998370056e-05
2.18331752000978978e-05
2.12011268374681975e-05
2.06193750412944074e-05
2.00200544627166493e-05
1.94217163683699645e-05
1.8681410076613318e-05
1.79206197103826477e-05
1.68087119877062621e-05
1.59175978944651524e-05
1.4911509052196192e-05
2.73177292073892446e-05
2.55603353594303528e-05
2.43396623149966109e-05
2.34240369912438198e-05
2.27292723695806303e-05
2.21252471656875538e-05
2.1557880789322144e-05
2.1017939010768822e-05
2.04944269933524367e-05
1.99467570852487052e-05
1.9346376790686404e-05
1.86112855292273762e-05
1.77576847096948802e-05
1.66485592523372573e-05
1.54936755164676622e-05
1.46736071838573074e-05
2.63816593838877082e-05
2.43728425631658331e-05
2.32683705201846342e-05
2.25237744289607897e-05
2.19638911663301085e-05
2.14869875310479031e-05
2.1041519632355693e-05
2.06128488454386092e-05
2.01862059875309598e-05
1.97204879680475481e-05
1.91696942406702469e-05
1.84578478263334711e-05
1.75728431884182607e-05
1.64571409581639628e-05
1.5154498341011524e-05
1.46261109687201038e-05
2.5386943122928794e-05
2.33117209103713034e-05
2.23140245714001752e-05
2.17053098397291939e-05
2.1263444119630384e-05
2.08943764877188152e-05
2.05545944856856375e-05
2.02285338265258678e-05
1.98975065592511116e-05
1.95161776977896841e-05
1.90227748851660003e-05
1.83372781114674094e-05
1.74335311951750629e-05
1.6297359403070005e-05
1.49156264560710697e-05
1.44037080524618827e-05
2.43828045692648372e-05
2.23620705287324721e-05
2.14642863733705668e-05
2.09605769294697968e-05
2.06110895933388578e-05
2.03288026117095251e-05
2.00794322861127816e-05
1.98484686678904058e-05
1.96135368687635602e-05
1.93225193731349492e-05
1.88963259273107107e-05
1.82443016967923724e-05
1.73299122371131053e-05
1.61690936031665086e-05
1.47390471772388059e-05
1.46130411543800718e-05
2.33989961281462829e-05
2.1510588250129396e-05
2.07112700437664167e-05
2.02878398636696391e-05
2.00070822563626439e-05
1.97918981414637117e-05
1.96177055695378799e-05
1.9473578467923039e-05
1.93351099810183724e-05
1.91421898948327353e-05
1.87950581088364975e-05
1.81842047663932037e-05
1.72642860931218011e-05
1.60825166300285011e-05
1.46309421796354549e-05
1.47070029768933984e-05
2.24527932326786432e-05
2.07457834087142686e-05
2.00469795880393647e-05
1.96859132217254052e-05
1.94529678889784945e-05
1.92844545868505168e-05
1.916755250205462e-05
1.90993062344913797e-05
1.90574789333805514e-05
1.89742564084967687e-05
1.8723573782410084e-05
1.81652684204721418e-05
1.72443587586436283e-05
1.60404104927751259e-05
1.45811690846888838e-05
1.47895524739150053e-05
2.15709514828980741e-05
2.00727615059358273e-05
1.94782981772139402e-05
1.91674552592909875e-05
1.89609734659994989e-05
1.8813269008070652e-05
1.87284850384394878e-05
1.87185981154514362e-05
1.87721288884949925e-05
1.88178690463777204e-05
1.86941478480282378e-05
1.82052659489273424e-05
1.72843282710000394e-05
1.60470444006089328e-05
1.45778603963967593e-05
1.48481684098951288e-05
2.08041674121107544e-05
1.95461930468633855e-05
1.90586896132283309e-05
1.87809101046328304e-05
1.85681045083291714e-05
1.84056145388774249e-05
1.83193813995947733e-05
1.83405226533825352e-05
1.84806508986861927e-05
1.86832800586445055e-05
1.87355873087418068e-05
1.83405967903650481e-05
1.74095229356554466e-05
1.61094164328190323e-05
1.46129160279992e-05
1.47707499499473925e-05
2.02872130412586429e-05
1.93485322873213823e-05
1.89800284121484354e-05
1.87168279974338595e-05
1.84588389961001216e-05
1.82331924280010811e-05
1.80928967977710932e-05
1.80846393869249955e-05
1.82694351353125924e-05
1.86471304390264619e-05
1.89377997035157241e-05
1.86498985840774611e-05
1.76649891358904048e-05
1.62291252649420687e-05
1.46753144755556723e-05
1.4677139105322293e-05
2.65094227561376833e-05
2.63497517966961465e-05
2.56735308228295732e-05
2.48331332502008319e-05
2.38933314210088074e-05
2.30211105713400871e-05
2.22301578466279487e-05
2.1442290218173914e-05
2.06093386351135031e-05
1.99981611445078232e-05
1.98489726173243976e-05
1.92937156393438015e-05
1.81318852185650823e-05
1.63822294612831484e-05
1.47623787872273772e-05
1.46151550406160299e-05
8.18518519723402511e-05
8.74252212436493883e-05
8.54920535952524637e-05
8.30840854672722765e-05
8.00367402895301204e-05
7.72366126305121606e-05
7.35437472269554382e-05
6.77966953288313909e-05
5.61706343544163527e-05
4.09642266459940286e-05
2.84056025860222213e-05
2.16572981161941887e-05
1.90104270307027529e-05
1.65730255951827611e-05
1.48813462851225947e-05
1.45651228024639954e-05
0.000450198693705167869
0.000503519226873053887
0.000513939369628303483
0.000529653468826301937
0.000552800149876144582
0.000569190642514469489
0.000619031876925737676
0.000673681466701172367
0.000647587666534685117
0.000430190672880303288
0.000139545230315007903
4.67262729904424322e-05
2.29646107542255845e-05
1.69318023652836004e-05
1.50647459343853745e-05
1.44903861469454621e-05
0.00110949917041902645
0.00122994805480815261
0.00125580106357201025
0.00137343050591014486
0.00145399781206098666
0.00148678344531865412
0.0015394006993446729
0.00147281464113871961
0.00100349396430696289
0.000560011056578379801
0.000301207968768363874
6.34836543314437526e-05
2.50478459331334846e-05
1.67990662971624752e-05
1.54166149470837801e-05
1.45173390101483533e-05
0.00243040094114912704
0.00293544470609723813
0.00286085781888116304
0.00298843013869969955
0.00307602035996088017
0.00283501332143588913
0.00259819318736549849
0.00225412858442097797
0.00171587175152910771
0.000656553221721140512
0.000321457400524348532
0.000160382587921646734
4.57499761820495134e-05
2.22313175306320449e-05
1.45017680661264474e-05
1.44850637014475976e-05
0.00447470140787132546
0.00518235392020961055
0.00500675906192087333
0.00565515307900599749
0.00570568354925143299
0.00444928839725778225
0.00346597658515077631
0.00260863103931330796
0.00118853933329231775
0.000600972483393169749
0.000629766445529202426
0.000888518357572659449
0.000250559404470641412
7.12318285671364879e-05
2.18081662849394637e-05
1.50323463976897285e-05
2.82398284984317268e-05
2.69430737964692874e-05
2.5662992092122195e-05
2.44838255241959238e-05
2.35225333909509409e-05
2.27511618199094106e-05
2.21051827637091173e-05
2.15372942565245768e-05
2.10271603912970765e-05
2.0528855098840369e-05
2.00333074958862632e-05
1.94660781958196209e-05
1.8864466693035936e-05
1.81176404668435373e-05
1.72437551617039151e-05
1.77698043108084551e-05
2.73956917917091238e-05
2.56817673896505667e-05
2.44866517124853413e-05
2.35936462151135712e-05
2.29238518177400595e-05
2.23492716609515591e-05
2.18206988195078227e-05
2.13335129274916797e-05
2.08764300118055904e-05
2.04168383632304635e-05
1.99248112793343995e-05
1.93452170639928535e-05
1.86843338271794642e-05
1.78956306671322572e-05
1.69759281849031397e-05
1.74590079352389257e-05
2.64615346115737125e-05
2.45048862314647546e-05
2.34289070715658927e-05
2.27062421598272951e-05
2.2167537598865794e-05
2.17146255561892792e-05
2.13013482467119087e-05
2.09181840130954363e-05
2.05524450375075842e-05
2.01692926716968069e-05
1.97258740251471639e-05
1.91648859758869389e-05
1.84744519915258549e-05
1.76666645252392213e-05
1.66258163138794458e-05
1.74629747137141263e-05
2.54726534520049249e-05
2.34476377094255875e-05
2.24785805849928261e-05
2.18930292506476078e-05
2.14707103907309165e-05
2.11205985236551924e-05
2.08059338616813051e-05
2.05175111607083045e-05
2.02409264853764882e-05
1.99377309487247576e-05
1.95516678933349438e-05
1.9017257520400296e-05
1.83107200387599858e-05
1.74791630844114299e-05
1.6367549600793591e-05
1.74076376877634113e-05
2.44666191964403464e-05
2.24834680702793824e-05
2.16140242201028894e-05
2.11380648561213888e-05
2.08088404586451585e-05
2.05406449081979873e-05
2.03082477269534452e-05
2.0105984805372953e-05
1.99187505272136484e-05
1.97038113707106298e-05
1.93893800410393491e-05
1.88943983086599082e-05
1.81845724326478806e-05
1.73283035761242614e-05
1.61647711062412915e-05
1.77473625686272697e-05
2.34636954981031558e-05
2.15998152026109455e-05
2.08318834848371661e-05
2.04419624830983885e-05
2.0179967192384062e-05
1.99705728594957478e-05
1.98026553609852552e-05
1.96775104582619107e-05
1.95814163953254916e-05
1.94672375516199037e-05
1.92436343469398124e-05
1.88041340457640329e-05
1.81001837804945961e-05
1.72239389173221774e-05
1.60209460606440695e-05
1.78942414497057102e-05
2.24824486103399186e-05
2.08023856671043162e-05
2.01428898963449216e-05
1.98158717175169866e-05
1.95916526019831235e-05
1.94150480808628313e-05
1.92929014947692161e-05
1.92364395299357561e-05
1.92354139345753823e-05
1.92383003566502953e-05
1.91278625066760606e-05
1.87607446760939957e-05
1.80674143236215422e-05
1.71693789372783567e-05
1.59287820055992298e-05
1.79441308382995482e-05
2.15607763263065711e-05
2.01222642099642891e-05
1.9574146100764827e-05
1.92853687517289225e-05
1.90681396839256144e-05
1.88983892115160854e-05
1.88032944030386698e-05
1.88060831738545183e-05
1.89035372961179927e-05
1.90422710457058873e-05
1.90679280370459456e-05
1.8785927587653786e-05
1.80990293946081404e-05
1.71652220248271148e-05
1.58794269371482542e-05
1.79745537626289842e-05
2.07801105877518068e-05
1.96301163314713285e-05
1.91843007618249245e-05
1.89030251620194289e-05
1.86592029025673797e-05
1.8471725297049938e-05
1.83835750675308973e-05
1.8429200956988967e-05
1.86207188322321158e-05
1.89143302027272578e-05
1.9103011934699048e-05
1.89118531106600831e-05
1.8210604815418563e-05
1.72123888531915292e-05
1.58663244749806368e-05
1.795117206884293e-05
2.0318933659293661e-05
1.95026529158121217e-05
1.91480596167648773e-05
1.88476553085208847e-05
1.85503138844851763e-05
1.83146972196402624e-05
1.81856012762900012e-05
1.82145668751244091e-05
1.84623492410270217e-05
1.89255572541358877e-05
1.93080234886843951e-05
1.92101912992900014e-05
1.84322291618515084e-05
1.73052258014103805e-05
1.58847251840587371e-05
1.78443760061804699e-05
2.63369812392983612e-05
2.61945132563247231e-05
2.55041386670711034e-05
2.46753523046050618e-05
2.38390744936399417e-05
2.303238739209862e-05
2.21914105036041906e-05
2.1315237766535449e-05
2.04412550971068391e-05
1.99910200958046951e-05
2.00565004716807933e-05
1.9894913549922799e-05
1.88268354584331163e-05
1.74292791804347265e-05
1.59316637304846399e-05
1.76367789488176779e-05
7.98571894711658394e-05
8.43689716841963778e-05
8.23814958509674596e-05
8.00763081108483418e-05
7.79312812113977109e-05
7.52052665199803025e-05
7.03281558333547193e-05
6.20730277101138938e-05
4.95373497650903615e-05
3.57778364274856972e-05
2.61218081109351628e-05
2.16050595048612882e-05
1.94905317412220156e-05
1.75862993473535329e-05
1.60225737852342137e-05
1.73084843543501466e-05
0.000451825379813033392
0.000493056297007145403
0.000499579861274866959
0.000516471890111874516
0.000540950673077789579
0.000564230802528453289
0.000584395398412141634
0.000566428871254196289
0.000431976536860144379
0.000256779751203202672
9.55840965867314497e-05
3.71343367821640942e-05
2.15017549516832874e-05
1.78710887708391822e-05
1.62064101184286283e-05
1.68668182449396464e-05
0.00111960782267282082
0.00117905377573004921
0.00121465943027182911
0.00130715845974271601
0.00138571798823578928
0.00141670264108827116
0.00141895647194488581
0.0012469989811056785
0.000729640988739025049
0.00041026171230590776
0.000196068155961638251
5.19521262202305768e-05
2.41593709666935212e-05
1.78880342402158759e-05
1.66131213491743834e-05
1.63809952010350513e-05
0.0024153778712460972
0.00265277590498507214
0.0026348796534455053
0.00280919976985876188
0.00292965980443236212
0.00289280505298697681
0.00265887340945596172
0.0024021358158834911
0.00139376230705993759
0.000584098654400573678
0.000340057824224047466
0.000140982318161371435
3.28587696762664428e-05
1.88259457794821157e-05
1.56063840418676017e-05
1.5842971434801068e-05
0.00433665813310442089
0.00454653611716902828
0.00447202672039856072
0.00490461140228344236
0.00548985575313823762
0.00480821854441451819
0.00387940013311678742
0.00275684181834055927
0.00131252923122872106
0.000795138313299165829
0.000947458752363193862
0.000710106585823046818
0.000160312359488217127
3.92182563992487119e-05
1.9692829388067218e-05
1.53474603937522599e-05
2.83612277596384994e-05
2.70901478085507008e-05
2.5824413167269805e-05
2.4665380066106481e-05
2.37355175372762509e-05
2.30078777007051807e-05
2.24178935544849876e-05
2.19224907608013797e-05
2.14968872468117825e-05
2.11066772875767957e-05
2.07329735823454231e-05
2.03297031537024066e-05
1.99019777121068031e-05
1.93863208041120386e-05
1.88311270281533259e-05
2.03996337156749327e-05
2.75435924084966311e-05
2.58562788442219921e-05
2.46703102269376438e-05
2.37871622070778386e-05
2.31377238728362915e-05
2.25966339425841422e-05
2.21169269496720116e-05
2.16953035897344248e-05
2.13207245010436981e-05
2.09642458465790271e-05
2.05968521633453992e-05
2.01746984432919448e-05
1.97033183018992874e-05
1.91668451391650134e-05
1.8568435820524254e-05
1.97131543576128418e-05
2.66468397948972905e-05
2.47227462533102161e-05
2.36456294724642566e-05
2.29167092300928493e-05
2.23839459135636556e-05
2.19547347842599976e-05
2.15842833765307966e-05
2.1263636059981001e-05
2.09799725223520141e-05
2.06999295463907533e-05
2.03809625278547269e-05
1.99730418602199311e-05
1.94721002074712704e-05
1.89138678979307962e-05
1.82128678630521117e-05
1.95133311846988103e-05
2.57123550055708255e-05
2.37141802988114103e-05
2.27279372416420378e-05
2.21174957430951192e-05
2.16855455756162292e-05
2.13483290751206649e-05
2.10702371125329195e-05
2.08421702423728431e-05
2.06492013199706547e-05
2.04521030168094994e-05
2.01925855608796604e-05
1.98093884457949048e-05
1.92902495430687717e-05
1.87074024788427975e-05
1.79350278276508386e-05
1.95730102317063179e-05
2.47639232530135268e-05
2.27836530777711956e-05
2.1877148351159259e-05
2.13597846828715937e-05
2.10088349898096484e-05
2.07452836796600936e-05
2.05452181389440256e-05
2.04039193370160883e-05
2.03059418455875062e-05
2.0204894991448745e-05
2.00222483949902987e-05
1.96771103444679699e-05
1.91501174309207694e-05
1.85391488123263462e-05
1.77153852118493221e-05
1.96896393956506977e-05
2.37981366556781318e-05
2.1899310117301896e-05
2.10772080011970987e-05
2.0637512978461093e-05
2.03492149534646224e-05
2.01406767250393145e-05
2.00039388836407463e-05
1.99445499788461741e-05
1.9949329780966649e-05
1.99630981025013067e-05
1.98799194647130572e-05
1.9586860624150289e-05
1.9057416806844929e-05
1.84145615857927684e-05
1.75402422402895694e-05
2.00078504343406283e-05
2.28126117211166165e-05
2.10687041338589795e-05
2.0348556200065384e-05
1.99730717619444771e-05
1.97237875459410968e-05
1.95459138235118698e-05
1.94554562575320328e-05
1.94733164493386042e-05
1.95897039014971299e-05
1.97385500372441752e-05
1.97783712889516367e-05
1.95501061075492175e-05
1.90193522298946368e-05
1.8336471046746695e-05
1.74023660323065057e-05
2.03688033166377839e-05
2.18450135997283534e-05
2.03503693071765316e-05
1.97461745050630219e-05
1.94143742610697783e-05
1.91717495658489005e-05
1.89944781403322808e-05
1.89312117545072179e-05
1.90185793322592043e-05
1.9249377589772903e-05
1.95477992409719018e-05
1.97272318235556482e-05
1.95763014352225845e-05
1.90416072564719642e-05
1.8306207882165787e-05
1.72955168308919529e-05
2.07927988049019348e-05
2.1008504186527529e-05
1.98475107299433444e-05
1.93512869973984907e-05
1.90276736990183073e-05
1.87495246308433928e-05
1.8541269976998796e-05
1.84853313846465303e-05
1.86249420063040123e-05
1.89568717286557209e-05
1.94073337953836259e-05
1.97373101057825522e-05
1.96771918536562407e-05
1.91303800811165482e-05
1.83249760504653887e-05
1.72178422604864749e-05
2.0900054710279865e-05
2.05402899363456771e-05
1.97443982685561748e-05
1.93316635188986536e-05
1.89794454615135107e-05
1.86270724819264562e-05
1.83541296039613562e-05
1.82580257945505067e-05
1.83878620501971748e-05
1.87748453295073852e-05
1.93690814131117092e-05
1.98574042458989754e-05
1.99013787425240287e-05
1.93102193296636159e-05
1.83906691967457689e-05
1.71692046403841072e-05
2.0621639424271308e-05
2.65344785957580193e-05
2.63644320487564993e-05
2.55475194852791457e-05
2.46083374778765485e-05
2.35934034704314178e-05
2.26569676620108173e-05
2.17979838105370865e-05
2.09431230863142725e-05
2.02188815780301963e-05
2.005959816356968e-05
2.03616492108204721e-05
2.04367618728738935e-05
1.96449514839504839e-05
1.84878210732615705e-05
1.71492025158488998e-05
2.02395781812593332e-05
7.98454311141049377e-05
8.40860406143415011e-05
8.1392502275825799e-05
7.80473663151420312e-05
7.41955889611903952e-05
7.01957985716491708e-05
6.46111855966419321e-05
5.51744447112863817e-05
4.26273044721774613e-05
3.13721263189350658e-05
2.47936358406826955e-05
2.19158996677080512e-05
2.02189908636236122e-05
1.86040596372101619e-05
1.71665409629454336e-05
1.97204208455398076e-05
0.000465014515257418414
0.00049010979839924306
0.000487516739726337218
0.000496889823318905272
0.000503446848008314994
0.000516915168925347729
0.00053192213041333735
0.000484001284080260688
0.000318463643200557868
0.000168760763446197405
6.87517414161766823e-05
3.22785287879848059e-05
2.1426272670208672e-05
1.87977519460707304e-05
1.72714514160275384e-05
1.90311864594300675e-05
0.00112881806055942311
0.00115476210706767627
0.00116033029613213661
0.00122645913512569433
0.00128440472531837161
0.00137936181519775626
0.00142742562025175942
0.00110935623125484376
0.00060402460295344248
0.0003351863371580838
0.000126134157982170202
4.39482385408232094e-05
2.3584697816657424e-05
1.89339149297297091e-05
1.75282628848999878e-05
1.82239219800693117e-05
0.00243454570223126119
0.00244845337270210503
0.00238020515937951678
0.00249196124389589307
0.00257605980622927378
0.00273864166177369486
0.00276326177040954685
0.00210098055582426824
0.00114223092277070137
0.00064203101246198505
0.000343308068144756778
0.000104412169886039307
3.04195356556844045e-05
1.82682641364973985e-05
1.64745957158837455e-05
1.70693227455185112e-05
0.0041922274295185108
0.00411745980127828631
0.00394470464383706292
0.0041057192084885917
0.00435644338131082384
0.00510670078486702254
0.00411256846105527429
0.0023544207358030941
0.001383069012452199
0.00137666051815537953
0.00125527605035954557
0.000545134310159732711
0.000128925575531417124
3.18972743342730476e-05
1.91442505487726181e-05
1.6074658489800182e-05
2.84889129944944212e-05
2.72302218315832862e-05
2.59818125417798595e-05
2.48512780211283223e-05
2.39615509393794821e-05
2.32856162838250501e-05
2.27596298982877214e-05
2.23433718357676268e-05
2.2009766296033913e-05
2.17308685919482312e-05
2.14823159609467969e-05
2.12303535112701176e-05
2.09649359560559764e-05
2.06421283432794888e-05
2.03400778705437213e-05
2.23202468854459687e-05
2.76543343338266487e-05
2.5970593845588762e-05
2.48062218273643549e-05
2.39542427888411231e-05
2.33454990402580726e-05
2.28564165313558811e-05
2.24422514899012371e-05
2.21001578854258824e-05
2.18181284761410284e-05
2.15693937898206808e-05
2.13247201524232001e-05
2.10445474131795174e-05
2.07369801662495656e-05
2.03801840620848805e-05
1.99928310796063494e-05
2.13819533749807617e-05
2.67323978533102104e-05
2.48244807322438295e-05
2.3771702578194685e-05
2.30702991439369683e-05
2.2574261360354621e-05
2.2196885071553186e-05
2.18954114894952992e-05
2.16592662926470184e-05
2.14720869567503978e-05
2.12992362229900354e-05
2.10989804355711393e-05
2.08272668844974991e-05
2.0488572854619817e-05
2.01126239651416264e-05
1.96123017728368604e-05
2.12210276193541124e-05
2.57756958301312426e-05
2.38159336787585024e-05
2.28524737294860631e-05
2.22599830371669355e-05
2.18570858970441002e-05
2.15707395338549224e-05
2.1367147113212109e-05
2.12320295309123048e-05
2.11424808031653497e-05
2.10537483678246835e-05
2.09079644690818744e-05
2.0653160806182657e-05
2.02904163821666547e-05
1.98896676080899097e-05
1.93064436870695178e-05
2.11968846414214725e-05
2.48176907827045394e-05
2.28954693895037096e-05
2.20037757379334325e-05
2.14892814195556857e-05
2.11586704308878075e-05
2.0948265914671972e-05
2.08340469079095778e-05
2.08001480594240188e-05
2.08162489726274016e-05
2.08245285981652723e-05
2.07459458742001065e-05
2.05151377013753226e-05
2.01337318870060294e-05
1.97019748213438315e-05
1.90625092352680399e-05
2.12347270792218589e-05
2.38613663140364982e-05
2.2020083501041367e-05
2.1199412060825282e-05
2.07490809280599491e-05
2.04790135171120766e-05
2.0334766732661867e-05
2.03037543148131893e-05
2.03723115335077759e-05
2.05039288761198099e-05
2.06246397134121267e-05
2.06268574918780834e-05
2.04239283068704477e-05
2.00233440504109174e-05
1.95532891489459135e-05
1.88566528459679801e-05
2.1337218445844349e-05
2.28985817419353685e-05
2.11867678327394474e-05
2.04563692399279181e-05
2.00666115186552604e-05
1.9844303868180047e-05
1.97499441927643318e-05
1.97887799140910873e-05
1.99550101769600009e-05
2.02088749266007196e-05
2.04580049876571002e-05
2.05565659685390984e-05
2.03859066641067333e-05
1.99639268304797126e-05
1.94448786252080294e-05
1.8676199576129564e-05
2.16461549396482755e-05
2.19556788977093229e-05
2.04560808374242639e-05
1.98392133949499151e-05
1.94974905975582173e-05
1.9293507953018121e-05
1.92152389397667471e-05
1.92951577990775436e-05
1.95402562086549482e-05
1.99132573742648284e-05
2.03064333700330781e-05
2.05225432211200817e-05
2.04001893927768093e-05
1.99602348205472523e-05
1.93789466952662434e-05
1.85172650044899394e-05
2.2093077056330121e-05
2.11409889393027875e-05
1.99484261038765036e-05
1.94408114492248845e-05
1.91038579685585642e-05
1.88630122424566437e-05
1.87507170988971848e-05
1.88295077950411492e-05
1.91167783113863261e-05
1.95891704278380527e-05
2.01395528088066534e-05
2.05067904576842285e-05
2.04723778911887353e-05
2.00203361668343508e-05
1.93595410596682487e-05
1.83797977100475924e-05
2.26485431542069383e-05
2.06969575488801561e-05
1.9859736591817076e-05
1.94209464839077559e-05
1.90275363742753098e-05
1.86913677621249772e-05
1.84883046729656757e-05
1.8495101168012344e-05
1.87477613549606595e-05
1.92740903590398157e-05
1.99924806857022824e-05
2.05491207227437787e-05
2.06495147785254758e-05
2.01715664092091982e-05
1.93870792046185846e-05
1.82638844151973693e-05
2.28389232757300228e-05
2.66566581199946279e-05
2.64780674674119295e-05
2.54251828992491632e-05
2.42303457138779895e-05
2.3193065376920738e-05
2.23206711444768092e-05
2.15214340275826962e-05
2.07487398114439704e-05
2.02497216724816807e-05
2.04085710345905491e-05
2.0915968657579907e-05
2.11091361765928434e-05
2.04634398110500877e-05
1.94403465286922024e-05
1.81680908226218498e-05
2.24056073012838225e-05
7.98987162393740706e-05
8.40659280691185873e-05
7.9502488048914852e-05
7.40192557100927053e-05
6.96403855252208009e-05
6.58529232509422966e-05
6.05021042637256281e-05
5.11559898674008364e-05
3.92283538346419158e-05
2.95961651116404101e-05
2.4407277242277684e-05
2.24174687723266429e-05
2.09173146761691854e-05
1.94933309671299988e-05
1.8096727659897663e-05
2.17193433405908993e-05
0.00046293007460453437
0.000492683355752910582
0.000477444089776568766
0.000472780863188250542
0.000474093835292799259
0.000483600400623648559
0.000487269127622934491
0.000426163537792068113
0.000281130778274397389
0.000139731893167266121
5.76690931664282936e-05
2.99867539129440981e-05
2.16760805761141408e-05
1.95987299404937548e-05
1.81024324698224051e-05
2.07588334570594311e-05
0.0011234581007869256
0.00118263602305414641
0.00119132900238635097
0.00125780892416641073
0.00131634514994558222
0.00141225519250382718
0.00143867623003376987
0.00104678521442301423
0.000576584565604524907
0.000313114114088108777
0.000102685898083823573
4.00387982857264814e-05
2.34109887807363024e-05
1.9793470722566376e-05
1.81051143999459477e-05
1.96175060259380728e-05
0.00242304839831218458
0.00253206645401462529
0.00251257852715828546
0.0026297646910971458
0.00273007944418795752
0.00290239164545092344
0.00285800126872793117
0.00198879928355574472
0.00104917277811577593
0.000561854501564424411
0.000275193418760355025
7.77244482466238362e-05
2.84674895075600496e-05
1.84721639609320357e-05
1.70059275508226387e-05
1.8147802632329741e-05
0.00419355605070111971
0.00431454230532563043
0.00425560247498903577
0.00443159382923755465
0.00469256823222321314
0.00549799888750777781
0.0044704933256717698
0.00257585365311094718
0.00147384725782702896
0.00116189229827935356
0.00093582803793377232
0.000388864379703964826
0.000104290374315356942
3.01530962698511141e-05
1.91591114980252332e-05
1.68308172341153577e-05
2.86539041357601109e-05
2.73991957139954824e-05
2.61621177594932353e-05
2.50565131694987181e-05
2.4205302714914126e-05
2.35807174978600566e-05
2.31191032212922891e-05
2.27815944385144108e-05
2.25413361424495175e-05
2.23732859799610739e-05
2.22533772632790462e-05
2.21504779922181869e-05
2.20563523883460256e-05
2.19309501602948498e-05
2.17952978816348933e-05
2.41007643042594757e-05
2.78571663201083724e-05
2.61513125846450179e-05
2.49826740720251489e-05
2.41468841902487334e-05
2.35743745747863645e-05
2.31379755971689946e-05
2.27899982738430056e-05
2.25257384711363923e-05
2.23326410520364687e-05
2.21860061888132057e-05
2.20576420724101178e-05
2.19101390392347615e-05
2.17546038457787133e-05
2.15560577242854803e-05
2.13136637161437151e-05
2.29807231501596237e-05
2.69773922620760614e-05
2.50189620753167313e-05
2.39460649516422913e-05
2.32519567362974908e-05
2.27915344426845208e-05
2.24723639093522416e-05
2.22434688734311633e-05
2.20885788739288932e-05
2.198991119347039e-05
2.19154121378842818e-05
2.18271497660742502e-05
2.1684627503797724e-05
2.14952381195361028e-05
2.12725976718027102e-05
2.09184411014050853e-05
2.26769815349541149e-05
2.60720915257337155e-05
2.40237302587646492e-05
2.30215076691077904e-05
2.24279666905183887e-05
2.20627245122523909e-05
2.18426903369195447e-05
2.17198405867115141e-05
2.16699110067211665e-05
2.16674647971609589e-05
2.16712984392041285e-05
2.16303502587645796e-05
2.14997767540008603e-05
2.1281974530127045e-05
2.10321983666039161e-05
2.05808351063633031e-05
2.25695755931682552e-05
2.51706713463686383e-05
2.31158710238238595e-05
2.21652401482624467e-05
2.16437947616514481e-05
2.13570071143397492e-05
2.12248527868467732e-05
2.12016348611954941e-05
2.12565346045455971e-05
2.13555637987864162e-05
2.14461235595517174e-05
2.1460615954983451e-05
2.13471051559039979e-05
2.11073603374141357e-05
2.08240551425616687e-05
2.03063972465791186e-05
2.25597947190239316e-05
2.42622046912188011e-05
2.22461213687341344e-05
2.13500035187409192e-05
2.08929190138842996e-05
2.06791147978568688e-05
2.0630269094063012e-05
2.07032182927014552e-05
2.0863632973743803e-05
2.10701264602092916e-05
2.12562710942409051e-05
2.13327873932782559e-05
2.12378893708682111e-05
2.09770390135618573e-05
2.06541122363227501e-05
2.00699041518003557e-05
2.2614894659218312e-05
2.3316182020132465e-05
2.13981755881354392e-05
2.05888860267248148e-05
2.0202610715849034e-05
2.00562918619954337e-05
2.00792491290498841e-05
2.02369707484895009e-05
2.04978488281026656e-05
2.081643989611195e-05
2.1109368809558418e-05
2.12560832242027854e-05
2.11815807491121634e-05
2.08968941923530881e-05
2.05237915161180832e-05
1.98541651290275815e-05
2.28537070732949267e-05
2.23365787310467763e-05
2.06208170685063111e-05
1.99438640630510205e-05
1.96259061927001219e-05
1.95206531458008069e-05
1.95797100330530812e-05
1.97898480276957271e-05
2.01314112184663127e-05
2.05631710326371999e-05
2.09834245294784271e-05
2.12226137423070486e-05
2.11824558320824933e-05
2.08728010766935281e-05
2.04314823317859495e-05
1.96508513444526035e-05
2.32536187585497135e-05
2.14372554091065145e-05
2.00424915202170028e-05
1.95121596050235594e-05
1.92200662459879795e-05
1.90907381892741477e-05
1.91205084707269861e-05
1.93275441023258842e-05
1.97102936124930656e-05
2.02478132378739313e-05
2.08309886418697952e-05
2.12137305353773e-05
2.12486366844380073e-05
2.09134653743529126e-05
2.03743864009156806e-05
1.94576436326145619e-05
2.3801489900309777e-05
2.08640467647042463e-05
1.98886667033562729e-05
1.94631726981906545e-05
1.91198870751690791e-05
1.88837531059773964e-05
1.87976088525185525e-05
1.89101771236988428e-05
1.92554136388262392e-05
1.98731633161664827e-05
2.06651451653405665e-05
2.12584898174862728e-05
2.1424748424200405e-05
2.10335181415626212e-05
2.03444870083019148e-05
1.9274107175557873e-05
2.44940905370686695e-05
2.65408282566801768e-05
2.6346648022490816e-05
2.53861511700199297e-05
2.42591030522565875e-05
2.33367707118042875e-05
2.24913799827833623e-05
2.16484909745166748e-05
2.08857211127557992e-05
2.05383536357536918e-05
2.09326816502398091e-05
2.15839320637441956e-05
2.18479744100555112e-05
2.12448323168276166e-05
2.03177473875843658e-05
1.90975395257386642e-05
2.44458059437651052e-05
7.98657818396961697e-05
8.41671681607342209e-05
7.91227996992095413e-05
7.36910982005446296e-05
6.9902509120161051e-05
6.57901758540089995e-05
5.91946035564153727e-05
4.91684253402032922e-05
3.73861919417645903e-05
2.87078286228047928e-05
2.44443331455929249e-05
2.2886916608758808e-05
2.15064187937172924e-05
2.02673249722623882e-05
1.89255938612903834e-05
2.33069931866280633e-05
0.000462197528005179041
0.000493961055982594329
0.000478310329868914159
0.000472183382719624156
0.000478021777190118275
0.000485523299757453254