/*--------------------------------*- C++ -*----------------------------------*\
| =========                 |                                                 |
| \\      /  F ield         | OpenFOAM: The Open Source CFD Toolbox           |
|  \\    /   O peration     | Version:  2206                                  |
|   \\  /    A nd           | Website:  www.openfoam.com                      |
|    \\/     M anipulation  |                                                 |
\*---------------------------------------------------------------------------*/
FoamFile
{
    version     2.0;
    format      ascii;
    arch        "LSB;label=32;scalar=64";
    class       volVectorField;
    location    "0.510000000000000231";
    object      faceTraction;
}
// * * * * * * * * * * * * * * * * * * * * * * * * * * * * * * * * * * * * * //

dimensions      [1 -1 -2 0 0 0 0];

internalField   uniform (0 0 0);

boundaryField
{
    inlet
    {
        type            calculated;
        value           uniform (0 0 0);
    }
    outlet
    {
        type            calculated;
        value           nonuniform List<vector> 0();
    }
    top
    {
        type            calculated;
        value           uniform (0 0 0);
    }
    bottom
    {
        type            calculated;
        value           uniform (0 0 0);
    }
    left
    {
        type            calculated;
        value           uniform (0 0 0);
    }
    symmetry
    {
        type            symmetryPlane;
    }
    interface
    {
        type            calculated;
        value           nonuniform List<vector> 
181
(
(1570.3700302951363 -0.01881647717250233 -0.0560984852399813369)
(1457.51832156305318 0.000971178330240713957 -0.0590553626556456074)
(1345.16838711702349 0.0026617530060797632 -0.0582165740140432458)
(1236.14036751342951 0.00277007031521383715 -0.0572144043945988154)
(1131.48768329920631 0.00312918419184451176 -0.0555687348655189844)
(1031.08686703688295 0.00360607305511269653 -0.0538072380127731648)
(933.972234725635531 0.00411984000244442448 -0.052081761427979878)
(839.267851405474858 0.00471100888023882024 -0.0505794631645060597)
(745.391553688479917 0.00600288545705112211 -0.0500731017515851778)
(651.666841037101904 0.00775856050128244119 -0.048129818365082129)
(559.703569362626581 0.00966786737530197886 -0.0458558691917555425)
(467.582557964903685 0.0122621247891501334 -0.0451440005296471283)
(373.581881814299777 0.0156591083964261711 -0.0440059532804406711)
(281.263457285815832 0.0198165379774634769 -0.0430027615946869321)
(194.078868532179456 0.0229364386265703511 -0.0429099096150662926)
(126.198044646105799 0.0223856951784714847 -0.0420383436896701185)
(1758.59006345991588 -0.0123380115188951103 -0.0366357199523170071)
(1641.89946495084905 0.00204344777945753746 -0.0401704050151457798)
(1524.67714625229883 0.00362848129665967103 -0.0393869251734570158)
(1408.05957717585306 0.00445224484810336722 -0.0389753330797662084)
(1293.79582498182481 0.0053879802717677356 -0.0378869395420281113)
(1182.82950654575097 0.00646447137149640336 -0.0370892308333497511)
(1074.34534572356893 0.00746499536250315107 -0.036345796861379509)
(967.897713508303809 0.0084788169075753414 -0.0355359382721444558)
(862.900767243125301 0.00965677456667781917 -0.0345834161793360517)
(758.767907508278654 0.0110986644111100517 -0.0336500875017202578)
(655.709913684347725 0.0129442147627011825 -0.0325620449723140123)
(554.179030957242162 0.0152478637666321956 -0.0316291720117923975)
(453.459932995561587 0.0186091178717840977 -0.0317191931240430949)
(354.357773360717488 0.0221251485511803243 -0.031405424439589491)
(259.753708869608033 0.0257328522408635588 -0.0312693112619430863)
(176.677179836717755 0.0261765957632216668 -0.0311735298906511728)
(1846.82615202809643 -0.0121758732287284375 -0.0293141612670150438)
(1729.99059435194795 0.00225465403748951283 -0.0323575353150343803)
(1611.27115551583051 0.00479688861971682128 -0.0323462846315599808)
(1491.51947601143729 0.00612080938678203311 -0.0322549176168374988)
(1373.38642080690897 0.00719086041778572126 -0.0308476956648439313)
(1258.5645345837238 0.0082505917913752707 -0.0303192502987784107)
(1145.30728070776399 0.0093016409498870023 -0.0298575100450739934)
(1033.48944923644081 0.0104224372538167399 -0.0292821106177027085)
(923.100050823195829 0.011735602425263102 -0.0286825944674205836)
(814.027463038264614 0.0133658104339958311 -0.0281351491501612705)
(706.53977328304893 0.0152399667572458639 -0.0274768251956393796)
(601.097883496775466 0.0173918631478929692 -0.0268776328984685585)
(497.71640071115263 0.0200325840046225133 -0.0264889320791223057)
(395.873703845639113 0.0235764633444191518 -0.0268284255651617329)
(296.937315098968725 0.027119731018488788 -0.0266056448366049428)
(205.979411265660445 0.0277525076527793506 -0.026651983886371463)
(1881.82574239869064 -0.00873372511472675708 -0.0177925872384738885)
(1764.51744176051307 0.0027494262242349814 -0.021232513367752736)
(1645.24895734690654 0.00516996810842341049 -0.021106399969907718)
(1525.42823695989591 0.00666044091332701135 -0.0207320710457371687)
(1407.10038508444995 0.00811337616104874232 -0.0203640240069570926)
(1290.77391064502922 0.00945208419121818834 -0.0201531512666954758)
(1175.74321123239156 0.0106933992095015369 -0.0199204940428646705)
(1062.08006248753031 0.0119466808938619145 -0.0196656548291863874)
(949.933610106621131 0.0133525222496908742 -0.0194047739988629023)
(839.30668807479708 0.0149657738213478091 -0.0191709594790197765)
(730.24437664163429 0.0167901121425732686 -0.018925994619427771)
(623.234127111461703 0.0187718238379285009 -0.0186028419485009811)
(518.469306156719199 0.0210726982133784754 -0.0183837555100820442)
(415.718368346167097 0.0240310565383111789 -0.0184625256112576908)
(315.486412609129275 0.0279309162861702404 -0.0187715156983682581)
(221.345573979526449 0.028420368878836387 -0.0188083673832795187)
(1900.49990200577031 -0.00726636725487341938 -0.0143880148322472392)
(1783.36630171134289 0.00301258900747669155 -0.0161132889695931626)
(1664.46273427810274 0.00548033180975615944 -0.01622914649946431)
(1545.38170017976972 0.00721967401632575903 -0.0162293788079741208)
(1427.13072517587716 0.00892568555601214869 -0.0162336200290212791)
(1310.19166566996523 0.0103655846101617898 -0.0161417055799988503)
(1194.53639257323584 0.0117319299590731476 -0.0159819142841291645)
(1080.301516415072 0.0130688371406224319 -0.0158222087698458788)
(967.595825803826301 0.0145146709000825956 -0.015671508496755162)
(856.479648768275183 0.0161019446603187094 -0.0155114568088000875)
(747.003983067440686 0.0178629046256652546 -0.0153344818044960658)
(639.439054181620577 0.0197849758885906106 -0.0151442308876207701)
(534.032548190640682 0.0219533003217559884 -0.0149854397777095475)
(430.657787542970937 0.0244607802649616651 -0.0148989373316007027)
(329.232684961178506 0.0283251018062070127 -0.0151282821184606717)
(233.068819506809518 0.029154927890782556 -0.0152012729903630503)
(1908.84961460738805 -0.00596518262512823853 -0.00769066645654539575)
(1791.91951504264034 0.00326551012120350741 -0.0101646228847350854)
(1672.93018632501253 0.00562702210746604276 -0.0102822345475491773)
(1553.89638948219681 0.00755467673133654576 -0.0101359121591381336)
(1435.82629377511535 0.0093283936138425002 -0.0100846900156548978)
(1318.84966173114503 0.0108337272937768497 -0.0100578308862437054)
(1203.06353306919436 0.0122516593096594836 -0.0100000820503498115)
(1088.72381716871064 0.0136926489151583414 -0.00993673026317037043)
(975.925429763043439 0.0151576164644245722 -0.00991104324760347551)
(864.688511573887922 0.0167462439859745703 -0.00983965382216224309)
(754.915773888128797 0.0185304805324717804 -0.00971587159308184671)
(647.083774408105455 0.0203576968342642807 -0.00954934228189359587)
(541.670306954097214 0.0223968688061892303 -0.00944805817575031931)
(438.356795647586353 0.0247424728082620213 -0.00943772307224770811)
(336.764242279613427 0.0284486468880222748 -0.00961169300755070934)
(239.548077531832121 0.0293583418401300207 -0.0096940340957115765)
(1914.28952673746016 -0.0055599769463383665 -0.00451445134368456871)
(1797.09795658446433 0.00351127029784208686 -0.00598603039100353666)
(1678.07467285654866 0.00585554996878157215 -0.00605138906224559053)
(1559.40248639939523 0.00776458723308829767 -0.00601788647867528871)
(1441.80512608266736 0.00962983280208267248 -0.00605827229065278392)
(1325.10269140944774 0.0111951805299453384 -0.00609959059968236995)
(1209.48690974857254 0.0126560065343345775 -0.00611684071062822653)
(1095.40198045757097 0.0140860372608950079 -0.00613399406091535287)
(983.142605031803214 0.015419626223760502 -0.00616206358707802743)
(871.601401504830051 0.0174295231489013762 -0.00625485548469248941)
(760.915170973592581 0.0189855437844023631 -0.00604320179340319796)
(653.14807007835168 0.0205032101541572538 -0.00580423384688283882)
(548.365176705662748 0.0226150477366036384 -0.00574431760706068436)
(445.705477051370451 0.0248950718480938048 -0.00572925285136923704)
(344.634375821893457 0.0284722833384331922 -0.00580344458422064717)
(246.974506341981908 0.0291422940210182488 -0.00579680151505395942)
(1916.28953105189021 -0.00472028180360165462 -0.00145930199514662166)
(1798.9123734839111 0.00368287589618013569 -0.00189823922328871534)
(1679.80786832205104 0.0060834756414094044 -0.00191579741913635551)
(1561.29095589469694 0.00804530712452447387 -0.00191725264296817603)
(1443.96108910125918 0.00977260019853757461 -0.00194617696824253171)
(1327.48969043587545 0.0113572318471127157 -0.00197613898827538438)
(1212.02081545407941 0.0127869602510907333 -0.0019972203671014886)
(1098.12231337041135 0.0140873865238323424 -0.00202317210434133305)
(986.102932165199832 0.0154594248101850972 -0.00205054337115962489)
(873.977277750340022 0.0177065692640569414 -0.00207597454975873156)
(762.695291947998385 0.0187639583898108024 -0.00191922661092355697)
(655.522299173820329 0.0205277260836252244 -0.00186227508778459365)
(550.840837775380237 0.0226651143463803481 -0.00184313952960908612)
(448.189339251187903 0.0250061693810636268 -0.00182326607344797105)
(346.856127900607191 0.0287850098276713866 -0.00181500845170963466)
(248.666496601412774 0.0292874625634441284 -0.00174285823156112066)
(0.0812430902615025458 0.0416045945262333433 195.682775573999464)
(0.0780857747698219806 -0.00298978706001910887 86.7356386852892456)
(0.0753062564713640886 -0.00819490172522331639 6.79605397254931454)
(0.0696949571671257317 -0.012377384867576743 -49.6669760704288947)
(0.060512700181166397 -0.016524354546156788 -83.7428818968935502)
(0.0509104023449937979 -0.0197636640959209103 -96.2070112754858116)
(0.0443608995949782633 -0.0218681792960355829 -87.8171937416266246)
(0.0381763111894583423 -0.021258601735934711 -48.8507280117359457)
(0.0267972246721631877 -0.0154271292253788262 -1.90929715554968471)
(0.0282379229848533295 -0.0126849054788223514 0.918956382860868892)
(0.0247586048624422149 -0.0100467013270403391 1.08892241761255248)
(0.0204424026245509406 -0.00693385101219246795 0.737991562375704735)
(0.0149318123066930659 -0.00398838903219858772 -1.17502726493229925)
(0.00866365127582571087 -0.00159560645146468818 -9.62756539120972477)
(0.0049731162126924371 -0.00185764695183896584 -30.9153003673312554)
(0.0607269391987328572 0.0266846574971661595 339.108428310684815)
(0.0553364244333671637 -0.0140045846424717395 238.495906252881099)
(0.0457234957245751042 -0.0251162258750071109 145.004120085588539)
(0.0324257467453970133 -0.0334083089260462512 49.9169678482720443)
(0.0120808772259987096 -0.0203968465753783315 -14.7383431218520187)
(0.00327732550561930141 -0.00899609874367127138 -26.9009331511653116)
(0.000706230843566236035 -0.00581568756476127935 -9.64176347733084604)
(-0.00101183022424795963 -0.00352893565418167061 3.61285433267057954)
(-9.56474092508372264e-05 -0.000123711438084520817 1.53317308390926232)
(-9.76144316037628654e-05 -6.43278525924351516e-05 1.70396291916610187)
(-9.22093545932707457e-05 -6.17719358981074006e-05 1.6508088180108722)
(-0.000118314422248556913 -5.26097574030322029e-05 1.51997575055712253)
(-0.000173209699373354979 -6.4214586278149257e-05 1.31333198178326205)
(-0.000362588754894199456 -0.000107623206041008388 -0.353546199048232312)
(0.0501705427502994114 0.00890423758605475395 463.570592510895494)
(0.0384969097126224152 -0.0202555263287603135 328.413720597691167)
(0.0196002431098185603 -0.0245870120661131376 182.716591173121742)
(0.00841646796582662914 -0.0145713156581094919 73.4310871609613969)
(0.0031196485962365246 -0.00373851661736777311 23.3044939869732559)
(0.00054058368146264258 -0.000799731356761317568 7.17410363136246776)
(2.64709064601358296e-05 -0.000177507794035706306 3.36784857481700417)
(-8.87528027732527494e-06 -5.66729804015021988e-05 2.80998181443724926)
(-4.65319722387008618e-05 -4.30028424525452711e-05 2.25980933736595047)
(-7.89418708120489908e-05 -4.49642351086486803e-05 1.98661286978012952)
(-6.25666858513085908e-05 -4.92472594792330538e-05 1.76889468105362369)
(-6.28011401133248432e-05 -7.04654625619768914e-05 1.6435814756297995)
(0.0541139153761446973 -0.00575110927267281045 339.463432729143449)
(0.043124519377222198 -0.0240111142255890336 211.895799984922405)
(0.0381989339232581826 -0.0200168237891647956 104.502399204717378)
(0.0110606087199460693 -0.00382393036385588869 47.4771454669537647)
(0.00573713851218492742 -0.00253234608213972383 21.9394790656464345)
(0.000750135505412654734 -0.000534369982634854378 7.25187921961350312)
(2.72002918456866763e-05 -3.59853740591165622e-05 3.18300875598305044)
(-1.20826356122478615e-05 -1.33171721526225607e-05 2.64495503915192209)
(-2.61709740865070102e-05 -2.77940656693342132e-05 2.39811769343311321)
(-3.8065582610028698e-05 -2.97674062126227072e-05 2.13682336118455884)
(-4.30838225859845513e-05 -4.15850952270380766e-05 1.93307388970717509)
(-4.22624627264195756e-05 -4.00396524805121459e-05 1.75793347117129795)
)
;
    }
    procBoundary0to1
    {
        type            processor;
        value           uniform (0 0 0);
    }
    procBoundary0to3
    {
        type            processor;
        value           uniform (0 0 0);
    }
}


// ************************************************************************* //
