/*--------------------------------*- C++ -*----------------------------------*\
| =========                 |                                                 |
| \\      /  F ield         | OpenFOAM: The Open Source CFD Toolbox           |
|  \\    /   O peration     | Version:  2206                                  |
|   \\  /    A nd           | Website:  www.openfoam.com                      |
|    \\/     M anipulation  |                                                 |
\*---------------------------------------------------------------------------*/
FoamFile
{
    version     2.0;
    format      ascii;
    arch        "LSB;label=32;scalar=64";
    class       volVectorField;
    location    "0.300000000000000044";
    object      faceTraction;
}
// * * * * * * * * * * * * * * * * * * * * * * * * * * * * * * * * * * * * * //

dimensions      [1 -1 -2 0 0 0 0];

internalField   uniform (0 0 0);

boundaryField
{
    inlet
    {
        type            calculated;
        value           uniform (0 0 0);
    }
    outlet
    {
        type            calculated;
        value           uniform (0 0 0);
    }
    top
    {
        type            calculated;
        value           uniform (0 0 0);
    }
    bottom
    {
        type            calculated;
        value           uniform (0 0 0);
    }
    left
    {
        type            calculated;
        value           uniform (0 0 0);
    }
    symmetry
    {
        type            symmetryPlane;
    }
    interface
    {
        type            calculated;
        value           nonuniform List<vector> 
352
(
(2148.68519628236754 -0.0281024085329922395 -0.0686455198029407437)
(2046.88917946518995 0.00175382982142209673 -0.073124609031863283)
(1942.53701758446005 0.00569766418663458611 -0.0721740437364632031)
(1843.16754840045223 0.00683057375502023768 -0.0713335848363662595)
(1747.5424923075916 0.00923226095739785625 -0.0729170014324192484)
(1654.26564964685349 0.0116617849359890672 -0.0685862992990373954)
(1561.47027795028157 0.0150881110698350973 -0.0662029568060010232)
(1464.77433892790737 0.019104084240999096 -0.0647812575883555813)
(1362.20075247087539 0.0236369459859814765 -0.0626649144695061167)
(1248.52315681284654 0.0291617205963141599 -0.0606218413496207448)
(1116.56527672385027 0.0369759608347852917 -0.0593879376744263707)
(957.461478769381756 0.0482371678781165422 -0.0607403490067969926)
(767.929546896597685 0.0581637997324995354 -0.0588139575926508312)
(557.039837372151055 0.0687227656170466827 -0.0579083713632978364)
(346.740530870390955 0.0771602856046008367 -0.0564302742388282028)
(187.204507312833812 0.0791680043778242026 -0.0537186067990589391)
(2487.86826231728082 -0.0139780130165602784 -0.0427834552436215862)
(2379.75909381083511 0.0035423943883006472 -0.0487473804755442566)
(2268.49502994030354 0.0067319645832897906 -0.0477656438807386313)
(2159.00591788117435 0.008926488069065883 -0.046989683197850303)
(2050.02167261572868 0.0127110396342305434 -0.0493366279754528791)
(1936.82259415976887 0.0160513517632188442 -0.0476754482961719919)
(1823.16395515551153 0.0193297498910749814 -0.0450201642120105633)
(1707.72077111121143 0.0237331005934413933 -0.0440310752673499714)
(1588.0540157234725 0.0285770488597243237 -0.0428332709528078948)
(1458.48772053126686 0.0340327374365845536 -0.0414047606739905774)
(1309.88430777643202 0.041067538256681739 -0.04035638023342044)
(1138.35296593282237 0.0516173293715939119 -0.041021035199567929)
(940.735070270533129 0.0623729195907654702 -0.0410066223476111338)
(719.291978838608543 0.0724016106595477965 -0.0407171339806491825)
(487.317394466391875 0.0821121778511776507 -0.0408559106224292076)
(281.150952645823793 0.0853822688601325736 -0.0400388507224932813)
(2644.11040134547193 -0.0139950181189873023 -0.0339602062137020419)
(2536.27214774589129 0.0040648311553446578 -0.0379423375673085678)
(2423.50425480888089 0.00838762753534390976 -0.0381022345457393344)
(2310.02348370434993 0.0112491174809595078 -0.0374655517807836597)
(2196.41550094194645 0.015070371028517467 -0.0383468760563015348)
(2079.17139475848262 0.0205635194208438205 -0.0404251320417391771)
(1958.51563782685889 0.0230946427297860947 -0.0368193399844349359)
(1836.7189969266185 0.027501240031205975 -0.0359003120757028227)
(1710.75849443035281 0.0322555646607674967 -0.0350238118006583193)
(1576.20124370371809 0.03766116087618121 -0.0341833760813930534)
(1425.42299895190604 0.0446644099109546333 -0.0337448767232440272)
(1255.94754184884687 0.0542139784547451958 -0.034234749320226715)
(1061.07919068425008 0.0656786420296697621 -0.035433024763139212)
(837.475508287994671 0.0753016323204235838 -0.0354063996309233464)
(599.119968825983392 0.0851971249682560716 -0.0358527843442569827)
(367.309343331358491 0.0904320534744800231 -0.0358544388257954622)
(2705.83647950515433 -0.0103860713084381606 -0.0199836941391277854)
(2597.40985769423833 0.00493706269284933854 -0.0250738185200946942)
(2483.07044051159482 0.00936194569639661398 -0.0250924977347739657)
(2367.14576329285819 0.0128022907265568173 -0.0244798473086247879)
(2251.15997955129296 0.0160521239937568977 -0.0240580032375938488)
(2135.03232909987491 0.0212509736188330745 -0.0249761399868297859)
(2013.45335003390619 0.0268614710048202948 -0.0263197763194049049)
(1885.98817006044897 0.0294613067609282749 -0.02401920587088794)
(1757.21158884370652 0.034237920320141807 -0.0233328970687481305)
(1621.16173784177363 0.0394727358037858592 -0.0227185385218295587)
(1472.69262189842038 0.0458853273290848185 -0.0223905583180586676)
(1307.34351296498198 0.057091604424812134 -0.0238494082598232592)
(1117.5368810750706 0.0670775678747384113 -0.0244967444341776426)
(899.863940840043028 0.0759932974970538161 -0.0246657284249929484)
(662.534805169798574 0.0858099814197519489 -0.0251971613949450585)
(422.02375084944191 0.0923550406282682423 -0.0257694078358448216)
(2740.49753746179204 -0.00866140354608391748 -0.0163743494820215128)
(2632.62691802855352 0.00529478489326719402 -0.0184535799898517261)
(2519.1211465092656 0.00982429546021467044 -0.0186454039048450336)
(2403.1431324026662 0.0136773539533611484 -0.0185534151697959136)
(2286.96407674808233 0.0172150850002453434 -0.0183944843530025846)
(2171.10282110002981 0.0215875893867830682 -0.0182583115944160157)
(2050.47249040748784 0.029263339534102005 -0.0202845221489777877)
(1920.80216810356319 0.0332667538699829846 -0.0192128312346236674)
(1788.88086942787504 0.0360843249320663487 -0.0173296139853021426)
(1653.56914578766759 0.0408475772173547344 -0.0166390308551339558)
(1508.0466284306026 0.0464358657452325907 -0.0162614708382511457)
(1347.9251324982672 0.0576752271205289296 -0.0175185564039545411)
(1164.91812117176278 0.0688818174557871005 -0.018576351126421798)
(953.26476470892726 0.0771295505429202555 -0.0186719945858213748)
(718.526611712376962 0.0863021428434594395 -0.0190041628478688773)
(476.592944463649644 0.0940673658664487183 -0.0195657118363767521)
(2756.83742556323978 -0.00674301429754928065 -0.00904610274985835454)
(2649.3097709265071 0.00559621019153332729 -0.011992052816471057)
(2536.14432506426556 0.01008081977012029 -0.0122306301644987785)
(2419.70394428432201 0.0140826325888773665 -0.0120380934080628541)
(2302.94268484487793 0.0180625908426697776 -0.0118496225211008593)
(2186.22881610921695 0.0226794111202620989 -0.0117426001564896552)
(2064.36755214091727 0.030208006725951652 -0.0124858792679016593)
(1934.67856555476214 0.0360897459752171773 -0.0120384635994080693)
(1800.3501844518355 0.0387840845281833199 -0.0106179134132612478)
(1664.33404111257641 0.041605178645748718 -0.00957010919242086595)
(1519.14437465067067 0.0470142257293152885 -0.00940264873523236414)
(1361.11789537511777 0.054365775146149882 -0.00950438073963184166)
(1183.14113682541438 0.0700109526785937519 -0.0110174492601896514)
(974.474261868076155 0.0790873342308352767 -0.0113897219629413519)
(739.914428578642628 0.0879767418473576673 -0.0115968705711209669)
(491.836739549186802 0.0946650795099941295 -0.0119683872149033525)
(2767.22885137026969 -0.00613303874657636014 -0.00522860009583051445)
(2659.04784110504761 0.0058606527926326436 -0.00695762550249006892)
(2546.1848819396746 0.0101624602787895625 -0.00704113032791014136)
(2430.46734950308428 0.0141959454142088701 -0.00695083030358697833)
(2314.45735028554509 0.0184136573079168239 -0.00688633285221984352)
(2195.69169354795622 0.0249486443801729789 -0.00723898970367300824)
(2070.65335066393754 0.032013559165748974 -0.00711833613426513922)
(1937.34851567766987 0.0370682176479863248 -0.00634294606659060057)
(1803.2347478397935 0.0382626146300583878 -0.00510078009628310222)
(1670.43807481590193 0.0432903915690516852 -0.00467657925800339918)
(1528.59110602037686 0.048836613793164653 -0.0046004987298619085)
(1369.53078142470508 0.0554087069186489159 -0.00469898149941342345)
(1193.82378160115968 0.0650299915474266826 -0.00502640843502812421)
(992.088910151417167 0.0813268729228757703 -0.0059985398668188257)
(758.7465806455848 0.089518993782798012 -0.00639011482321702635)
(507.090729390311708 0.0950079664900196075 -0.00696928395373573768)
(2770.98871865931096 -0.00527280238884131856 -0.00167019880279309146)
(2662.63784412844188 0.00602450927012825824 -0.00223182805680572976)
(2550.1700041947056 0.0102302421961471841 -0.00225781658391563779)
(2435.1714973422263 0.0143412648949725729 -0.00223544801009063028)
(2319.51470984126036 0.0186094946676533569 -0.00221172246167861608)
(2198.85724949945188 0.0264058838479632879 -0.00236826583030834382)
(2070.85124508054059 0.0329503263835821264 -0.00221609234342746205)
(1936.3499326116937 0.0356507769468579414 -0.00180922049278396712)
(1801.67637689006983 0.0393879334899946559 -0.00152633506429723374)
(1668.06818546069189 0.045324018446989342 -0.0013434736944338368)
(1528.25827925927979 0.0512427280464965856 -0.00125492935254023713)
(1372.49175649043286 0.0576750517001107313 -0.00129089716648276339)
(1194.18308418744436 0.0650279412434075221 -0.00132539835774980264)
(996.001225326923191 0.0745760441688096826 -0.00151476318715558695)
(773.961386394964848 0.0892591966422433963 -0.00192666484140553425)
(534.060605488783494 0.094978460196257497 -0.0023207550990251625)
(0.112508529954486083 0.0489583168725499646 -278.491666870313963)
(0.113768414242500657 -0.00133836645616142213 -374.962030684846468)
(0.113002794910439089 -0.00661584483015077891 -408.328297894466573)
(0.108994610294181962 -0.0101597596934510041 -391.422858182668051)
(0.101902560106275533 -0.0131616219411229748 -329.628436517212037)
(0.0887792664370970902 -0.0145285162362785471 -242.788568012677359)
(0.0727204849854998642 -0.0110679274484632943 -148.1992613481695)
(0.0545116956914649259 -0.00275052889198320423 -64.9977445189402516)
(0.0622838548694823954 0.00412811860211106506 -74.7771937555426405)
(0.0445682924805122713 0.00539167127297793952 -5.11611910970390138)
(0.0401744369944997612 0.0130958032544334982 -3.79192872500441203)
(0.0360212960985386438 0.0193509448786625543 -3.75607007915602553)
(0.0366288368209646137 0.0267572830633378451 -2.74801569164757797)
(0.0288825270710602981 0.0259813216184495155 -1.47322358791033747)
(0.0173826411059005911 0.0236752092688180815 -2.29647152637716534)
(0.00306025885943234273 0.00713670019633113727 -5.18174337227798087)
(0.0892289878219697796 0.0394098488262859814 24.7406588112728407)
(0.0857917428242013641 -0.0125059003240859425 -38.4757113214590021)
(0.0768709719671118452 -0.0265283917701677439 -71.3559562608030973)
(0.0642746485525737821 -0.0342329909768417789 -92.4408197443429884)
(0.02300234764542336 -0.0181872845057415057 -61.930238231139505)
(0.00493481876573368793 -0.00653673264311782024 -16.2362000853874839)
(-0.00111248613862951541 -0.00419074785975155108 -10.5483444440116205)
(-0.000199188769219084009 -3.87789676061356715e-05 -12.993074517444839)
(1.35918274659421514e-06 -1.67568154469585573e-05 -2.65118810456603082)
(-9.91266217546094941e-05 -9.34273941739106867e-05 -2.20248217695717496)
(-0.000112433687018958283 -7.18476337251558125e-05 -2.24440546817245057)
(-0.000108187588635610455 -6.35149061188742848e-05 -2.30788830988136917)
(-9.64825605508663601e-05 -5.96632763578641725e-05 -2.28563855801161697)
(-0.000108553168113236591 -5.74764283992007334e-05 -2.23970472199914772)
(-0.000123456979587496086 -4.71923206939487371e-05 -2.30138653756938805)
(-0.000152726501308419229 -4.06717535476363489e-05 -2.465266885224628)
(0.075075508977339972 0.0206079704849498301 379.579928800066284)
(0.061343971132506267 -0.019108880904765306 251.560843200149492)
(0.0254329670936966241 -0.020948231742267516 110.54904077660467)
(0.00443995466038584179 -0.0103258530227676084 18.2467894738753635)
(-0.00188995876680948956 -0.00282977846114697371 -3.94942302014688806)
(-0.000289159313313948829 -0.000202943543883826809 -7.46934224174906269)
(-0.000366560188704144582 -0.000126786137621219042 -7.32501233701173948)
(-0.000239113253220203133 -0.000138998805041583106 -6.99511980461218297)
(-8.7292576336838243e-05 -8.02453439856980004e-05 -5.09936634992026683)
(-6.97615719474178512e-05 -6.34302433860730626e-05 -3.9596930966054118)
(-0.000107040391268895923 -6.02388381792388536e-05 -3.21455815759298291)
(-8.76610059097965506e-05 -3.57458552323191379e-05 -2.97141739470955457)
(-7.64298032538063748e-05 -2.32923470935744325e-05 -2.86344748849954822)
(-7.7265193840482009e-05 -1.88612299869050438e-05 -2.81124477931506522)
(-6.87309270182975617e-05 -2.65426137770118281e-05 -2.64557501089329516)
(-7.00380012397969437e-05 -3.57818901993888755e-05 -2.58480471065167627)
(0.0758257276978342859 0.0100606554119896888 272.431568002512847)
(0.0465955325626707662 -0.0218097846154618746 135.225260390479434)
(0.0137584144462450791 -0.0151314228300438794 26.636440627585678)
(0.000384479272033236665 -0.000371373439688278337 -2.5166148776797912)
(0.00012778542775354268 -0.000209835115906097802 -6.55210537619901601)
(-3.58585336117493725e-05 -0.000112053580122381346 -6.96659414966320067)
(-0.000137147440116587224 -6.5358804619161331e-05 -5.59951373467484448)
(-7.45826353798753936e-05 -2.4559490294797505e-05 -4.74246859870645121)
(-0.000151935655548615894 -5.14083478203971244e-05 -3.87024146879374875)
(-3.34387979367106844e-05 1.15563432519989958e-05 -3.46509910937072529)
(-9.69808849836471251e-05 -2.40100380441599673e-06 -3.12994124703252652)
(-9.72037303837445713e-05 -4.46956241667185762e-06 -2.96294796955055917)
(-9.55093987026515382e-05 -1.3955809087539775e-05 -2.78070089256548059)
(-8.86390457497135366e-05 -7.75801336857362541e-06 -2.67720067593233901)
(-8.59316893114260008e-05 -3.17596791910418203e-06 -2.61284286838122837)
(-7.95075623903820222e-05 -3.24837331575586973e-06 -2.56642889974417354)
(-5.4733025917465925 0.00355519500592175542 0.00105436863450843752)
(0.764091166731181826 -0.000859050993075350993 -7.6933323426098881e-05)
(0.981583166106016369 -4.99913397547569987e-05 -5.75247463710933817e-05)
(0.737125597081237816 -2.61162744262594389e-05 -3.32355468898691886e-05)
(0.693359406427441871 -7.9836172514325019e-06 -7.0829982260835016e-05)
(0.805934655119034171 3.0046226554315147e-06 -8.60347585553383309e-05)
(0.933790858452758221 5.11102492290300515e-06 -6.57134552834996884e-05)
(1.02959989195075741 7.82766728903983497e-06 -6.34734644515110849e-05)
(1.16661348513999452 7.64265627802406729e-06 -6.10601195786531468e-05)
(1.29543508440582822 8.18324285659132755e-06 -5.57638269987256188e-05)
(1.41253831205218949 8.19261367343067398e-06 -5.4255699795978477e-05)
(1.51597523108186683 8.6331339559924016e-06 -5.03500867820091884e-05)
(1.61757946978919565 9.87182726106165783e-06 -4.87699110527069899e-05)
(1.71840280296643977 1.35764595998811244e-05 -4.73439701400195308e-05)
(1.82485195957767066 1.68289837854221367e-05 -4.47002195270705015e-05)
(1.93345452071988344 2.25072156959237616e-05 -4.02342281258242558e-05)
(-0.0998107042245855725 2.98331150857779983e-06 2.39517876268083597e-05)
(0.300243362714560535 -1.86226868225927112e-06 -1.15214074344848476e-05)
(0.48967690637456357 -1.30249945134331944e-06 -5.3272337717780486e-05)
(0.532155654273077205 1.85532165899369882e-07 -5.32105540781011295e-05)
(0.62336292988039077 1.65611440680562666e-06 -3.27276969619249951e-05)
(0.73224977875491537 -8.34185336782787857e-08 -3.35532516759332088e-05)
(0.843847236270566015 2.15898666987411452e-06 -3.25561595616916975e-05)
(0.955415559892431765 4.13335932675870027e-06 -3.22885397855279954e-05)
(1.06833010407348206 6.06267413040430445e-06 -3.25237375803068558e-05)
(1.18023001668710914 7.98284791492003871e-06 -3.2526729284362446e-05)
(1.28941634583542997 9.70304245529603002e-06 -3.19428984837586121e-05)
(1.39690009011376182 1.22043677685352591e-05 -3.09797734149734795e-05)
(1.50617384874353788 1.46299772491729638e-05 -2.9506404125135752e-05)
(1.61685165234964967 1.91496588048355369e-05 -2.77760326528042035e-05)
(1.73896887054337257 2.2805192185755797e-05 -2.58971343053325951e-05)
(1.87256631581138855 2.90500300622693663e-05 -2.34914133602753258e-05)
(-0.0021723445378827996 -1.33636733211907452e-06 -1.714008275418397e-05)
(0.145440604937741469 1.08319389242459934e-05 -3.79226034778691311e-05)
(0.311676814707477212 1.0661886561156548e-05 -3.46095080363941832e-05)
(0.440353178887069041 6.45007628345754764e-06 -3.12140094670351775e-05)
(0.549347478168418557 3.95302873284331842e-06 -3.42681411721747849e-05)
(0.664648767973839094 4.87556312969845144e-06 -3.29385686003066112e-05)
(0.779068228170787913 5.75420369883975225e-06 -3.16129810957003964e-05)
(0.891965404443142762 6.84585304951473028e-06 -3.04900034662625192e-05)
(1.00381931254136192 8.23160151106962798e-06 -2.92875506377818099e-05)
(1.11466331855501433 9.99263041972973685e-06 -2.80794922019313765e-05)
(1.22516386096613616 1.19730319997094859e-05 -2.6869983369826303e-05)
(1.3355762930540751 1.48176914091397453e-05 -2.56140264754993229e-05)
(1.44860734296025395 1.72279638355308062e-05 -2.42786407153693508e-05)
(1.5636356763509085 2.25854999566216767e-05 -2.2880156629707713e-05)
(1.69201784789050569 2.61022128917264629e-05 -2.12492095970856958e-05)
(1.8343029546860099 3.25639549568061703e-05 -1.96315961833822495e-05)
(-0.0138337667020906729 2.20471036788061596e-06 -1.59452937568289075e-05)
(0.126115711263824343 7.128344786754357e-06 -2.13197756379483093e-05)
(0.260574147105960552 7.48636325338500317e-06 -2.3458876538583251e-05)
(0.386372049633111947 6.55712089960074962e-06 -2.40287772909279091e-05)
(0.507163648973411485 6.14369873416077194e-06 -2.20650735595962089e-05)
(0.624773868005747524 6.40260902129960902e-06 -2.09333653036253494e-05)
(0.740518171886438092 7.18775590171675593e-06 -2.01570228436139636e-05)
(0.855033122035351312 8.35297182046714646e-06 -1.94480454814136325e-05)
(0.968499404372444417 9.81857064688530691e-06 -1.87640215032412875e-05)
(1.08110486144268148 1.16610134661045562e-05 -1.80845066651657027e-05)
(1.19356213940134248 1.37308445663358028e-05 -1.73795657699965946e-05)
(1.30602621282492848 1.67177890551595929e-05 -1.66414976784551473e-05)
(1.42116093145821853 1.92374908760745893e-05 -1.58623915737686542e-05)
(1.53856585423497627 2.4739242084719646e-05 -1.50516014076557218e-05)
(1.6694562351804505 2.82346187481140628e-05 -1.41838171119609466e-05)
(1.81425192967036186 3.45723054891556398e-05 -1.33885500800796679e-05)
(-0.0399270235883858599 -4.42424772591795008e-06 -1.37058772361821429e-05)
(0.0897154866318680411 4.89654238463749653e-06 -1.68512619051128774e-05)
(0.220121983970793911 6.90474415797627167e-06 -1.72267000066876086e-05)
(0.347054781435364668 6.80963921000225028e-06 -1.70848584600919371e-05)
(0.469497118261200108 6.92534137981279404e-06 -1.71180408163442055e-05)
(0.589169374129824286 7.5249885230595599e-06 -1.68630030325611214e-05)
(0.707013612152211812 8.47847612681658827e-06 -1.63695464619909485e-05)
(0.823428350432490408 9.71316860320771636e-06 -1.57637563313626189e-05)
(0.938712908673630775 1.12136440555547997e-05 -1.51119489239497999e-05)
(1.05311135686829971 1.30820601206960763e-05 -1.4443129570364492e-05)
(1.16720878634054159 1.51755751477436379e-05 -1.37738211752732507e-05)
(1.28120530745156547 1.81938952813051052e-05 -1.3107729592361969e-05)
(1.39764931394972147 2.07650799339166213e-05 -1.24416394347919471e-05)
(1.51630301211939988 2.6294031419687401e-05 -1.17779152824534554e-05)
(1.64827766442526857 2.97901813676092933e-05 -1.10944466139732269e-05)
(1.79381451578438589 3.60031095300230864e-05 -1.04636027745339282e-05)
(-0.0584675045238510355 -3.46608092961944357e-06 -8.77902454199494535e-06)
(0.0667642771689662406 2.97306032651402855e-06 -1.08712010529674533e-05)
(0.193664456309786515 5.55906533489842041e-06 -1.11182240237137567e-05)
(0.319346832231710565 6.58899134751885511e-06 -1.11547648562231126e-05)
(0.443017708770530427 7.33839410914050713e-06 -1.10413753267024973e-05)
(0.564597563504809274 8.22669791860764006e-06 -1.08138655933403361e-05)
(0.6843148149727587 9.31621518429969198e-06 -1.05119959208381026e-05)
(0.802454321181645946 1.062665533106991e-05 -1.01630960297436738e-05)
(0.919306108158104429 1.21726222348556389e-05 -9.78678243312998584e-06)
(1.03512065658238761 1.40691987996237511e-05 -9.394688619507955e-06)
(1.15045358322960789 1.61837026823258467e-05 -8.99452316418479356e-06)
(1.26555706889113773 1.9200401196903318e-05 -8.58788112312733086e-06)
(1.38282248485847337 2.18025522104340929e-05 -8.18003365144265838e-06)
(1.50215905345071388 2.72886750290688122e-05 -7.77298968910408778e-06)
(1.6344575870496636 3.07708547142245386e-05 -7.35251043334164858e-06)
(1.77981992228845187 3.67978641506284149e-05 -6.97149813492960626e-06)
(-0.0728069534540974062 -2.78749235232918346e-06 -5.36357366879108766e-06)
(0.0509597965332875893 2.27765808975273502e-06 -6.33338147735308297e-06)
(0.176115302266055818 4.87731866031395976e-06 -6.38247805422666908e-06)
(0.301023903849443386 6.3074138395286399e-06 -6.42377031649885637e-06)
(0.424717911091452904 7.38149355646854082e-06 -6.43535086593089365e-06)
(0.546936748511516857 8.50560613150284602e-06 -6.37230214490526488e-06)
(0.667638240018836426 9.75495986184339808e-06 -6.23854442838364269e-06)
(0.786882338701255457 1.11677452228132496e-05 -6.0559970667542179e-06)
(0.904831907388481627 1.27764876894647798e-05 -5.84398154810362162e-06)
(1.02168015891275021 1.47093262539916937e-05 -5.61443932212699999e-06)
(1.13792929011463473 1.684726418402266e-05 -5.3762849394108476e-06)
(1.25386171293364135 1.98684695042446053e-05 -5.13231857110493521e-06)
(1.37176793256026719 2.24970533790375639e-05 -4.88682826847611129e-06)
(1.49174646562105284 2.79773429709863991e-05 -4.63584152186211765e-06)
(1.6245789393179233 3.14683242242654073e-05 -4.36985076775586605e-06)
(1.77060481801540948 3.7438165386479234e-05 -4.11304247676043545e-06)
(-0.0793730504687246291 -2.75529606148568331e-06 -1.78004482096118192e-06)
(0.0437097423088495529 2.03973222358638167e-06 -2.06732400638410799e-06)
(0.167987901738053252 4.58264476093719677e-06 -2.07504758188380704e-06)
(0.292376599541762427 6.15504247513558749e-06 -2.09217935098376853e-06)
(0.415973652885546885 7.37458746691089303e-06 -2.09974311423977036e-06)
(0.538431810458650295 8.61273560189995261e-06 -2.08201561156649195e-06)
(0.659571117288709319 9.94536897918225769e-06 -2.04139658776617948e-06)
(0.779338615391795275 1.1415348360439333e-05 -1.98427240793256439e-06)
(0.897822928427431832 1.30607011700050076e-05 -1.91664739868501819e-06)
(1.01518265035244948 1.50149467523348857e-05 -1.84267938442085692e-06)
(1.13188916757761171 1.71681331545103829e-05 -1.76558001729049812e-06)
(1.24825584787271437 2.01962334169146905e-05 -1.68578168961977103e-06)
(1.36651740506654962 2.28403050598968024e-05 -1.60494059508234734e-06)
(1.48697038774134138 2.83419652667178086e-05 -1.52030126006002901e-06)
(1.62035143918805935 3.18249930007296226e-05 -1.42815329373144473e-06)
(1.76728803449081528 3.79426948687968104e-05 -1.33828760655319457e-06)
(0.0023695436872592365 -24.8789675232613376 -0.00568689317376306399)
(0.00364126017699251863 -30.6759549824795492 -0.00561338016546399695)
(0.00224118671396387548 -30.0953838566363991 -0.00462088985627983912)
(-2.42997977316246768e-05 -31.7140017845701614 -0.00226658662417076077)
(0.00387876591065701307 -32.2226877370516931 -0.00241998415003421945)
(-0.00055974550913730518 -37.7024444802374603 -0.00388563712978189004)
(-0.00325510973735395346 -39.6003113230415593 0.0017521544080299949)
(0.00427030403858943888 -33.966686474753395 -0.000305388451571266407)
(-0.000102208996132223197 2.19026553720385975 -6.8643430323123145e-07)
(-8.93557186006432245e-05 2.21216770147314623 -1.34423444787698816e-06)
(-8.85589172277347791e-05 2.20627032283758995 -1.64940075157579109e-06)
(-8.48154473554985452e-05 2.16870638531633908 -1.77141923739091492e-06)
(-8.903561091907793e-05 2.14176847095968803 -3.96782669174898199e-06)
(-7.7299730180373745e-05 1.9800478339468901 -2.74924757184836126e-06)
(-7.74015369021487706e-05 1.99050121293711446 5.60400849355405891e-06)
(-9.22090710825829461e-05 2.18528911326296083 5.3704611503346953e-06)
(-4.05642293597703254e-05 2.24137348002953152 -8.99983128160218566e-07)
(-4.05646084726339997e-05 2.25310792992004272 -6.6084728524462734e-06)
(-4.11874362548837096e-05 2.25596096725578876 -5.6949421909037573e-06)
(-4.17579522827487231e-05 2.24489010526414123 -5.05587466377856076e-06)
(-4.03125918947904737e-05 2.21228556420138256 -5.26871933332611932e-06)
(-4.02731544425126173e-05 2.14764711190503732 -3.37266954766823878e-06)
(-4.21803103501180269e-05 2.14463927549362676 -8.99460255095705572e-07)
(-4.22568435262907175e-05 2.20768434560021554 3.36735789294521516e-07)
(-5.24456633443655989e-05 2.25013347265329378 -9.55942411515902941e-06)
(-5.15929184836694412e-05 2.27902918160569623 -8.28628166353864503e-06)
(-5.23080206834674591e-05 2.28392193937978316 -8.15974635807965478e-06)
(-5.29860495426221178e-05 2.2784933717798328 -6.32400444480890245e-06)
(-5.26210370622087536e-05 2.25363956625069983 -5.25780671434873732e-06)
(-5.14957535421285714e-05 2.23014468118789777 -3.38801698589979642e-06)
(-5.15432343025634733e-05 2.22596164087827075 -1.63827452432572225e-06)
(-5.35408789333180666e-05 2.23286605315372411 -4.58001625517791151e-07)
)
;
    }
}


// ************************************************************************* //
