/*--------------------------------*- C++ -*----------------------------------*\
| =========                 |                                                 |
| \\      /  F ield         | OpenFOAM: The Open Source CFD Toolbox           |
|  \\    /   O peration     | Version:  2206                                  |
|   \\  /    A nd           | Website:  www.openfoam.com                      |
|    \\/     M anipulation  |                                                 |
\*---------------------------------------------------------------------------*/
FoamFile
{
    version     2.0;
    format      ascii;
    arch        "LSB;label=32;scalar=64";
    class       volVectorField;
    location    "0.300000000000000044";
    object      faceForces;
}
// * * * * * * * * * * * * * * * * * * * * * * * * * * * * * * * * * * * * * //

dimensions      [1 1 -2 0 0 0 0];

internalField   uniform (0 0 0);

boundaryField
{
    inlet
    {
        type            calculated;
        value           uniform (0 0 0);
    }
    outlet
    {
        type            calculated;
        value           uniform (0 0 0);
    }
    top
    {
        type            calculated;
        value           uniform (0 0 0);
    }
    bottom
    {
        type            calculated;
        value           uniform (0 0 0);
    }
    left
    {
        type            calculated;
        value           uniform (0 0 0);
    }
    symmetry
    {
        type            symmetryPlane;
    }
    interface
    {
        type            calculated;
        value           nonuniform List<vector> 
352
(
(0.671464123838239502 -8.78200266656007098e-06 -2.14517249384189717e-05)
(0.639652868582871847 5.48071819194405223e-07 -2.28514403224572765e-05)
(0.607042817995143702 1.78052005832330788e-06 -2.2554388667644748e-05)
(0.575989858875141425 2.13455429844382482e-06 -2.22917452613644623e-05)
(0.5461070288461225 2.88508154918683049e-06 -2.27865629476310209e-05)
(0.516958015514642599 3.64430779249658988e-06 -2.14332185309492225e-05)
(0.487959461859463373 4.71503470932347106e-06 -2.06884240018753333e-05)
(0.457741980914971314 5.97002632531222069e-06 -2.02441429963611287e-05)
(0.425687735147147694 7.38654562061919572e-06 -1.95827857717206193e-05)
(0.390163486504014612 9.11303768634817665e-06 -1.89443254217564875e-05)
(0.34892664897620379 1.15549877608704229e-05 -1.85587305232582736e-05)
(0.299206712115432316 1.50741149619114453e-05 -1.89813590646240928e-05)
(0.23997798340518639 1.81761874164060776e-05 -1.83793617477033575e-05)
(0.174074949178797345 2.14758642553271048e-05 -1.80963660510305862e-05)
(0.108356415896997113 2.41125892514377494e-05 -1.76344606996338044e-05)
(0.0585014085352607086 2.47400013680701235e-05 -1.67870646247059606e-05)
(0.777458831974150333 -4.3681290676750872e-06 -1.33698297636317468e-05)
(0.743674716815885928 1.10699824634395206e-06 -1.52335563986075782e-05)
(0.708904696856344718 2.10373893227805938e-06 -1.49267637127308196e-05)
(0.674689349337867061 2.78952752158308893e-06 -1.46842759993282219e-05)
(0.640631772692414558 3.97219988569704052e-06 -1.541769624232901e-05)
(0.605257060674928238 5.0160474260058926e-06 -1.48985775925537571e-05)
(0.569738735986097034 6.04054684096092891e-06 -1.40688013162532942e-05)
(0.533662740972253968 7.41659393545044109e-06 -1.37597110210468763e-05)
(0.496266879913584646 8.93032776866384154e-06 -1.33853971727524534e-05)
(0.455777412666021009 1.06352304489326745e-05 -1.29389877106220574e-05)
(0.409338846180135274 1.28336057052130526e-05 -1.26113688229438961e-05)
(0.355735301854007258 1.61304154286231082e-05 -1.28190734998649878e-05)
(0.293979709459541161 1.94915373721141801e-05 -1.28145694836284599e-05)
(0.224778743387065327 2.26255033311087031e-05 -1.27241043689528778e-05)
(0.152286685770747221 2.56600555784929746e-05 -1.2767472069509107e-05)
(0.0878596727018201851 2.66819590187915047e-05 -1.25121408507791854e-05)
(0.826284500420460866 -4.37344316218353679e-06 -1.06125644417818994e-05)
(0.792585046170591889 1.27025973604520698e-06 -1.18569804897839392e-05)
(0.757345079627775974 2.621133604794974e-06 -1.19069482955435536e-05)
(0.721882338657610312 3.5153492127998505e-06 -1.17079849314949087e-05)
(0.686379844044358367 4.70949094641170921e-06 -1.19833987675942323e-05)
(0.649741060862026987 6.42609981901370548e-06 -1.26328537630435153e-05)
(0.612036136820893861 7.21707585305816012e-06 -1.15060437451359261e-05)
(0.57397468653956929 8.59413750975188237e-06 -1.12188475236571525e-05)
(0.534612029509484721 1.00798639564898332e-05 -1.09449411877057127e-05)
(0.49256288865741249 1.17691127738066424e-05 -1.0682305025435342e-05)
(0.445444687172471432 1.39576280971733476e-05 -1.05452739760137763e-05)
(0.392483606827765341 1.69418682671079032e-05 -1.06983591625708678e-05)
(0.331587247088827641 2.05245756342717708e-05 -1.10728202384809877e-05)
(0.261711096339999116 2.35317601001324415e-05 -1.1064499884663578e-05)
(0.187224990258119728 2.66241015525800095e-05 -1.12039951075803022e-05)
(0.114784169791049995 2.82600167107751219e-05 -1.1204512133061126e-05)
(0.845573899845360688 -3.24564728388692523e-06 -6.24490441847743336e-06)
(0.811690580529449424 1.5428320915154184e-06 -7.83556828752959194e-06)
(0.775959512659873285 2.92560803012394136e-06 -7.84140554211686259e-06)
(0.739733051029018318 4.00071585204900593e-06 -7.64995228394524752e-06)
(0.703487493609777914 5.01628874804902287e-06 -7.51812601174806613e-06)
(0.667197602843710991 6.64092925588533678e-06 -7.80504374588430959e-06)
(0.629204171885595076 8.39420968900633319e-06 -8.2249300998140239e-06)
(0.589371303143890746 9.20665836279009267e-06 -7.50600183465248673e-06)
(0.549128621513657156 1.06993501000442925e-05 -7.29153033398377563e-06)
(0.506613043075553993 1.23352299386830754e-05 -7.09954328807173339e-06)
(0.460216444343256481 1.43391647903390091e-05 -6.99704947439333477e-06)
(0.408544847801556976 1.78411263827537945e-05 -7.45294008119476957e-06)
(0.349230275335958629 2.09617399608556995e-05 -7.65523263568049346e-06)
(0.281207481512513957 2.37479054678293585e-05 -7.70804013281030987e-06)
(0.207042126615561622 2.68156191936724298e-05 -7.87411293592031458e-06)
(0.1318824221404509 2.88609501963338924e-05 -8.05293994870152463e-06)
(0.856405480456810198 -2.70668860815122464e-06 -5.11698421313172347e-06)
(0.822695911883922992 1.65462027914599818e-06 -5.76674374682866447e-06)
(0.787225358284145305 3.07009233131708326e-06 -5.8266887202640712e-06)
(0.750982228875833657 4.27417311042536106e-06 -5.79794224056122616e-06)
(0.714676273983775423 5.37971406257666755e-06 -5.74827636031330509e-06)
(0.678469631593759614 6.74612168336971259e-06 -5.70572237325500775e-06)
(0.640772653252340341 9.14479360440688347e-06 -6.338913171555563e-06)
(0.600250677532364052 1.03958605843696926e-05 -6.00400976081990192e-06)
(0.55902527169621008 1.12763515412707164e-05 -5.41550437040691086e-06)
(0.516740358058646154 1.27648678804233538e-05 -5.19969714222936166e-06)
(0.471264571384563902 1.45112080453852021e-05 -5.08170963695348953e-06)
(0.421226603905708596 1.80235084751652932e-05 -5.47454887623579503e-06)
(0.364036912866175677 2.15255679549334581e-05 -5.80510972700680923e-06)
(0.297895238971539966 2.41029845446625976e-05 -5.83499830806918421e-06)
(0.224539566160117582 2.69694196385810476e-05 -5.93880088995901827e-06)
(0.148935295144891039 2.93960518332653252e-05 -6.11428494886775655e-06)
(0.861511695488513252 -2.10719196798415202e-06 -2.82690710933073825e-06)
(0.82790930341453417 1.74881568485416626e-06 -3.74751650514720857e-06)
(0.792545101582583178 3.15025617816259115e-06 -3.82207192640586878e-06)
(0.756157482588851293 4.40082268402418108e-06 -3.76190419001964533e-06)
(0.719669589014024003 5.64455963833430235e-06 -3.70300703784401662e-06)
(0.683196505034130874 7.08731597508191224e-06 -3.66956254890302063e-06)
(0.645114860044037286 9.44000210185989952e-06 -3.90183727121927211e-06)
(0.604587051735864134 1.12780456172553864e-05 -3.76201987481502742e-06)
(0.562609432641198226 1.21200264150572795e-05 -3.31809794164413773e-06)
(0.520104387847680427 1.3001618326796482e-05 -2.9906591226315221e-06)
(0.474732617078335362 1.4691945540411051e-05 -2.93832772976011847e-06)
(0.425349342304724487 1.69893047331718454e-05 -2.9701189811349517e-06)
(0.369731605257942131 2.18784227120605551e-05 -3.44295289380926715e-06)
(0.304523206833774263 2.47147919471360646e-05 -3.5592881134191779e-06)
(0.231223258930825654 2.74927318272992514e-05 -3.62402205347529963e-06)
(0.153698981109121446 2.95828373468732754e-05 -3.74012100465731149e-06)
(0.864759016053209484 -1.91657460830511292e-06 -1.633937529947036e-06)
(0.830952450345327387 1.83145399769770109e-06 -2.17425796952814662e-06)
(0.795682775606148307 3.1757688371217382e-06 -2.20035322747191931e-06)
(0.75952104671971421 4.43623294194027427e-06 -2.1721344698709319e-06)
(0.723267921964232396 5.75426790872400412e-06 -2.15197901631869954e-06)
(0.686153654233736976 7.79645136880406254e-06 -2.26218428239781714e-06)
(0.647079172082480336 1.0004237239296553e-05 -2.22448004195785573e-06)
(0.605421411149272393 1.15838180149957358e-05 -1.98217064580956442e-06)
(0.563510858699934669 1.195706707189323e-05 -1.59399378008846729e-06)
(0.522011898379969197 1.3528247365328648e-05 -1.46143101812606176e-06)
(0.477684720631368187 1.52614418103639675e-05 -1.4376558530818478e-06)
(0.427978369195220698 1.73152209120778011e-05 -1.46843171856669602e-06)
(0.373069931750361905 2.03218723585708114e-05 -1.57075263594628666e-06)
(0.310027784422318153 2.54146477883987017e-05 -1.87454370838088462e-06)
(0.237108306451744938 2.79746855571243411e-05 -1.99691088225531794e-06)
(0.158465852934472878 2.96899895281312143e-05 -2.17790123554242451e-06)
(0.865933974581034716 -1.64775074651291209e-06 -5.21937125872841115e-07)
(0.832074326290138222 1.88265914691508106e-06 -6.97446267751790656e-07)
(0.79692812631084553 3.19695068629599534e-06 -7.05567682473636836e-07)
(0.760991092919445999 4.48164527967893082e-06 -6.98577503153322275e-07)
(0.724848346825393341 5.81546708364167042e-06 -6.91163269274567109e-07)
(0.687142890468579348 8.25183870248853506e-06 -7.4008307197135813e-07)
(0.647141014087668665 1.02969769948694116e-05 -6.92528857321081713e-07)
(0.605109353941154837 1.11408677958931163e-05 -5.65381403994990232e-07)
(0.563023867778146059 1.23087292156233131e-05 -4.76979707592884863e-07)
(0.521271307956466035 1.41637557646841653e-05 -4.19835529510573845e-07)
(0.477580712268525331 1.60133525145301979e-05 -3.92165422668824481e-07)
(0.428903673903260618 1.80234536562846199e-05 -4.0340536452586389e-07)
(0.373182213808575913 2.03212316385648263e-05 -4.14186986796812844e-07)
(0.311250382914663781 2.33050138027530465e-05 -4.7336349598612134e-07)
(0.241862933248426198 2.78934989507010227e-05 -6.02082762939228635e-07)
(0.166893939215245174 2.96807688113305234e-05 -7.25235968445364722e-07)
(3.51589156107769802e-05 1.52994740226718977e-05 -0.0870286458969733168)
(3.55526294507815715e-05 -4.18239517550445803e-07 -0.117175634589014907)
(3.53133734095122332e-05 -2.06745150942211958e-06 -0.127602593092020877)
(3.40608157169318835e-05 -3.17492490420344038e-06 -0.122319643182083826)
(3.18445500332111114e-05 -4.11300685660093063e-06 -0.103008886411628781)
(2.77435207615929042e-05 -4.54016132383705633e-06 -0.0758714275039618496)
(2.27251515579687847e-05 -3.45872732764479085e-06 -0.0463122691713031207)
(1.70349049035828585e-05 -8.5954027874475476e-07 -0.0203117951621689108)
(1.94637046467132829e-05 1.2900370631597102e-06 -0.0233678730486071157)
(1.392759140016011e-05 1.68489727280560902e-06 -0.0015987872217824719)
(1.2554511560781212e-05 4.09243851701048018e-06 -0.00118497772656388223)
(1.12566550307933479e-05 6.04717027458205971e-06 -0.00117377189973626021)
(1.14465115065514638e-05 8.36165095729309267e-06 -0.00085875490363986973)
(9.02578970970637962e-06 8.11916300576550652e-06 -0.00046038237122198231)
(5.43207534559393853e-06 7.39850289650565569e-06 -0.000717647351992864728)
(9.56330893572609729e-07 2.23021881135348675e-06 -0.00161929480383687344)
(2.78840586943655225e-05 1.23155777582143547e-05 0.0077314558785227536)
(2.68099196325628947e-05 -3.90809385127685244e-06 -0.0120236597879559235)
(2.40221787397223957e-05 -8.29012242817740013e-06 -0.0222987363315009131)
(2.00858276726792624e-05 -1.06978096802630315e-05 -0.0288877561701071199)
(7.18823363919478857e-06 -5.68352640804421169e-06 -0.0193531994472310662)
(1.54213086429177592e-06 -2.04272895097431672e-06 -0.00507381252668358349)
(-3.47651918321723219e-07 -1.30960870617235845e-06 -0.00329635763875362788)
(-6.22464903809635941e-08 -1.21184273769173665e-08 -0.00406033578670150167)
(4.24744608310691102e-10 -5.23650482717453598e-09 -0.000828496282676882516)
(-3.09770692983154208e-08 -2.91960606793470438e-08 -0.000688275680299116105)
(-3.51355271934244097e-08 -2.24523855391111577e-08 -0.000701376708803889688)
(-3.38086214486282511e-08 -1.98484081621482031e-08 -0.000721215096837927528)
(-3.01508001721456613e-08 -1.86447738618325051e-08 -0.000714262049378628478)
(-3.39228650353863486e-08 -1.79613838747501822e-08 -0.000699907725624731789)
(-3.85803061210923896e-08 -1.47476002168589276e-08 -0.000719183292990431154)
(-4.77270316588809838e-08 -1.27099229836363521e-08 -0.000770395901632695804)
(2.34610965554187621e-05 6.43999077654682728e-06 0.118618727750020816)
(1.91699909789082255e-05 -5.97152528273916366e-06 0.0786127635000467839)
(7.94780221678020453e-06 -6.54632241945860695e-06 0.0345465752426890038)
(1.38748583137057692e-06 -3.22682906961488034e-06 0.00570212171058605624)
(-5.90612114627965886e-07 -8.84305769108429865e-07 -0.00123419469379590341)
(-9.03622854106091609e-08 -6.34198574636959899e-08 -0.00233416945054658624)
(-1.14550058970045241e-07 -3.96206680066309722e-08 -0.00228906635531616991)
(-7.47228916313135362e-08 -4.34371265754947523e-08 -0.00218597493894130863)
(-2.72789301052619985e-08 -2.50766699955306712e-08 -0.00159355198435008616)
(-2.1800491233568069e-08 -1.98219510581478205e-08 -0.00123740409268919063)
(-3.34501222715300011e-08 -1.88246369310121558e-08 -0.00100454942424780787)
(-2.73940643468115001e-08 -1.11705797600997616e-08 -0.000928567935846738362)
(-2.38843135168145103e-08 -7.2788584667420154e-09 -0.000894827340156109392)
(-2.41453730751506444e-08 -5.89413437090782992e-09 -0.000878513993535958511)
(-2.14784146932179796e-08 -8.29456680531619389e-09 -0.000826742190904154457)
(-2.18868753874365817e-08 -1.11818406873090436e-08 -0.000807751472078650258)
(2.36955399055732378e-05 3.14395481624678123e-06 0.0851348650007853619)
(1.4561103925834662e-05 -6.81555769233185805e-06 0.0422578938720249639)
(4.29950451445159154e-06 -4.72856963438871749e-06 0.00832388769612053304)
(1.2014977251038634e-07 -1.16054199902586869e-07 -0.000786442149274933929)
(3.99329461729820879e-08 -6.55734737206555616e-08 -0.00204753293006219254)
(-1.12057917536716978e-08 -3.50167437882442311e-08 -0.00217706067176975417)
(-4.28585750364335278e-08 -2.04246264434879281e-08 -0.00174984804208588992)
(-2.33070735562110487e-08 -7.67484071712421669e-09 -0.00148202143709576521)
(-4.74798923589423918e-08 -1.60651086938740776e-08 -0.00120945045899804459)
(-1.04496243552220833e-08 3.61135726624968415e-09 -0.00108284347167835111)
(-3.03065265573897819e-08 -7.50313688880000309e-10 -0.00097810663969766622)
(-3.03761657449202301e-08 -1.39673825520995794e-09 -0.00092592124048455134)
(-2.98466870945785594e-08 -4.36119033985617291e-09 -0.000868969028926711322)
(-2.76997017967855008e-08 -2.42437917767925951e-09 -0.000836625211228856475)
(-2.6853652909820679e-08 -9.92489974720058862e-10 -0.000816513396369135478)
(-2.48461132469944559e-08 -1.01511666117371233e-09 -0.000802009031170056565)
(-0.00171040705992080936 1.11099843935054796e-06 3.29490198283886584e-07)
(0.000238778489603494286 -2.68453435336047158e-07 -2.40416635706558966e-08)
(0.000306744739408130063 -1.56222936733615601e-08 -1.79764832409666791e-08)
(0.00023035174908788683 -8.16133575820607479e-09 -1.03861084030841207e-08)
(0.000216674814508575637 -2.49488039107265747e-09 -2.21343694565109481e-08)
(0.000251854579724698617 9.38944579822349933e-10 -2.68858620485432753e-08)
(0.000291809643266487139 1.59719528840719025e-09 -2.05354547760936673e-08)
(0.000321749966234611878 2.44614602782494985e-09 -1.98354576410972269e-08)
(0.000364566714106247529 2.38833008688251628e-09 -1.90812873683290671e-08)
(0.000404823463876821405 2.55726339268479037e-09 -1.74261959371017582e-08)
(0.000441418222516309965 2.5601917729470901e-09 -1.69549061862433033e-08)
(0.000473742259713084242 2.69785436124763003e-09 -1.57344021193778982e-08)
(0.000505493584309122876 3.08494601908176317e-09 -1.52405972039709116e-08)
(0.000537000875927012714 4.24264362496285345e-09 -1.47949906687561109e-08)
(0.000570266237368021768 5.25905743294441532e-09 -1.39688186022095244e-08)
(0.000604204537724964928 7.03350490497619167e-09 -1.25731962893201082e-08)
(-3.11908450701829911e-05 9.32284846430562531e-10 7.48493363337761208e-09)
(9.38260508483001722e-05 -5.81958963206022232e-10 -3.60043982327651499e-09)
(0.000153024033242051097 -4.07031078544787256e-10 -1.66476055368064002e-08)
(0.000166298641960336641 5.79788018435530912e-11 -1.66282981494066038e-08)
(0.000194800915587621933 5.1753575212675781e-10 -1.02274053006015502e-08)
(0.000228828055860911232 -2.60682917744621391e-11 -1.04853911487291353e-08)
(0.000263702261334551754 6.74683334335660498e-10 -1.0173799863028651e-08)
(0.000298567362466385156 1.29167478961209467e-09 -1.00901686829775053e-08)
(0.000333853157522962776 1.89458566575134324e-09 -1.01636679938458831e-08)
(0.000368821880214721665 2.49463997341251258e-09 -1.0164602901363266e-08)
(0.000402942608073572118 3.03220076728001162e-09 -9.98215577617457423e-09)
(0.000436531278160550893 3.81386492766727099e-09 -9.68117919217921908e-09)
(0.00047067932773235487 4.57186789036654416e-09 -9.22075128910490847e-09)
(0.000505266141359265856 5.98426837651110921e-09 -8.6800102040013197e-09)
(0.00054342777204480306 7.12662255804867532e-09 -8.09285447041642307e-09)
(0.000585176973691060582 9.07813439445920192e-09 -7.34106667508606022e-09)
(-6.78857668088375543e-07 -4.17614791287211222e-10 -5.35627586068249618e-09)
(4.545018904304426e-05 3.3849809138268764e-09 -1.18508135868341168e-08)
(9.73990045960867155e-05 3.33183955036142396e-09 -1.08154712613731909e-08)
(0.000137610368402209243 2.01564883858048607e-09 -9.75437795844850488e-09)
(0.000171671086927630841 1.23532147901353729e-09 -1.07087941163046223e-08)
(0.00020770273999182507 1.52361347803076882e-09 -1.02933026875958333e-08)
(0.000243458821303371394 1.79818865588742384e-09 -9.87905659240638122e-09)
(0.000278739188888482616 2.13932907797335697e-09 -9.52812608320705386e-09)
(0.000313693535169175285 2.57237547220925595e-09 -9.15235957430680599e-09)
(0.000348332287048442441 3.12269700616554647e-09 -8.77484131310356647e-09)
(0.000382863706551918206 3.74157249990922097e-09 -8.39686980307073485e-09)
(0.000417367591579399214 4.63052856535617844e-09 -8.00438327359355249e-09)
(0.00045268979467507866 5.38373869860336908e-09 -7.58707522355291034e-09)
(0.00048863614885966025 7.05796873644429336e-09 -7.15004894678368046e-09)
(0.000528755577465782767 8.15694152866451582e-09 -6.64037799908927659e-09)
(0.000573219673339380375 1.01762359240019693e-08 -6.13487380730697718e-09)
(-4.32305209440333531e-06 6.88971989962692524e-10 -4.98290429900903344e-09)
(3.94111597699451098e-05 2.22760774586073655e-09 -6.66242988685884722e-09)
(8.14294209706126535e-05 2.33948851668281319e-09 -7.33089891830726518e-09)
(0.000120741265510347515 2.04910028112523477e-09 -7.5089929034149728e-09)
(0.000158488640304190831 1.91990585442523819e-09 -6.8953354873738044e-09)
(0.000195241833751796142 2.00081531915612808e-09 -6.54167665738292307e-09)
(0.000231411928714511704 2.24617371928648428e-09 -6.29906963862935831e-09)
(0.000267197850636047491 2.61030369389598519e-09 -6.07751421294176401e-09)
(0.000302656063866388249 3.06830332715165194e-09 -5.86375671976289063e-09)
(0.000337845269200837811 3.64406670815767215e-09 -5.65140833286427938e-09)
(0.000372988168562919577 4.29088892697993944e-09 -5.43111430312393692e-09)
(0.000408133191507790234 5.22430907973737404e-09 -5.20046802451723436e-09)
(0.000444112791080692034 6.01171589877329274e-09 -4.95699736680269114e-09)
(0.000480801829448430993 7.73101315147490432e-09 -4.70362543989242203e-09)
(0.000521705073493889705 8.8233183587856263e-09 -4.43244284748778644e-09)
(0.000566953728021989405 1.08038454653611624e-08 -4.18392190002490594e-09)
(-1.24771948713705789e-05 -1.38257741434935913e-09 -4.28308663630691884e-09)
(2.80360895724587647e-05 1.53016949519921779e-09 -5.26601934534777429e-09)
(6.87881199908730651e-05 2.15773254936758376e-09 -5.38334375208987482e-09)
(0.000108454619198551525 2.12801225312570447e-09 -5.33901826877873357e-09)
(0.000146717849456624952 2.16416918119149706e-09 -5.3493877551075615e-09)
(0.000184115429415570209 2.35155891345611404e-09 -5.2696884476753538e-09)
(0.000220941753797566302 2.64952378963018522e-09 -5.11548326937217456e-09)
(0.000257321359510153389 3.03536518850241298e-09 -4.92617385355082058e-09)
(0.000293347783960509149 3.5042637673608696e-09 -4.72248403873430511e-09)
(0.000329097299021343748 4.08814378771752459e-09 -4.51347799073890467e-09)
(0.000364752745731419684 4.74236723366989298e-09 -4.30431911727289604e-09)
(0.000400376658578614308 5.68559227540784627e-09 -4.09616549761311631e-09)
(0.000436765410609287765 6.48908747934894053e-09 -3.88801232337248163e-09)
(0.000473844691287312778 8.2168848186523187e-09 -3.68059852576670733e-09)
(0.000515086770132895926 9.30943167737789517e-09 -3.4670145668666298e-09)
(0.000560567036182622533 1.1250971728132254e-08 -3.26987586704186388e-09)
(-1.8271095163703464e-05 -1.08315029050607714e-09 -2.74344516937342295e-09)
(2.08638366153019685e-05 9.29081352035634699e-10 -3.39725032905233231e-09)
(6.05201425968083067e-05 1.73720791715575712e-09 -3.47444500741055e-09)
(9.97958850724096517e-05 2.05905979609964454e-09 -3.48586401756972632e-09)
(0.000138443033990790708 2.29324815910640773e-09 -3.45042978959452944e-09)
(0.000176436738595253076 2.57084309956489012e-09 -3.37933299791885853e-09)
(0.000213848379678987268 2.91131724509365614e-09 -3.28499872526190992e-09)
(0.00025076697536926477 3.32082979095935218e-09 -3.17596750929490299e-09)
(0.000287283158799407428 3.80394444839238458e-09 -3.05836951035311859e-09)
(0.000323475205181996328 4.39662462488242485e-09 -2.93584019359623749e-09)
(0.000359516744759253012 5.05740708822683524e-09 -2.81078848880775239e-09)
(0.000395486584028480702 6.00012537403228948e-09 -2.68371285097729209e-09)
(0.000432132026518273094 6.81329756576065693e-09 -2.55626051607583187e-09)
(0.000469424704203348815 8.52771094658401705e-09 -2.42905927784503153e-09)
(0.000510767995953019462 9.61589209819515996e-09 -2.29765951041926331e-09)
(0.000556193725715143218 1.14993325470714219e-08 -2.17859316716551e-09)
(-2.27521729544054378e-05 -8.71091360102869832e-10 -1.67611677149721499e-09)
(1.59249364166523718e-05 7.11768153047729745e-10 -1.97918171167283853e-09)
(5.50360319581424308e-05 1.52416208134811228e-09 -1.99452439194583379e-09)
(9.40699699529510842e-05 1.97106682485270076e-09 -2.00742822390589339e-09)
(0.000132724347216078939 2.30671673639641747e-09 -2.01104714560340303e-09)
(0.000170917733909849184 2.65800191609464168e-09 -1.99134442028289713e-09)
(0.000208636950005886321 3.04842495682606071e-09 -1.94954513386988775e-09)
(0.000245900730844142543 3.48992038212914379e-09 -1.8924990833606949e-09)
(0.000282759971058900168 3.99265240295773876e-09 -1.82624423378237963e-09)
(0.000319275049660234362 4.59666445437240258e-09 -1.75451228816468685e-09)
(0.000355602903160823691 5.26477005750708574e-09 -1.68008904356589146e-09)
(0.00039183178529176324 6.20889672007644493e-09 -1.60384955347029363e-09)
(0.000428677478925082889 7.03032918094922876e-09 -1.52713383389878262e-09)
(0.000466170770506579455 8.74291967843325753e-09 -1.448700475581913e-09)
(0.000507680918536850359 9.83385132008292734e-09 -1.36557836492370625e-09)
(0.000553314005629817096 1.16994266832747949e-08 -1.28532577398763996e-09)
(-2.48040782714764534e-05 -8.6103001921427619e-10 -5.56264006550369479e-10)
(1.36592944715154862e-05 6.37416319870744243e-10 -6.46038751995033791e-10)
(5.24962192931416427e-05 1.43207648779287405e-09 -6.48452369338689656e-10)
(9.13676873568007982e-05 1.92345077347987184e-09 -6.53806047182427952e-10)
(0.000129991766526733318 2.30455858340965258e-09 -6.56169723199927844e-10)
(0.000168259940768328368 2.69147987559373769e-09 -6.5062987861452928e-10)
(0.000206115974152721584 3.1079278059944544e-09 -6.3793643367693093e-10)
(0.000243543317309936257 3.56729636263729477e-09 -6.20085127478926989e-10)
(0.00028056966513357207 4.08146911562655939e-09 -5.98952312089067319e-10)
(0.00031724457823514038 4.69217086010465039e-09 -5.7583730763151758e-10)
(0.000353715364868003972 5.36504161078449918e-09 -5.5174375540328113e-10)
(0.000390079952460223583 6.31132294278584664e-09 -5.26806778006178938e-10)
(0.00042703668908329617 7.13759533121774089e-09 -5.0154393596323286e-10)
(0.000464678246169169574 8.85686414584932353e-09 -4.75094143768759461e-10)
(0.00050635982474626787 9.94531031272799388e-09 -4.46297904291075892e-10)
(0.000552277510778380852 1.18570921464990262e-08 -4.18214877047874099e-10)
(1.4809648045370245e-06 -0.0155493547020383541 -3.55430823360191952e-06)
(2.27578761062032589e-06 -0.019172471864049731 -3.50836260341500053e-06)
(1.40074169622742627e-06 -0.0188096149103978046 -2.88805616017490821e-06)
(-1.51873735822654418e-08 -0.0198212511153563753 -1.41661664010672713e-06)
(2.42422869416063612e-06 -0.0201391798356573316 -1.51249009377138897e-06)
(-3.49840943210816172e-07 -0.0235640278001484418 -2.42852320611368434e-06)
(-2.03444358584622528e-06 -0.0247501945769010266 1.09509650501874911e-06)
(2.66894002411840494e-06 -0.0212291790467209161 -1.90867782232041912e-07)
(-6.38806225826394015e-08 0.0013689159607524102 -4.29021439519518996e-10)
(-5.58473241254019319e-08 0.0013826048134207142 -8.40146529923116343e-10)
(-5.53493232673342078e-08 0.00137891895177349316 -1.03087546973486891e-09)
(-5.30096545971865092e-08 0.00135544149082270971 -1.10713702336932018e-09)
(-5.56472568244236237e-08 0.00133860529434980309 -2.4798916823431101e-09)
(-4.83123313627335406e-08 0.00123752989621680499 -1.71827973240522411e-09)
(-4.83759605638429228e-08 0.00124406325808569507 3.50250530847128268e-09)
(-5.76306694266142638e-08 0.00136580569578934876 3.35653821895917973e-09)
(-2.5352643349856471e-08 0.0014008584250184582 -5.62489455100136976e-10)
(-2.53528802953962654e-08 0.00140819245620002757 -4.13029553277892303e-09)
(-2.57421476593023621e-08 0.00140997560453487046 -3.55933886931485454e-09)
(-2.60987201767179671e-08 0.00140305631579008914 -3.15992166486160219e-09)
(-2.51953699342440618e-08 0.00138267847762586489 -3.29294958332882633e-09)
(-2.51707215265704241e-08 0.00134227944494065055 -2.10791846729265265e-09)
(-2.6362693968823792e-08 0.00134039954718351804 -5.6216265943481645e-10)
(-2.6410527203931724e-08 0.00137980271600013599 2.1045986830907613e-10)
(-3.27785395902285393e-08 0.00140633342040831022 -5.97464007197440119e-09)
(-3.22455740522934182e-08 0.00142439323850356101 -5.17892603971165576e-09)
(-3.26925129271672175e-08 0.00142745121211236689 -5.09984147379979288e-09)
(-3.31162809641388258e-08 0.0014240583573623955 -3.95250277800556386e-09)
(-3.28881481638805107e-08 0.0014085247289066891 -3.28612919646796469e-09)
(-3.21848459638304066e-08 0.00139384042574243841 -2.11751061618737601e-09)
(-3.22145214391021946e-08 0.00139122602554892015 -1.02392157770357718e-09)
(-3.34630493333238221e-08 0.00139554128322107889 -2.86251015948619714e-10)
)
;
    }
}


// ************************************************************************* //
