/*--------------------------------*- C++ -*----------------------------------*\
| =========                 |                                                 |
| \\      /  F ield         | OpenFOAM: The Open Source CFD Toolbox           |
|  \\    /   O peration     | Version:  2206                                  |
|   \\  /    A nd           | Website:  www.openfoam.com                      |
|    \\/     M anipulation  |                                                 |
\*---------------------------------------------------------------------------*/
FoamFile
{
    version     2.0;
    format      ascii;
    arch        "LSB;label=32;scalar=64";
    class       volScalarField;
    location    "0.300000000000000044";
    object      p;
}
// * * * * * * * * * * * * * * * * * * * * * * * * * * * * * * * * * * * * * //

dimensions      [1 -1 -2 0 0 0 0];

internalField   nonuniform List<scalar> 
29184
(
2505.99607566741815
2504.77836829882926
2498.21775664540792
2487.80379802391826
2475.20986770070749
2460.02136934263626
2442.96903131214185
2425.04507988941532
2407.46952097447775
2391.10687315385849
2378.2968053163645
2367.92332180945641
2362.79037818951656
2348.30876656969986
2335.77172525122614
2148.64953873576451
2382.79630394847163
2381.165862620599
2374.62061644610276
2364.21138377038278
2351.33404023890762
2336.02654955227399
2318.82718694763071
2300.66261977669819
2282.68568840464741
2266.03040731286774
2252.5763052637094
2242.54705557752004
2237.2126011819505
2226.07078680443055
2211.75903197214166
2046.84950992549057
2258.84028583079862
2256.61183631698714
2249.97471708434978
2239.52035221329288
2226.36527562757419
2210.78802995952719
2193.22941947083882
2174.55269427234225
2155.91197444365935
2138.6014281675607
2124.43649375691939
2114.40078214840287
2109.63425759992197
2102.16840203098127
2092.64967294897815
1942.4989909996541
2134.03304553539238
2131.27561345304639
2124.45243197656691
2113.86276037499465
2100.35102614486595
2084.31228698753512
2066.17242316566626
2046.73067718655352
2027.1247413544379
2008.78336641898841
1993.5797418431921
1983.12798098495477
1979.12720643082821
1975.69455657283129
1973.88102143415608
1843.12985941012562
2008.39675480903293
2005.21518908125654
1998.09450345663481
1987.23983319883473
1973.27115680076668
1956.60965464768105
1937.67498944584531
1917.19785441305748
1896.29094080203913
1876.49642578679504
1859.81042646904325
1848.49259462287546
1845.18197335535615
1846.08106260296177
1854.32417614082851
1747.5020714425018
1881.97302878176788
1878.43935674846921
1870.94007837526351
1859.6980563740035
1845.16006188862866
1827.71812104422088
1807.76856548915225
1785.96739532822858
1763.38938680023375
1741.65948188832976
1722.92112640412734
1710.11828723103872
1707.0744590670879
1712.4914994108176
1732.69429848705408
1654.22637133019043
1754.81369723955231
1750.97836390295015
1743.02964239140397
1731.28222505881604
1716.05270040797041
1697.67375230556263
1676.48834313375505
1653.05803917286471
1628.39851986347594
1604.17284583870651
1582.66092822010728
1567.50915933788519
1563.85737112622201
1573.73489910298986
1607.86254625108404
1561.43086801839581
1626.98450165929694
1622.88356941266829
1614.41027006652689
1602.04716748272494
1586.0014338095682
1566.531514331778
1543.88926030533867
1518.50729508141012
1491.31310568181789
1463.94809975474914
1438.78207110415701
1420.05544856196093
1414.2238265989281
1427.98566517980316
1478.64567141475959
1464.73467293533395
1498.56242225909045
1494.22868677259771
1485.14464708123046
1472.06301321712385
1455.07747761615724
1434.3725383906733
1410.0592074655774
1382.38812181804587
1352.16743031579585
1320.95029686392172
1291.10735869284827
1267.08213240913551
1256.2736524517245
1272.11363424222145
1342.15291018599987
1362.16066786844794
1369.61674435912551
1365.07736346956494
1355.29111981011965
1341.4038322182123
1323.36335871891265
1301.30035688317753
1275.11438911518053
1244.80734605360522
1211.05426935868854
1175.24346331078937
1139.57579920999183
1107.8217594574603
1087.27353895951023
1101.45907483267638
1190.0622878509912
1248.48144289490051
1240.2168345630505
1235.48712636744153
1224.90277010904333
1210.14717423355546
1190.95308239078713
1167.43219796285007
1139.17302778120302
1105.88579580050259
1068.15286832086099
1027.03718990501602
984.20835693326012
941.252706964954314
903.920956097399085
910.074727192840555
1015.50694252668563
1116.52200662119299
1110.57294653375584
1105.66678521193853
1094.14555413072685
1078.46446049865244
1058.04435026853253
1033.00631425902884
1002.48050825016935
965.921386848924612
923.922332193726788
876.901727878829661
825.671634800861057
766.680938359787433
702.318556389830519
695.586348822480659
813.944584261687396
957.414676145982412
981.200107264161034
976.128526789108946
963.435657454496777
946.758651182549556
925.103494039526822
898.629725917679707
865.769111675673912
825.830988804305207
779.493890603660475
726.392906902456843
667.078039366389248
585.550765662961794
478.988851905970023
459.237604891688534
590.342063006113676
767.883348021562142
852.50475172739516
847.256633582309405
833.223245936478406
815.573825379399295
792.783057371079394
765.163898411738046
730.095402196017858
686.968340099116404
636.429723107583868
578.194343599813465
512.849332525614727
401.784806960464493
262.537810817538002
214.764770902526152
351.08989950629848
556.996227466598839
723.725506070849178
718.481061122123265
703.576186977568568
685.199100768990093
661.394574362529056
632.765986864463684
595.376902318333578
549.438433783421715
495.223462094042816
433.826006414663198
361.371304391113426
222.595569932687113
106.889814818971786
84.4824393698435188
159.259783198779814
346.701134368944622
594.094861028831474
589.297860177014627
574.899447463894376
555.954310990452768
531.110277390404917
500.957842874689049
460.757695136637494
412.657074825310019
356.20212100412391
293.402358150148984
215.059217576006859
93.5482760720162787
34.8944796018460295
35.9356682183238263
69.4416376851209236
187.171320160956839
2507.27705202205834
2506.17206086804072
2499.96126013519097
2490.16588646313357
2478.49842504220305
2464.73637708777051
2449.81907975680178
2435.07192657582254
2422.10249425360416
2412.67902241230468
2409.53381183290139
2414.2752719959044
2430.38462999504009
2454.95279967469151
2483.50335200824293
2487.82244075098515
2384.08258537559777
2382.57429228081492
2376.37544846806713
2366.57870518175469
2354.63564493691683
2340.7501520077808
2325.67923425332219
2310.6743770467624
2297.32399784657855
2287.53186018913266
2283.93695144683034
2288.89883420475235
2305.14050545829923
2331.91855354945619
2361.00360802917885
2379.71078287990349
2260.14124876681853
2258.04659943186925
2251.756379084331
2241.9108131904627
2229.69197385475127
2215.53152484430575
2200.09417451623312
2184.5703356620761
2170.56622454811031
2160.11932695066571
2155.92290512548379
2160.89710029006073
2177.76344789794166
2207.56222972415253
2240.82780817548928
2268.44825699578814
2135.36228122470266
2132.74612716316506
2126.27215334991206
2116.28799350377994
2103.71071965458896
2089.08347810396708
2073.05657122533466
2056.7594802693452
2041.79788459345036
2030.34318640048332
2025.20159469327587
2029.85044795212025
2047.51674741239185
2080.83374811367867
2120.65035607976961
2158.95982468500642
2009.76955518105115
2006.7288845568919
1999.96253871264344
1989.71194973727893
1976.67347560565622
1961.41605887711603
1944.58215373428743
1927.23838464047094
1910.98107888886807
1898.11221623490928
1891.59094438106968
1895.513470029171
1913.93344249663323
1951.06297345591929
1999.1500123266876
2049.97232356181803
1883.40529294034786
1880.00161031226116
1872.86697797872012
1862.22869785454213
1848.61368352499881
1832.564569764927
1814.69677487098807
1796.01104257680799
1778.08293561443065
1763.32760233294812
1754.87095223674851
1757.49087684097481
1776.31451660035418
1817.46386442408129
1875.53583590231005
1936.77401792472051
1756.32168691727202
1752.59026621914791
1745.02761581642631
1733.88293824212224
1719.56553286483404
1702.56257013654022
1683.4289887212758
1663.08526421289093
1643.06811376716382
1625.87178985424362
1614.77116594701693
1615.26385427661057
1633.72017508782892
1678.94576720904888
1748.6107487089148
1823.1178413400994
1628.58453921674663
1624.54020419560197
1616.49511934314341
1604.72823308161924
1589.57929627697695
1571.4605787489877
1550.82374290741882
1528.48452449889851
1505.91576295417553
1485.63432193009476
1471.00715450134567
1468.17500312757943
1484.8593319075153
1533.74879145052023
1617.43544334534181
1707.67553206216689
1500.27113442075893
1495.91858103948084
1487.33752144358436
1474.8303050936895
1458.72299183760356
1439.33315995315866
1416.95460099257275
1392.26565901931326
1366.64272177100065
1342.54862406456868
1323.34146894292189
1315.48061758742688
1327.82493392644074
1378.96488138571385
1478.10842071529078
1588.00934880537079
1371.45387160888436
1366.78407392709937
1357.61881199283653
1344.25502352735816
1327.07713522744416
1306.2767088529813
1281.92261132452063
1254.52185422911134
1225.31879066351075
1196.62672842258621
1171.62693436852419
1156.3042325616882
1159.90897699443713
1210.1309978656318
1323.85395143183291
1458.44283951856551
1242.21247966472311
1237.19099103624467
1227.39417849725646
1213.06953869907397
1194.73413979625002
1172.39722582487593
1145.83102236475224
1115.36456146989894
1082.08748966228427
1048.00175688775676
1015.74045667968517
989.477483496762943
977.661819132665414
1021.52993751386498
1148.82982085320668
1309.83835089769968
1112.75291103975451
1107.34791059704344
1096.82308391557126
1081.42886561108639
1061.8822366178747
1037.90251973140153
1008.88927816709611
975.070320468876616
937.34980413146036
897.148920631842429
856.089537499953394
814.119677785401791
777.29107522853019
809.937250559197992
948.398175506809594
1138.30473532505266
983.534122373936498
977.764132880753777
966.308295807143622
949.690902660618349
928.976240953824345
903.350124528218203
871.770054946988921
834.524391823619226
792.169567829744665
745.560358441002109
695.467542154158082
631.344889891206094
553.582554024896126
575.023646099552479
723.401252117376316
940.686674301976609
854.89836063378948
848.841318425316786
836.295313198417034
818.33178692350657
796.699847295421705
769.573207501314755
735.587810705111906
695.12717162416152
648.127512142730893
595.836348811927337
538.250666618118203
443.825379368358426
322.077264090580229
311.383215431400913
476.945868006771889
719.246000114632125
726.184585287288655
720.120517162183887
706.792797036227284
687.713888876520969
665.408404060746307
636.747002082319796
600.558628380760638
557.098261017816412
505.800668511974436
449.079520599841771
382.973190155465318
256.327276086220763
140.03510252695537
119.108929206268044
245.149067577680853
487.274875380222511
596.655266226211097
591.365810734582283
578.025783702348235
558.406482020659951
535.019751116129783
504.504031578351714
465.761350489642609
419.586902406108948
365.089125539653423
304.79635760803626
231.175436632597211
116.077823633955404
48.5280565827781061
49.7125970532024937
103.382490252051525
281.114862362443773
2508.53546922201303
2507.54872511533767
2501.67633833976697
2492.45933136675148
2481.64232589402809
2469.17554815226868
2456.1818229386754
2444.25887909845642
2435.32325921099755
2431.66071628447889
2436.36875796734603
2452.24985752745533
2482.65748094509809
2527.9123850222245
2583.07895561810165
2644.0802228642051
2385.34252431946379
2383.96484621692844
2378.10338861297532
2368.88051648752571
2357.79424600817174
2345.19881458874033
2332.04587351522241
2319.85705969402943
2310.551968750166
2306.52627975177666
2310.89519583974788
2326.94932247652878
2357.73658713380246
2404.86208001834848
2461.77525802327091
2536.23682543698624
2261.4088624990568
2259.46148066995829
2253.51451973169833
2244.2411171684048
2232.87876878850602
2220.00113554417749
2206.47685042173225
2193.77018848469061
2183.82904708093156
2179.17506659946594
2183.02207720464094
2199.11204380441222
2230.61572171434091
2280.45266486560558
2341.15911579016574
2423.4702525566654
2136.64540005884692
2134.19460016602625
2128.07442279880706
2118.66083270163062
2106.93454516482416
2093.58140584385001
2079.46348590819207
2065.98845252584852
2055.11101103006558
2049.48631768108044
2052.47156561602151
2068.32100656079137
2100.69609487192247
2153.78041994970499
2220.12522218481081
2309.99040813829288
2011.0749922248292
2008.22020553051379
2001.82259405366813
1992.14143133472794
1979.94352611329123
1965.948023389637
1951.01965581403465
1936.5074639069785
1924.35866062162381
1917.36652603038283
1919.06891012304595
1934.32441508674265
1967.53864735051775
2024.21000213030129
2097.47783143451761
2196.38100436682271
1884.73780102953674
1881.54747648462444
1874.7989188543977
1864.72753448316621
1851.93635459506618
1837.13213913732625
1821.16830169134482
1805.32823660898339
1791.53304210232727
1782.706038579714
1782.58573500884972
1796.71697020430338
1830.47061115406041
1890.97692811879301
1972.16778690425963
2079.13527137834762
1757.68452478549079
1754.20597756960251
1747.04545954426885
1736.46237649234945
1722.94449244156658
1707.1641371339656
1689.93689960236884
1672.4560590268859
1656.59049183312891
1645.37276769612708
1642.73794679745879
1654.97107250536624
1688.585736656785
1753.00777353104195
1843.53630780412277
1958.48262408316054
1629.9798649411814
1626.24535945048933
1618.61085250505857
1607.39777755893033
1593.01550816854433
1576.09231985327688
1557.37139544982801
1537.91147929437011
1519.49827312898424
1505.2367202820119
1499.22006113667635
1508.42155730901277
1540.62013543942271
1608.60568732760566
1710.57046671780972
1836.68666687861719
1501.69906474038953
1497.7357644906142
1489.55796550787977
1477.59914848014614
1462.2160062858386
1443.99016812271475
1423.54786299607667
1401.74703947106377
1380.25937380275013
1362.21107968673391
1351.76486316835872
1356.29405033403646
1384.70404994142314
1455.08549956687557
1569.83264260955821
1710.72631623666257
1372.91406083424386
1368.73757301013893
1359.94209559933961
1347.13432459641444
1330.62616998750173
1310.95428045114431
1288.57106406144158
1264.04910404324642
1238.92511014179831
1216.28120575219009
1200.16649558631821
1197.63302622512629
1218.14263990528684
1288.33204513953683
1415.82334440916316
1576.1684035978526
1243.71421465590083
1239.30304168331963
1229.80375166311842
1216.06989276732429
1198.33585205539566
1177.09601768873813
1152.55802544945686
1124.92318873621775
1095.60485584916501
1067.50949286809305
1044.17335580883332
1031.11059429305442
1037.50487376660408
1103.31127410729937
1243.64883168463007
1425.38876490802841
1114.32137625531686
1109.6232586809158
1099.28874015588713
1084.56178623307824
1065.52846822145102
1042.63300508013572
1015.74928120913592
984.642814597168353
950.665806859847862
916.264985506311632
883.919561066919414
855.352231354590458
838.230434906041637
895.597047331267731
1048.83065413224699
1255.91164446577682
985.202941092325773
980.182874085415278
968.811590684882503
952.996241828067923
932.650367861100676
908.117545159014981
878.82548878818784
844.063538962674102
805.179325046710119
764.021016219938929
721.856609431801189
670.55890371099963
614.22921551801096
660.075553901815738
827.827198114750217
1061.04138535999459
856.745841792813053
851.390879297303854
838.844046705257369
821.878581633346357
800.340853251220778
774.380008713554844
742.79071873179555
704.472860225188015
660.668548856672714
613.372351681791088
562.161767920677448
478.859129454424192
376.97951819629634
397.803228567017186
583.70861160022082
837.438757752648826
728.371947229315538
722.815527174351018
709.40714946899061
691.419623130365153
668.911576909965561
641.700395229413743
607.675422663062591
565.956635323970659
517.347829780594111
464.903983558191157
402.782571355246318
284.298508409436863
176.089893045646022
169.103691069531465
337.929871153639397
599.085344744482427
599.279796349879462
594.078870006515899
580.688258381010883
561.853938777771646
538.58378955009016
509.746306242556784
472.731452040198519
427.805138909621064
375.033714723308776
317.38906917142026
244.545539417670398
133.499519048525372
61.9277057141137561
67.5534635832216281
148.447540779488463
367.279438865266684
2509.73866289448779
2508.86047946698
2503.29381658098237
2494.59250414130747
2484.52092050999772
2473.1714532150304
2461.81681262602933
2452.25087250194701
2446.61790995612455
2447.48046650587776
2458.12267921885632
2481.70006068281236
2520.7524490484534
2575.88569038194601
2640.43793608413807
2705.8059028607986
2386.55154743138974
2385.29128484532521
2379.73428143781302
2371.02290488703784
2360.68781695173629
2349.20569109966846
2337.68471315773695
2327.84801447832706
2321.85226884777103
2322.37254105718011
2332.73869777301934
2356.46117254738692
2396.08723853514584
2452.95482609193732
2519.76349587084997
2597.37484779864826
2262.63318161807365
2260.81511760479952
2255.17642755523593
2246.41348947725692
2235.80356527331833
2224.03351024799758
2212.13368259893741
2201.77705053065802
2195.15738871707299
2195.07823747289694
2204.97915557077386
2228.75755445307095
2269.19457345857199
2328.57051711105169
2398.34159453239863
2483.03640699120388
2137.89889425852198
2135.58626181739191
2129.78101082073272
2120.87783871205738
2109.90289063855198
2097.65113558033318
2085.1480463204739
2074.01942312821075
2066.47828671173011
2065.46744432783271
2074.57986407645967
2098.1936239312804
2139.58321756327632
2202.01767417315114
2276.51262459815962
2367.11285412666666
2012.37373503718482
2009.66023826682408
2003.58625179656747
1994.41736948085691
1982.96908997141691
1970.06694351576061
1956.73938966429751
1944.56689489013888
1935.7722174589353
1933.44350044358657
1941.36470402893815
1964.50221413102508
2006.81700079038524
2072.64481786956003
2153.24282773161303
2251.12722773139421
1886.09980516106089
1883.04641506395274
1876.63045716921761
1867.07463181322737
1855.03179636735422
1841.31053353722973
1826.92644871519633
1813.41445668293136
1802.99481573738831
1798.89059216283704
1805.09964325184274
1827.27364788853129
1870.24940614456773
1939.71195497542976
2027.13040565882011
2134.99872330679864
1759.12905059354125
1755.77325822818739
1748.95357853004998
1738.89067745742727
1726.12232030437099
1711.41169916618378
1695.73203244615706
1680.56208125578519
1668.09858633301064
1661.66883918400185
1665.49034126901734
1685.97810803591028
1729.03666465090714
1802.1558791681864
1897.56755555170184
2013.41801679464334
1631.52422763144705
1627.88891256483294
1620.60303513105828
1609.91581046607052
1596.28995892575176
1580.41899927144095
1563.19734021625118
1546.02787221641393
1531.04844147688436
1521.63519823878551
1522.20823601302345
1539.94585228710275
1581.9676871646036
1658.55073640254955
1763.37751048033761
1885.95516090839169
1503.35858374467398
1499.45925778051605
1491.64304205423741
1480.21618206985863
1465.60525847179861
1448.40565462128734
1429.39377301650961
1409.86787088320375
1391.84743644679952
1378.68004063332501
1374.93495015565964
1388.36723248596832
1427.33357546717207
1507.0026100034504
1622.66510706499548
1757.17851812856452
1374.71705739640947
1370.5369094584405
1362.13427795417692
1349.86137100917017
1334.15040126310623
1315.46202450518354
1294.41955834813371
1272.1768143696404
1250.54155120777159
1232.74539398612001
1223.38389234086571
1230.25282072555206
1262.49501664477953
1342.74912623167643
1470.79048974785314
1621.12799561881457
1245.703094932363
1241.17875314125558
1232.12829594409163
1218.91512492054289
1202.01354607504959
1181.6898272511703
1158.39093930718968
1133.06892339205729
1107.19981990428982
1083.78651319384244
1067.18029563022469
1064.29566639433347
1084.17773431219825
1161.53855354065786
1302.62558044734578
1472.65787163797404
1116.53535023967174
1111.58486615051811
1101.7868401723515
1087.53628623343093
1069.38321892617205
1047.31496472614367
1021.57512522307547
992.832444451396896
962.107293739254828
931.998510911910444
906.203941832181727
888.993896961657811
887.809137090282547
958.559308049695119
1113.72256218161306
1307.30591103198549
987.671216189599136
982.236986688604475
971.545155530835473
956.154934978051642
936.747243572289563
912.914395659940965
884.684461533464173
852.358858696831931
816.310285115187071
778.691760841323685
742.413631207322851
704.28064766334569
667.521104355231046
727.996512149864884
899.60295401986582
1117.49798478140428
859.49676619898878
853.566626042377266
841.871128691794411
825.313150531704196
804.764067821996377
779.227578110600689
748.672797840508338
712.950542252467812
671.360151868939056
626.336256372808521
579.77962649996698
512.120268804580746
428.880298178488374
470.662040477814799
661.582989415827797
899.825774097050498
731.399583455767925
725.255713386105754
712.646980828082178
695.052783863410923
673.521195029081355
646.282001460604306
613.580227148090444
574.543046400531694
526.949316644010878
475.173259388849601
417.474303897864957
315.102482931074974
213.290381435622635
225.747336910106696
411.432668292359722
662.498048043915333
602.465653268332517
597.019019401624064
583.828611338118662
565.415869173686133
542.758114546007846
513.999165257333516
479.222833300741286
436.081880132670221
381.664042311849926
323.481398693175834
257.083714285424094
155.679892489479926
76.3617926014737805
88.5593357373632557
202.681853634645222
421.99175711795624
2510.84229136517752
2510.04003727463942
2504.73380690554359
2496.46482848727101
2487.00606618974325
2476.56376303274646
2466.52022972153372
2458.80817662734262
2455.70415543650915
2459.93069124470821
2474.72333419773076
2503.33420466597545
2547.42122275740712
2607.69486523649493
2675.08286898143751
2740.47075923077364
2387.65456081906723
2386.47714202006637
2381.18575486492637
2372.91058912703102
2363.19569986589067
2352.61619369340178
2342.40246208183862
2334.42153056632378
2330.9765961780804
2334.88185377726177
2349.48497738809874
2378.23079529220013
2423.00460862013688
2484.50464891775937
2554.57846415630684
2632.5947525138954
2263.73372347551367
2262.01256078238384
2256.65487564743034
2248.33641668302607
2238.34940212170795
2227.47506695483162
2216.87771990316878
2208.38126553796474
2204.32905687211223
2207.65698650921649
2221.84637509925415
2250.65821715196353
2296.28607565069115
2360.06083163216272
2432.75223243180335
2519.08999880089732
2138.9947437912092
2136.79878600883103
2131.30034107726487
2122.85393293975358
2112.50199454973517
2101.13707478515653
2089.93105661211303
2080.66834078923966
2075.71126162467772
2078.13358286001039
2091.58769594846717
2120.29012281293535
2166.90773858647754
2233.55851369787251
2310.54830572124411
2403.11328917348692
2013.45811056550269
2010.89290690452435
2005.16257438532602
1996.46673766444201
1985.63787897034263
1973.6090117939375
1961.57262780916562
1951.27388717486519
1945.08013886250569
1946.21020624281664
1958.53573096984246
1986.85405744369496
2034.44774792451517
2104.33490404018312
2187.13718091857527
2286.93476178949595
1887.15915629231768
1884.31156463296111
1878.28319448729053
1869.21804786124676
1857.78476520302411
1844.91682556153592
1831.81914555655339
1820.19210653158552
1812.38759070270453
1811.76335879457929
1822.45797789620292
1849.95347673416654
1898.31151691556897
1971.75917120146232
2060.95869180936643
2171.07348129650745
1760.14341984210387
1757.09414640486239
1750.70508253963339
1741.14853066302499
1728.97051885056931
1715.08562865773479
1700.69173915063311
1687.42165628241128
1677.57852582504347
1674.6424769777027
1683.0591407280308
1709.07097310029826
1757.71518862528455
1834.69846213247365
1930.81184385932283
2050.43951558803155
1632.48020670191545
1629.31441276489591
1622.47769253246497
1612.30603474216468
1599.24024631036582
1584.15968663463082
1568.23150485650058
1552.97773483451465
1540.60538516527163
1534.69100414478453
1540.01302771526957
1563.55611380328628
1611.45612021912075
1691.99272186613007
1796.17148421817046
1920.76969151788921
1504.29519376610187
1501.06485765748221
1493.66095890632687
1482.75136910276979
1468.65589311829922
1452.21034893185583
1434.51174990506502
1416.91049967633671
1401.45420520608968
1391.7862175756602
1393.00809632421146
1412.62780921025569
1457.99913725507349
1541.58512012402457
1655.94465074396931
1788.85014149932795
1375.72314658500727
1372.37797111216491
1364.30016414343527
1352.54917226545354
1337.28138262918196
1319.32997597228655
1299.63123620729243
1279.30228308676715
1260.15051102961684
1245.86525287894779
1241.7835379201556
1255.34014904366018
1295.01335537006639
1380.11644882507176
1506.7492903561365
1653.53833350239734
1246.87641468072002
1243.27975555653734
1234.43437807493524
1221.76330092460466
1205.20926258916211
1185.625412845151
1163.70042983698477
1140.2465710314591
1116.74464518549007
1096.90370935585383
1086.0185661016867
1090.42654322512089
1119.18943672602381
1202.95964597442662
1343.20095937769861
1508.01535772359171
1117.97661284717401
1113.95869248550821
1104.22871530039106
1090.56201361044214
1072.64471241651813
1051.31479880471556
1026.9787344534484
1000.01788640564746
971.518581344637141
945.119845618436329
925.619082786850413
916.374856430966474
926.153106671458318
1004.95305357564143
1160.19446004634779
1347.89139366495806
989.492389932347578
984.873952485775362
974.1116984050675
959.376775675002818
940.067606657675924
916.959315169729962
890.166949689928288
859.515593528569525
825.529975210974953
791.785337825290753
762.422352829260944
732.643966833473087
710.711294542729092
781.032417588978205
953.310390029787186
1164.88242837055736
861.84612179822534
856.469605314680166
844.518538771430713
828.743943408518362
808.076897994146748
783.300531576532421
754.188625825303006
720.010249499979636
680.280931190666479
639.290908372159947
600.098667679377286
539.734320372944012
473.372093830478661
530.462784460572266
722.772663368121584
953.23006010772815
734.408367500785516
728.509739435241272
715.414085095459996
698.665557520093671
676.7324193982613
650.462838621003584
619.062333284265378
581.324999191240295
535.475659387475389
488.090418381800191
436.617318077496293
337.741243749509067
246.058613917491812
279.040065041052912
476.996700672075804
718.494852971834007
606.106178661779495
600.727224040203737
586.972184902143454
569.134061260742101
546.015114160408984
518.23106670684092
484.27187661046969
442.422855477597295
390.402775041348377
337.025418430503578
271.049395733433357
169.701600521869636
91.1564348386164056
111.665349066907424
255.732294650811127
476.567923636210935
2511.83509254630962
2511.07596284255396
2505.95777041507245
2498.00141924793706
2488.99055537755476
2479.22082565144729
2470.14478692196235
2463.78202223641438
2462.50400889214507
2469.08292302581913
2486.76852125692994
2518.47127118025037
2565.73811417134857
2627.81113238699345
2695.6784523483002
2756.80931398363418
2388.65937167119546
2387.53483643317713
2382.42320572432936
2374.45825630034597
2365.19793488727282
2355.28862519123504
2346.03926832241905
2339.40899257859564
2337.79951184366337
2344.08437756232979
2361.58527145527569
2393.4771536817243
2441.25559776615546
2504.53307049793284
2574.76995496412019
2649.27759153272109
2264.76641712158289
2263.10989661709982
2257.92110308896326
2249.90803696633157
2240.37653337221172
2230.16724375670947
2220.52746306844483
2213.37877140478577
2211.16932431715168
2216.89844586649133
2234.00764562106542
2265.99163152520259
2314.5781584533579
2380.09477095692273
2452.88143445597143
2536.112887325457
2140.07455761979554
2137.9511146098489
2132.6052651496334
2124.45750059925649
2114.56020423752034
2103.85464084520572
2093.59594348861719
2085.67367473761669
2082.56623100398065
2087.41736608077235
2103.82850645394774
2135.74292684252759
2185.30790610621216
2253.58210601070869
2330.46400368633203
2419.67338790599842
2014.60749329753776
2012.11101212721451
2006.51199227952065
1998.10865750120729
1987.73330212795986
1976.35671507631923
1965.25250071949085
1956.2813407893691
1951.94519604900734
1955.54087495288013
1970.8771512261701
2002.46922844419692
2053.00406025138545
2124.35933385505905
2206.62713489996577
2302.91281695621819
1888.40492692173166
1885.59746326198592
1879.67833240376422
1870.90237086900106
1859.92252058768281
1847.69795572882958
1835.51029858238212
1825.19096864228641
1819.25516514632181
1821.14671869268886
1834.92304358169031
1865.7811735876146
1917.10217226136228
1991.78615371967294
2079.98319797238491
2186.19844743158183
1761.51747443120871
1758.43581287298002
1752.14391411258248
1742.87797552856591
1731.15440529671605
1717.90090086855753
1704.38482926814959
1692.39554291608556
1684.44081753833871
1684.08793007023269
1695.67352806033296
1725.17824538526474
1776.86908835655663
1854.93128220786025
1949.38639651369613
2064.33372449956323
1634.01314537174972
1630.67049615428414
1623.95628983560982
1614.08277667520497
1601.46980737696981
1587.00408486051447
1571.91004772641372
1557.90772850047756
1547.46103346787913
1544.214728216004
1552.8015878627773
1580.01738633448758
1631.20415957929254
1712.68940361266232
1814.24630642105581
1934.64410090814226
1505.97592687391693
1502.37450391612401
1495.18116061159435
1484.57790656337943
1470.92907623492601
1455.07281219756283
1438.1558489033273
1421.78377960778039
1408.31683521478521
1401.40851437145875
1405.97280342488421
1429.52443414890786
1478.68473189400606
1563.3884767521015
1674.374482901497
1800.31794849801508
1377.47568164621634
1373.62728374730841
1365.87962886214132
1354.41929110682918
1339.59897644400576
1322.19310316044698
1303.22710035883551
1284.12661795972122
1267.054835659937
1255.59396461172014
1254.86926566074499
1272.75635164052255
1317.11180793597123
1403.97071076580573
1526.92331521226333
1664.30403338882616
1248.62162141127578
1244.48919118359004
1236.08433948512879
1223.63688473005459
1207.54030578615834
1188.46188005715248
1167.25247834049128
1145.0645574597977
1123.74173668800358
1106.70511364631489
1099.09852189677417
1108.47303203114348
1143.23163022332074
1229.78921274432332
1366.44221928972911
1519.11455681350208
1119.68476638340599
1115.09698335362805
1105.91595693867976
1092.35539785309925
1074.94043952360744
1054.1193460517195