/*--------------------------------*- C++ -*----------------------------------*\
| =========                 |                                                 |
| \\      /  F ield         | OpenFOAM: The Open Source CFD Toolbox           |
|  \\    /   O peration     | Version:  2206                                  |
|   \\  /    A nd           | Website:  www.openfoam.com                      |
|    \\/     M anipulation  |                                                 |
\*---------------------------------------------------------------------------*/
FoamFile
{
    version     2.0;
    format      ascii;
    arch        "LSB;label=32;scalar=64";
    class       volVectorField;
    location    "0.209999999999999992";
    object      faceTraction;
}
// * * * * * * * * * * * * * * * * * * * * * * * * * * * * * * * * * * * * * //

dimensions      [1 -1 -2 0 0 0 0];

internalField   uniform (0 0 0);

boundaryField
{
    inlet
    {
        type            calculated;
        value           nonuniform List<vector> 0();
    }
    outlet
    {
        type            calculated;
        value           uniform (0 0 0);
    }
    top
    {
        type            calculated;
        value           nonuniform List<vector> 0();
    }
    bottom
    {
        type            calculated;
        value           uniform (0 0 0);
    }
    left
    {
        type            calculated;
        value           uniform (0 0 0);
    }
    symmetry
    {
        type            symmetryPlane;
    }
    interface
    {
        type            calculated;
        value           nonuniform List<vector> 
104
(
(0.619656605036918773 0.00115743825965075316 -0.000362049480494152579)
(1.55013730377595094 -7.14919031927281786e-05 -3.09539173117880253e-05)
(1.55132254352216292 -7.25438758317124202e-06 -7.33406890425423151e-05)
(1.58611783171370413 5.91767374930750649e-06 -7.24655443395559248e-05)
(1.66621939453104506 1.40326054314041025e-05 -7.42872909684211529e-05)
(1.77620594923777042 1.48896009094212985e-05 -6.59052642225412937e-05)
(1.91343704964593053 1.64949023906565782e-05 -6.36750770817701145e-05)
(2.05746716983348543 1.61524347438766309e-05 -6.36750015225774635e-05)
(2.20527384972610285 1.51761397941685083e-05 -6.36051740819361204e-05)
(2.34590128896357042 1.45488439366022494e-05 -6.09928867051760351e-05)
(2.49161828162690169 1.43481315614349052e-05 -6.00741724343813906e-05)
(2.61704219082104572 1.43014094262916801e-05 -5.71902454549008568e-05)
(2.73520175909312924 1.52752785175960596e-05 -5.41125527030373289e-05)
(1.0929459331000515 -5.811552948935075e-07 -1.36918027855915138e-05)
(1.20614238415323505 -8.11703519465441844e-06 -3.80188428349552713e-05)
(1.31314952740985524 1.33464736345998174e-06 -3.10632131744732965e-05)
(1.40904586794386466 5.17383557545578621e-06 -2.76397368393044839e-05)
(1.51833911644652986 6.82851446252059924e-06 -2.81148524809543329e-05)
(1.63873904513812274 8.50292713093403286e-06 -2.92955588191410701e-05)
(1.76127782951132272 9.82635056689996752e-06 -3.09580796032611613e-05)
(1.88775421039273783 1.13330127150036611e-05 -3.23674214203567581e-05)
(2.01558839881095775 1.28072138253499394e-05 -3.31054943140994887e-05)
(2.14415567991249967 1.42186004208001318e-05 -3.30141934810698762e-05)
(2.27484142136929535 1.59123604350868565e-05 -3.24971713171980892e-05)
(2.40622873549229732 1.84065338711664788e-05 -3.13263496139413786e-05)
(2.54215663000103298 2.13838103317786592e-05 -2.94183886238449562e-05)
(0.881384747249306488 -3.88558390963058435e-06 -2.794749164321898e-05)
(1.02884769635974238 5.08779279249712694e-06 -2.54020766771717548e-05)
(1.16692980085738385 6.17838910719916919e-06 -2.50600030165726999e-05)
(1.29324233278652478 6.83982956184549994e-06 -2.5959271534104385e-05)
(1.41562572087445981 8.03647614031880827e-06 -2.64794083553003071e-05)
(1.53848903396250569 9.52197806498579357e-06 -2.66639183116472804e-05)
(1.66211067065585905 1.08969942571893176e-05 -2.64519286689640567e-05)
(1.78717343343193491 1.23069423967094806e-05 -2.59838593098626785e-05)
(1.91369215162923378 1.3909998139497592e-05 -2.52799720651242521e-05)
(2.04191275011135254 1.58722746269566531e-05 -2.44091446634995323e-05)
(2.17281330880372137 1.82295343970735706e-05 -2.33614464664671483e-05)
(2.30715615862050871 2.15251495139046222e-05 -2.20991159967996049e-05)
(2.44934523185375452 2.49240725663085569e-05 -2.06003661698776453e-05)
(0.865795016353411051 -3.12364890269699693e-06 -1.44554749011342744e-05)
(0.9913323382565562 2.90154864803106743e-06 -1.62069378620418529e-05)
(1.11928149932038101 5.50528664039439068e-06 -1.61513937587883671e-05)
(1.24578414010729377 6.83717511317018521e-06 -1.59442828362230618e-05)
(1.37089138413774081 8.03681393594903616e-06 -1.58402437721610577e-05)
(1.49562800562281972 9.40564374663802955e-06 -1.58043050680685747e-05)
(1.62052384158323504 1.09433076420356629e-05 -1.57253155996232337e-05)
(1.74616629930677747 1.26887039451791928e-05 -1.55642529413936252e-05)
(1.8730474623934581 1.46929105828117109e-05 -1.52763441083748452e-05)
(2.00171703413484803 1.70834431997513524e-05 -1.48336160909701275e-05)
(2.1333038643276292 1.98487959437872593e-05 -1.42270298431171839e-05)
(2.2686567208903381 2.36038534531823873e-05 -1.34657156198889481e-05)
(2.41254322344729832 2.72478512113734532e-05 -1.25614556433890474e-05)
(0.841881258215209316 -3.06565088153903668e-06 -1.03562816169617844e-05)
(0.965167534084488854 2.38646347976331318e-06 -1.14490936790394758e-05)
(1.08970747491786879 4.65855271563273727e-06 -1.13665495270052356e-05)
(1.21439373987428478 6.25159817200736763e-06 -1.14819958199142447e-05)
(1.33898067963813672 7.77957119713467362e-06 -1.15567216460111544e-05)
(1.46381657314308211 9.43498341697452354e-06 -1.1509499877502692e-05)
(1.58917236780693694 1.12332296068299689e-05 -1.13478407189263573e-05)
(1.71536679634768352 1.32176929500738957e-05 -1.10954043634699334e-05)
(1.84281071210310432 1.5450378816854224e-05 -1.07669907462525349e-05)
(1.97200249927614935 1.80655031631726404e-05 -1.03636608628536297e-05)
(2.10404977470741406 2.10385933545117823e-05 -9.89189548884049877e-06)
(2.23987289970623271 2.50308051509781896e-05 -9.34745418565638701e-06)
(2.38432130967433897 2.8836226673813525e-05 -8.72904383750652684e-06)
(0.823976160978352579 -2.64472524880060407e-06 -7.13636970108616959e-06)
(0.946910123438820195 2.30479877418858335e-06 -7.71887067948206758e-06)
(1.07086989928885279 4.46469493534172247e-06 -7.50137167302087082e-06)
(1.19524363255021471 6.14467402381978232e-06 -7.44029476377386487e-06)
(1.31985965787490622 7.79518564520018845e-06 -7.40433298182228146e-06)
(1.44490759525973989 9.56540775843826534e-06 -7.3332384624917072e-06)
(1.57053653483234945 1.14846471657636654e-05 -7.21894063572391052e-06)
(1.69696957986001729 1.35969437130571153e-05 -7.06014985000710296e-06)
(1.82459629533258094 1.59624445772869486e-05 -6.85638219350095583e-06)
(1.95393780274249784 1.87176354619588717e-05 -6.60629573638546305e-06)
(2.08611613763086678 2.18204397615065351e-05 -6.3067477765641864e-06)
(2.22208202767727858 2.59378976184036636e-05 -5.96190396765206982e-06)
(2.3666658010909889 2.9849194179706465e-05 -5.58028489282066863e-06)
(0.812358662801124343 -2.42256418467434918e-06 -4.13239466772390131e-06)
(0.935248006129756559 2.29055325375801219e-06 -4.46612969452930987e-06)
(1.05897539341246039 4.39153235050107678e-06 -4.31544222876597325e-06)
(1.1831476032262549 6.1090126831174528e-06 -4.26977138580858616e-06)
(1.30766825443606782 7.82316156861922115e-06 -4.24428184485335431e-06)
(1.43271972994180197 9.67034494463402445e-06 -4.19817441584901917e-06)
(1.55841405547425094 1.16647960267633998e-05 -4.12623322952906157e-06)
(1.68494135292822955 1.38545715338317782e-05 -4.03063373538565673e-06)
(1.81266207293326609 1.63001158718981019e-05 -3.91022604704380642e-06)
(1.94207174922407244 1.91316232649328861e-05 -3.76274960667432054e-06)
(2.07426576346525016 2.23064233175321639e-05 -3.59251006780406604e-06)
(2.21022841442407669 2.64881571614999204e-05 -3.40222971131503157e-06)
(2.35477156909896879 3.04717325604859999e-05 -3.19364658295446934e-06)
(0.806662274169329119 -2.33501059978238665e-06 -1.3588824653107487e-06)
(0.929536700709874375 2.27863101405560363e-06 -1.46456766384365015e-06)
(1.05319735230984968 4.36534551189724842e-06 -1.41322823436876004e-06)
(1.17732114981982505 6.109428612698955e-06 -1.39554917250064972e-06)
(1.30181848681500667 7.85028647335128107e-06 -1.38345149728520689e-06)
(1.42686788588592983 9.72364329648681598e-06 -1.36585641735220382e-06)
(1.55258332901375806 1.17520771717701257e-05 -1.34184048099793832e-06)
(1.67914269734565247 1.3979527867876149e-05 -1.30963392317215823e-06)
(1.80688288687070142 1.6460962099634544e-05 -1.26910834326236076e-06)
(1.93628630464472207 1.93247813238203329e-05 -1.22091621052986354e-06)
(2.06844008491360931 2.25336170316926495e-05 -1.16614316699570399e-06)
(2.20436122638296306 2.67417812316553118e-05 -1.10506685325814827e-06)
(2.348829492366447 3.07607442510049448e-05 -1.03942564269678244e-06)
)
;
    }
    procBoundary3to0
    {
        type            processor;
        value           uniform (0 0 0);
    }
    procBoundary3to1
    {
        type            processor;
        value           uniform (0 0 0);
    }
    procBoundary3to2
    {
        type            processor;
        value           uniform (0 0 0);
    }
}


// ************************************************************************* //
