/*--------------------------------*- C++ -*----------------------------------*\
| =========                 |                                                 |
| \\      /  F ield         | OpenFOAM: The Open Source CFD Toolbox           |
|  \\    /   O peration     | Version:  2206                                  |
|   \\  /    A nd           | Website:  www.openfoam.com                      |
|    \\/     M anipulation  |                                                 |
\*---------------------------------------------------------------------------*/
FoamFile
{
    version     2.0;
    format      ascii;
    arch        "LSB;label=32;scalar=64";
    class       volVectorField;
    location    "0.209999999999999992";
    object      faceForces;
}
// * * * * * * * * * * * * * * * * * * * * * * * * * * * * * * * * * * * * * //

dimensions      [1 1 -2 0 0 0 0];

internalField   uniform (0 0 0);

boundaryField
{
    inlet
    {
        type            calculated;
        value           nonuniform List<vector> 0();
    }
    outlet
    {
        type            calculated;
        value           uniform (0 0 0);
    }
    top
    {
        type            calculated;
        value           nonuniform List<vector> 0();
    }
    bottom
    {
        type            calculated;
        value           uniform (0 0 0);
    }
    left
    {
        type            calculated;
        value           uniform (0 0 0);
    }
    symmetry
    {
        type            symmetryPlane;
    }
    interface
    {
        type            calculated;
        value           nonuniform List<vector> 
104
(
(0.000193642689074037034 3.61699456140860204e-07 -1.13140462654422619e-07)
(0.000484417907429984622 -2.23412197477275506e-08 -9.6730991599337569e-09)
(0.000484788294850675824 -2.26699611974101287e-09 -2.29189653257944715e-08)
(0.000495661822410532575 1.84927304665859575e-09 -2.26454826061112272e-08)
(0.000520693560790951677 4.38518919731378306e-09 -2.32147784276316162e-08)
(0.00055506435913680425 4.65300028419416384e-09 -2.05953950695441912e-08)
(0.000597949078014353729 5.15465699708018431e-09 -1.98984615880531748e-08)
(0.000642958490572964527 5.04763585746145003e-09 -1.98984379758054679e-08)
(0.000689148078039405663 4.74254368567764892e-09 -1.98766169006049952e-08)
(0.000733094152801115834 4.54651373018820356e-09 -1.90602770953675145e-08)
(0.000778630713008408165 4.48379111294841588e-09 -1.87731788857442183e-08)
(0.000817825684631578206 4.46919044571615785e-09 -1.78719517046565494e-08)
(0.000854750549716601598 4.77352453674876105e-09 -1.69101727196991385e-08)
(0.000341545604093766123 -1.81611029654221101e-10 -4.27868837049734836e-09)
(0.000376919495047885959 -2.53657349832950579e-09 -1.18808883859235216e-08)
(0.000410359227315579723 4.17077301081244215e-10 -9.70725411702290264e-09)
(0.000440326833732457745 1.61682361732993316e-09 -8.6374177622826509e-09)
(0.000474480973889540082 2.13391076953768508e-09 -8.7858914002982203e-09)
(0.000512105951605663738 2.65716472841688729e-09 -9.15486213098159056e-09)
(0.000550399321722288052 3.07073455215623818e-09 -9.67439987601910882e-09)
(0.000589923190747730988 3.54156647343864646e-09 -1.01148191938614945e-08)
(0.000629871374628423607 4.0022543204218519e-09 -1.03454669731560793e-08)
(0.000670048649972656337 4.44331263150004196e-09 -1.03169354628343383e-08)
(0.000710887944177905347 4.97261263596464573e-09 -1.01553660366244107e-08)
(0.000751946479841343498 5.75204183473952861e-09 -9.78948425435668801e-09)
(0.000794423946875321579 6.68244072868082071e-09 -9.19324644495153472e-09)
(0.000275432733515408557 -1.2142449717595589e-09 -8.73359113850594011e-09)
(0.000321514905112419813 1.58993524765535379e-09 -7.93814896161618172e-09)
(0.000364665562767932752 1.93074659599974208e-09 -7.83125094267897565e-09)
(0.00040413822899578952 2.13744673807672138e-09 -8.11227235440763031e-09)
(0.000442383037773268748 2.51139879384962787e-09 -8.27481511103134709e-09)
(0.000480777823113283853 2.97561814530806565e-09 -8.33247447238979027e-09)
(0.000519409584579956355 3.40531070537166408e-09 -8.26622770905127413e-09)
(0.00055849169794748067 3.84591949897171951e-09 -8.11995603433210167e-09)
(0.000598028797384134972 4.34687441859299323e-09 -7.89999127035132077e-09)
(0.000638097734409798396 4.96008582092396072e-09 -7.62785770734361337e-09)
(0.000679004159001164102 5.69672949908550084e-09 -7.3004520207709967e-09)
(0.000720986299568910217 6.72660922309520608e-09 -6.90597374899988885e-09)
(0.000765420384954297118 7.78877267697141232e-09 -6.43761442808675456e-09)
(0.000270560942610440966 -9.76140282092811523e-10 -4.51733590660446103e-09)
(0.000309791355705173828 9.06733952509708525e-10 -5.06466808188807922e-09)
(0.000349775468537618999 1.72040207512324682e-09 -5.04731054962136406e-09)
(0.000389307543783529359 2.13661722286568331e-09 -4.98258838631970752e-09)
(0.000428403557543043361 2.51150435498407008e-09 -4.95007617880032287e-09)
(0.000467383751757131244 2.9392636708243848e-09 -4.93884533377143016e-09)
(0.00050641370049476055 3.41978363813614167e-09 -4.91416112488225649e-09)
(0.000545676968533368345 3.96521998286850065e-09 -4.86382904418551157e-09)
(0.00058532733199795448 4.59153455712865034e-09 -4.7738575338671296e-09)
(0.000625536573167139722 5.33857599992229502e-09 -4.63550502842816228e-09)
(0.000666657457602384232 6.2027487324335197e-09 -4.44594682597412073e-09)
(0.000708955225278230794 7.37620420411949751e-09 -4.20803613121529686e-09)
(0.000753919757327278718 8.51495350355418057e-09 -3.92545488855906625e-09)
(0.000263087893192252864 -9.58015900480948763e-10 -3.23633800530055703e-09)
(0.00030161485440140278 7.45769837426035319e-10 -3.57784177469983629e-09)
(0.000340533585911833821 1.45579772363522972e-09 -3.55204672718913447e-09)
(0.000379498043710714225 1.95362442875230331e-09 -3.58812369372320354e-09)
(0.000418431462386917525 2.43111599910458417e-09 -3.61147551437848378e-09)
(0.000457442679107213513 2.94843231780454056e-09 -3.59671871171959373e-09)
(0.000496616364939668074 3.51038425213436725e-09 -3.5462002246644886e-09)
(0.000536052123858651386 4.13052904689809453e-09 -3.46731386358435632e-09)
(0.000575878347532219194 4.82824338026693742e-09 -3.3646846082039122e-09)
(0.000616250781023796788 5.64546973849145131e-09 -3.23864401964176009e-09)
(0.000657515554596067755 6.57456042328493966e-09 -3.09121734026265977e-09)
(0.000699960281158197866 7.8221266096806861e-09 -2.92107943301762162e-09)
(0.000745100409273230491 9.01132083556672166e-09 -2.72782619922078853e-09)
(0.000257492550305735395 -8.26476640250189511e-10 -2.23011553158942991e-09)
(0.000295909413574631588 7.20249616933932981e-10 -2.41214708733814835e-09)
(0.000334646843527766646 1.39521716729428878e-09 -2.34417864781902297e-09)
(0.000373513635171942508 1.92021063244368389e-09 -2.32509211367933532e-09)
(0.000412456143085908041 2.43599551412505823e-09 -2.31385405681946213e-09)
(0.000451533623518669206 2.98918992451196103e-09 -2.29163701952866103e-09)
(0.00049079266713510962 3.58895223930114876e-09 -2.25591894866372392e-09)
(0.000530302993706256243 4.24904491033035505e-09 -2.20629682812722325e-09)
(0.00057018634229143118 4.98826393040216842e-09 -2.14261943546904724e-09)
(0.000610605563357030905 5.84926108186215062e-09 -2.06446741762045831e-09)
(0.000651911293009646954 6.81888742547080289e-09 -1.97085868017631134e-09)
(0.000694400633649149826 8.1055930057511478e-09 -1.86309498989127261e-09)
(0.000739583062840934316 9.32787318115827337e-09 -1.74383902900645958e-09)
(0.000253862082125351377 -7.57051307710734156e-10 -1.29137333366371922e-09)
(0.000292265001915548931 7.15797891799378765e-10 -1.39566552954040929e-09)
(0.000330929810441393834 1.37235385953158639e-09 -1.34857569648936647e-09)
(0.00036973362600820482 1.90906646347420474e-09 -1.33430355806518357e-09)
(0.000408646329511270893 2.44473799019350517e-09 -1.32633807651667225e-09)
(0.000447724915606813496 3.02198279519813549e-09 -1.31192950495281969e-09)
(0.000487004392335703233 3.64524875836356115e-09 -1.28944788422783136e-09)
(0.000526544172790072173 4.32955360432243448e-09 -1.25957304230801891e-09)
(0.000566456897791644967 5.09378620996815056e-09 -1.22194563970118795e-09)
(0.000606897421632522421 5.97863227029152496e-09 -1.17585925208572483e-09)
(0.000648208051082891225 6.9707572867288073e-09 -1.12265939618877168e-09)
(0.000690696379507524556 8.2775491129687328e-09 -1.06319678478594826e-09)
(0.000735866115343426709 9.52241642515186207e-09 -9.98014557173270312e-10)
(0.000252081960677915393 -7.29690812431995973e-10 -4.24650770409609028e-10)
(0.000290480218971835751 7.12072191892376178e-10 -4.57677394951140656e-10)
(0.000329124172596828026 1.36417047246789013e-09 -4.41633823240237491e-10)
(0.000367912859318695435 1.9091964414684241e-09 -4.36109116406453173e-10)
(0.000406818277129689294 2.45321452292227351e-09 -4.32328592901626877e-10)
(0.000445896214339353437 3.03863853015213261e-09 -4.26830130422564051e-10)
(0.00048518229031679921 3.67252411617816315e-09 -4.19325150311855614e-10)
(0.000524732092920516852 4.36860245871130036e-09 -4.09260600991299839e-10)
(0.000564650902147093448 5.14405065613578759e-09 -3.96596357269487213e-10)
(0.000605089470201475473 6.03899416369385192e-09 -3.81536315790582246e-10)
(0.000646387526535503461 7.04175532240395946e-09 -3.644197396861578e-10)
(0.000688862883244676554 8.35680663489229262e-09 -3.45333391643171633e-10)
(0.000734009216364513747 9.61273257843903167e-09 -3.24820513342744046e-10)
)
;
    }
    procBoundary3to0
    {
        type            processor;
        value           uniform (0 0 0);
    }
    procBoundary3to1
    {
        type            processor;
        value           uniform (0 0 0);
    }
    procBoundary3to2
    {
        type            processor;
        value           uniform (0 0 0);
    }
}


// ************************************************************************* //
