/*--------------------------------*- C++ -*----------------------------------*\
| =========                 |                                                 |
| \\      /  F ield         | OpenFOAM: The Open Source CFD Toolbox           |
|  \\    /   O peration     | Version:  2206                                  |
|   \\  /    A nd           | Website:  www.openfoam.com                      |
|    \\/     M anipulation  |                                                 |
\*---------------------------------------------------------------------------*/
FoamFile
{
    version     2.0;
    format      ascii;
    arch        "LSB;label=32;scalar=64";
    class       volScalarField;
    location    "0.209999999999999992";
    object      p_rgh;
}
// * * * * * * * * * * * * * * * * * * * * * * * * * * * * * * * * * * * * * //

dimensions      [1 -1 -2 0 0 0 0];

internalField   nonuniform List<scalar> 
7236
(
1.79239494494286666
-1.34487558661432494
0.135052931894146466
2.63178561303492886
3.54071947859355918
3.46974699805427234
5.1420228789933935
8.09511977401824012
6.42737436738862922
8.50137260326603439
13.2418080802548275
15.2511022277306214
14.4551109270926936
13.9563650891913955
12.4387162185094446
10.7241792879040343
9.25138733427622739
8.40465945641567913
7.27989482412394739
5.70078996948867012
4.20356137648807859
3.4709032338733854
2.56819117591261126
1.71385739436333684
1.3238414955751352
0.966703465037522913
0.712229510110135355
0.839126621696330344
0.975080174247906495
1.1064242459321032
1.29704507394913704
1.48303929480534191
1.58116638044079671
1.57965544563559002
1.52170207331200058
1.45882461370852945
1.41339120985408129
1.38987192318207575
-1.36105069711624416
-1.19146177754294369
-1.25480708761561699
-0.20401705247675736
0.72670333948782162
0.756349165230979059
0.469076949897373585
0.171139112441567459
0.206553113158814555
0.208709919551266637
0.136715568669710186
0.0644079652873064679
-0.02731631300673577
-0.0987576466085362675
-0.11088146948098522
-0.0931955224053554188
-0.0809930313874077379
-0.0811872829818837405
-0.0840186912928778257
-0.0912628453654486943
-0.117008637558703041
-0.0726513934744181383
0.0168368603278143542
0.115095410878995774
0.14281954976409178
0.174004900518142797
0.262414857635206278
0.404587744330694388
0.629435943319516022
0.899624204504903546
1.14282499281322392
1.38376984877567821
1.5343443417503464
1.54849006060548611
1.49598122186889659
1.44297835872667313
1.400119218131467
1.37680438392827442
-1.23677063277498123
-1.11522846355637495
-1.23530058825468303
-0.619061931414581434
-0.674933097249335257
-0.686838595366036975
-0.62721852197156347
-0.591444168864453834
-0.515345730666043278
-0.44522154965238292
-0.405496006167417045
-0.392212214674859116
-0.389850129601152229
-0.388587396911247163
-0.376440259880892969
-0.356197750137769775
-0.333042065312536162
-0.324116691528541945
-0.313863575754125934
-0.308775731246292429
-0.288933360710121767
-0.300092610200331844
-0.318074176753037896
-0.347391407067663416
-0.323085018481818587
-0.250426698865548636
-0.0973504888363374288
0.0629555454217293059
0.222509291462716752
0.483096538842864021
0.798628254527781301
1.09227143172500862
1.31123865225692571
1.42300651308277493
1.43163267902365643
1.39976111182664265
1.36615932063196155
1.34729823302563068
-1.15475742923237745
-1.00282051951015627
-1.04861260830340353
-0.956873246071284433
-0.880679870870309744
-0.825165091488343938
-0.757527924749280879
-0.708453059684764685
-0.655625801289784094
-0.598974494978619876
-0.558222900601136773
-0.533772053904322807
-0.517928561109091912
-0.501372078931176635
-0.480917904893426618
-0.457972715191835911
-0.434570912196369508
-0.417790025009676158
-0.402397385503461713
-0.37978613276799672
-0.364608310373543409
-0.35486574117229186
-0.364248049073576552
-0.355425928848876416
-0.322660046749169094
-0.266653182920764176
-0.184505348382306478
-0.0536133964299354698
0.15031789014001215
0.394928572987967408
0.659903394362789997
0.918658629650606628
1.12992848547043989
1.26227219783923572
1.3287650844032397
1.33183454825966852
1.31593350070482451
1.30501196064325753
-1.11393681059432592
-0.982016554034302547
-0.971694832529594765
-0.921652740349176325
-0.881882006044694022
-0.842289708242090152
-0.799802048812706223
-0.759457220381477449
-0.718204898582010531
-0.675417237860615693
-0.638674782390766582
-0.608556327720220058
-0.58374415986456285
-0.559931002811309697
-0.533401981421363525
-0.506997202500050648
-0.475645580497924436
-0.448629699066996956
-0.425715825108801682
-0.400664556657906679
-0.384509934223383198
-0.378153494828991799
-0.369990813470329916
-0.351082855289864326
-0.31410997209045588
-0.2527449091528714
-0.158616581396357259
-0.0208660255368719426
0.158521530503643093
0.373447739139386448
0.604016293777728475
0.829109967355021515
1.02157059729415023
1.15486208232478149
1.22647886096490133
1.25253574223070241
1.25584412769678622
1.25337083976738239
-1.10162414607737347
-0.983896070669982303
-0.956344205039991735
-0.918938041141658557
-0.890730926112511923
-0.857989925914639628
-0.823756474425924812
-0.78688482952369676
-0.749021723160382957
-0.71092647196391856
-0.67503184226904811
-0.64162761530100354
-0.611058298957554147
-0.581439462925884554
-0.55089454296036755
-0.517092583912677761
-0.486046605110942054
-0.461081609292339878
-0.438849506407269052
-0.417945479908998163
-0.397952877081935663
-0.37918096527514189
-0.358496505906687413
-0.329423101344123226
-0.282698834343245498
-0.214372098318027282
-0.118008715044387952
0.011844503024668069
0.173891448198236959
0.36368849535319614
0.565562447678161995
0.762688617892663179
0.935316411247348767
1.06304039592352684
1.14091954969749798
1.17843164338799444
1.1924790710785782
1.19597590294493417
-1.11628136111486387
-0.99820794678861835
-0.959101811714743735
-0.924414352266377026
-0.896086170419093775
-0.870737364659647683
-0.839811567029287165
-0.805038707424608257
-0.768437017307468384
-0.730967691381169238
-0.69343108672019349
-0.656757851465037956
-0.622016135931744762
-0.588303784110529859
-0.555211775516628148
-0.523827693741476419
-0.493909557665726195
-0.466038194262627326
-0.440564459383473717
-0.416435234837657653
-0.392356713093837461
-0.366834972327700737
-0.33802570319440528
-0.30076631091620315
-0.248594852226025731
-0.177127826342944855
-0.081599912180603848
0.0402457021707569584
0.187926183009318626
0.356931992285020983
0.535300214381590367
0.709600856172215577
0.863943174509953837
0.983443428354106475
1.06283539609201472
1.10731549997076062
1.12838204665282671
1.13610453578041715
-1.13765730101853557
-1.00943827970290068
-0.969513693109740782
-0.933451993102379807
-0.905922742641086964
-0.88274290861770488
-0.852020901110882245
-0.817932823484985194
-0.781539370008864864
-0.743489651432880483
-0.704957489771538381
-0.66682669624122215
-0.629837657826688657
-0.593998989019132728
-0.559229015303107313
-0.525737478593531149
-0.493807896903199817
-0.463818940202290642
-0.435798320049810672
-0.408360687111473164
-0.38029062317257184
-0.350187286814330534
-0.31579436724490817
-0.272980803308943754
-0.216951433867414195
-0.144053421831474765
-0.0509786886476904719
0.064122983304227138
0.199681099491619912
0.351087759689831524
0.509757145932990818
0.664557665917572038
0.802924366807006296
0.913675896904682538
0.991729624699636769
1.03963786167232319
1.06514824612213932
1.0757262737554325
-1.16279465224092626
-1.0194222378441109
-0.97957369224928581
-0.943417248256093743
-0.918770405608980378
-0.894487651452382071
-0.863406200475601682
-0.82944615291531909
-0.792843357340395016
-0.754034161575166451
-0.714209193301584055
-0.674346726296502164
-0.63507365486713363
-0.596884225124864609
-0.559893288667500544
-0.524265026215998686
-0.49035041110127181
-0.458356034905656906
-0.427817265861440421
-0.397492581273729439
-0.366234506158382322
-0.332432143450698381
-0.293794231923007243
-0.247035364496481252
-0.188449274588232379
-0.115157536070757072
-0.0249544044298236033
0.0833166332813349286
0.208013703243650316
0.344858262671320304
0.486915432408115467
0.625139463093677183
0.749670619148641748
0.851770576644369726
0.926815823715740339
0.975776747526798771
1.00374150266480244
1.01610428860106183
-1.18073129582363157
-1.02810613081703917
-0.994467248072565813
-0.956521551113040713
-0.932733023724547583
-0.906525142721832711
-0.875022415359031247
-0.840304565713370755
-0.802722831029385686
-0.762784252448707623
-0.721499037007471089
-0.679703367241775713
-0.638144890076726368
-0.597587721248655002
-0.558408841555054436
-0.520869126697238838
-0.485146156742431223
-0.451128644797686107
-0.418245213168841501
-0.385429038226292098
-0.351407594616152286
-0.314536319302576695
-1.20381426329053176
-1.04241234197127164
-1.01141456859308865
-0.974449538224116396
-0.949212718341902129
-0.920184316264609059
-0.887159756013410905
-0.850978516998303069
-0.811966805951037984
-0.770488430168289939
-0.727289124643809792
-0.683256831695864153
-0.639383726808153918
-0.596565448502217044
-0.555324506725683231
-0.515968184216419656
-0.478540532260191442
-0.442730581568851589
-0.407853793592255376
-0.372900817668416262
-0.336561468581673795
-0.29727390095671552
-1.20656150718163446
-1.0587267237060014
-1.03158028633417054
-0.995250475529306788
-0.966945704908293568
-0.935298653185985707
-0.900092763593727696
-0.861772348554618928
-0.82068432336519459
-0.777067146132414788
-0.731580781545376535
-0.685157256284851468
-0.638973350750331237
-0.594007334365715955
-0.550879499042586374
-0.509877798508273417
-0.470921854085301628
-0.433565803480520151
-0.39704037898394906
-0.360310395584147958
-0.322114875289189029
-0.280998453917107538
-1.2020198099570667
-1.07573439910476831
-1.05661156980031135
-1.01955282289108573
-0.986569478122279242
-0.951888350411173367
-0.913837103674696061
-0.872664919160195618
-0.828822102121955062
-0.782524980069669085
-0.73443053783180634
-0.685510869041990767
-0.637007252991195649
-0.589994878234389675
-0.545166248027723066
-0.502744304466634429
-0.462507209915043183
-0.42387789303301926
-0.38601873455470409
-0.347880296330091543
-0.308264357935685074
-0.26583686684587654
-0.786774556023828953
-0.735816355805603228
-0.684291976178668993
-0.633507573051522388
-0.584613228564471843
-0.538308066026061183
-0.494711878734184263
-0.45345340134254436
-0.4138309542147523
-0.374941319888559221
-0.681476462018123508
-0.628530405822454674
-0.577975110650292723
-0.530445817427545707
-0.48593184975505771
-0.443909447226803422
-0.403561170416342596
-0.363929815039812088
-0.57019124589959902
-0.521714697078253575
-0.476537040286490632
-0.433992013566037671
-1.03268550405880322
-0.965948333874582565
-0.871746458607705721
-0.509072684098020312
-0.0807045358593615342
0.149710620007905831
0.1539810835271892
0.234063790220698897
0.237210080478975821
0.327088947531967766
0.545982425431799756
1.00283478551329042
1.9344873662116493
3.21048620100704118
3.94991260917932152
3.88240544590285319
3.7720789377127022
3.50536126230370026
3.18727640222400499
2.80581448833395664
2.44706444386929789
1.99019257823437923
1.42941430940319614
1.02551107710889844
0.834861548136207277
0.672417161453959022
0.58264409031769715
0.721615400123815753
0.938673305454042706
1.08569892865637452
1.18581013705151572
1.29112778605261869
1.32968658538858997
1.31998508883249022
1.29414434422646218
1.26796417091616398
1.24729973753967216
1.2355504457360158
-1.02114749771649582
-0.981726977267224354
-0.960485469848998852
-0.871405137594117529
-0.6742417696084404
-0.521111605953483825
-0.548188991906891188
-0.548610130313317845
-0.443601577565444771
-0.361326013463559692
-0.303744987846404635
-0.347656733212253433
-0.350658671574969993
-0.3537830164190231
-0.349600247279214293
-0.345691253823878941
-0.342176165604856919
-0.330077622587516051
-0.31893952544419979
-0.317532246851326638
-0.329202444581127407
-0.346956077649665462
-0.323175407355023703
-0.241357305954710943
-0.149272509019226535
-0.033147354106197062
0.145954735052630707
0.32792141572886313
0.57391996071647422
0.819219301297568259
1.06224432783765033
1.24142124797386177
1.30124342989106823
1.29512557704854658
1.27786784217031757
1.25575889521554651
1.23657707242359383
1.22507041726167643
-1.00624614034655036
-0.963683192288544044
-0.946056217325239479
-0.917525080122977954
-0.851333034885440987
-0.815317020273574888
-0.788555813799364347
-0.732001356958081772
-0.671760223309459614
-0.620865098868551124
-0.572023643543741134
-0.540190184399452211
-0.519422069831095401
-0.501372011048039856
-0.482771277381356556
-0.462363182140651474
-0.443445375968556266
-0.42501046371773038
-0.404529996689463656
-0.385085576552727848
-0.371680025546619164
-0.359683905043333585
-0.36477082578699821
-0.343641579729937141
-0.291013543113316342
-0.19911017410169124
-0.0836553974365521064
0.0640208891127240914
0.279068575749296832
0.534780757174915466
0.822656942912722178
1.04493023842733535
1.17857734753095755
1.22899184475337053
1.23470283966563144
1.22436999207456298
1.21160186536734615
1.20289034327920907
-0.979775145635491618
-0.93753468260805739
-0.925907435081771757
-0.914968998738312722
-0.878931084095253445
-0.843701480272270543
-0.802275030042188364
-0.756594385838922023
-0.709406870911535758
-0.665221075571834963
-0.625790168986775308
-0.591860123303434627
-0.569073649518209268
-0.547119011419261891
-0.522935786890300514
-0.497423075343483789
-0.470459240561949876
-0.444772239368202094
-0.416591626000406945
-0.389165359890365714
-0.370321675661530902
-0.360815021927475388
-0.349875400473753817
-0.323642308873760221
-0.280783286295474499
-0.214427271170947426
-0.105903616381806592
0.053126644858629668
0.250309395247624245
0.469500076033186942
0.693062298051573378
0.894670585650769623
1.04019255299465097
1.13163037784461307
1.17092913921928221
1.17832755569129621
1.1751572339006342
1.17124677055479043
-0.966476205706900293
-0.92971688762935889
-0.91309381604683415
-0.896687265649517729
-0.874187564546740625
-0.844203608372029901
-0.808057182731554691
-0.770388802646639559
-0.730750809797247602
-0.691093770001737662
-0.653199238448497477
-0.618438304912861114
-0.588212931362104841
-0.560035862620427038
-0.531616380638338715
-0.502240377627159007
-0.475073231814813757
-0.448951826131020582
-0.423980620284160892
-0.399674146547014442
-0.377727545316211888
-0.358183636416798179
-0.336310189276141758
-0.302525030264156114
-0.251494599474226699
-0.177538968416107279
-0.0717535342254756875
0.0694259632160262458
0.242776906600537801
0.435068962052742592
0.630908240419904232
0.810396405853233692
0.952800601967446648
1.04805387409277873
1.10096969987418958
1.12429982335517531
1.13105793837747948
1.13201162955470469
-0.964274294135750609
-0.927055968580606349
-0.908367399225864292
-0.893275972730801726
-0.873505395577100607
-0.84657457998730623
-0.814215777374419636
-0.77976889083591816
-0.743496452786009732
-0.706348394287131587
-0.669640708026958631
-0.634589282493210116
-0.602166063750627645
-0.570664789371635006
-0.539564055108335827
-0.508835657113676176
-0.478643285453429768
-0.450053284916968277
-0.422852294787040617
-0.396332647588415687
-0.370458712192571316
-0.344140876219581782
-0.314023383234091125
-0.273687200633012939
-0.218122308703239204
-0.142596570748288382
-0.0415364011938348515
0.0872263450246051064
0.241352111564978461
0.411555632015978945
0.58506361991751088
0.74625102666059151
0.880036605352907064
0.976528324598809561
1.03670479315648212
1.06850392228223168
1.08262838963601005
1.08741352097078336
-0.964188638742635051
-0.927099033024210484
-0.908665364306052159
-0.894181316811563209
-0.875804417830252979
-0.851036616775442178
-0.821275557394043232
-0.788386104229012452
-0.752825484987173832
-0.715964696748245366
-0.679068034453990776
-0.642909866556952037
-0.608090910097149662
-0.574338047026518694
-0.541123954976064248
-0.508459055496260914
-0.476759813926072085
-0.446314856871065035
-0.416764278950028377
-0.387672801713771276
-0.358270292084541531
-0.327173251855416014
-0.291665313401885951
-0.247080710382554747
-0.18900840684904327
-0.113228384647220265
-0.0162295913754606294
0.103110884192815555
0.242063712200001585
0.39367016083572548
0.548395645121338871
0.693869821914425033
0.817814714603997017
0.912021813858082453
0.97543190599466989
1.01285422788325885
1.03204377353644161
1.03975019554021908
-0.968035785251051495
-0.929824001851911941
-0.91261377668118604
-0.898308595484462957
-0.880432570845287032
-0.856932731380407153
-0.828453902148684862
-0.796056111440386349
-0.760777006231067143
-0.723711124201353417
-0.685955837542162827
-0.648348850336931792
-0.611581529795210854
-0.575672414928402043
-0.540460783573691761
-0.506088301783210959
-0.472763716849683324
-0.440524491312154709
-0.409023710601702783
-0.377581701090499433
-0.345223033961894465
-0.310459906391069684
-0.270949221800539486
-0.223108452057859868
-0.163226689723449503
-0.0881076895200390564
0.00469395491157351824
0.115662307393268063
0.24227237619970185
0.378848602073044549
0.517752429578416162
0.649240892566875893
0.763553776154295205
0.853723746877340872
0.917707775201873854
0.958250047285350237
0.980815592262893277
0.990614005517612806
-0.973234264801019378
-0.934661973289835357
-0.919135202487876501
-0.905388211742571669
-0.887458282272304833
-0.864236700246828859
-0.83618990900439738
-0.803653451658993601
-0.767960294051908576
-0.730160231247826474
-0.691314705967588705
-0.652280754396954876
-0.613694914555767523
-0.575829209889266891
-0.538778098630614766
-0.502705480850164532
-0.467731362805728079
-0.433798429087478288
-0.400469496445962747
-0.366902061034343363
-0.332056701009092403
-0.294458061596031995
-0.251979874653606273
-0.201797548389630904
-0.140939893656837484
-0.066997472379538861
0.0216926952944056506
0.125244548474017475
0.241391650667913044
0.365446876828292244
0.491007557889588997
0.610267548241164803
0.715474673548506468
0.800710215024804772
0.863567577963995969
0.905414612847239564
0.929980022289167207
0.941151138024520217
-0.979172664409515336
-0.941923676292017342
-0.929246954177412321
-0.915174795940822183
-0.897004657130528793
-0.873247894466886998
-0.844472002886011319
-0.81121876799949999
-0.774669232902219784
-0.735838106661636626
-0.695694059798347753
-0.655096931460949161
-0.614726583421952522
-0.575026844465440168
-0.53624945985605299
-0.498589355005639778
-0.462102729073069207
-0.426594841119005252
-0.391544331211754637
-0.356103092196675297
-0.319186863553273081
-0.279366712582759025
-0.234758485765265063
-0.987221004154193893
-0.952778441566797807
-0.942488238102929365
-0.927629765147867547
-0.908554278893244138
-0.883595165466033339
-0.85347237138028198
-0.818943597051206118
-0.78108805760359945
-0.740849795835031077
-0.699148407704979657
-0.656852118912097382
-0.614707929723216195
-0.573278487896820899
-0.532919308548394755
-0.49382276295783567
-0.455962912887949767
-0.41904685605484876
-0.382496376600261978
-0.345456736006339638
-0.306841535716831038
-0.265309714856864776
-0.995975032563745755
-0.966753892568101958
-0.958902688737780284
-0.942823445973276053
-0.92213007441303585
-0.895181882150604569
-0.863135029405907139
-0.826784777641209168
-0.787159154517423576
-0.745167449090569756
-0.701689028269340098
-0.657587459519452966
-0.613680653618931093
-0.570612933415491796
-0.528799468458997279
-0.488411471110023976
-0.449343459833117076
-0.411217819482491809
-0.373406788901900155
-0.335053537224946685
-0.295100344156437433
-0.252308839297132215
-1.00925563723703759
-0.984512721322363893
-0.978357586045329852
-0.96074241153426676
-0.937398492225354096
-0.907854853756802527
-0.873312228719725803
-0.834600904024979884
-0.792785260158136884
-0.748717892389269557
-0.703259269110334762
-0.657275133148560453
-0.611631737622137406
-0.567029345291493403
-0.523903447113445497
-0.482382327616596163
-0.442283073731600418
-0.403152166011819357
-0.364318889158103731
-0.324931686985955592
-0.283974281506377324
-0.240318298967649141
-0.751388700259134512
-0.703788719304612731
-0.655871821097742336
-0.608544088567510633
-0.56252834503794924
-0.518247889513909321
-0.475767602076744345
-0.434822585895019376
-0.394890959736804048
-0.355265897392378072
-0.653338585787142212
-0.604411475370828732
-0.557132219328620226
-0.511871087663373414
-0.468613621330592089
-0.427011097787023119
-0.386478398395311618
-0.346279050523978615
-0.550877484406131157
-0.504818134816177433
-0.460966819190392618
-0.418888719194568881
-0.819970187039426368
-0.836379320803557369
-0.866053912801693859
-0.841800536461602911
-0.716887499811325934
-0.62290107645578241
-0.528520424494623775
-0.455575587753992373
-0.388496910216680036
-0.34010791340318508
-0.292466988753230406
-0.1962757943457627
-0.0336776432950525381
0.173001233625557027
0.258947627532232216
0.265221537382463457
0.288962273467999853
0.373664489165344282
0.48344348064828957
0.586437480207432249
0.576593021551315643
0.496383598655825986
0.441910840759617618
0.386427717842312168
0.392527957452770082
0.470958868742581027
0.580584533987255846
0.703379320159198018
0.826908933594610485
0.929765018479340566
1.01249990836823334
1.06891415529919231
1.09838967087520722
1.11272758233934521
1.11729135854064521
1.11506503813913893
1.11026009014478366
1.10655470871614248
-0.844752757389534037
-0.859733132213015727
-0.868610813322345021
-0.844494265461143145
-0.820581581214238076
-0.780559389926502756
-0.703967978864880939
-0.612210554814808239
-0.532405569767806508
-0.492489928550487732
-0.467765929064172303
-0.454556647488471799
-0.401723789987426083
-0.341837162006347006
-0.321420545164307569
-0.361001669491744281
-0.385853644565582743
-0.386368151216382127
-0.368480670622676532
-0.356258763147406121
-0.329974319565007945
-0.298395190395574439
-0.243765265459251174
-0.17714144410017979
-0.0828895082934211769
0.0475880449516169271
0.209374175915306021
0.399189973014388966
0.617926523190674981
0.820525843798990184
0.966710322104109676
1.04186116578082633
1.07531200927497861
1.09609376008010617
1.10542421985680517
1.10546368935341133
1.10177273343532756
1.09832968221302574
-0.860288228462823379
-0.866627440665925008
-0.86948092856588588
-0.85573343564940807
-0.859218133067416345
-0.84267931285198816
-0.816557624226353584
-0.778969275143864603
-0.730529947408547375
-0.686218344977777339
-0.650064121363903125
-0.608718945448145088
-0.570408686936088039
-0.539775635390627673
-0.510894446614237219
-0.486082890906375964
-0.464662500792791255
-0.443786689614396379
-0.419117690614963956
-0.389993387678902903
-0.36399902737084644
-0.340598633339390777
-0.315818276770735318
-0.271599273888236514
-0.207987807316878742
-0.116094716502119222
0.0161243674398789186
0.197192266047626685
0.403734377733230287
0.636927740614407267
0.82136134415554507
0.946900875272156051
1.01964276733006098
1.05762278302010637
1.07678819156977545
1.08330084279196837
1.08337198636841836
1.08154512745416009
-0.864017696053113182
-0.865379503293747909
-0.868430081258965147
-0.866564509187986776
-0.85666376064980887
-0.838830142277025903
-0.809906340213884413
-0.774164562428588221
-0.735463995338427545
-0.697780303201241958
-0.661422788064482847
-0.625851267490628804
-0.592121199921785468
-0.558874457324658569
-0.526420417057677725
-0.49589060608390001
-0.468112751620432255
-0.441937537643241729
-0.416042258631440509
-0.390975869222117689
-0.365901582330110386
-0.33953275791191273
-0.306541997716188841
-0.261826223781225442
-0.196177988491459732
-0.104970590975811046
0.0195635186869010623
0.175064133045644582
0.35172072257665743
0.534543436678522887
0.704053055964573682
0.841896094061984401
0.941307454114167719
1.00362619136705056
1.036432708776579
1.05135510300335722
1.05667862877956154
1.05757938254248729
-0.863791021563819705
-0.862630790814593928
-0.863551823159291021
-0.861132600327847664
-0.850517248055082442
-0.831945331423719958
-0.80492727067766634
-0.772137163142617711
-0.736184888983481112
-0.699820249320771137
-0.663853193447978218
-0.628291141144735166
-0.594046747206938508
-0.560466073131730691
-0.527512915663156612
-0.496047636463040953
-0.466237427194873322
-0.437039423523610082
-0.408079923070031658
-0.379566724766400188
-0.350382307242107449
-0.31859841232617131
-0.280939615751157612
-0.232314335334718874
-0.167114101933948683
-0.0806591029453762737
0.0313497681664310843
0.169033338976476294
0.324221670130597162
0.486184288072399162
0.64102677922368767
0.77447935399047485
0.876778547200610325
0.947143230717178208
0.990217898617010039
1.0132634271949239
1.02378788364999473
1.02747965327272639
-0.864033324426249361
-0.861969198144033832
-0.861523631595099926
-0.857823113881699295
-0.847366095443385259
-0.829008919530540678
-0.80322007811361229
-0.772143934714394353
-0.737720555151679336
-0.702070135837971843
-0.66601648082514342
-0.630073164071071501
-0.594922773478242628
-0.560325889799267451
-0.526300344131672815
-0.493295353864519059
-0.461325586411024557
-0.429941493676409492
-0.398680145214752646
-0.367203284075677316
-0.334667015615886243
-0.299448707656397972
-0.258503357359723795
-0.207872522554896549
-0.14308666525364433
-0.0603256531784362726
0.0431052488653944285
0.16715993134552487
0.306437830503282216
0.452030977010299706
0.593173110446239438
0.718687773958784248
0.820069121558857472
0.894134421509787503
0.942949652722628984
0.971707800318350357
0.986588906437901425
0.99260185291523173
-0.865031280139326952
-0.863154756087989639
-0.862388235907170286
-0.85829814423085371
-0.847649033602723923
-0.829420783376854209
-0.804288778900815848
-0.773928239512945981
-0.740063030577023828
-0.704431798513740826
-0.668060167240218217
-0.631515854744525762
-0.595293946530755846
-0.55947853004581749
-0.524176569499160139
-0.489639078949300088
-0.455900266516376329
-0.422699204852045207
-0.389562088815149643
-0.355925200483574011
-0.320862835889547782
-0.282898073178385556
-0.23949400746434632
-0.187281325800564669
-0.12278331851521182
-0.0430588364840887167
0.0536645584508342391
0.167039175365501419
0.293127212904432055
0.424959441870460808
0.554031207235219703
0.671204445762874857
0.769066430475170648
0.843787859978208377
0.895764808871796325
0.928457393891132909
0.946671997191844583
0.954557168828948477
-0.867467716478028672
-0.86610870000652862
-0.865838749302394461
-0.861496261448341127
-0.850560956048444505
-0.832219034377411071
-0.807256054917429022
-0.777078827966057983
-0.743287936270410232
-0.70731242878426559
-0.670221666465321886
-0.632724616791782157
-0.595338816598101173
-0.55827255153000277
-0.521692950488987339
-0.485781294416862353
-0.450555984052198988
-0.415794069607522743
-0.381030420550780291
-0.345603310966301591
-0.308535346423909618
-0.26840534906610114
-0.223085411479794937
-0.169795220249797318
-0.105785921091429716
-0.0287879986081016337
0.062400504061649667
0.16720052742117314
0.282408461959009094
0.402592679210355409
0.520891817379223299
0.629824397552487314
0.72295722163478271
0.796422681951415856
0.849632739330119735
0.884731817851404645
0.90527871557950701
0.914580381537860032
-0.871359284528305245
-0.870878201743790603
-0.871693743768405471
-0.867117543731981799
-0.855681028177254444
-0.836870314789875391
-0.81163359848993244
-0.781199518710845808
-0.747017165024838725
-0.710397862437219252
-0.672405030004880389
-0.633817596115375581
-0.595199689739851934
-0.556855133649857725
-0.519010908513292124
-0.481836698372027361
-0.445319983120844587
-0.409209787644970513
-0.373033933467597723
-0.336085990732789108
-0.297375486814098644
-0.255562255670772343
-0.20881634937694793
-0.154879624112378295
-0.0915412567374982028
-0.0170814632788283439
0.0692933188924206717
0.166900954197905738
0.273031123120739683
0.383295009689623045
0.492026547005686432
0.59307924661994138
0.680955232674721578
0.751993232934877853
0.805064368189042923
0.84134543043880905
0.863343524341476654
0.873621052317462343
-0.876951142123581828
-0.877749045390638583
-0.879823159590802484
-0.874997444616816611
-0.862832745790747091
-0.84318122418149577
-0.817157449169503614
-0.785985984326287634
-0.751008013331546875
-0.713478645520112864
-0.674428379449015236
-0.634659403229580477
-0.594776083332735461
-0.555171395765660991
-0.516116584459633709
-0.477769761964399853
-0.440090740818035397
-0.402805361107648308
-0.365408234730991599
-0.327176543551461696
-0.287139692001767866
-0.244050467215972955
-0.196315105077634888
-0.885227092605604282
-0.8871959345658601
-0.890512919267749448
-0.885085128036454227
-0.87180923018226586
-0.850849727918083332
-0.823572172348237763
-0.791219154410063408
-0.755103796467763377
-0.716409450199614217
-0.676131851388810601
-0.635088387713550362
-0.593923174393507169
-0.553092130239544177
-0.51289910437019659
-0.473484519272801774
-0.434773982702385375
-0.396462193629156356
-0.358023809896434786
-0.318730728400440755
-0.277643366256854207
-0.233615192328848031
-0.896939752544906654
-0.900088425366471045
-0.90411652777095286
-0.897422520001444735
-0.882467322883938476
-0.859670679760496603
-0.830666117049260522
-0.796725115084601532
-0.7591364851853869
-0.719027488531307712
-0.677364980123944638
-0.634969547318587901
-0.592516983088832272
-0.550507106596578311
-0.509257276264109104
-0.468884035156808099
-0.429274036895979705
-0.390088227876483673
-0.350785439404232624
-0.310642976722369124
-0.268757420743181707
-0.224081694773241913
-0.916494968768885254
-0.917521882470716088
-0.921082577613102971
-0.91207180253918585
-0.894682957035329629
-0.869438192390755371
-0.838230596319106014
-0.802310991100830817
-0.762937228583844829
-0.721189753082585039
-0.678005167372027095
-0.63420009690580037
-0.590469620071868984
-0.54733781211660526
-0.505120845267678309
-0.463902907540435283
-0.423527490312471111
-0.383620530987615893
-0.343626638742355106
-0.302838080119631925
-0.260385806843902834
-0.215324014937018415
-0.722757695672843981
-0.677939845812296937
-0.632690251564534845
-0.587710160319165564
-0.543531006577574249
-0.500448496135345255
-0.4585060646826149
-0.417500599927967175
-0.37702327211058162
-0.336505401681020611
-0.630368099200849574
-0.584188052691955284
-0.539059599348001739
-0.4952265669906043
-0.452685818200607049
-0.411186310783373088