/*--------------------------------*- C++ -*----------------------------------*\
| =========                 |                                                 |
| \\      /  F ield         | OpenFOAM: The Open Source CFD Toolbox           |
|  \\    /   O peration     | Version:  2206                                  |
|   \\  /    A nd           | Website:  www.openfoam.com                      |
|    \\/     M anipulation  |                                                 |
\*---------------------------------------------------------------------------*/
FoamFile
{
    version     2.0;
    format      ascii;
    arch        "LSB;label=32;scalar=64";
    class       volVectorField;
    location    "0.209999999999999992";
    object      U;
}
// * * * * * * * * * * * * * * * * * * * * * * * * * * * * * * * * * * * * * //

dimensions      [0 1 -1 0 0 0 0];

internalField   nonuniform List<vector> 
7236
(
(0.723644007306020409 -0.110331471923985819 0.224797639826039231)
(1.11434941168057655 -0.134758135282490255 0.359502493635474152)
(1.23920395107126602 -0.114672536515376178 0.397182080736789345)
(1.4014237888534562 -0.090742031041428875 0.499037484748650062)
(1.55358590250414474 -0.078479952993035576 0.58503610586666277)
(1.68908379525373409 -0.0711873708987825482 0.645337982344524108)
(1.80007985939607251 -0.0712732648702382593 0.676412544385857295)
(1.936326018977095 -0.0765158310352842541 0.689458402565876316)
(2.02687405624085892 -0.0744484169142793362 0.69528263628404785)
(2.04773521885748666 -0.0730929749303765447 0.699980005810020289)
(2.06959970041394925 -0.0757111163765813722 0.686797463096080474)
(2.09514150620065154 -0.0786675223926971978 0.673109623690514192)
(2.125772214521779 -0.0800413281121278436 0.658219890792781204)
(2.15849188287161819 -0.0800904478405216336 0.643049591829376821)
(2.19939928553947039 -0.078542691524443084 0.627207633032276002)
(2.24075976958374401 -0.0753728871295325786 0.6146738528992155)
(2.2808653091178388 -0.0710672937747261341 0.606466779299388303)
(2.32044968784383121 -0.0663792240046002791 0.601289494626271126)
(2.35797841094464289 -0.0617588893939542971 0.599370983378128108)
(2.39156647286010271 -0.0571556922379166665 0.59930648082942195)
(2.41641127207892259 -0.0517396443322827235 0.598974555081771109)
(2.43596504120151014 -0.0469439257802416118 0.597502036829999472)
(2.45388592245954573 -0.0416399200466242847 0.595874603595443419)
(2.45710877740097855 -0.0343280310500630667 0.591549708151185238)
(2.44636843546661487 -0.0267673041883610477 0.584516708636822813)
(2.42580508675617823 -0.0183537342612441826 0.57494715520537043)
(2.37168783352256618 -0.00372434900833866185 0.560430799268717639)
(2.27070174280313708 0.0132902973074108428 0.541759505215729353)
(2.11218292533628782 0.036162173470657144 0.517638925129127458)
(1.87977600310188242 0.0639843832662584933 0.490256820927527925)
(1.58134551034504311 0.0876137089964452442 0.465001578644014646)
(1.23608280644167601 0.0973508844177001925 0.448682176777451869)
(0.867204274884629589 0.0886912042286794461 0.445225931831823685)
(0.533127254414642815 0.0678104208852430002 0.44059705413063377)
(0.296517050475314403 0.0463021974138040707 0.412580149186425271)
(0.170652998479671886 0.0301995912548703137 0.362830170308450273)
(0.0959689671612830586 0.023183025879894438 0.314279228591027637)
(0.0318798209765850937 0.0218593073042410227 0.287649461763871017)
(0.233608981961567985 -0.411061163174305133 -0.113950805017154766)
(-0.204709570156922704 -0.0781518061542270659 -0.506001919527484745)
(0.645312791223618287 -0.125288492224966547 0.000759290848972176552)
(1.16538084547453269 -0.164440360575108885 0.300185628047818731)
(1.35088638259262184 -0.154204313185542091 0.391107254250164349)
(1.39083215434053775 -0.131153221455468094 0.425276803996026964)
(1.35184635924709018 -0.126871489023694828 0.434815431677984643)
(1.24412355098409178 -0.132443607439555494 0.4238848413011298)
(1.14500173321177923 -0.105536712425265661 0.415756174306126214)
(1.06732991579625813 -0.0901470289880282605 0.419649872365344123)
(0.98967911206012249 -0.109767585310196494 0.431403399566383905)
(0.932343848588894408 -0.134649565126277765 0.446761237963935354)
(0.930627284767404972 -0.140484796723279459 0.469222193394849163)
(0.982514977133903455 -0.143306875286346641 0.495871930631798741)
(1.05745671043326261 -0.138042857614009307 0.526718013659634221)
(1.13392592976405138 -0.131454887059038739 0.557489852303242217)
(1.20361399849757977 -0.11980928814190879 0.589690165153924695)
(1.25902090387828847 -0.111364329785292912 0.619626501569707)
(1.29539522033585319 -0.101849354259514691 0.642170313836544993)
(1.31960758694989244 -0.091451691350459427 0.657662772034037668)
(1.34461564405114542 -0.0783718430574379815 0.664249521695224554)
(1.37497478820075658 -0.0726452278953138991 0.661857754787809505)
(1.4130809571195011 -0.0644007304758427851 0.653019201682371264)
(1.45856939410632092 -0.0524203389067446832 0.640415118304111242)
(1.49714230735707243 -0.0409031484802890935 0.625490298805934319)
(1.52998747703685312 -0.0230331958754927575 0.609051015640350801)
(1.55872477133206444 0.00814330310171683565 0.589954314578411632)
(1.55885388054090135 0.0432910405627116857 0.56830648484463997)
(1.52524009227949131 0.0855878479358033878 0.545818858668984164)
(1.45956646376582033 0.13538807282138049 0.521561482665091281)
(1.34997667930378706 0.186380831433435867 0.489846337120350139)
(1.17712275748587003 0.222647242786311261 0.459778924119121135)
(0.938878793446178972 0.230082031103022 0.441434042739546284)
(0.660500740403854647 0.203820989688002274 0.432527611124325195)
(0.405061720150099336 0.156288048966597926 0.417403037516520803)
(0.228935080125509116 0.108308194727893603 0.377047258686208919)
(0.119043653101084265 0.0799134828226935878 0.327049398764251154)
(0.0378304817511723457 0.0696786293759199121 0.291560239461248816)
(-0.193492631461138653 -0.0410829744103757555 -0.826909156482765528)
(-0.260071567207523224 -0.168550841572877169 -0.243340562490651946)
(0.508394389111004652 -0.283262441885622385 0.157808139918224621)
(0.609017512960570273 -0.247953842539293728 0.278094663408060438)
(0.512620498466092811 -0.157822787897934802 0.293881283880433442)
(0.328011018203778038 -0.0597605190043567144 0.248131896139267227)
(0.15708771673718 -0.0134266808594818293 0.23842230527315153)
(0.119658644924762442 -0.010282230930323176 0.267812889403327481)
(0.173743096993634105 -0.00126961651418051186 0.319806480766019363)
(0.262943123902432185 -0.0182628096893819522 0.376336015447409467)
(0.339026687200137511 -0.0496203957687945604 0.417462429389069634)
(0.398485131695549999 -0.0816754748435110783 0.436564147219519694)
(0.455304813644724415 -0.110819534807153577 0.455813023667375028)
(0.514201322302001662 -0.129216691615424067 0.484611433494594179)
(0.568858937712077739 -0.131288405026205784 0.510615672675889254)
(0.619445569666832618 -0.122485560801296467 0.525448108486037513)
(0.664922958301950362 -0.10792036965305643 0.532496111633092406)
(0.698481534319643438 -0.0927509368477561769 0.53196079996064316)
(0.723327468207262569 -0.0793591717252187939 0.522738212598719443)
(0.739400466658059918 -0.0674131070477665406 0.506220326044411029)
(0.750226839006789215 -0.0587172853271245854 0.485973387905798748)
(0.750854182014062288 -0.0543269968535124714 0.462797082337125409)
(0.744969629468430705 -0.0489983591223422943 0.441964167642020733)
(0.744998634735794196 -0.0384789228399115418 0.428632361025789943)
(0.74472364975274441 -0.0265109739114763182 0.420044913648638107)
(0.745801570119930757 -0.00479680523648640805 0.41342202235485731)
(0.75108263046237822 0.0334370923276929022 0.406843727883251738)
(0.742525175470139409 0.0833282999577483335 0.399897143815318878)
(0.718858501599875299 0.142810870518563532 0.394707593144391911)
(0.694197748823148775 0.201741445905517069 0.391874037018941801)
(0.678839562604369284 0.260774592304722774 0.389624390804670984)
(0.648331549848526367 0.31233317111077552 0.384439948511854923)
(0.575735289061218514 0.328914246076059624 0.38273984759218882)
(0.456292436911286792 0.307711650197209752 0.387184041765017584)
(0.315842470891238514 0.252131066050878205 0.381775891437553416)
(0.194011566426018967 0.18660482084683172 0.352676572420781098)
(0.10450713383503947 0.140517791685990712 0.311549872877283751)
(0.0334958944637305731 0.121617407244332967 0.279669707677601631)
(-0.182452834048932283 0.061814401457628454 -0.768029934642832202)
(-0.31569053855586604 -0.125116520253538255 -0.0958122239284640853)
(-0.207627952720003034 -0.208140362979408577 -0.0159063109629764832)
(-0.227478598375899121 -0.0704942941312391991 0.0498057711581188084)
(-0.33128116851965278 0.048101171025404274 0.0926283080792602992)
(-0.280121700483658365 0.0704844215404544366 0.105697825953960933)
(-0.210945871951893016 0.00902620528547733864 0.14447250412458057)
(-0.147641550669515287 -0.0544810806901736278 0.200469199543874987)
(-0.0827950996546184398 -0.0867657702137064196 0.255340038391987101)
(-0.0246918937983672121 -0.100544411681619456 0.29865378943478238)
(0.0294283423511720391 -0.11427231760078839 0.322391391880086697)
(0.0777595781740517134 -0.125246159262125151 0.339288960902968173)
(0.120653064666690457 -0.128912057735542179 0.353552245066447057)
(0.161908158377025047 -0.124718715580045061 0.370243806564530209)
(0.200076671388168481 -0.112978774493375497 0.376630868803586538)
(0.238673762683043716 -0.0953346454702640872 0.383146984863439122)
(0.271737988106909856 -0.0734123739781885609 0.380649020643069158)
(0.2984543001636355 -0.0531863255042088895 0.368489566581300887)
(0.318172887116125569 -0.0336045415724932142 0.351664213572792483)
(0.33229892512452236 -0.0182917104773622427 0.334399947290121624)
(0.338395158023044762 -0.00570207844188711042 0.318593200320885228)
(0.339175462864827415 0.00163569600576828414 0.304016904151526823)
(0.334173466284144627 0.00801527711776545138 0.290372698426814846)
(0.325423001556592983 0.0209289691838989919 0.279324545545362457)
(0.3074442924373057 0.0375909726434969643 0.271296776513665849)
(0.280825150894020048 0.0584194326305313427 0.263702080873047529)
(0.259330817640054945 0.0920608398864224686 0.258211434959062625)
(0.246704358977022364 0.139486799770219744 0.257875902269073254)
(0.237504216294086412 0.192121952032797555 0.264267946306216417)
(0.22503457050438197 0.238559104657267707 0.274674154616972477)
(0.223333824274014936 0.286332141185769551 0.2880423601977109)
(0.237684037967886785 0.332283616157005079 0.301291054002781333)
(0.247181264173281429 0.359519491208274311 0.316710238310444425)
(0.230788362060298985 0.350083059299804433 0.3321910466064803)
(0.188964520367394972 0.302470420359530534 0.335447184854959723)
(0.133841450324173827 0.238912788484392402 0.317281015037801595)
(0.0790786641642532151 0.188284211820854419 0.288063031039466899)
(0.0263335092762630417 0.164658228955155139 0.263814618619515995)
(-0.121346852964565266 0.153185201579916358 -0.92215819410647204)
(-0.383573386764919699 0.0319556337802559473 -0.419844110350913458)
(-0.414026620521724287 -0.0656997968806169313 -0.149575755099847052)
(-0.421402745327135619 -0.0557048233947030486 -0.018902954223127641)
(-0.387626942954389153 -0.0254945008611539362 0.0247175754413496707)
(-0.353292522770172923 -0.0181329258463332234 0.0480355467918595208)
(-0.310306516408043853 -0.0316521523027854176 0.0893922051931588246)
(-0.258485651511405845 -0.0572408263337669809 0.146357654055172287)
(-0.20626593386166972 -0.0726392356621847757 0.192384101935773849)
(-0.158933102943081939 -0.0778063919813388738 0.22462389959756468)
(-0.124019875123654269 -0.0784229662572319408 0.24011105054200757)
(-0.0980141011081221702 -0.0755887016552450469 0.242409928811701675)
(-0.0770277145149683151 -0.0681196292138691456 0.238396875511421663)
(-0.0524943993401532707 -0.0603053390531787317 0.241233119952569131)
(-0.0218356605442822788 -0.0500439165156985749 0.251821760828764507)
(0.00349475051760162955 -0.0351332554220239179 0.252851038892102531)
(0.0221666076194613273 -0.0171251608869739218 0.2447066467120739)
(0.0360701159413035835 0.00093584508492956537 0.23168288750043034)
(0.0485180437752226468 0.0165678479964929889 0.220351722630079017)
(0.0587174218127660061 0.028764890988212749 0.211264906210306191)
(0.0640706802454899804 0.0383663811873227872 0.204359401878317692)
(0.0620396918124312899 0.0458948401042053311 0.19657542930971858)
(0.0563235277924817451 0.0561368514151851308 0.189234365019076478)
(0.0494699784798906528 0.0713347302923696275 0.184336353418167509)
(0.0367140795249787238 0.0872041262445261145 0.181125659569105119)
(0.0173791929104522708 0.104733215010121755 0.178756077452707884)
(0.00125950573974224767 0.133112830586667785 0.178144498103670001)
(-0.00409084873253749703 0.173882706885844562 0.183132874450473493)
(-0.00314740424193385437 0.218260037224269787 0.194859279772496341)
(-0.00351992533613326719 0.255390576181008799 0.209709811316994177)
(0.0022176353663979631 0.29160105127073771 0.226455602051728599)
(0.0252173282706258661 0.329018450481731173 0.245014270058835887)
(0.0588617211694444226 0.354571805864062006 0.266266849750907919)
(0.085756687775257634 0.352704732840276924 0.285768085172965702)
(0.0944532747974336367 0.317783185199012996 0.292748363902098074)
(0.0820745552555988411 0.265798052333536816 0.282056463553691072)
(0.0547171918341285493 0.220511881346159566 0.262645236006483596)
(0.0190721001996320555 0.196605778324996538 0.245440851878665101)
(-0.136517029193209294 0.197342847016199668 -0.960196664959928947)
(-0.426628527346148423 0.074819643481839837 -0.439069295147171357)
(-0.439473750802195195 0.000573824753878736035 -0.179090202273720772)
(-0.436742310484533602 -0.0100567703424337771 -0.0559756542120515427)
(-0.411505383955686865 -0.00708409637477023721 -0.0113015137569721143)
(-0.386390762698295198 -0.014743023303217917 0.0236844453693592187)
(-0.34521378304460798 -0.0320967691327832469 0.0645566689040395908)
(-0.303949621789495472 -0.047899118035043764 0.110279394344854911)
(-0.269031950579703139 -0.0521643359867085959 0.145138169414173734)
(-0.243314644289470305 -0.0456396428639264107 0.162550120614170929)
(-0.225223608581535284 -0.0354777322942715773 0.164456923031239433)
(-0.207413183138451473 -0.0276105551621060076 0.163662267795219335)
(-0.189097332133319196 -0.0208544316424310386 0.162923114651609774)
(-0.169510951980972768 -0.0152073553290449099 0.166875388847962491)
(-0.148955742499254112 -0.00482149811851341481 0.171990949494313317)
(-0.130403252802005154 0.00911166700221148138 0.17328664291736029)
(-0.116221574902900721 0.0237657211973534808 0.167906764767072919)
(-0.106065157522204037 0.0376506297988829161 0.158635074010368943)
(-0.0971638917855052048 0.0493694011858581069 0.150230651167250956)
(-0.0897271561582624055 0.0594302582040994176 0.144472628255985752)
(-0.0841673424846936108 0.0685804192438465021 0.141822155723652199)
(-0.0824181716693054289 0.0777697264623530143 0.139755373393019133)
(-0.0838348423516716013 0.0886661873641652609 0.13707347939209738)
(-0.0879729522834211825 0.103005290800022825 0.135687034103841614)
(-0.0947318509901621947 0.117866252456042458 0.135718856922433878)
(-0.103656694125157711 0.134298983420177348 0.137373282486427412)
(-0.111168469050939647 0.158168021363176259 0.140876487825967095)
(-0.111822738959987261 0.192227079176184951 0.148830184178357777)
(-0.106266875928560614 0.2304430895354454 0.162018815829125945)
(-0.0986532090551420077 0.262944874079699298 0.177331397430917775)
(-0.0872313246049215979 0.291525969338743529 0.193156539671233529)
(-0.0629238332249528742 0.319163666365530785 0.210754774906319498)
(-0.026004093500054011 0.339382782449244302 0.230715098503504579)
(0.0114642650791143275 0.340930166672682444 0.248931959592000041)
(0.038441779335213408 0.316921453408174181 0.256574985072575812)
(0.0463480685793282929 0.277546418647996895 0.25061831815040958)
(0.0356839750251048346 0.241059231764314041 0.238053973027548438)
(0.0131095094271491009 0.220597151523237278 0.226268347693576399)
(-0.151865845979388542 0.217782801718311381 -0.947748551780871029)
(-0.467709456232403675 0.0957536743305573007 -0.406695495198546975)
(-0.463341893318967746 0.0363452472274308838 -0.182872587592644631)
(-0.454873969111426579 0.0129838045167356073 -0.070972169438417651)
(-0.428722522946253015 -4.6188499168424435e-05 -0.0197683503382266347)
(-0.406882662193279898 -0.0130350149477561471 0.022628620540895053)
(-0.377230424675039755 -0.0263023511878889144 0.0611131747166571843)
(-0.349456659929894387 -0.0311083123091229277 0.093674294232917843)
(-0.326676275621242462 -0.02728721498122871 0.114394141813918646)
(-0.308752907400173804 -0.0189106478134797515 0.122861596386146521)
(-0.290884925699136265 -0.010475736756021755 0.126012671109239305)
(-0.271791223080233291 -0.00228314366565771608 0.127000798930894609)
(-0.25279623773038884 0.00491312563438817303 0.126948429917571659)
(-0.234487000054881795 0.0120174156289614854 0.128681231030920024)
(-0.216846244800472043 0.0222204010550472418 0.131433469009389875)
(-0.199778654762001462 0.0353131027438848902 0.132429042430179972)
(-0.184770869565287155 0.0486017216502645719 0.129724713754319931)
(-0.172570520911527664 0.0603601831557036422 0.124311507951533118)
(-0.163073315404517361 0.0699656773164933909 0.118906676352023427)
(-0.155384166610308516 0.0791539430384267106 0.115721393703100903)
(-0.149246123031489264 0.0889213329947307618 0.114693776887870219)
(-0.145092548078190053 0.0993351333832263317 0.114376160392017395)
(-0.143401732044660613 0.110532298897720038 0.113647751524113438)
(-0.14302278198153448 0.1242288151628618 0.114104764470578407)
(-0.14478883381833807 0.138785675584475326 0.116213920101779097)
(-0.148416780193605741 0.154898908010148689 0.119582776250894154)
(-0.152388483431054267 0.175909736279115242 0.124472629849913224)
(-0.153005533039066166 0.204171453004911574 0.132896145582576175)
(-0.140454911908363511 0.236523978770555088 0.145356794493210456)
(-0.126980052136370508 0.265207147472711458 0.159386066361077411)
(-0.109725933154844843 0.288732583398596032 0.173117758117618675)
(-0.0871700025389696986 0.309286337694963109 0.18795758086819403)
(-0.0566712589741755479 0.32460325657689465 0.204456205171113514)
(-0.021350978798884139 0.326996170724540625 0.219288581336241961)
(0.00837457733362275553 0.310671587610899358 0.226165041645954135)
(0.0234205271133855579 0.281855578964629261 0.223140193797871644)
(0.0217704651703085339 0.253991655930768612 0.215208440819680352)
(0.00850581755846275059 0.237515726909148489 0.207193096523996811)
(-0.171605216706139485 0.215362510875055813 -0.967472495374239738)
(-0.503541178634921205 0.09926464535845958 -0.384775289791763619)
(-0.47983281070171252 0.0549165708794627574 -0.183173253017762244)
(-0.473352292158075172 0.0275580312216472251 -0.0762800923483038795)
(-0.44689224663701882 0.010484959691541014 -0.0174495250933344274)
(-0.42596581948935508 -0.00342261351202227324 0.0270411631831554734)
(-0.400612677849440657 -0.0130633802080037109 0.0589683073722658407)
(-0.380725504931514247 -0.0142684950457973962 0.0831794994837795204)
(-0.362146951305249487 -0.00940545470050448834 0.0994749496597384653)
(-0.343577505738362876 -0.00168280531387619142 0.106767918009150461)
(-0.322767157575071073 0.00655645652074434478 0.109606030430747972)
(-0.301676403148013861 0.0141616389122397272 0.111272447344530317)
(-0.281254694360979385 0.0207956003785885156 0.113338095160830904)
(-0.262438404180535712 0.0279113609281592574 0.115780856683250818)
(-0.244690136831812621 0.0379394244054307231 0.117935392846611184)
(-0.227278688691099573 0.0505212622765292135 0.118290600801544465)
(-0.211167243204892635 0.0631646372551649682 0.115875182865909102)
(-0.197713143460682361 0.0740882780448132577 0.11169416179949665)
(-0.187268290584649749 0.0835859843496781219 0.107830601707858006)
(-0.17871513183520249 0.0930880075074495966 0.105757726649040054)
(-0.171490790593199938 0.103259912111765009 0.10482063784017677)
(-0.165931826166624052 0.113980668200533541 0.104312732836138483)
(-0.162648377167278979 0.125485052390194279 0.104059390967267129)
(-0.160869284245201111 0.138911947416996806 0.105166933795813197)
(-0.159808197603598101 0.153307630073417939 0.107832743561564498)
(-0.159320362640307966 0.169059489099864901 0.111471285055374583)
(-0.157606794192051369 0.188156771607208478 0.116382450786313901)
(-0.152998749587810623 0.212015373055585571 0.12396296223980155)
(-0.145167559739837276 0.239099081687502074 0.134646879063317765)
(-0.130425548160829352 0.263976184014569848 0.146664817755654459)
(-0.112198436998077827 0.284065793216967621 0.158365738433646513)
(-0.090948045760702409 0.300558183309635796 0.170500444384285355)
(-0.0646128727109255285 0.31230531005264256 0.183404460603470404)
(-0.0344440732930250681 0.314501680271761175 0.194769861510382641)
(-0.00748643824392081908 0.303339925203815197 0.200462318132870465)
(0.0088002386201251892 0.282639657943876244 0.199204982304795025)
(0.0117860294325434368 0.262001015990745934 0.194349075835459517)
(0.0050263489907252084 0.249102690037842744 0.188929365758414403)
(-0.188590084742785657 0.200492793981284945 -0.983560563552689615)
(-0.533539477054474576 0.103831000875235058 -0.369128150873962502)
(-0.494736879520924377 0.0703350977008944112 -0.183983224924391009)
(-0.493828517622234675 0.0413706239662760752 -0.0762827333359676896)
(-0.467775228291714085 0.0230576378281268854 -0.0137762560336090484)
(-0.444432743787790574 0.00834924964931719853 0.03004715948126567)
(-0.421221826663824017 2.24561651673872709e-05 0.0589162263176070261)
(-0.401348383555765631 -0.00046772986695356282 0.079475098211313433)
(-0.380505702054380557 0.0043040014271323087 0.0931500734248872364)
(-0.357986095444933594 0.0105456455980568221 0.101290175661591181)
(-0.335083109647618449 0.0169600973175016226 0.105764800962377975)
(-0.312776885263174986 0.0237748531970325069 0.108586757103801779)
(-0.291514758921764039 0.0308403387357402067 0.111552139720883139)
(-0.271631898590322995 0.0388424179595177263 0.114214278718449982)
(-0.252659865429876729 0.0490624363365224914 0.11586801974435193)
(-0.234520688383688836 0.0609172434328583909 0.115439685448772367)
(-0.217923907024282021 0.0726076929666134574 0.112729475008988583)
(-0.203914719274820938 0.083246816293102599 0.108863070967757339)
(-0.192739084119474324 0.0932404388711450954 0.105418386142384218)
(-0.183574640731752475 0.103342312197576044 0.103192292006264522)
(-0.175802668678794072 0.113795005053874826 0.101653479466634972)
(-0.169643762654053537 0.124679300949143271 0.100541430780423768)
(-0.165297454394179477 0.136316762282552406 0.100069034267241674)
(-0.161946292352615095 0.149417138866074578 0.100994344056711496)
(-0.158781613452094961 0.163454289419066756 0.103323269458971925)
(-0.156033480990087403 0.17857582476121503 0.106573815106807093)
(-0.15306713785128756 0.196139425874346851 0.110959390008980363)
(-0.147800585379580796 0.21712466004263975 0.117370505983501849)
(-0.139156035159258784 0.240063971043015939 0.126098100660381629)
(-0.124902164595235426 0.261230319598280192 0.135923529430531209)
(-0.107533559108931032 0.278707139882510557 0.145698454518331522)
(-0.0877665704898545895 0.292623566057534312 0.155536043126786289)
(-0.0647264770341084983 0.302003542195816599 0.165463139951838534)
(-0.0393716293190430194 0.304012034950140564 0.174008886053478307)
(-0.0162040889467024371 0.296404284096998649 0.178568224884489479)
(-0.000744018392653835597 0.281735464643819988 0.178332518264355089)
(0.00465503725145856827 0.266737346231855021 0.175467043386454608)
(0.00243883478175255155 0.256796172577589688 0.171820288150091177)
(-0.199818606250702913 0.191947722339811333 -0.962082404259600232)
(-0.556136414520297273 0.113363347965654587 -0.356081572841525418)
(-0.51130842174206359 0.0834725724987956663 -0.182968101525599725)
(-0.515231959602513889 0.0546257792203220238 -0.0737744882823581222)
(-0.486589986162308918 0.0343696122876670299 -0.0107420823877568856)
(-0.461446175133410685 0.0197648240808967063 0.0314780053162372758)
(-0.436826520384642536 0.011740298028101049 0.0586532812077828203)
(-0.414349033792541621 0.0101261566882509969 0.0784467485041900753)
(-0.391313108057228076 0.0129092061171583415 0.092720978836666787)
(-0.36714321911139941 0.0178984592125896527 0.102301093529299683)
(-0.34247569120425625 0.0235400032596341999 0.107879731782906552)
(-0.31770248389474981 0.0298153004339100462 0.111560723623180896)
(-0.294414303787176257 0.0371815063636389553 0.114764859819515314)
(-0.272751861316125943 0.0460904799697754788 0.117113295698195896)
(-0.252485268078297409 0.0567271430783089989 0.11798358702229754)
(-0.23351531026635991 0.0682621965788302865 0.116762729527832551)
(-0.216545376481877577 0.0795477226731742121 0.11359808235729861)
(-0.202293036824634259 0.0902877551008606505 0.109566409708346302)
(-0.190745205085969649 0.100782482744387808 0.105843334512443654)
(-0.18122887563859294 0.111355219260775185 0.102944711668822506)
(-0.17322996720949313 0.122063991848635395 0.100631118028557426)
(-0.166799693480508077 0.133061177459651681 0.0988553889436938754)
(-0.213278683189960294 0.19296786947112568 -0.96407689101274463)
(-0.581052909441484133 0.128870079282919658 -0.350793638398318175)
(-0.534135729721710084 0.0973626789180247476 -0.181180091347691447)
(-0.53914793490661117 0.0665810526238959366 -0.0707052514772212592)
(-0.508114432801206606 0.0439519808581916235 -0.00764984818874075295)
(-0.480323546240907506 0.0285450996156606171 0.033615976215235592)
(-0.452283826509447096 0.019397438906701342 0.0604581755893786599)
(-0.426287933472423497 0.0164862486726366116 0.0803830759772872078)
(-0.399238179600469922 0.0181094171080402079 0.0953129493144987266)
(-0.370926654858182547 0.0222454226164541524 0.105592126959695859)
(-0.342993487473947201 0.027333656786784101 0.112279622134811616)
(-0.316600730156203214 0.0335251188465043523 0.116650688673942085)
(-0.292148856956228831 0.0415031023594772744 0.1197748098908199)
(-0.269498336848115916 0.0511702623600056861 0.121460290381514999)
(-0.248409824795987111 0.0621799393217009055 0.121373887600854991)
(-0.229062834649065239 0.0738022320493424006 0.119251795447785941)
(-0.212015651921310694 0.0852443442014865216 0.115477520429733305)
(-0.197739614438318889 0.0963247974302462867 0.110981896738177044)
(-0.186055815449634038 0.10723447090508928 0.106672585592010399)
(-0.176377817304260665 0.118127370959881864 0.102987331186768408)
(-0.168295290639012607 0.129015983602842499 0.0999073162313519475)
(-0.161706077545377358 0.140061790374943401 0.0974808081254666392)
(-0.229769289662414528 0.202150397890908967 -0.937136213120714157)
(-0.600710408941059981 0.144693487117351499 -0.345015792811146027)
(-0.558479627357534203 0.110455092704321536 -0.17730231955575898)
(-0.561084698379718638 0.0757923473057134645 -0.0680406993005900906)
(-0.526673381120273287 0.0508065067696874817 -0.0050600612300739263)
(-0.49519202884127167 0.0336023566148206526 0.0363864019833171348)
(-0.46317910769663434 0.0233002637217270825 0.0637602038756906742)
(-0.432675748348906986 0.0193808609952465169 0.0841086993174433722)
(-0.40196029625452151 0.0203347521437231352 0.0994127955019021292)
(-0.371498894192740015 0.0239812103082745927 0.110264117317858151)
(-0.342109666762839715 0.0291848360756708398 0.117595037436539623)
(-0.314433362555092633 0.0359209050158742701 0.122316724042338065)
(-0.288841595478912194 0.0446174133684184362 0.12504014957931292)
(-0.26497434984584578 0.0549237196527581489 0.125890010917604461)
(-0.243070195868926253 0.0664366973879232658 0.124755708670128626)
(-0.223406867419636862 0.078425426608284915 0.121681834166928557)
(-0.206380492487142964 0.0902571746011758547 0.117154403817456454)
(-0.192176514807915533 0.101747150990152843 0.111999742468665356)
(-0.180494875515570086 0.112989709763101215 0.10699164268386438)
(-0.170802397773743841 0.124078268987045395 0.102551810999757548)
(-0.162716039058276973 0.135043968010175597 0.0987737916754239942)
(-0.156024265404863971 0.14604167132703974 0.0957404800485941732)
(-0.260151256370021178 0.221408672760029956 -0.888115572533676234)
(-0.6196054334851544 0.160646440720879802 -0.333417934417689299)
(-0.582329068858228438 0.120374968052316123 -0.171319777077386382)
(-0.581701747499605459 0.0807642773343008186 -0.0646766496149667885)
(-0.543170566331719118 0.0533617699184492505 -0.00151298600164698205)
(-0.507360017747369718 0.0347460090623714773 0.0407031024293020988)
(-0.471061392876456875 0.0238899773397498599 0.0684355286459240875)
(-0.437134763204378662 0.0196032496895061775 0.089145136091862226)
(-0.403694207442714836 0.020324501531830852 0.104546551397440277)
(-0.370967800352313137 0.0240388257529060081 0.115565814647823062)
(-0.34011336232697309 0.0297903229752912516 0.123039669838592047)
(-0.310980830211539161 0.0373260164935507247 0.127750547065223402)
(-0.283935252166643226 0.0467473570195585941 0.129970928307774458)
(-0.259158908474397598 0.0578291313739141555 0.129928482491493191)
(-0.236825643773860145 0.070021607436105901 0.127710258020092421)
(-0.217114021331374529 0.0825461549531579103 0.123592267077731521)
(-0.200246488386262578 0.0948346448508988471 0.118181452758882158)
(-0.186221667157599718 0.106688929379843936 0.112268821559278295)
(-0.174677585520274653 0.118155262986101475 0.106548440507181305)
(-0.165091733520686262 0.129323799707828951 0.101423581861502715)
(-0.157069031894986361 0.140266859901385238 0.0970332921692597106)
(-0.150327477742472959 0.151144111883075999 0.0934614013718758629)
(-0.369327610098354076 0.0227486926133294055 0.121055807495341755)
(-0.336678800255787836 0.0292816199715889743 0.128439473290063944)
(-0.306170222263987379 0.0378430016256443083 0.132882761292317186)
(-0.278111139961460585 0.0483451742716523927 0.13448004995677354)
(-0.252700305310183615 0.0603772898679060324 0.133432444065243933)
(-0.230140545664452717 0.0733101530952298408 0.130035170816981627)
(-0.210528787363719494 0.0863889134996199681 0.124796263642517405)