/*--------------------------------*- C++ -*----------------------------------*\
| =========                 |                                                 |
| \\      /  F ield         | OpenFOAM: The Open Source CFD Toolbox           |
|  \\    /   O peration     | Version:  2206                                  |
|   \\  /    A nd           | Website:  www.openfoam.com                      |
|    \\/     M anipulation  |                                                 |
\*---------------------------------------------------------------------------*/
FoamFile
{
    version     2.0;
    format      ascii;
    arch        "LSB;label=32;scalar=64";
    class       surfaceVectorField;
    location    "0.209999999999999992";
    object      Uf;
}
// * * * * * * * * * * * * * * * * * * * * * * * * * * * * * * * * * * * * * //

dimensions      [0 1 -1 0 0 0 0];

internalField   nonuniform List<vector> 
20390
(
(0.928680447332517756 -0.122544803603238037 0.292150066730756719)
(0.478626494633794197 -0.361041069991842656 0.0554234174044422323)
(0.427362919896852766 -0.0818643514583799331 -0.0123542943210662171)
(1.10735557687391473 -0.0791736405107160007 0.194244817432590533)
(1.17159410807976938 -0.124715335898933216 0.378342287186131832)
(0.454819920761827312 -0.0788803167399503985 -0.0732497129460051299)
(0.73453641145165216 -0.10064343951278186 0.148159591184140849)
(1.34908434130140575 -0.0998503013178574789 0.233315522290429622)
(1.31453282546122563 -0.102707283778402603 0.448109782742719454)
(0.942258371147442264 -0.0688719333516355364 0.198970685792880825)
(0.954749846493040177 -0.106751088019758689 0.296632339677302515)
(1.49392002598623419 -0.0913730359041753371 0.301827471803188252)
(1.47867909468474412 -0.0846109920172321978 0.542036795307656583)
(1.28340231716399433 -0.0927178157484120496 0.399611556398234369)
(1.14680917275031979 -0.0905573476058707388 0.433364381191022108)
(1.67554696584915686 -0.0804827201685707344 0.412074908432273623)
(1.62426679058186485 -0.0748336619459090413 0.61518704410559355)
(1.4522361425483834 -0.0984158243762968954 0.488071680058413671)
(1.31464278655069045 -0.0796880828917932438 0.548305126346122162)
(1.83103547615129347 -0.0731304733739830543 0.497064940914647202)
(1.74469905176298123 -0.0712303178845104107 0.660875263365190757)
(1.5399579747971357 -0.0863874889086627129 0.535307393170275425)
(1.45490825428608472 -0.0727023039458473408 0.60770617606086863)
(1.95304243373067488 -0.0682198282478690826 0.555368811486768643)
(1.86559492863740051 -0.0738945479527612498 0.682935473475866806)
(1.57596310932158157 -0.0941644009790616743 0.55561398803192108)
(1.56972194748441352 -0.0715422527773928174 0.651264061848553788)
(2.04283653946707755 -0.0663861387245777146 0.583834553113574795)
(1.98460559376973 -0.075482123974781809 0.692370519424962083)
(1.5902247849805935 -0.10091649914430624 0.556671621933503058)
(1.69260419092806957 -0.0743894279523999308 0.683972299305045994)
(2.13290362103351105 -0.0690058468343354436 0.601153173116047324)
(2.03656913369508752 -0.0737706959223279196 0.69763132104703407)
(1.58593789472631896 -0.0731152063210747799 0.555519405295087032)
(1.77915665592940742 -0.0737025671478432065 0.701557760817050236)
(2.1978208935724477 -0.0684572733091774188 0.607294411492605879)
(2.05727281190696587 -0.0744020456534789931 0.693388734453050382)
(1.55753256732687229 -0.0699813337474199937 0.559814939087682206)
(1.82189214952387002 -0.0729114291057533226 0.728537357493418081)
(2.22423979550665951 -0.0682795233365450921 0.609282078687587214)
(2.08184257594154554 -0.0771893193846392711 0.679953543393297388)
(1.52963940623703643 -0.0936470217384126613 0.559100431331232328)
(1.85757621509132065 -0.0740031273907037351 0.758338017642677498)
(2.24988415586017121 -0.0684561114193181636 0.595618375894379048)
(2.11170854970566024 -0.0793544252524125276 0.665664757241647642)
(1.51374267739477242 -0.107925289768480731 0.559935430827224634)
(1.89299361750753237 -0.0754926327187391832 0.771818636522968227)
(2.27882780702583521 -0.0691298730502482306 0.585838198271490751)
(2.14160094413983693 -0.0800658879763247455 0.650634741311079012)
(1.52819974964459204 -0.110219594852955766 0.563721042093815239)
(1.9311807028946264 -0.0770076488187156766 0.765263917199295984)
(2.31161693483219777 -0.0689633237845039132 0.574720330858073281)
(2.17946983149702245 -0.079316569682482338 0.635128612430826189)
(1.57050343000276094 -0.112571783133376471 0.569460761230587753)
(1.96752580956033696 -0.0778385902659193135 0.75175474730960179)
(2.34571963481584067 -0.0679444585478073543 0.564481978190633615)
(2.22022942807228585 -0.0769577893269878383 0.620940742965745751)
(1.6284279979863665 -0.108992158851436066 0.576962823345955167)
(2.00854670729228735 -0.0778996114955792102 0.733636551890355149)
(2.3821134594620208 -0.0659134090931399325 0.556413261542126003)
(2.26106615853455173 -0.0732200904521293633 0.610570316099301902)
(1.68734284967389803 -0.103412764064370499 0.586081852601228914)
(2.05043739618694065 -0.0766947173214892197 0.71690300768739168)
(2.41728900234033528 -0.0629394303179059145 0.550914917494548462)
(2.30017621829842467 -0.0687232588896631996 0.603878136962829659)
(1.74223965380770918 -0.0958534372114665661 0.598078472226656443)
(2.09168079966882736 -0.0747700141005259028 0.701387041570471048)
(2.45053471694716274 -0.0595359554011768155 0.548790690085759758)
(2.33919244732737885 -0.0640690566992772881 0.600330239002199617)
(1.78973529586105995 -0.0901878555907886514 0.610457998097989063)
(2.13222836150259987 -0.0717990166281712999 0.689305335521235185)
(2.48202846472093297 -0.055925670329947344 0.547945885802676669)
(2.37502199152373006 -0.0594572908159354818 0.599338732103775085)
(1.82668681564024826 -0.0828563032586204645 0.62077064860733655)
(2.17037571906051063 -0.0683599927003077784 0.679452352234370727)
(2.51186940818052795 -0.0526986577444124582 0.549569235331915595)
(2.40467133647048836 -0.0544476682850997193 0.59914051795559653)
(1.85558702990499746 -0.0739447992251209413 0.628484626431729865)
(2.20555639570474282 -0.0645631204857086555 0.669946079250626325)
(2.53916823435990313 -0.0494798273193349861 0.55170577811670507)
(2.42547740761013086 -0.0493417850562621885 0.598238295955885291)
(1.880513458065034 -0.0632229592924790362 0.631612038388497776)
(2.23717174348419867 -0.0598966331470703883 0.658553368555706453)
(2.56137795750761343 -0.0454623782366858145 0.552913714795873812)
(2.44513651874439875 -0.0442919229134329795 0.596688320212721446)
(1.9054699147011338 -0.0590621415426448165 0.629679895808904488)
(2.26426704467184958 -0.0551123467611292772 0.650041749300299232)
(2.57900781302787419 -0.040943716825736387 0.551576800192617012)
(2.45567019773696993 -0.0379839755483436792 0.593712155873314273)
(1.93348343978952331 -0.0502863711299706695 0.624446902638907342)
(2.28555667632533011 -0.0491427480781933892 0.642059385616022493)
(2.59188334651430363 -0.0359336685408241582 0.552020644591293297)
(2.45114603733768632 -0.0305476676192120572 0.588033208394004081)
(1.95783908575364984 -0.0388846845020248758 0.61598241322764824)
(2.29296588697140136 -0.0413407568127408531 0.631716137812640244)
(2.59108723929739915 -0.0292100441179948545 0.549422744499226789)
(2.43690060456834301 -0.0225605192248026463 0.579731931921096622)
(1.97175537141184387 -0.0298161165731021631 0.605003503721378566)
(2.28245942296260074 -0.0331928827659288897 0.618070391843049127)
(2.57776985147617888 -0.0219618587944491531 0.544192678198833768)
(2.39944645146523783 -0.0110390416347913699 0.567688977237043924)
(1.97789628189651578 -0.0138849490239806271 0.591999085422860616)
(2.26518887535170865 -0.0247541429489094057 0.602117668553245555)
(2.54882641327850656 -0.0128793957748814837 0.53689346614656619)
(2.31904884604511219 0.00478297414953624163 0.551095152242223385)
(1.96520630242731564 0.0130645910160323807 0.575192556923564635)
(2.20858746242080617 -0.00904889647468111458 0.581073553976484192)
(2.4884827503125666 0.000785069342573343609 0.526804886968921582)
(2.19068981758674441 0.0247262353890338911 0.529699215172428461)
(1.91477781167201888 0.0398161864626902992 0.555032995030184662)
(2.09828022362001132 0.0116333316368773861 0.558939298604000934)
(2.38617097648573839 0.0162472876124891003 0.510212289789689244)
(1.99662173250957342 0.0500732783684578187 0.503947873028327664)
(1.81871150880788957 0.0760757000626503532 0.531728891899055811)
(1.93036054325364592 0.0371004390259513303 0.530653883197958587)
(2.23289689557987492 0.0368061075808242266 0.488736639082635371)
(1.73039322122176564 0.0757990461313518687 0.477629199785771286)
(1.66967123343385149 0.118210909280133239 0.505909151796309575)
(1.68400769397497285 0.0671394379111699968 0.496670887051522569)
(2.01930338761371209 0.0583037000752563428 0.466863495525930761)
(1.40535011834287404 0.0924822967070725727 0.456841877710733424)
(1.46566109482441509 0.152583026177832759 0.477423957882182393)
(1.36132120854193794 0.0906967056346032197 0.465976016233400014)
(1.74589460696946519 0.0796891454376395247 0.446098106653931403)
(1.0485045370486632 0.093021044323189625 0.446954054304637749)
(1.20660278196377302 0.169248087805287883 0.45423055044828653)
(1.00547345006453037 0.0939152126230915901 0.450029590691777115)
(1.41900850981705728 0.0923197179198584766 0.431679136171560451)
(0.70183798257118124 0.0782508125569610358 0.442911492981228672)
(0.903041534165404225 0.16245533965281142 0.443329987285685012)
(0.665140748287273653 0.0792197185111297858 0.449564803668760449)
(1.05284504437234538 0.0897914567181997275 0.4278075617445391)
(0.420302233916622248 0.0570563091495237262 0.426588601658529742)
(0.596813997409248564 0.134761565738468703 0.43656233262747951)
(0.397129013509409545 0.0578394082541464072 0.439104918598779481)
(0.693423447301076967 0.0743915723582789512 0.427090460633932467)
(0.237429861198875047 0.0382508943343374055 0.387705159747438188)
(0.350789385312706981 0.0982750516065934304 0.414991593351473065)
(0.225612570270766394 0.039051608331003955 0.398999795239779353)
(0.399987717336310222 0.0544480169382864018 0.412675073775444545)
(0.134714911026749651 0.0266913085673823117 0.338554699449738539)
(0.199794039302590543 0.0658936883950799746 0.369938714497329624)
(0.13560640247985728 0.0265982778324756995 0.343819977087516104)
(0.219693690463139468 0.0356041355784254138 0.372889454679950605)
(0.0646946998155999015 0.0225211665920676957 0.300964345177449188)
(0.107506310131183655 0.0493988696418643444 0.320664313677639368)
(0.0782315011802674209 0.021317320717493031 0.297814287462227656)
(0.118013293730018398 0.0256725703156237377 0.326588729805752265)
(0.0348551513638787197 0.0449094215807354855 0.289604850612559916)
(0.0261736993648739695 0.020292610263157887 0.273770387729381948)
(0.0386888741553700899 0.0234865377144156222 0.298891531792134235)
(-0.021311171420525736 -0.244606484664266877 -0.309976362272318839)
(0.0200581752502149262 -0.158054910791969289 -0.470429980749959731)
(0.0972711417169103976 -0.196269874592498006 -0.390061848260119637)
(0.622393420737343162 -0.293119297424414449 -0.00538784211407102726)
(0.270689820620226951 -0.101720149189597139 -0.252621314339257441)
(-0.232390568682222937 -0.139613499254610862 -0.374671241009068456)
(-0.233822090163949586 -0.0348408700764202203 -0.414623785262386413)
(0.649394692533717954 -0.144362154356659389 -0.244065995918980094)
(0.886758180881294655 -0.144864426400037549 0.150472459448394796)
(0.576853590167311525 -0.241910094557006516 0.0792837153835983521)
(0.186500533870989166 -0.0712871457293967198 -0.153282453736132002)
(1.29091264990164212 -0.172801497318042174 0.116695899712883869)
(1.25409292397853411 -0.159322336880325571 0.345646441148991124)
(0.887199179217551981 -0.228683214074829083 0.289140145727939613)
(0.616730497412499745 -0.101392963365947816 0.21662545932564109)
(1.63630278671400919 -0.196387183018463723 0.312044481601122137)
(1.37388752684498905 -0.142678767320505162 0.408192029123095657)
(0.931753440529357269 -0.151551635090921649 0.342494269065298895)
(0.892555537322571202 -0.105356289127305963 0.368141199556342225)
(1.73965304485228622 -0.182405525077542291 0.381678992153251295)
(1.37288796700335025 -0.129012355239581461 0.430046117837005692)
(0.859421586272157478 -0.0893716994916015223 0.336704350067646985)
(1.00464054057970054 -0.0931235036182325449 0.410691817926711888)
(1.73614351670519018 -0.160093139253193018 0.403737651682125553)
(1.29848156406504067 -0.129657548231625175 0.429350136489557221)
(0.754467037992135214 -0.0620947170999605266 0.3366188684755681)
(1.02112098246708594 -0.0844341809920227115 0.418938229647536076)
(1.67734592670261318 -0.148587783504981641 0.408683450513767088)
(1.19282235753141452 -0.118990159932410758 0.419820507803628062)
(0.681891097954426928 -0.0572067238246224616 0.34584886535222864)
(0.960661501147466179 -0.0815040087373066213 0.412749898357307077)
(1.57340432198505109 -0.144854112454042588 0.394524178075549015)
(1.10618890172677053 -0.0978418707066468912 0.417703023335735169)
(0.659372415102706722 -0.0410149860927159424 0.367781327536072788)
(0.880885139502621706 -0.0616410118711351526 0.411968237782188829)
(1.47887879088796481 -0.126506121766129881 0.389548715871714191)
(1.02899368592345963 -0.0999573071491124815 0.425526635965864042)
(0.66513651984934552 -0.041716364080719999 0.397992943906376795)
(0.815687984288624435 -0.046127547636572605 0.420984076082261183)
(1.41237334676579773 -0.113851221418848972 0.400333455978097719)
(0.960840896761863683 -0.122208575218237026 0.439082318765159574)
(0.66435289963013 -0.0650109086242630502 0.424432914477726797)
(0.760663933733444098 -0.054845515469117985 0.432230300509655274)
(1.36506814112269481 -0.116809589684727419 0.421362315311598457)
(0.931921007329131967 -0.137567180924778654 0.457991715679392397)
(0.665414490142222093 -0.0975125169540404096 0.441662692591727524)
(0.701880628393703132 -0.0746564267181566849 0.443437342749305186)
(1.33328391900742727 -0.127222149488753156 0.435354776228291551)
(0.957044598445698447 -0.141895836004813036 0.482547062013323869)
(0.692966049206064527 -0.121178324820161692 0.462517608531112068)
(0.689086610298599966 -0.0913772834995616873 0.453693006558334611)
(1.33390181187686951 -0.127392975341863335 0.456906457324928073)
(1.01964066695725308 -0.140674866450177988 0.511294972145716398)
(0.748358149717952559 -0.134981799013059539 0.49024168206319646)
(0.721287040361420884 -0.106485777438640697 0.466392010359157949)
(1.36815017003841932 -0.124794164329677701 0.484174067920957574)
(1.09532780049754375 -0.134748872336524023 0.542103932981438219)
(0.813157824072670121 -0.1342687701619448 0.518666843167761682)
(0.780387699920231714 -0.115405236799016542 0.490052438820092029)
(1.41867292133530265 -0.117802622157938491 0.515190990638754842)
(1.16860418964369472 -0.125632087600473785 0.573590008728583345)
(0.876685749715441998 -0.126378845577828358 0.541468980394639865)
(0.845862471500398616 -0.11597443038418502 0.517202611844246984)
(1.47419099714063906 -0.110860239058521673 0.54455186258877597)
(1.23166090454438248 -0.115586808963600754 0.60465833336181618)
(0.934268478399765234 -0.112809808460433633 0.561093138393508606)
(0.910687818195947907 -0.112392064423064292 0.544336136166989837)
(1.52357124882065254 -0.103131606961996178 0.573483761926921853)
(1.276934827283839 -0.106606842022403808 0.630898407703125996)
(0.978751219098966008 -0.100736910249705672 0.57579365076517508)
(0.968376517194025288 -0.107550781008389454 0.573509551203997714)
(1.56224047242257935 -0.097550027109745599 0.597687734419676153)
(1.30745835560385237 -0.096650522804987149 0.649916542935291219)
(1.0093613442715581 -0.0880633811179313691 0.582454263217632273)
(1.01176643400510846 -0.0996494125333955288 0.597433109206776614)
(1.58752132571179105 -0.0945623772523719042 0.617543385528626421)
(1.33211024664698319 -0.0849117672039485932 0.660956146864631222)
(1.0295040268039759 -0.0775972709939774935 0.581941549039224237)
(1.04506539847564039 -0.0895396290708834336 0.614476079022606814)
(1.60440435985372587 -0.0911071876120746887 0.631824631727903707)
(1.36020137924870155 -0.0755085354763759126 0.663053638241516974)
(1.04742124152896743 -0.0680835311359215406 0.575111454800511734)
(1.07609085923277048 -0.07778276256304896 0.62113698010739915)
(1.62317013378140618 -0.0845412425619582464 0.639508884018561319)
(1.3940336752863316 -0.0685229791855783005 0.657438478235090384)
(1.06291448510740971 -0.0652025175488592096 0.562327418562467596)
(1.11296658456926689 -0.0685635873719624284 0.619118956876821502)
(1.64843047370225748 -0.0792893570005858278 0.640672852247412106)
(1.43568846646859138 -0.0584105346912936821 0.646717159993241197)
(1.07902529329396568 -0.0618851102324642147 0.547491684662195999)
(1.16644715984551572 -0.0567017129709803669 0.615384369026752864)
(1.67965617356629426 -0.0725257662447121865 0.63384325411342457)
(1.47839423040976858 -0.0466617436935168398 0.632952708555022725)
(1.10178401442105778 -0.0517309104426946151 0.534523739664950592)
(1.22848363536499483 -0.0406308313214571309 0.607728494614974801)
(1.71433059954940625 -0.0617723145352104194 0.624742489914222099)
(1.51418304227038258 -0.0319681721778909342 0.61727065722314256)
(1.12093297855490848 -0.0387089895710981471 0.522767606227286241)
(1.28055460105503349 -0.0270913961979609916 0.595745403716853805)
(1.74198127405457237 -0.0506589588208855163 0.613748280185744233)
(1.54355484562477163 -0.00744494638688811446 0.599502665109381327)
(1.13789452357839105 -0.0184881091504814285 0.511236518997603806)
(1.3205872174412856 -0.00696042040988724235 0.580668761616192408)
(1.76551444202144125 -0.0323638939256728417 0.600833480404089348)
(1.55875548289255916 0.0257171718322144159 0.57913039971152569)
(1.15490370089722139 0.0167135164310269028 0.498399021230831685)
(1.35357677760855277 0.0280847224083568756 0.562122448730593027)
(1.78490968591419197 -0.00458572143909397045 0.584619500771252021)
(1.54189326161071905 0.0644394442492575437 0.557062671756812122)
(1.15068952800552049 0.0610614104396170823 0.484101814329979452)
(1.36045714792374639 0.0678785628587016132 0.540997214739363685)
(1.77596558531045723 0.029144741831615556 0.566623595605530217)
(1.49151062542243706 0.11048796037859239 0.5336901706670375)
(1.12204929693968336 0.114886542772936265 0.470263225906688065)
(1.33661869707694381 0.111361643074546629 0.518936780302597933)
(1.73232724117762427 0.0685857511838710021 0.546173492874670652)
(1.40363272048524723 0.160884452127408178 0.505703909892720738)
(1.07688210629448511 0.174194809358978964 0.456717759842016624)
(1.27911840818932321 0.161830170846053112 0.496349018211036941)
(1.65640018888465157 0.113094810859472983 0.520436021811707117)
(1.26105723989782526 0.204514037109873786 0.474812630619735498)
(1.01440812095407762 0.234713998926784351 0.439735363962510506)
(1.17363340416279782 0.207237109328699765 0.468049996481542163)
(1.53773836217872284 0.163603489898091342 0.489733053248912753)
(1.05501227041242474 0.226364636944666686 0.450606483429333571)
(0.912727153667198143 0.280290699666634724 0.422109436315488029)
(0.99532799043970599 0.226483744230863177 0.44452785489301555)
(1.35706137046781872 0.207562277508371917 0.460564092193506969)
(0.800093132076122204 0.216951510395512137 0.43698082693193574)
(0.757307041253698743 0.29183572270531255 0.412086945165867524)
(0.75382950768287893 0.215385077775889944 0.435532360827483644)
(1.11060863260327114 0.228862628906868787 0.439369066131963526)
(0.536974344081384225 0.180054519327300933 0.424965324320423332)
(0.558396588657570803 0.265778570553846294 0.409855826444671389)
(0.506848552308357236 0.179473177051917426 0.429642152090275953)
(0.817086814600612166 0.217353204231635122 0.428551294261530491)
(0.321380728660985271 0.132298121847245681 0.397225148101364889)
(0.360452095520668869 0.210984106530802018 0.399589464477037082)
(0.307390987231496826 0.13338933915041562 0.406112719489929608)
(0.524714787183326203 0.177522685498536587 0.415930103207685364)
(0.176408820366170283 0.0941108387752935399 0.352048328725229787)
(0.211473323275764069 0.151178927219762643 0.364861915553495009)
(0.177315857911785946 0.093834926324567608 0.358339711334677791)
(0.299295761616233058 0.126276553716716367 0.383930675655370646)
(0.0798110006681727741 0.0747960560993066736 0.309304819112749541)
(0.111775393468061854 0.112477019347672277 0.319299635820767425)
(0.0950566453759822683 0.0717751419831117454 0.309093561111845827)
(0.151748620479749685 0.0905726276866688773 0.338644316161599124)
(0.0356631881074514628 0.0974692543069642786 0.285614973569425223)
(0.0307807866612516343 0.0638343127540379751 0.277504078720805958)
(0.0468706755028859695 0.0763376786742148566 0.30280617177270136)
(-0.273185262992543865 -0.104816907991625602 -0.535124859486712623)
(-0.187972732755035454 0.00656969822673365064 -0.797469545562798809)
(-0.150631541446612977 0.00736479708397513172 -0.532907815456772793)
(0.435040878114670959 -0.106880974538174883 -0.476842655327308018)
(0.172530495174001597 -0.225906641729249791 -0.0427662112862136623)
(-0.287881052881694632 -0.181556930955181967 -0.16957639320955803)
(-0.265623124308441927 -0.0894308323767470797 -0.376026764072021236)
(0.655843247798027607 -0.198298406499402946 -0.0142008669983949148)
(0.543148025480237662 -0.265608142212458209 0.21795140166314228)
(0.15038321819550135 -0.275747887207912878 0.0709509144776242079)
(0.105293994037884309 -0.182597563943819596 -0.0965415288322621912)
(1.07752995152230446 -0.283648287579400193 0.206374807682071948)
(0.562100826945999832 -0.202888315218614307 0.28598797364424694)
(0.190769457292336242 -0.164279630086655637 0.163950217283089811)
(0.212922046689902916 -0.184644882637792496 0.154556834310775854)
(1.06880946325132653 -0.25964374079057273 0.30230613513774085)
(0.421611537647851142 -0.10879165345114572 0.271006590009850334)
(0.0906696649732198212 -0.0477572829580252059 0.193254795979846822)
(0.181296872094236589 -0.118140569094146608 0.225374894320237301)
(0.908561344422692208 -0.189074162596601536 0.292460895171408219)
(0.242512610674249923 -0.0365935999319194766 0.24327710070620942)
(0.0239446588600600307 0.0175615877697563594 0.176914861046614136)
(0.0731970380925609232 -0.0400479871866359152 0.223067267274505987)
(0.707361875292374265 -0.112228909724444631 0.25782034188711983)
(0.14139677371479531 -0.0118544558949025096 0.253117597338239575)
(-0.0269290776073564941 -0.000109817810797138097 0.191447404698866064)
(-0.0227058153368465132 0.00439381977108775027 0.235586869056910675)
(0.54197584779223662 -0.0655786779905420114 0.258428459694198975)
(0.145609755686573805 -0.00577592372225182484 0.293809685084673533)
(-0.0139914528723763254 -0.0495144619743726339 0.234141044473601262)
(-0.0203626010562229266 0.0184284229913379352 0.25973031282819381)
(0.490928497870000313 -0.0510990028675939387 0.279317188603208866)
(0.216725696589424227 -0.00976621310178125458 0.348071248106714526)
(0.0454739986695077633 -0.0732619858547766678 0.287573259579003204)
(0.0336427205994255102 0.0239092516533898729 0.306660949196174371)
(0.523147738554516128 -0.0450162038264219355 0.313274809099977791)
(0.300654885745092804 -0.0339416027290881939 0.396899222418239439)
(0.119125615052032549 -0.0841975550424067798 0.337494902441095923)
(0.115377978326332453 0.00883159744164349961 0.362427657806479564)
(0.582038246160041739 -0.0589820879683393348 0.361395344386555295)
(0.36958311600706989 -0.0656479353061528853 0.427013288304294691)
(0.18422751477565466 -0.0978177582455213163 0.36992691063457811)
(0.194488097089915324 -0.0111563819312210013 0.398780955866217035)
(0.630860690988892081 -0.0814358937992790688 0.402100536804273878)
(0.427722281659366266 -0.0962475048253323973 0.446188585443447416)
(0.238122354934801023 -0.116208160507264624 0.387926554061243989)
(0.257719161153155518 -0.0336982050949850634 0.408832294664275009)
(0.670263034569349103 -0.104072693410359393 0.42958298720210969)
(0.485188670387877441 -0.120018113211288857 0.470212228580984659)
(0.287978939155707325 -0.12949833504760494 0.404682634366910987)
(0.309278119520181527 -0.0645033419054243246 0.413557010493330934)
(0.714153969839453007 -0.122170812579847354 0.454382112991142617)
(0.541052744282915055 -0.130252548320814926 0.497613553085241689)
(0.338054740339513327 -0.133298560240626418 0.427427620029562194)
(0.354757407944789716 -0.0868301027727058361 0.426683852032999689)
(0.767298161114614907 -0.132848023993489106 0.48591432794060252)
(0.594036125296711792 -0.126886982913751167 0.518031890580963328)
(0.384467804550123082 -0.126442400783649794 0.443623270739737896)
(0.398279148086228718 -0.0925629160507398796 0.446462825536909025)
(0.819137425995145163 -0.135343870120555765 0.515102754718416711)
(0.641604269700072893 -0.11520296522717656 0.528972110059564904)
(0.429059666174938292 -0.112294483284223534 0.454297546674738373)
(0.441567003717245998 -0.0880458548977041677 0.45922902818398087)
(0.865715202232218317 -0.130394834429631595 0.534971611772202427)
(0.681971872731376161 -0.100335653250406276 0.532228455796867728)
(0.468330473204429665 -0.0921259769482474095 0.456572566138080616)
(0.483833298953968149 -0.078561611417493793 0.467333014909803002)
(0.903613275076761702 -0.122140660202500195 0.549071349100008654)
(0.710909063112373674 -0.0860550542864874229 0.527349506279681246)
(0.49846791724163908 -0.0732633830927545832 0.450225183270971885)
(0.5180870939864608 -0.0665865090045672514 0.467769726923582263)
(0.929749635619853021 -0.11161478492076235 0.551653598364575504)
(0.731495714538666131 -0.0733861393864926603 0.51447926932156518)
(0.52075017766169418 -0.0566831688194376349 0.437201213085755991)
(0.545879315207417171 -0.0542426691052586146 0.461122201344848381)
(0.946804296919437238 -0.103501756626617786 0.544468172098308112)
(0.744417651616526066 -0.0630651961874455214 0.496096856975104805)
(0.535849695891291278 -0.042771033058573403 0.42031013666726641)
(0.566677602071418152 -0.0444538081097964888 0.447077789586343588)
(0.954220860335186383 -0.0962097857616659724 0.529654369577560624)
(0.750783761521397586 -0.0565221410903185492 0.47438523512146219)
(0.544310998514916933 -0.0320970388965715822 0.40228329411334196)
(0.580724247353953005 -0.0376200091724230926 0.431262931146387363)
(0.959278202411056102 -0.0891144894230269241 0.509607185979238264)
(0.748947343724569614 -0.0516626779879274731 0.452380624989573321)
(0.545014822439444657 -0.0250292781201840488 0.383406993244326033)
(0.58566098877028816 -0.0340276102856230805 0.412054858397346568)
(0.958656026411821571 -0.0832385475518238604 0.490570305132368323)
(0.746022291412684946 -0.0437386409811270083 0.435298264333905449)
(0.539571547876288027 -0.0193155756681889917 0.366168433034417928)
(0.584169234848857521 -0.028374142210484888 0.393004381162571914)
(0.955828725692871251 -0.0758618264905679407 0.475222283403592904)
(0.745241266931559565 -0.0324949483756939855 0.424338637337214053)
(0.535210818146193312 -0.00711413079378038146 0.353978453285576089)
(0.584958634416637757 -0.0184033833794973699 0.377654375094997607)
(0.957953242551936923 -0.0618924169224542298 0.466108192778891373)
(0.746230444189329822 -0.0156538895739810821 0.416733468001747598)
(0.526083971095024916 0.00627245079470398984 0.345670845081151923)
(0.587769741545308255 -0.00469944927918959296 0.368241971065467466)
(0.960593191243058309 -0.0465086262978335468 0.459193377087474708)
(0.747602906359039365 0.0143201435456032471 0.410132875119054496)
(0.513313360506975846 0.0256564934118367234 0.338562051613952586)
(0.593348845097233291 0.0216524046877350704 0.362711157229974435)
(0.963035871074813365 -0.0242370776825269578 0.452370768548505386)
(0.745993350514280285 0.0583826961427203681 0.403370435849285336)
(0.505206724051216249 0.060254141954436076 0.33252758142115707)
(0.596379378343108169 0.0623832625387392564 0.359141174022634291)
(0.969188011436605823 0.00993727494724043307 0.444609656384425067)
(0.730361590975482367 0.11306958523815594 0.397302368479855395)
(0.494614767223581053 0.110103466628080196 0.328886523042196122)
(0.585418584580558066 0.111785507209750057 0.355150901046597633)
(0.962734513846281725 0.0570226462658300071 0.437599603639981127)
(0.705221999886778028 0.172276158212040564 0.393290815081666856)
(0.478181358946980883 0.165112595996620037 0.329487769725304136)
(0.567485058399782472 0.16577051112590771 0.354053145433428917)
(0.934779149498102813 0.11472691739658479 0.429361889936084984)
(0.684087198361536086 0.231258019105121032 0.390749213911806337)
(0.459616159663765345 0.215205596581858449 0.333274095817957139)
(0.558861636325504674 0.22321392228079262 0.357614423061322184)
(0.892287861442532693 0.173519544126144593 0.418497590268070263)
(0.660298599594906888 0.286553881707748814 0.387032169658262981)
(0.451086693439192055 0.269047100117880467 0.338833375501190914)
(0.565197835233578139 0.276198158193488141 0.362590313039807544)
(0.846242143388846957 0.238271385202522917 0.407464555202504075)
(0.609285337189512277 0.320623708593417767 0.383589898052021872)
(0.443007793908206104 0.321310675217310437 0.342865501257318017)
(0.540474842494461316 0.312245413367444158 0.365518738023273448)
(0.789941670156800502 0.299072074179503211 0.396542065135959632)
(0.515767629304031194 0.318312948136634799 0.384961944678603174)
(0.411458276617249652 0.346722655146688818 0.349725042951316567)
(0.464436531264261265 0.309848953036807595 0.373117552206787439)
(0.700244260678180463 0.332218323083917799 0.389369945258421946)
(0.388721359649777942 0.279921358124044062 0.384479966601285472)
(0.343540399485792569 0.333008780845128916 0.359687544185748886)
(0.354400281490175217 0.274565532427008041 0.380654161143486491)
(0.566317257287496378 0.327698550288772317 0.388063846509316357)
(0.259480859537870645 0.219367943448855324 0.367226231929167368)
(0.252403495629316854 0.281557433930978651 0.358611538146256625)
(0.241577396546879347 0.217919036514691661 0.370543748418311725)
(0.404587127698343041 0.282526461306364385 0.382444753782126556)