<?xml version="1.0"?>
<VTKFile type="UnstructuredGrid"  version="0.1"  >
<UnstructuredGrid>
<Piece  NumberOfPoints="405" NumberOfCells="1536">
<Points>
<DataArray  type="Float64"  NumberOfComponents="3"  format="ascii">0.45 0 -0.2  0.475 0 -0.2  0.5 0 -0.2  0.525 0 -0.2  0.55 0 -0.2  0.4513295029148857 0.02580720481988355 -0.1998788208099121  0.4758737319770637 0.02525389121359262 -0.1999587061118389  0.500651439296859 0.02500383543648371 -0.20010367378978  0.5255916096302221 0.02476129255933736 -0.2002850000912321  0.5506901189772957 0.02428444688886604 -0.20046777427635  0.4520866750724449 0.0511730420110861 -0.1999012645258235  0.4767490079252274 0.05054220182197088 -0.199998774288893  0.501528712996505 0.05008441624493178 -0.2001549845967941  0.5264577186054331 0.04963550657778631 -0.2003276537311175  0.5515081986591547 0.04898397665924296 -0.2004982089900762  0.4527836785814281 0.07639094142920858 -0.1998884039436528  0.4775580707165992 0.07574072514776435 -0.2000131312740734  0.5023988161727868 0.07515770994742516 -0.2001652262415777  0.5273381954036346 0.07456783771975956 -0.2003199997470704  0.5523515305780626 0.07385187114682894 -0.2004702215529663  0.4534498412682298 0.1015037501112464 -0.1998506283972626  0.4783008384109104 0.1008495576488671 -0.1999961939992113  0.5031984378488793 0.1002019513179553 -0.2001541284484068  0.5281536488419617 0.09953660507619636 -0.2003071730396646  0.5531481019974154 0.09881094959364796 -0.2004558761914868  0.4540719815463954 0.1265559460168954 -0.1997921821827617  0.478987731273251 0.1259035917405116 -0.1999649028903647  0.5039270707640667 0.1252234760870561 -0.2001375534279417  0.5288959109669824 0.1245254509366337 -0.2003027139995605  0.5538830094934099 0.1238111792843744 -0.2004653871799414  0.4546851897537018 0.1515743526962282 -0.199737557885569  0.4796411923867295 0.1509182566099282 -0.1999339545837296  0.50460927441806 0.1502293975735135 -0.200123948663242  0.5295880142827237 0.1495234635783554 -0.2003067339248746  0.5545736815367382 0.1488212493445312 -0.2004898827493751  0.4553234389424724 0.1765807489065375 -0.1997073975663031  0.4802963924733328 0.1759176893869746 -0.1999144357725784  0.5052778214029878 0.1752287640339854 -0.2001161350421364  0.5302625619039204 0.1745247006495993 -0.2003134785171958  0.5552497466485028 0.1738267011429821 -0.2005142795788479  0.4559828707820402 0.2015841739127395 -0.1996953785504842  0.480964895180211 0.2009141234720555 -0.1999047243054154  0.5059587482284524 0.2002256534321757 -0.2001120311649124  0.530948836212577 0.199524346332457 -0.2003173055258997  0.5559362065992107 0.1988249154571234 -0.2005262583004008  0.45 0 -0.175  0.475 0 -0.175  0.5 0 -0.175  0.525 0 -0.175  0.55 0 -0.175  0.4513363599269515 0.02582255661731356 -0.1748898049963669  0.4759575498922379 0.02527163080526589 -0.1749729914917953  0.5007527429082548 0.02504143236010642 -0.1750715883137364  0.5257110130062761 0.02482946983644059 -0.1751893031302597  0.5508574530515525 0.02435642496755323 -0.1753077399177097  0.4521489836952511 0.05119371963104318 -0.1748685826748667  0.4768651658955437 0.05055754054153017 -0.1749885287594971  0.5016677348839713 0.0501050338343599 -0.1751221181053484  0.5266071710012928 0.04965749611171289 -0.1752647163615762  0.5516738370641437 0.04899372454508005 -0.1754049859964527  0.4528862224368507 0.07639548659628423 -0.1748441461011852  0.4776986650790768 0.07574120636947118 -0.1749900841593631  0.5025523721800292 0.07515948309755739 -0.1751368900598482  0.5274945413383362 0.0745657670667995 -0.1752843754079296  0.5525082507384957 0.07383995482231141 -0.175434303399714  0.4535859017312689 0.1014959946790229 -0.1748051142266018  0.4784622389293948 0.1008379730934299 -0.1749723671309671  0.5033642388505322 0.1001941289467923 -0.1751325193793059  0.5283173008705958 0.09952966865244037 -0.1752890267065185  0.5533075788844534 0.09879859279001162 -0.1754498597241199  0.4542405320709778 0.1265397679971935 -0.1747576606607815  0.479167780417843 0.1258868376995851 -0.1749451716379981  0.5041067018327136 0.1252136179000338 -0.1751224503468497  0.529072143515178 0.1245207818504691 -0.1752943108664729  0.5540558489525286 0.123804011088397 -0.1754705280419325  0.4548806825358487 0.1515605146134034 -0.1747159305834229  0.4798385264654533 0.1509040478191056 -0.1749205686935282  0.5048033987706232 0.1502212071060337 -0.1751145293018261  0.5297793197480797 0.1495212961571426 -0.1753032033977188  0.5547644721725561 0.148818047089773 -0.1754962468831058  0.4555319693110054 0.1765715620445318 -0.1746919127213605  0.48050484394459 0.1759085487959051 -0.1749067426765987  0.505483235034875 0.175223023073842 -0.1751114544147001  0.5304666243875871 0.1745228438637921 -0.1753122657667524  0.5554558874432456 0.1738243029159123 -0.1755188385311356  0.456191395347096 0.201575247277273 -0.1746894539174875  0.48117783902097 0.2009079918836425 -0.1749061430931665  0.506169155950793 0.2002213000401231 -0.1751125605105341  0.5311589818724836 0.1995215122055307 -0.1753157391365836  0.5561498432351655 0.1988220675462834 -0.175526804706071  0.45 0 -0.15  0.475 0 -0.15  0.5 0 -0.15  0.525 0 -0.15  0.55 0 -0.15  0.4514669451732047 0.02585150142078777 -0.1498937336167766  0.4760360646759271 0.02527321826830217 -0.1499812037504158  0.5008105244097807 0.02504719506621229 -0.1500515139685676  0.5257697376983415 0.02483948856596084 -0.1501306770352436  0.550942510296012 0.02434547782159149 -0.1502102275884079  0.4523185036780384 0.05122548514912958 -0.1498407577499346  0.4769987862321761 0.05056848549154252 -0.1499724706800758  0.5017828728599671 0.05011474283469591 -0.1500883790514948  0.52672474964843 0.04966876602369633 -0.1502074891383671  0.5518065715663215 0.04898809676994572 -0.1503266193281861  0.4530784868419885 0.07642789999688804 -0.14979984937298  0.4778668170299356 0.07575600363039327 -0.1499626059820679  0.5027072477821704 0.07516787698128852 -0.150104182512303  0.5276483457050227 0.07456904327445628 -0.1502451733785715  0.5526648908775271 0.07382950870019504 -0.1503915806900873  0.4537951128931552 0.1015236764884426 -0.1497588636823552  0.4786534937076677 0.1008514029983183 -0.1499436204481207  0.5035448291756642 0.1001990518738932 -0.1501063607516404  0.5284942925452148 0.09952633909141712 -0.150266043945655  0.5534813317858212 0.09878185937863471 -0.1504337456487028  0.4544596963423392 0.1265629310918962 -0.1497186086202618  0.4793743064502434 0.1258981616262373 -0.1499213165067785  0.504304767029933 0.1252161233488602 -0.1501038251216159  0.5292660579104613 0.1245143920509953 -0.1502823419343969  0.5542453594115855 0.1237844685375696 -0.1504690197480953  0.4551078391159166 0.1515789746103279 -0.1496868136570247  0.4800560511908009 0.1509133667606913 -0.1499034147644327  0.5050143488158795 0.1502226152814164 -0.150102609656648  0.5299867858632726 0.149514191874072 -0.1502979399975032  0.5549688456682703 0.1487987985443657 -0.1505012675762152  0.4557658781724723 0.1765876908937959 -0.1496698186658036  0.4807309106572143 0.1759172580335834 -0.1498959795713446  0.5057041246486886 0.1752243735562836 -0.1501050976057715  0.5306850822295323 0.1745161550864422 -0.150310959013068  0.5556731965867164 0.1738070334617294 -0.1505269448485797  0.4564316598376558 0.2015918845415299 -0.1496782734336877  0.4814107573778448 0.2009167367487747 -0.149905087102487  0.506397856550687 0.2002229339056265 -0.1501118590282817  0.5313863235734249 0.1995155508490208 -0.1503153916326139  0.5563777303129187 0.1988071331811123 -0.1505335803025171  0.45 0 -0.125  0.475 0 -0.125  0.5 0 -0.125  0.525 0 -0.125  0.55 0 -0.125  0.4515663947063344 0.0258905810680409 -0.1248887720334594  0.4761084200202635 0.02528027121827158 -0.1249665332664255  0.5008652102231361 0.02504905579450194 -0.1250300666948101  0.525820773682216 0.02483764038076019 -0.125095682122229  0.5510066685280053 0.0243173034866371 -0.1251627481455254  0.4524735917692908 0.05127202097672771 -0.1248176602614383  0.4771291329352471 0.05058607006854812 -0.1249426676506745  0.5018951204478311 0.05012170629241341 -0.1250530904959709  0.5268325220694077 0.04966656380679743 -0.1251605461665498  0.5519211900224217 0.04895790361796286 -0.1252678744867062  0.4532673559612462 0.07647491486054225 -0.1247624277012547  0.4780388710533371 0.07578013736225704 -0.1249241475149972  0.5028648723240169 0.07517745837707809 -0.1250666403836984  0.527800582405349 0.07456518856088605 -0.1252046364088499  0.5528170446081722 0.07380182126199697 -0.1253475048189541  0.4540065534123008 0.1015673994046732 -0.1247169496039957  0.478853442494681 0.1008767482054582 -0.1249054470847298  0.5037339886446833 0.1002086784662836 -0.1250740301086037  0.5286776861574591 0.09952039551590075 -0.1252376243216036  0.5536609565791055 0.09875559405768725 -0.125409020209267  0.4546855300047161 0.1266017676962809 -0.1246800633021059  0.4795923513391623 0.1259224375165247 -0.1248891680184035  0.5045148238632392 0.1252248615538548 -0.1250795714892089  0.5294709379757591 0.1245072530728387 -0.1252652870156194  0.5544457115752335 0.1237596659286631 -0.1254597162116717  0.4553443623317661 0.1516135352285665 -0.1246551087604299  0.4802864078723358 0.1509355149513486 -0.1248793554982657  0.5052387503750374 0.1502304195604138 -0.1250864669378199  0.5302071545130017 0.1495068320778083 -0.1252896519019901  0.5551856844084603 0.1487757674735385 -0.1255023746354494  0.4560120167507573 0.1766205836916745 -0.1246453694953063  0.4809713715926393 0.1759385048663012 -0.1248800281637725  0.5059397515695381 0.1752319169150767 -0.125096028608178  0.5309179532578353 0.1745091228209846 -0.1253088541552593  0.5559043103871097 0.1737853094210535 -0.1255348889525005  0.4566889179345356 0.2016256193355931 -0.1246629630782699  0.4816620550508333 0.2009377428305726 -0.1248979295138361  0.5066451506629481 0.2002304627170046 -0.1251088780598575  0.5316319402872897 0.1995089563688759 -0.1253164827393197  0.5566233813390612 0.1987857146432994 -0.1255438839243821  0.45 0 -0.1  0.475 0 -0.1  0.5 0 -0.1 
[...]
<PointData  Vectors="Displacement"> 
<DataArray  type="Float64"  Name="Displacement"  NumberOfComponents="3" format="ascii">0.0000000000000000e+00 0.0000000000000000e+00 0.0000000000000000e+00  0.0000000000000000e+00 0.0000000000000000e+00 0.0000000000000000e+00  0.0000000000000000e+00 0.0000000000000000e+00 0.0000000000000000e+00  0.0000000000000000e+00 0.0000000000000000e+00 0.0000000000000000e+00  0.0000000000000000e+00 0.0000000000000000e+00 0.0000000000000000e+00  1.3295029148856581e-03 8.0720481988354360e-04 1.2117919008790688e-04  8.7373197706367258e-04 2.5389121359261854e-04 4.1293888161085265e-05  6.5143929685890104e-04 3.8354364837022158e-06 -1.0367378978002291e-04  5.9160963022213196e-04 -2.3870744066263597e-04 -2.8500009123204860e-04  6.9011897729560922e-04 -7.1555311113395703e-04 -4.6777427634998381e-04  2.0866750724448544e-03 1.1730420110860980e-03 9.8735474176517450e-05  1.7490079252273838e-03 5.4220182197088141e-04 1.2257111070074104e-06  1.5287129965050545e-03 8.4416244931763171e-05 -1.5498459679413334e-04  1.4577186054330364e-03 -3.6449342221368634e-04 -3.2765373111750108e-04  1.5081986591547498e-03 -1.0160233407570407e-03 -4.9820899007620297e-04  2.7836785814281096e-03 1.3909414292085796e-03 1.1159605634715830e-04  2.5580707165991355e-03 7.4072514776433475e-04 -1.3131274073428080e-05  2.3988161727867426e-03 1.5770994742513535e-04 -1.6522624157768660e-04  2.3381954036345749e-03 -4.3216228024046342e-04 -3.1999974707039216e-04  2.3515305780625459e-03 -1.1481288531710696e-03 -4.7022155296628002e-04  3.4498412682297122e-03 1.5037501112464501e-03 1.4937160273742410e-04  3.3008384109102845e-03 8.4955764886712238e-04 3.8060007886596048e-06  3.1984378488793155e-03 2.0195131795532547e-04 -1.5412844840680904e-04  3.1536488419617085e-03 -4.6339492380364388e-04 -3.0717303966457631e-04  3.1481019974153130e-03 -1.1890504063520348e-03 -4.5587619148678603e-04  4.0719815463954598e-03 1.5559460168953923e-03 2.0781781723828923e-04  3.9877312732509718e-03 9.0359174051162308e-04 3.5097109635357731e-05  3.9270707640666020e-03 2.2347608705608241e-04 -1.3755342794173565e-04  3.8959109669824280e-03 -4.7454906336633247e-04 -3.0271399956046676e-04  3.8830094934097031e-03 -1.1888207156256255e-03 -4.6538717994132215e-04  4.6851897537017011e-03 1.5743526962281845e-03 2.6244211443103907e-04  4.6411923867295257e-03 9.1825660992816516e-04 6.6045416270423793e-05  4.6092744180599946e-03 2.2939757351353454e-04 -1.2394866324201136e-04  4.5880142827236280e-03 -4.7653642164464152e-04 -3.0673392487460827e-04  4.5736815367382107e-03 -1.1787506554688527e-03 -4.8988274937510577e-04  5.3234389424723508e-03 1.5807489065375153e-03 2.9260243369690552e-04  5.2963924733327667e-03 9.1768938697453040e-04 8.5564227421645327e-05  5.2778214029878473e-03 2.2876403398536168e-04 -1.1613504213632855e-04  5.2625619039202449e-03 -4.7529935040075707e-04 -3.1347851719583071e-04  5.2497466485027572e-03 -1.1732988570179578e-03 -5.1427957884787911e-04  5.9828707820401153e-03 1.5841739127395219e-03 3.0462144951575679e-04  5.9648951802110219e-03 9.1412347205548300e-04 9.5275694584563922e-05  5.9587482284524356e-03 2.2565343217567614e-04 -1.1203116491243237e-04  5.9488362125769204e-03 -4.7565366754303705e-04 -3.1730552589970658e-04  5.9362065992107377e-03 -1.1750845428766244e-03 -5.2625830040078112e-04  0.0000000000000000e+00 0.0000000000000000e+00 0.0000000000000000e+00  0.0000000000000000e+00 0.0000000000000000e+00 0.0000000000000000e+00  0.0000000000000000e+00 0.0000000000000000e+00 0.0000000000000000e+00  0.0000000000000000e+00 0.0000000000000000e+00 0.0000000000000000e+00  0.0000000000000000e+00 0.0000000000000000e+00 0.0000000000000000e+00  1.3363599269515425e-03 8.2255661731356323e-04 1.1019500363307921e-04  9.5754989223788744e-04 2.7163080526588666e-04 2.7008508204696031e-05  7.5274290825481655e-04 4.1432360106417463e-05 -7.1588313736401136e-05  7.1101300627603701e-04 -1.7053016355941328e-04 -1.8930313025961913e-04  8.5745305155242497e-04 -6.4357503244677613e-04 -3.0773991770970881e-04  2.1489836952511185e-03 1.1937196310431808e-03 1.3141732513331035e-04  1.8651658955436217e-03 5.5754054153016720e-04 1.1471240502953733e-05  1.6677348839713030e-03 1.0503383435990149e-04 -1.2211810534835975e-04  1.6071710012929171e-03 -3.4250388828711045e-04 -2.6471636157620319e-04  1.6738370641437275e-03 -1.0062754549199533e-03 -4.0498599645270953e-04  2.8862224368507534e-03 1.3954865962842141e-03 1.5585389881487120e-04  2.6986650790768126e-03 7.4120636947118369e-04 9.9158406369339229e-06  2.5523721800292474e-03 1.5948309755738882e-04 -1.3689005984814133e-04  2.4945413383361966e-03 -4.3423293320051453e-04 -2.8437540792958471e-04  2.5082507384956605e-03 -1.1600451776885984e-03 -4.3430339971396449e-04  3.5859017312689380e-03 1.4959946790228517e-03 1.9488577339819838e-04  3.4622389293947663e-03 8.3797309342983916e-04 2.7632869032950699e-05  3.3642388505322222e-03 1.9412894679229196e-04 -1.3251937930590089e-04  3.3173008705958103e-03 -4.7033134755964062e-04 -2.8902670651847329e-04  3.3075788844533038e-03 -1.2014072099883915e-03 -4.4985972411990460e-04  4.2405320709777723e-03 1.5397679971935188e-03 2.4233933921854802e-04  4.1677804178429602e-03 8.8683769958512303e-04 5.4828362001954540e-05  4.1067018327136055e-03 2.1361790003376086e-04 -1.2245034684968563e-04  4.0721435151778217e-03 -4.7921814953087315e-04 -2.9431086647283846e-04  4.0558489525286357e-03 -1.1959889116029416e-03 -4.7052804193248510e-04  4.8806825358486449e-03 1.5605146134033462e-03 2.8406941657713327e-04  4.8385264654533001e-03 9.0404781910554527e-04 7.9431306471811734e-05  4.8033987706231586e-03 2.2120710603372088e-04 -1.1452930182611785e-04  4.7793197480796683e-03 -4.7870384285738949e-04 -3.0320339771884981e-04  4.7644721725560420e-03 -1.1819529102270235e-03 -4.9624688310576245e-04  5.5319693110054526e-03 1.5715620445317527e-03 3.0808727863947431e-04  5.5048439445899962e-03 9.0854879590505509e-04 9.3257323401284991e-05  5.4832350348750138e-03 2.2302307384201796e-04 -1.1145441470004506e-04  5.4666243875869840e-03 -4.7715613620788363e-04 -3.1226576675240120e-04  5.4558874432455752e-03 -1.1756970840877037e-03 -5.1883853113560000e-04  6.1913953470960391e-03 1.5752472772730007e-03 3.1054608251251145e-04  6.1778390209699758e-03 9.0799188364252170e-04 9.3856906833507473e-05  6.1691559507929834e-03 2.2130004012312500e-04 -1.1256051053409959e-04  6.1589818724835732e-03 -4.7848779446927459e-04 -3.1573913658363773e-04  6.1498432351653337e-03 -1.1779324537166186e-03 -5.2680470607098507e-04  0.0000000000000000e+00 0.0000000000000000e+00 0.0000000000000000e+00  0.0000000000000000e+00 0.0000000000000000e+00 0.0000000000000000e+00  0.0000000000000000e+00 0.0000000000000000e+00 0.0000000000000000e+00  0.0000000000000000e+00 0.0000000000000000e+00 0.0000000000000000e+00  0.0000000000000000e+00 0.0000000000000000e+00 0.0000000000000000e+00  1.4669451732047581e-03 8.5150142078776667e-04 1.0626638322338129e-04  1.0360646759270987e-03 2.7321826830216470e-04 1.8796249584217254e-05  8.1052440978066369e-04 4.7195066212292381e-05 -5.1513968567554332e-05  7.6973769834136568e-04 -1.6051143403915887e-04 -1.3067703524356533e-04  9.4251029601200909e-04 -6.5452217840851349e-04 -2.1022758840785928e-04  2.3185036780384131e-03 1.2254851491295875e-03 1.5924225006544787e-04  1.9987862321760234e-03 5.6848549154251608e-04 2.7529319924188280e-05  1.7828728599671255e-03 1.1474283469589952e-04 -8.8379051494763371e-05  1.7247496484299805e-03 -3.3123397630367636e-04 -2.0748913836707685e-04  1.8065715663215169e-03 -1.0119032300542831e-03 -3.2661932818606898e-04  3.0784868419884404e-03 1.4278999968880387e-03 2.0015062702004576e-04  2.8668170299356050e-03 7.5600363039327327e-04 3.7394017932099715e-05  2.7072477821703045e-03 1.6787698128850988e-04 -1.0418251230294105e-04  2.6483457050226534e-03 -4.3095672554374078e-04 -2.4517337857147615e-04  2.6648908775270680e-03 -1.1704912998049615e-03 -3.9158069008726911e-04  3.7951128931551286e-03 1.5236764884426167e-03 2.4113631764483459e-04  3.6534937076676470e-03 8.5140299831832635e-04 5.6379551879368156e-05  3.5448291756642420e-03 1.9905187389319823e-04 -1.0636075164035611e-04  3.4942925452148129e-03 -4.7366090858288589e-04 -2.6604394565503674e-04  3.4813317858210704e-03 -1.2181406213652996e-03 -4.3374564870280813e-04  4.4596963423392420e-03 1.5629310918962296e-03 2.8139137973822934e-04  4.3743064502433622e-03 8.9816162623732650e-04 7.8683493221529731e-05  4.3047670299330024e-03 2.1612334886020286e-04 -1.0382512161589752e-04  4.2660579104612404e-03 -4.8560794900472245e-04 -2.8234193439681283e-04  4.2453594115853576e-03 -1.2155314624304309e-03 -4.6901974809532792e-04  5.1078391159166282e-03 1.5789746103279036e-03 3.1318634297528312e-04  5.0560511908008393e-03 9.1336676069126517e-04 9.6585235567302221e-05  5.0143488158795315e-03 2.2261528141634163e-04 -1.0260965664803371e-04  4.9867858632725659e-03 -4.8580812592805001e-04 -2.9793999750318514e-04  4.9688456682702234e-03 -1.2012014556343656e-03 -5.0126757621518528e-04  5.7658781724722642e-03 1.5876908937959078e-03 3.3018133419643369e-04  5.7309106572143121e-03 9.1725803358337903e-04 1.0402042865544370e-04  5.7041246486885730e-03 2.2437355628361763e-04 -1.0509760577143161e-04  5.6850822295322631e-03 -4.8384491355782074e-04 -3.1095901306793175e-04  5.6731965867163709e-03 -1.1929665382706088e-03 -5.2694484857968829e-04  6.4316598376558051e-03 1.5918845415299118e-03 3.2172656631227587e-04  6.4107573778447923e-03 9.1673674877465559e-04 9.4912897512994970e-05  6.3978565506869972e-03 2.2293390562651660e-04 -1.1185902828167286e-04  6.3863235734248104e-03 -4.8444915097920865e-04 -3.1539163261385474e-04  6.3777303129186023e-03 -1.1928668188876965e-03 -5.3358030251702811e-04  0.0000000000000000e+00 0.0000000000000000e+00 0.0000000000000000e+00  0.0000000000000000e+00 0.0000000000000000e+00 0.0000000000000000e+00  0.0000000000000000e+00 0.0000000000000000e+00 0.0000000000000000e+00  0.0000000000000000e+00 0.0000000000000000e+00 0.0000000000000000e+00  0.0000000000000000e+00 0.0000000000000000e+00 0.0000000000000000e+00  1.5663947063343498e-03 8.9058106804089832e-04 1.1122796654061994e-04  1.1084200202634738e-03 2.8027121827157569e-04 3.3466733574449891e-05  8.6521022313622753e-04 4.9055794501933824e-05 -3.0066694810147110e-05  8.2077368221601785e-04 -1.6235961923981071e-04 -9.5682122229029439e-05  1.0066685280053140e-03 -6.8269651336289689e-04 -1.6274814552542737e-04  2.4735917692907637e-03 1.2720209767277098e-03 1.8233973856166970e-04  2.1291329352470072e-03 5.8607006854811548e-04 5.7332349325483937e-05  1.8951204478311031e-03 1.2170629241340198e-04 -5.3090495970963167e-05  1.8325220694077400e-03 -3.3343619320257015e-04 -1.6054616654984097e-04  1.9211900224216211e-03 -1.0420963820371425e-03 -2.6787448670619323e-04  3.2673559612461677e-03 1.4749148605422333e-03 2.3757229874532367e-04  3.0388710533370811e-03 7.8013736225704009e-04 7.5852485002768800e-05  2.8648723240170069e-03 1.7745837707807603e-04 -6.6640383698362361e-05  2.8005824053488784e-03 -4.3481143911395067e-04 -2.0463640884982624e-04  2.8170446081721675e-03 -1.1981787380030467e-03 -3.4750481895410364e-04  4.0065534123008536e-03 1.5673994046731976e-03 2.8305039600424022e-04  3.8534424946809593e-03 8.7674820545815689e-04 9.4552915270234479e-05  3.7339886446832058e-03 2.0867846628357342e-04 -7.4030108603737732e-05  3.6776861574590604e-03 -4.7960448409925310e-04 -2.3762432160358504e-04  3.6609565791054675e-03 -1.2444059423127466e-03 -4.0902020926704972e-04  4.6855300047161340e-03 1.6017676962809015e-03 3.1993669789410784e-04  4.5923513391622700e-03 9.2243751652473891e-04 1.1083198159648711e-04  4.5148238632392824e-03 2.2486155385478116e-04 -7.9571489208878622e-05  4.4709379757590173e-03 -4.9274692716124498e-04 -2.6528701561945675e-04  4.4457115752333789e-03 -1.2403340713369477e-03 -4.5971621167172565e-04  5.3443623317659950e-03 1.6135352285664326e-03 3.4489123957010589e-04  5.2864078723357591e-03 9.3551495134857211e-04 1.2064450173433827e-04  5.2387503750374147e-03 2.3041956041375337e-04 -8.6466937819892960e-05  5.2071545130017230e-03 -4.9316792219172650e-04 -2.8965190199009149e-04  5.1856844084602781e-03 -1.2242325264615233e-03 -5.0237463544940380e-04  6.0120167507572717e-03 1.6205836916744806e-03 3.5463050469373340e-04  5.9713715926392750e-03 9.3850486630124314e-04 1.1997183622751610e-04  5.9397515695380383e-03 2.3191691507670192e-04 -9.6028608178014985e-05  5.9179532578351735e-03 -4.9087717901541677e-04 -3.0885415525929246e-04  5.9043103871097621e-03 -1.2146905789465463e-03 -5.3488895250048307e-04  6.6889179345356927e-03 1.6256193355931199e-03 3.3703692173013631e-04  6.6620550508332101e-03 9.3774283057257272e-04 1.0207048616388430e-04  6.6451506629480505e-03 2.3046271700456240e-04 -1.0887805985749874e-04  6.6319402872895995e-03 -4.9104363112411145e-04 -3.1648273931968429e-04  6.6233813390610338e-03 -1.2142853567006602e-03 -5.4388392438211740e-04  0.0000000000000000e+00 0.0000000000000000e+00 0.0000000000000000e+00  0.0000000000000000e+00 0.0000000000000000e+00 0.0000000000000000e+00  0.0000000000000000e+00 0.0000000000000000e+00 0.0000000000000000e+00  0.0000000000000000e+00 0.0000000000000000e+00 0.0000000000000000e+00  0.0000000000000000e+00 0.0000000000000000e+00 0.0000000000000000e+00  1.6464452722706007e-03 9.3260070207164519e-04 1.2279058959866108e-04  1.1699980432532617e-03 2.9082247291898873e-04 5.2713835832312598e-05  9.1701337877621281e-04 5.1060410890265777e-05 -7.1228598563821339e-06  8.6987549514983811e-04 -1.6762998567047927e-04 -6.6489033100908495e-05  1.0639058130091454e-03 -7.1507894983466433e-04 -1.2770878380150501e-04  2.6065549150165171e-03 1.3271451125328934e-03 2.0940642381440282e-04  2.2479485592782579e-03 6.0810855802416702e-04 9.1707111684714761e-05  2.0034077860058490e-03 1.2748513142735301e-04 -1.6222350213503608e-05  1.9370143236606681e-03 -3.4319302629183697e-04 -1.1806798960867064e-04  2.0280187852066878e-03 -1.0844181015301085e-03 -2.1933994156060505e-04  3.4414129784484941e-03 1.5315124663991019e-03 2.7728043701922411e-04  3.2032144676498297e-03 8.0846396168017401e-04 1.1859429115007184e-04  3.0205547017017409e-03 1.8621363650331312e-04 -2.6146520031120318e-05  2.9516777600163647e-03 -4.4573832681954982e-04 -1.6401074098342362e-04  2.9659448923169724e-03 -1.2390126854511570e-03 -3.0519652914987369e-04  4.2108545884564502e-03 1.6200532857871494e-03 3.2731870471875167e-04  4.0509146289310349e-03 9.0674945342792703e-04 1.3736406102230912e-04  3.9247413344823470e-03 2.1913700565694738e-04 -3.7840324877779833e-05  3.8638291699213700e-03 -4.8941049653706918e-04 -2.0664685935120527e-04  3.8429257147830180e-03 -1.2795096295903949e-03 -3.8130940181914873e-04  4.9103642013546807e-03 1.6489697353913595e-03 3.6121800580453823e-04  4.8125614178119959e-03 9.5195439552242446e-04 1.4763082023027882e-04  4.7300108139742636e-03 2.3623121962261379e-04 -5.1540579755440762e-05  4.6821465522915856e-03 -5.0051940864556102e-04 -2.4542402333099604e-04  4.6526527731291754e-03 -1.2690332518333403e-03 -4.4650880662194451e-04  5.5840696940061708e-03 1.6566669374993351e-03 3.7894506454473170e-04  5.5225053395171310e-03 9.6387009262672760e-04 1.4870716291778003e-04  5.4711007566281885e-03 2.4221358809960446e-04 -6.7362615219582807e-05  5.4364868140359514e-03 -4.9905718578589244e-04 -2.7939915339440086e-04  5.4117494448350572e-03 -1.2479937356586466e-03 -5.0042034763615739e-04  6.2644035189495734e-03 1.6623618329785622e-03 3.8040902285052134e-04  6.2203773467472672e-03 9.6647960786920236e-04 1.3904634748805651e-04  6.1856868204809524e-03 2.4410750889870418e-04 -8.5051703935376592e-05  6.1619364292006193e-03 -4.9561920732723371e-04 -3.0612313427208699e-04  6.1466117034155183e-03 -1.2362231955792386e-03 -5.4102536897801480e-04  6.9546473570150152e-03 1.6678642703187711e-03 3.5554035766241499e-04  6.9244052430667861e-03 9.6569963746983027e-04 1.1375726045073803e-04  6.9051711340075098e-03 2.4287176708051537e-04 -1.0433896112571537e-04  6.8910418516977831e-03 -4.9528611173704166e-04 -3.1920558208233798e-04  6.8824864084757577e-03 -1.2359049460937859e-03 -5.5537937963275139e-04  0.0000000000000000e+00 0.0000000000000000e+00 0.0000000000000000e+00  0.0000000000000000e+00 0.0000000000000000e+00 0.0000000000000000e+00  0.0000000000000000e+00 0.0000000000000000e+00 0.0000000000000000e+00  0.0000000000000000e+00 0.0000000000000000e+00 0.0000000000000000e+00  0.0000000000000000e+00 0.0000000000000000e+00 0.0000000000000000e+00  1.7192272112215945e-03 9.7666751176035205e-04 1.3558836724841033e-04  1.2274566399295263e-03 3.0364436950065067e-04 6.9636319353053207e-05  9.6892192704191890e-04 5.3443233284865183e-05 1.5530231295211691e-05  9.1940908097112774e-04 -1.7440046471884320e-04 -3.4977331522525131e-05  1.1169615988452499e-03 -7.4926445397566015e-04 -8.8755983348511342e-05  2.7321831553779518e-03 1.3875535033496288e-03 2.4192799575327540e-04  2.3620764290722077e-03 6.3280309081359366e-04 1.2574098272290029e-04  2.1110749837593952e-03 1.3250718836381307e-04 2.0940212515420364e-05  2.0411047821026077e-03 -3.5762858057729856e-04 -7.3955047274753481e-05  2.1303277058001341e-03 -1.1343678455533787e-03 -1.6895836208671335e-04  3.6110922698488943e-03 1.5930611622301718e-03 3.2515255503986091e-04  3.3644279529455516e-03 8.3858471411081830e-04 1.6315622313213413e-04  3.1758984845492752e-03 1.9395260978448289e-04 1.4990094704119710e-05  3.1029768648841165e-03 -4.6131977634866344e-04 -1.2313802655053617e-04  3.1130379812105203e-03 -1.2884806045048009e-03 -2.6339169741250256e-04  4.4141253195379409e-03 1.6763224720145818e-03 3.7964889479445702e-04  4.2478983366004341e-03 9.3821713724381427e-04 1.8291687228499793e-04  4.1169073179385439e-03 2.2979820654936461e-04 -8.9090443027566623e-07  4.0522664615290889e-03 -5.0109095422008342e-04 -1.7626135532520821e-04  4.0269235136647747e-03 -1.3196594101569674e-03 -3.5517619181360809e-04  5.1370631794718201e-03 1.6991926855766980e-03 4.0866809335888589e-04  5.0349776695188826e-03 9.8352108835124625e-04 1.8695284299667260e-04  4.9488600291900794e-03 2.4966781014852972e-04 -2.2826812560250918e-05  4.8980377846235598e-03 -5.0678468506292840e-04 -2.2628253786870147e-04  4.8648212919816499e-03 -1.2979327784182195e-03 -4.3461592991214074e-04  5.8270579102163572e-03 1.7030234671591693e-03 4.1645428078101012e-04  5.7628047858934058e-03 9.9526498826317989e-04 1.7855284350088799e-04  5.7090268152488830e-03 2.5770973616775112e-04 -4.7726908378801171e-05  5.6723457144609796e-03 -5.0091475325611220e-04 -2.6955393257341732e-04  5.6449497181489811e-03 -1.2682343373979885e-03 -4.9857704617832586e-04  6.5214384235704973e-03 1.7077347187918078e-03 4.0726908542612920e-04  6.4750771327992760e-03 9.9808622031008183e-04 1.5924049906951182e-04  6.4385494457037569e-03 2.6088125071525685e-04 -7.3797143224603915e-05  6.4135722125757558e-03 -4.9509751261905528e-04 -3.0376196232904186e-04  6.3968642381058054e-03 -1.2523914481707686e-03 -5.4611651742896971e-04  7.2258321454497527e-03 1.7141736332631032e-03 3.7562523120913060e-04  7.1929660802928308e-03 9.9789070973856607e-04 1.2709362802172501e-04  7.1724375280997135e-03 2.6035177587423327e-04 -1.0015730383728963e-04  7.1580549252238512e-03 -4.9391592003566879e-04 -3.2421471295242385e-04  7.1496732936916227e-03 -1.2517346171950342e-03 -5.6778679892791344e-04  0.0000000000000000e+00 0.0000000000000000e+00 0.0000000000000000e+00  0.0000000000000000e+00 0.0000000000000000e+00 0.0000000000000000e+00  0.0000000000000000e+00 0.0000000000000000e+00 0.0000000000000000e+00  0.0000000000000000e+00 0.0000000000000000e+00 0.0000000000000000e+00  0.0000000000000000e+00 0.0000000000000000e+00 0.0000000000000000e+00  1.7880593252424229e-03 1.0246064031625003e-03 1.4333548332302984e-04  1.2874295852471061e-03 3.1756864597903329e-04 7.8367235365411192e-05  1.0268454334797159e-03 5.5449169248576339e-05 3.7847407998702903e-05  9.7137677667125848e-04 -1.8263801375084684e-04 8.3087938242945443e-06  1.1628409125737976e-03 -7.8512240751554992e-04 -2.7150746324754082e-05  2.8601297306389208e-03 1.4504957521