<?xml version="1.0"?>
<VTKFile type="UnstructuredGrid"  version="0.1"  >
<UnstructuredGrid>
<Piece  NumberOfPoints="405" NumberOfCells="1536">
<Points>
<DataArray  type="Float64"  NumberOfComponents="3"  format="ascii">0.45 0 -0.2  0.475 0 -0.2  0.5 0 -0.2  0.525 0 -0.2  0.55 0 -0.2  0.4505213250236006 0.02527242270179238 -0.2000019724390222  0.4753486816189037 0.02507772326310869 -0.2000110255917591  0.5002610941776403 0.02500139991102409 -0.2000460181186551  0.5252312987490469 0.02492896026226231 -0.2000955783866977  0.5502572202330805 0.02476954296180094 -0.2001485852689704  0.4507740381406229 0.05037618631789338 -0.2000166030879471  0.4756499004043898 0.05017858486116433 -0.2000312689084213  0.5005643972627704 0.05003843600660361 -0.2000679053952832  0.5255308221649725 0.04990232932546285 -0.200110903529806  0.5505396327877105 0.04969620024928623 -0.2001548962228636  0.4509698504449445 0.07542817882912255 -0.2000031491128607  0.4758908045979545 0.07524526117694118 -0.2000322992514379  0.5008317006751993 0.07507254610261517 -0.2000706328192651  0.5258050029818404 0.07489673975148449 -0.200109507266881  0.5508019407126098 0.07468434564643672 -0.2001480947866864  0.4511326139839791 0.1004467072001054 -0.1999750076709793  0.4760841775695867 0.1002769795302929 -0.200017878460226  0.5010496851119156 0.1000929025474124 -0.2000637975231447  0.5260319900384395 0.09990091040043733 -0.2001071078566837  0.5510245089454391 0.09969891326199988 -0.2001499837068488  0.4512678974427138 0.1254499480109942 -0.1999388776698869  0.4762457027000664 0.1252885886852541 -0.1999980332106513  0.5012290161288548 0.1251021558388823 -0.2000549194840649  0.5262187454814516 0.1249077799289799 -0.2001081807012365  0.5512112172763051 0.1247189783187936 -0.2001615775359601  0.4514011616612073 0.1504475526315967 -0.19990848744935  0.4763934804088449 0.150286894506155 -0.1999803380660785  0.5013880445718526 0.1501041252933945 -0.2000479399087813  0.5263828507693978 0.1499138309958776 -0.200112252884052  0.5513771260358679 0.1497336523598238 -0.2001776620137798  0.4515501305221244 0.1754463848635926 -0.1998921485989755  0.4765465472434611 0.1752827704170227 -0.1999692981034305  0.501545186584155 0.1751036542382519 -0.200043965553778  0.5265429139152602 0.1749180145262659 -0.2001168236798844  0.5515395913855027 0.1747400441385369 -0.2001914734834846  0.451709822375618 0.2004469691340247 -0.1998840906852285  0.4767108907946843 0.2002804467942057 -0.1999628140705281  0.5017144713210737 0.2001028073632037 -0.2000417316557231  0.5267138214785259 0.199919795207396 -0.2001200087510792  0.5517105700889005 0.1997407736429247 -0.2001988832837875  0.45 0 -0.175  0.475 0 -0.175  0.5 0 -0.175  0.525 0 -0.175  0.55 0 -0.175  0.4505085985234094 0.02528655272286875 -0.174984409820275  0.4753706337076584 0.02509088928073427 -0.1750080393275836  0.500289340362561 0.0250177132908125 -0.1750331586810668  0.5252658546745936 0.02495250818127541 -0.175066005528646  0.5503072742278327 0.0247935974090001 -0.1751015400352931  0.4507807822398864 0.05038570043608769 -0.1749840376858895  0.4756805027737024 0.05018625852632938 -0.1750188083317856  0.5006036221471444 0.0500475333902603 -0.1750543976821461  0.5255734477375548 0.04991119879023843 -0.1750933937238676  0.5505869837020992 0.04970033455686394 -0.1751346582876826  0.4509945344096064 0.07542673858321007 -0.1749710951450561  0.4759314072983525 0.07524342441227971 -0.1750166688796111  0.5008769382832847 0.07507326717229261 -0.1750591737872243  0.5258509693473931 0.07489780273132304 -0.1751014572975062  0.550847625274575 0.07468211011845609 -0.1751471284677049  0.4511747267386315 0.1004390193925474 -0.1749481373261931  0.4761356371282205 0.1002690221811004 -0.1750042589787348  0.5011021781487622 0.1000894341156735 -0.1750553616908161  0.5260834537417645 0.09990060996636108 -0.1751044298118192  0.5510745743137044 0.09969726340004587 -0.1751567124480646  0.4513273698660022 0.1254394138154877 -0.1749216131012681  0.4763076593344674 0.1252789642585275 -0.1749882063816804  0.501289889807886 0.1250980781938827 -0.175049358884696  0.526278203977815 0.1249084967426553 -0.175107843102478  0.5512699776046648 0.1247195348113787 -0.1751687710727928  0.4514736183402351 0.15043937904961 -0.1748995620714065  0.4764645796778877 0.1502794164190482 -0.1749745830124418  0.5014570922681655 0.1501011502324551 -0.1750448171413794  0.5264508058566314 0.1499154668344396 -0.1751125963393084  0.55144567081695 0.1497356697016532 -0.1751822089927726  0.4516281365234608 0.1754410749352064 -0.1748870089213095  0.4766232613215617 0.175278072253235 -0.1749667666659093  0.5016203234700438 0.1751020032364012 -0.175042844615217  0.5266175613372844 0.1749197340093418 -0.1751172438907352  0.5516156614257481 0.1747423635709712 -0.1751933982070802  0.4517887984119001 0.2004423270716752 -0.1748836328789905  0.4767894438388283 0.2002770082181795 -0.1749647360935313  0.5017917413245091 0.2001019030125314 -0.175042871053387  0.5267911596643129 0.1999213840378763 -0.1751196963691548  0.551789900302994 0.1997432586153996 -0.1751983954318462  0.45 0 -0.15  0.475 0 -0.15  0.5 0 -0.15  0.525 0 -0.15  0.55 0 -0.15  0.4505641934496316 0.02529892786387913 -0.1499713212885327  0.4754027264117865 0.02509288448142715 -0.1500036239294446  0.5003110652486589 0.02502034515763543 -0.1500242325753519  0.5252862835850569 0.02495620036810566 -0.1500481388412498  0.5503354279130395 0.02479054809868305 -0.1500742236436864  0.450846369539536 0.05039964865723959 -0.1499559663225182  0.475731056420844 0.05019275968247131 -0.1500038308005031  0.5006453729396361 0.05005228177372726 -0.1500399248497843  0.5256143531395516 0.04991577013153166 -0.1500767955181211  0.5506315066724236 0.04969877793632799 -0.1501166764631362  0.4510656022031089 0.07544086030240969 -0.1499394356136856  0.4759929033942057 0.07525104672214904 -0.1499987630113278  0.5009324979511083 0.07507778270172469 -0.1500454259839512  0.5259049940286348 0.0748999254620524 -0.1500912118175741  0.5509013131349684 0.0746785525721288 -0.1501416846927828  0.4512514047493661 0.1004507911683047 -0.1499201305119618  0.4762051713507734 0.1002752650738097 -0.1499881832456483  0.5011671595429161 0.1000925180689726 -0.1500447338843194  0.5261464497928494 0.09990058865302967 -0.1500994524231298  0.5511356364964134 0.09969151381706538 -0.1501590232561049  0.4514080878615336 0.1254488941652824 -0.1499007067907005  0.4763830668826378 0.1252839570668507 -0.1499761963143532  0.5013616912797272 0.1251001677941863 -0.1500421835928369  0.526348142847755 0.1249075750723894 -0.1501060699483879  0.5513380968712467 0.1247131293079206 -0.1501739725746579  0.4515571408669093 0.1504463681666738 -0.1498856983361828  0.4765441771233044 0.150283332875917 -0.1499667580782887  0.5015340484557214 0.1501028028315153 -0.1500406147541391  0.5265263887481678 0.1499145323556553 -0.1501125335802266  0.5515203050010627 0.1497299902540679 -0.15018761958477  0.4517141613852044 0.1754465920435087 -0.149877674296695  0.4767060634605342 0.1752814511516317 -0.1499624302799796  0.5017010947314529 0.1751036567874703 -0.1500410769063062  0.5266974844193443 0.1749192740620235 -0.1501181685659979  0.5516955702338374 0.174738249991112 -0.1501985313348337  0.4518767130819267 0.2004473522459778 -0.1498796045791837  0.4768742045863055 0.2002802241888973 -0.1499648843176744  0.5018747352000386 0.2001037691414455 -0.1500436243360802  0.5268738671997933 0.1999216010324568 -0.1501208404383083  0.5518734215616179 0.1997409986632759 -0.1502024378660933  0.45 0 -0.125  0.475 0 -0.125  0.5 0 -0.125  0.525 0 -0.125  0.55 0 -0.125  0.4506068310352719 0.02531528588607815 -0.1249603778378767  0.4754343625043906 0.02509604407787104 -0.1249917756428998  0.5003343750722067 0.02502128663968906 -0.1250144149338627  0.5253069260102144 0.02495568048493556 -0.1250372588177748  0.5503598565281427 0.02478036581282976 -0.1250618939043155  0.4509102453994971 0.05041922736327104 -0.1249342061891396  0.4757849949575531 0.05020116489530436 -0.1249842115340879  0.5006910219763985 0.0500558961360154 -0.1250242610408423  0.5256567995827157 0.04991549841348217 -0.1250623364248014  0.5506751991382365 0.04968793462137522 -0.1251025158349887  0.4511410577532188 0.07546073080877738 -0.1249123546542548  0.4760616084563702 0.07526248121308286 -0.1249765271257776  0.5009947131657467 0.0750830202590365 -0.1250291724652084  0.5259640479853022 0.07489949788802377 -0.1250792126435138  0.5509592541528336 0.07466886942222795 -0.1251332521664731  0.4513346331924754 0.1004691615563804 -0.124893709148578  0.4762832855096473 0.1002870339788374 -0.1249678895699766  0.5012403992760421 0.1000980230754347 -0.1250311436733478  0.5262167905595225 0.09989978744102458 -0.1250916983942996  0.5512038755792494 0.09968281204499302 -0.1251569211014134  0.4514955488449373 0.1254648828080777 -0.1248786004464533  0.4764668240386283 0.1252950950660874 -0.1249602103633618  0.5014418742352467 0.1251054100669079 -0.1250324020513716  0.5264259786564868 0.1249066791974201 -0.1251021494559454  0.5514139481798788 0.1247055232263434 -0.1251762725328961  0.4516469926055648 0.1504601452298059 -0.1248687952021662  0.476631319064682 0.1502932316961323 -0.1249555334934421  0.5016187347503934 0.1501076502546093 -0.1250345397722476  0.5266094144249686 0.1499138727704381 -0.125111514082225  0.5516020493899106 0.1497236270731327 -0.1251925167216926  0.4518067566362076 0.175459317159328 -0.1248653182917024  0.4767961103238784 0.1752906344633676 -0.1249554811864472  0.5017891914625411 0.1751083967818367 -0.1250381961750187  0.5267845449414745 0.1749190702471293 -0.1251192817637979  0.5517822436586243 0.1747329866957638 -0.1252051529376954  0.4519726638941483 0.2004600481968516 -0.1248719429126104  0.4769674782945594 0.2002891813098197 -0.1249622298944836  0.501966384376239 0.2001086224317846 -0.1250436007845449  0.5269649778849829 0.1999219409848335 -0.1251232951701838  0.5519649392689066 0.1997365189797448 -0.1252097528531608  0.45 0 -0.1  0.475 0 -0.1  0.5 
[...]
<PointData  Vectors="Displacement"> 
<DataArray  type="Float64"  Name="Displacement"  NumberOfComponents="3" format="ascii">0.0000000000000000e+00 0.0000000000000000e+00 0.0000000000000000e+00  0.0000000000000000e+00 0.0000000000000000e+00 0.0000000000000000e+00  0.0000000000000000e+00 0.0000000000000000e+00 0.0000000000000000e+00  0.0000000000000000e+00 0.0000000000000000e+00 0.0000000000000000e+00  0.0000000000000000e+00 0.0000000000000000e+00 0.0000000000000000e+00  5.2132502360064336e-04 2.7242270179237397e-04 -1.9724390221754835e-06  3.4868161890368724e-04 7.7723263108687358e-05 -1.1025591759092107e-05  2.6109417764029832e-04 1.3999110240918344e-06 -4.6018118655071404e-05  2.3129874904695064e-04 -7.1039737737692071e-05 -9.5578386697643266e-05  2.5722023308046439e-04 -2.3045703819906364e-04 -1.4858526897033856e-04  7.7403814062291436e-04 3.7618631789337951e-04 -1.6603087947023958e-05  6.4990040438973233e-04 1.7858486116432854e-04 -3.1268908421320392e-05  5.6439726277033285e-04 3.8436006603602487e-05 -6.7905395283210943e-05  5.3082216497245065e-04 -9.7670674537146264e-05 -1.1090352980600925e-04  5.3963278771048664e-04 -3.0379975071376914e-04 -1.5489622286364677e-04  9.6985044494451891e-04 4.2817882912255092e-04 -3.1491128606953545e-06  8.9080459795441735e-04 2.4526117694116391e-04 -3.2299251437912446e-05  8.3170067519923408e-04 7.2546102615148752e-05 -7.0632819265085606e-05  8.0500298184041851e-04 -1.0326024851552551e-04 -1.0950726688096059e-04  8.0194071260971788e-04 -3.1565435356328597e-04 -1.4809478668641424e-04  1.1326139839789942e-03 4.4670720010544813e-04 2.4992329020726168e-05  1.0841775695866283e-03 2.7697953029286063e-04 -1.7878460226052953e-05  1.0496851119156617e-03 9.2902547412362265e-05 -6.3797523144688552e-05  1.0319900384394825e-03 -9.9089599562672919e-05 -1.0710785668367017e-04  1.0245089454390564e-03 -3.0108673800011132e-04 -1.4998370684875931e-04  1.2678974427138034e-03 4.4994801099423621e-04 6.1122330113099957e-05  1.2457027000663671e-03 2.8858868525413387e-04 1.9667893487414332e-06  1.2290161288547536e-03 1.0215583888225773e-04 -5.4919484064861763e-05  1.2187454814516429e-03 -9.2220071020090194e-05 -1.0818070123646927e-04  1.2112172763049114e-03 -2.8102168120639062e-04 -1.6157753596011495e-04  1.4011616612072092e-03 4.4755263159669361e-04 9.1512550650027204e-05  1.3934804088448637e-03 2.8689450615498326e-04 1.9661933921535837e-05  1.3880445718525960e-03 1.0412529339450429e-04 -4.7939908781237163e-05  1.3828507693977388e-03 -8.6169004122415836e-05 -1.1225288405203256e-04  1.3771260358677862e-03 -2.6634764017620296e-04 -1.7766201377983730e-04  1.5501305221243353e-03 4.4638486359255676e-04 1.0785140102453101e-04  1.5465472434611227e-03 2.8277041702271026e-04 3.0701896569515471e-05  1.5451865841550477e-03 1.0365423825191170e-04 -4.3965553778004190e-05  1.5429139152600779e-03 -8.1985473734128283e-05 -1.1682367988438762e-04  1.5395913855026061e-03 -2.5995586146315838e-04 -1.9147348348464268e-04  1.7098223756179007e-03 4.4696913402466980e-04 1.1590931477148904e-04  1.7108907946843258e-03 2.8044679420569086e-04 3.7185929471926167e-05  1.7144713210737413e-03 1.0280736320366367e-04 -4.1731655723101994e-05  1.7138214785257309e-03 -8.0204792604062603e-05 -1.2000875107915218e-04  1.7105700889004257e-03 -2.5922635707525125e-04 -1.9888328378752748e-04  0.0000000000000000e+00 0.0000000000000000e+00 0.0000000000000000e+00  0.0000000000000000e+00 0.0000000000000000e+00 0.0000000000000000e+00  0.0000000000000000e+00 0.0000000000000000e+00 0.0000000000000000e+00  0.0000000000000000e+00 0.0000000000000000e+00 0.0000000000000000e+00  0.0000000000000000e+00 0.0000000000000000e+00 0.0000000000000000e+00  5.0859852340940173e-04 2.8655272286874742e-04 1.5590179724967796e-05  3.7063370765837205e-04 9.0889280734269819e-05 -8.0393275835782161e-06  2.8934036256107124e-04 1.7713290812493398e-05 -3.3158681066725047e-05  2.6585467459354091e-04 -4.7491818724598096e-05 -6.6005528646001421e-05  3.0727422783257319e-04 -2.0640259099990655e-04 -1.0154003529310521e-04  7.8078223988638728e-04 3.8570043608769129e-04 1.5962314110492337e-05  6.8050277370234008e-04 1.8625852632938325e-04 -1.8808331785585778e-05  6.0362214714431361e-04 4.7533390260301899e-05 -5.4397682146053085e-05  5.7344773755478942e-04 -8.8801209761568865e-05 -9.3393723867556369e-05  5.8698370209927793e-04 -2.9966544313606540e-04 -1.3465828768254956e-04  9.9453440960637252e-04 4.2673858321005579e-04 2.8904854943937710e-05  9.3140729835254393e-04 2.4342441227971398e-04 -1.6668879611105860e-05  8.7693828328470544e-04 7.3267172292599894e-05 -5.9173787224293617e-05  8.5096934739305966e-04 -1.0219726867697728e-04 -1.0145729750615799e-04  8.4762527457488590e-04 -3.1788988154391926e-04 -1.4712846770489706e-04  1.1747267386314631e-03 4.3901939254738410e-04 5.1862673806860160e-05  1.1356371282204684e-03 2.6902218110038160e-04 -4.2589787347322858e-06  1.1021781487622810e-03 8.9434115673518179e-05 -5.5361690816102504e-05  1.0834537417644396e-03 -9.9390033638928389e-05 -1.0442981181922507e-04  1.0745743137043451e-03 -3.0273659995413743e-04 -1.5671244806455121e-04  1.3273698660022043e-03 4.3941381548766192e-04 7.8386898731895767e-05  1.3076593344673784e-03 2.7896425852750749e-04 1.1793618319648233e-05  1.2898898078860547e-03 9.8078193882671452e-05 -4.9358884696001574e-05  1.2782039778149058e-03 -9.1503257344698104e-05 -1.0784310247792933e-04  1.2699776046648076e-03 -2.8046518862126908e-04 -1.6877107279279248e-04  1.4736183402351256e-03 4.3937904960993866e-04 1.0043792859354747e-04  1.4645796778877229e-03 2.7941641904814731e-04 2.5416987558256686e-05  1.4570922681654249e-03 1.0115023245505648e-04 -4.4817141379412783e-05  1.4508058566313480e-03 -8.4533165560398072e-05 -1.1259633930839662e-04  1.4456708169499383e-03 -2.6433029834687987e-04 -1.8220899277263030e-04  1.6281365234608177e-03 4.4107493520632434e-04 1.1299107869051304e-04  1.6232613215616458e-03 2.7807225323497935e-04 3.3233334090688970e-05  1.6203234700438560e-03 1.0200323640113991e-04 -4.2844615217022852e-05  1.6175613372843597e-03 -8.0265990658244976e-05 -1.1724389073519680e-04  1.6156614257481167e-03 -2.5763642902884175e-04 -1.9339820708022000e-04  1.7887984119000977e-03 4.4232707167519064e-04 1.1636712100951519e-04  1.7894438388282995e-03 2.7700821817951138e-04 3.5263906468723485e-05  1.7917413245090792e-03 1.0190301253140163e-04 -4.2871053386940868e-05  1.7911596643128587e-03 -7.8615962123684154e-05 -1.1969636915482970e-04  1.7899003029938996e-03 -2.5674138460043852e-04 -1.9839543184615668e-04  0.0000000000000000e+00 0.0000000000000000e+00 0.0000000000000000e+00  0.0000000000000000e+00 0.0000000000000000e+00 0.0000000000000000e+00  0.0000000000000000e+00 0.0000000000000000e+00 0.0000000000000000e+00  0.0000000000000000e+00 0.0000000000000000e+00 0.0000000000000000e+00  0.0000000000000000e+00 0.0000000000000000e+00 0.0000000000000000e+00  5.6419344963164382e-04 2.9892786387912567e-04 2.8678711467275162e-05  4.0272641178653072e-04 9.2884481427153582e-05 -3.6239294446286016e-06  3.1106524865886354e-04 2.0345157635426260e-05 -2.4232575351848098e-05  2.8628358505683986e-04 -4.3799631894345095e-05 -4.8138841249754820e-05  3.3542791303945260e-04 -2.0945190131695221e-04 -7.4223643686379708e-05  8.4636953953597625e-04 3.9964865723959359e-04 4.4033677481803727e-05  7.3105642084396330e-04 1.9275968247130864e-04 -3.8308005030753483e-06  6.4537293963601674e-04 5.2281773727256062e-05 -3.9924849784258565e-05  6.1435313955160572e-04 -8.4229868468350738e-05 -7.6795518121109207e-05  6.3150667242351270e-04 -3.0122206367201679e-04 -1.1667646313618100e-04  1.0656022031087975e-03 4.4086030240968763e-04 6.0564386314372600e-05  9.9290339420566968e-04 2.5104672214903718e-04 1.2369886722067048e-06  9.3249795110826139e-04 7.7782701724677059e-05 -4.5425983951213299e-05  9.0499402863471017e-04 -1.0007453794761726e-04 -9.1211817574051663e-05  9.0131313496831067e-04 -3.2144742787120742e-04 -1.4168469278276794e-04  1.2514047493660694e-03 4.5079116830470749e-04 7.9869488038234788e-05  1.2051713507733354e-03 2.7526507380968174e-04 1.1816754351690908e-05  1.1671595429160856e-03 9.2518068972574110e-05 -4.4733884319400761e-05  1.1464497928494165e-03 -9.9411346970333298e-05 -9.9452423129760026e-05  1.1356364964133076e-03 -3.0848618293462043e-04 -1.5902325610484542e-04  1.4080878615336159e-03 4.4889416528244168e-04 9.9293209299498143e-05  1.3830668826377158e-03 2.8395706685067478e-04 2.3803685646855737e-05  1.3616912797271574e-03 1.0016779418627794e-04 -4.2183592836839453e-05  1.3481428477549473e-03 -9.2424927610589992e-05 -1.0606994838790668e-04  1.3380968712466024e-03 -2.8687069207943862e-04 -1.7397257465787491e-04  1.5571408669092836e-03 4.4636816667381786e-04 1.1430166381726372e-04  1.5441771233043993e-03 2.8333287591697910e-04 3.3241921711372532e-05  1.5340484557213600e-03 1.0280283151529954e-04 -4.0614754139068936e-05  1.5263887481677435e-03 -8.5467644344752942e-05 -1.1253358022662001e-04  1.5203050010626610e-03 -2.7000974593213993e-04 -1.8761958476998347e-04  1.7141613852044183e-03 4.4659204350864156e-04 1.2232570330499739e-04  1.7060634605341716e-03 2.8145115163163894e-04 3.7569720020436393e-05  1.7010947314528113e-03 1.0365678747028646e-04 -4.1076906306211073e-05  1.6974844193442876e-03 -8.0725937976548724e-05 -1.1816856599784217e-04  1.6955702338374099e-03 -2.6175000888797677e-04 -1.9853133483370463e-04  1.8767130819266550e-03 4.4735224597773892e-04 1.2039542081630134e-04  1.8742045863054642e-03 2.8022418889735108e-04 3.5115682325659256e-05  1.8747352000385254e-03 1.0376914144547385e-04 -4.3624336080218981e-05  1.8738671997932932e-03 -7.8398967543210743e-05 -1.2084043830825749e-04  1.8734215616178144e-03 -2.5900133672406304e-04 -2.0243786609327365e-04  0.0000000000000000e+00 0.0000000000000000e+00 0.0000000000000000e+00  0.0000000000000000e+00 0.0000000000000000e+00 0.0000000000000000e+00  0.0000000000000000e+00 0.0000000000000000e+00 0.0000000000000000e+00  0.0000000000000000e+00 0.0000000000000000e+00 0.0000000000000000e+00  0.0000000000000000e+00 0.0000000000000000e+00 0.0000000000000000e+00  6.0683103527189928e-04 3.1528588607815042e-04 3.9622162123347646e-05  4.3436250439060918e-04 9.6044077871039224e-05 8.2243571002345530e-06  3.3437507220674697e-04 2.1286639689051389e-05 -1.4414933862700484e-05  3.0692601021446844e-04 -4.4319515064438630e-05 -3.7258817774776771e-05  3.5985652814270462e-04 -2.1963418717023650e-04 -6.1893904315501577e-05  9.1024539949715612e-04 4.1922736327103239e-04 6.5793810860396485e-05  7.8499495755301129e-04 2.0116489530435595e-04 1.5788465912138235e-05  6.9102197639846403e-04 5.5896136015392933e-05 -2.4261040842319785e-05  6.5679958271582016e-04 -8.4501586517833863e-05 -6.2336424801464236e-05  6.7519913823641171e-04 -3.1206537862478570e-04 -1.0251583498866759e-04  1.1410577532187710e-03 4.6073080877736698e-04 8.7645345745244506e-05  1.0616084563702067e-03 2.6248121308285579e-04 2.3472874222411213e-05  9.9471316574684934e-04 8.3020259036489756e-05 -2.9172465208418098e-05  9.6404798530206769e-04 -1.0050211197622401e-04 -7.9212643513837567e-05  9.5925415283364568e-04 -3.3113057777207325e-04 -1.3325216647314559e-04  1.3346331924754299e-03 4.6916155638036458e-04 1.0629085142196384e-04  1.2832855096472856e-03 2.8703397883737347e-04 3.2110430023386023e-05  1.2403992760420676e-03 9.8023075434734881e-05 -3.1143673347771397e-05  1.2167905595224248e-03 -1.0021255897542332e-04 -9.1698394299567879e-05  1.2038755792493834e-03 -3.1718795500697885e-04 -1.5692110141336701e-04  1.4955488449373035e-03 4.6488280807766680e-04 1.2139955354669082e-04  1.4668240386283406e-03 2.9509506608735395e-04 3.9789636638206638e-05  1.4418742352466972e-03 1.0541006690793261e-04 -3.2402051371642237e-05  1.4259786564867290e-03 -9.3320802579939703e-05 -1.0214945594541042e-04  1.4139481798786354e-03 -2.9447677365658254e-04 -1.7627253289613563e-04  1.6469926055647883e-03 4.6014522980586175e-04 1.3120479783376130e-04  1.6313190646819584e-03 2.9323169613230813e-04 4.4466506557944873e-05  1.6187347503934895e-03 1.0765025460927560e-04 -3.4539772247605404e-05  1.6094144249685714e-03 -8.6127229561968295e-05 -1.1151408222494998e-04  1.6020493899106965e-03 -2.7637292686733797e-04 -1.9251672169258945e-04  1.8067566362075739e-03 4.5931715932796309e-04 1.3468170829754997e-04  1.7961103238784031e-03 2.9063446336756151e-04 4.4518813552830595e-05  1.7891914625410025e-03 1.0839678183671575e-04 -3.8196175018730619e-05  1.7845449414744046e-03 -8.0929752870704565e-05 -1.1928176379783374e-04  1.7822436586242820e-03 -2.6701330423616369e-04 -2.0515293769533368e-04  1.9726638941482758e-03 4.6004819685156327e-04 1.2805708738960157e-04  1.9674782945593924e-03 2.8918130981969345e-04 3.7770105516452054e-05  1.9663843762388984e-03 1.0862243178459001e-04 -4.3600784544895828e-05  1.9649778849828528e-03 -7.8059015166502676e-05 -1.2329517018381411e-04  1.9649392689063939e-03 -2.6348102025521713e-04 -2.0975285316080414e-04  0.0000000000000000e+00 0.0000000000000000e+00 0.0000000000000000e+00  0.0000000000000000e+00 0.0000000000000000e+00 0.0000000000000000e+00  0.0000000000000000e+00 0.0000000000000000e+00 0.0000000000000000e+00  0.0000000000000000e+00 0.0000000000000000e+00 0.0000000000000000e+00  0.0000000000000000e+00 0.0000000000000000e+00 0.0000000000000000e+00  6.4146582205021352e-04 3.3338476158917095e-04 5.1657840364640848e-05  4.6164595209836619e-04 1.0026042598689557e-04 2.0985513819837565e-05  3.5721189226142189e-04 2.2155809825940262e-05 -3.8853919700171300e-06  3.2806343915574060e-04 -4.6212408216584536e-05 -2.7778235347623040e-05  3.8373051597310944e-04 -2.3225279933062202e-04 -5.2658356846659497e-05  9.6828911499928852e-04 4.4244198000235971e-04 8.7637859300316519e-05  8.3651227962456881e-04 2.1066735898695198e-04 3.6668539421284979e-05  7.3729232446058596e-04 5.8868338462577138e-05 -7.6411595030352238e-06  7.0068291973214450e-04 -8.7584792872564499e-05 -4.8568647272457136e-05  7.1939069432554637e-04 -3.2791270283690519e-04 -9.0215234892389586e-05  1.2150226418221539e-03 4.8405445430811384e-04 1.1500294920371082e-04  1.1308645349294264e-03 2.7503119132178265e-04 4.7530106538775605e-05  1.0595194986484811e-03 8.7857372302132492e-05 -1.1274273702934531e-05  1.0262415591292132e-03 -1.0334143152658550e-04 -6.6371914229735460e-05  1.0199963225190547e-03 -3.4548358255290945e-04 -1.2395468371722681e-04  1.4194332807909579e-03 4.9049730962034835e-04 1.3388975057263889e-04  1.3644259353134598e-03 3.0038226278380651e-04 5.4832918131729240e-05  1.3179993829333849e-03 1.0400127582325286e-04 -1.5515189884996706e-05  1.2919532654939450e-03 -1.0198120319417036e-04 -8.2450028254494269e-05  1.2769546215884845e-03 -3.2838739465281994e-04 -1.5284599026135762e-04  1.5867634602857237e-03 4.8378236599199369e-04 1.4548657473252260e-04  1.5552601723883266e-03 3.0833143454922257e-04 5.8362379573979027e-05  1.5276199333444287e-03 1.1204545061812799e-04 -2.0692660334270687e-05  1.5097250692350525e-03 -9.3800539567491750e-05 -9.6924280754910283e-05  1.4957721334802174e-03 -3.0244907997314371e-04 -1.7691400517411821e-04  1.7419677316914245e-03 4.7736527799789607e-04 1.5027533762863488e-04  1.7241948797113761e-03 3.0597080738311232e-04 5.7971221158746282e-05  1.7096800186676370e-03 1.1460821981562921e-04 -2.6993758217587566e-05  1.6989011981323535e-03 -8.5516330751165428e-05 -1.0975309636293244e-04  1.6901906461909845e-03 -2.8193484000291278e-04 -1.9660546389534307e-04  1.9052154614951267e-03 4.7617620749142435e-04 1.4886227072779507e-04  1.8926253011115682e-03 3.0323142709386006e-04 5.3285891233627143e-05  1.8841331047572108e-03 1.1565227918437168e-04 -3.4390340500280242e-05  1.8785418469012575e-03 -7.9591659691850060e-05 -1.2033556073051400e-04  1.8756445098940496e-03 -2.7139141622607824e-04 -2.1179817198569196e-04  2.0753525738801985e-03 4.7742184117753253e-04 1.3818644325824605e-04  2.0681606626132727e-03 3.0193444431672627e-04 4.2674898140981168e-05  2.0658437980573818e-03 1.1616872433830721e-04 -4.2888192833727996e-05  2.0639315930425458e-03 -7.6261317089057072e-05 -1.2665499466069433e-04  2.0639653558574395e-03 -2.6761589188255269e-04 -2.1841730632669163e-04  0.0000000000000000e+00 0.0000000000000000e+00 0.0000000000000000e+00  0.0000000000000000e+00 0.0000000000000000e+00 0.0000000000000000e+00  0.0000000000000000e+00 0.0000000000000000e+00 0.0000000000000000e+00  0.0000000000000000e+00 0.0000000000000000e+00 0.0000000000000000e+00  0.0000000000000000e+00 0.0000000000000000e+00 0.0000000000000000e+00  6.7458191391595230e-04 3.5316960988205796e-04 6.5048920469021077e-05  4.8781258882345490e-04 1.0540440679825908e-04 3.2940982614927481e-05  3.8057186207477784e-04 2.3119908395747742e-05 6.6214719522844294e-06  3.5016377920345118e-04 -4.8810782311640973e-05 -1.7319617023804695e-05  4.0756825022204016e-04 -2.4637098771869648e-04 -4.1895094811748856e-05  1.0259793067862268e-03 4.6810502593900568e-04 1.1292411546854102e-04  8.8804931406449785e-04 2.2091703973856484e-04 5.8004199017101534e-05  7.8500958200986839e-04 6.1421669237509424e-05 9.4021722058530514e-06  7.4641682010305943e-04 -9.2469772445778414e-05 -3.4026833838282996e-05  7.6459307398677812e-04 -3.4717075355806257e-04 -7.7164727557772284e-05  1.2908050973125334e-03 5.0898667316488560e-04 1.4685391294992175e-04  1.2018804982378529e-03 2.8779100294149142e-04 7.3131218312648438e-05  1.1269460348219320e-03 9.2204845657253682e-05 7.3372204366573465e-06  1.0914177699735453e-03 -1.0770808597550777e-04 -5.3261393268050948e-05  1.0834564759909318e-03 -3.6293824591958926e-04 -1.1481564515860642e-04  1.5076355800114293e-03 5.1263946791871003e-04 1.6569826384027757e-04  1.4488865407071580e-03 3.1392536683553244e-04 7.9432122548133026e-05  1.3994375989450590e-03 1.1013243400468945e-04 8.9899556267239337e-07  1.3712945890587166e-03 -1.0395496059559451e-04 -7.3237563538253677e-05  1.3543549242070747e-03 -3.4074450278464332e-04 -1.4931405099234278e-04  1.6824524383082374e-03 5.0346900214823676e-04 1.7275692502872868e-04  1.6481719153936397e-03 3.2225351929326181e-04 7.8603786253780188e-05  1.6181779456589237e-03 1.1976571001037965e-04 -8.2728280686972195e-06  1.5985603129749441e-03 -9.3033405788267234e-05 -9.1773763883632432e-05  1.5829131904688920e-03 -3.0945726894872041e-04 -1.7795433964508817e-04  1.8420979950365211e-03 4.9598980168775769e-04 1.7122132132324567e-04  1.8223403166157217e-03 3.2020939437149744e-04 7.2674888690260205e-05  1.8060957460253673e-03 1.2350451234473760e-04 -1.8873030344780020e-05  1.7940061202303681e-03 -8.2651718043087573e-05 -1.0794242716954623e-04  1.7840342037432290e-03 -2.8515418884144717e-04 -2.0060416051285928e-04  2.0090983047086944e-03 4.9518047679093953e-04 1.6387235887552841e-04  1.9948967271311412e-03 3.1805463109634095e-04 6.2837688174975469e-05  1.9850062136219236e-03 1.2537755382590433e-04 -3.0177333862712154e-05  1.9784776657372264e-03 -7.5588226011481633e-05 -1.2131177725781226e-04  1.9748308248732096e-03 -2.7299932364366483e-04 -2.1789334356939094e-04  2.1835142652917154e-03 4.9755356793693844e-04 1.4915240253956835e-04  2.1748604459924242e-03 3.1748172166023205e-04 4.8444010702120924e-05  2.1715374868661401e-03 1.2647738413579341e-04 -4.2043587040356136e-05  2.1690558992994249e-03 -7.1798605556077009e-05 -1.3060172689820110e-04  2.1688566538869769e-03 -2.6922258705450950e-04 -2.2719377565723101e-04  0.0000000000000000e+00 0.0000000000000000e+00 0.0000000000000000e+00  0.0000000000000000e+00 0.0000000000000000e+00 0.0000000000000000e+00  0.0000000000000000e+00 0.0000000000000000e+00 0.0000000000000000e+00  0.0000000000000000e+00 0.0000000000000000e+00 0.0000000000000000e+00  0.0000000000000000e+00 0.0000000000000000e+00 0.0000000000000000e+00  7.0971464784070628e-04 3.7570184064420115e-04 8.0042650826444458e-05  5.1680622024434519e-04 1.1112113872012903e-04 4.3180736111069997e-05  4.0763216597116325e-04 2.3968924896216287e-05 1.7280137875697832e-05  3.7464915209529243e-04 -5.2040609019239949e-05 -2.8536723381438454e-06  4.3083624596366006e-04 -2.6205703863875929e-04 -2.3939432903637216e-05  1.0892096813310942e-03 