<?xml version="1.0"?>
<VTKFile type="UnstructuredGrid"  version="0.1"  >
<UnstructuredGrid>
<Piece  NumberOfPoints="405" NumberOfCells="1536">
<Points>
<DataArray  type="Float64"  NumberOfComponents="3"  format="ascii">0.45 0 -0.2  0.475 0 -0.2  0.5 0 -0.2  0.525 0 -0.2  0.55 0 -0.2  0.4505213250236006 0.02527242270179238 -0.2000019724390222  0.4753486816189037 0.02507772326310869 -0.2000110255917591  0.5002610941776403 0.02500139991102409 -0.2000460181186551  0.5252312987490469 0.02492896026226231 -0.2000955783866977  0.5502572202330805 0.02476954296180094 -0.2001485852689704  0.4507740381406229 0.05037618631789338 -0.2000166030879471  0.4756499004043898 0.05017858486116433 -0.2000312689084213  0.5005643972627704 0.05003843600660361 -0.2000679053952832  0.5255308221649725 0.04990232932546285 -0.200110903529806  0.5505396327877105 0.04969620024928623 -0.2001548962228636  0.4509698504449445 0.07542817882912255 -0.2000031491128607  0.4758908045979545 0.07524526117694118 -0.2000322992514379  0.5008317006751993 0.07507254610261517 -0.2000706328192651  0.5258050029818404 0.07489673975148449 -0.200109507266881  0.5508019407126098 0.07468434564643672 -0.2001480947866864  0.4511326139839791 0.1004467072001054 -0.1999750076709793  0.4760841775695867 0.1002769795302929 -0.200017878460226  0.5010496851119156 0.1000929025474124 -0.2000637975231447  0.5260319900384395 0.09990091040043733 -0.2001071078566837  0.5510245089454391 0.09969891326199988 -0.2001499837068488  0.4512678974427138 0.1254499480109942 -0.1999388776698869  0.4762457027000664 0.1252885886852541 -0.1999980332106513  0.5012290161288548 0.1251021558388823 -0.2000549194840649  0.5262187454814516 0.1249077799289799 -0.2001081807012365  0.5512112172763051 0.1247189783187936 -0.2001615775359601  0.4514011616612073 0.1504475526315967 -0.19990848744935  0.4763934804088449 0.150286894506155 -0.1999803380660785  0.5013880445718526 0.1501041252933945 -0.2000479399087813  0.5263828507693978 0.1499138309958776 -0.200112252884052  0.5513771260358679 0.1497336523598238 -0.2001776620137798  0.4515501305221244 0.1754463848635926 -0.1998921485989755  0.4765465472434611 0.1752827704170227 -0.1999692981034305  0.501545186584155 0.1751036542382519 -0.200043965553778  0.5265429139152602 0.1749180145262659 -0.2001168236798844  0.5515395913855027 0.1747400441385369 -0.2001914734834846  0.451709822375618 0.2004469691340247 -0.1998840906852285  0.4767108907946843 0.2002804467942057 -0.1999628140705281  0.5017144713210737 0.2001028073632037 -0.2000417316557231  0.5267138214785259 0.199919795207396 -0.2001200087510792  0.5517105700889005 0.1997407736429247 -0.2001988832837875  0.45 0 -0.175  0.475 0 -0.175  0.5 0 -0.175  0.525 0 -0.175  0.55 0 -0.175  0.4505085985234094 0.02528655272286875 -0.174984409820275  0.4753706337076584 0.02509088928073427 -0.1750080393275836  0.500289340362561 0.0250177132908125 -0.1750331586810668  0.5252658546745936 0.02495250818127541 -0.175066005528646  0.5503072742278327 0.0247935974090001 -0.1751015400352931  0.4507807822398864 0.05038570043608769 -0.1749840376858895  0.4756805027737024 0.05018625852632938 -0.1750188083317856  0.5006036221471444 0.0500475333902603 -0.1750543976821461  0.5255734477375548 0.04991119879023843 -0.1750933937238676  0.5505869837020992 0.04970033455686394 -0.1751346582876826  0.4509945344096064 0.07542673858321007 -0.1749710951450561  0.4759314072983525 0.07524342441227971 -0.1750166688796111  0.5008769382832847 0.07507326717229261 -0.1750591737872243  0.5258509693473931 0.07489780273132304 -0.1751014572975062  0.550847625274575 0.07468211011845609 -0.1751471284677049  0.4511747267386315 0.1004390193925474 -0.1749481373261931  0.4761356371282205 0.1002690221811004 -0.1750042589787348  0.5011021781487622 0.1000894341156735 -0.1750553616908161  0.5260834537417645 0.09990060996636108 -0.1751044298118192  0.5510745743137044 0.09969726340004587 -0.1751567124480646  0.4513273698660022 0.1254394138154877 -0.1749216131012681  0.4763076593344674 0.1252789642585275 -0.1749882063816804  0.501289889807886 0.1250980781938827 -0.175049358884696  0.526278203977815 0.1249084967426553 -0.175107843102478  0.5512699776046648 0.1247195348113787 -0.1751687710727928  0.4514736183402351 0.15043937904961 -0.1748995620714065  0.4764645796778877 0.1502794164190482 -0.1749745830124418  0.5014570922681655 0.1501011502324551 -0.1750448171413794  0.5264508058566314 0.1499154668344396 -0.1751125963393084  0.55144567081695 0.1497356697016532 -0.1751822089927726  0.4516281365234608 0.1754410749352064 -0.1748870089213095  0.4766232613215617 0.175278072253235 -0.1749667666659093  0.5016203234700438 0.1751020032364012 -0.175042844615217  0.5266175613372844 0.1749197340093418 -0.1751172438907352  0.5516156614257481 0.1747423635709712 -0.1751933982070802  0.4517887984119001 0.2004423270716752 -0.1748836328789905  0.4767894438388283 0.2002770082181795 -0.1749647360935313  0.5017917413245091 0.2001019030125314 -0.175042871053387  0.5267911596643129 0.1999213840378763 -0.1751196963691548  0.551789900302994 0.1997432586153996 -0.1751983954318462  0.45 0 -0.15  0.475 0 -0.15  0.5 0 -0.15  0.525 0 -0.15  0.55 0 -0.15  0.4505641934496316 0.02529892786387913 -0.1499713212885327  0.4754027264117865 0.02509288448142715 -0.1500036239294446  0.5003110652486589 0.02502034515763543 -0.1500242325753519  0.5252862835850569 0.02495620036810566 -0.1500481388412498  0.5503354279130395 0.02479054809868305 -0.1500742236436864  0.450846369539536 0.05039964865723959 -0.1499559663225182  0.475731056420844 0.05019275968247131 -0.1500038308005031  0.5006453729396361 0.05005228177372726 -0.1500399248497843  0.5256143531395516 0.04991577013153166 -0.1500767955181211  0.5506315066724236 0.04969877793632799 -0.1501166764631362  0.4510656022031089 0.07544086030240969 -0.1499394356136856  0.4759929033942057 0.07525104672214904 -0.1499987630113278  0.5009324979511083 0.07507778270172469 -0.1500454259839512  0.5259049940286348 0.0748999254620524 -0.1500912118175741  0.5509013131349684 0.0746785525721288 -0.1501416846927828  0.4512514047493661 0.1004507911683047 -0.1499201305119618  0.4762051713507734 0.1002752650738097 -0.1499881832456483  0.5011671595429161 0.1000925180689726 -0.1500447338843194  0.5261464497928494 0.09990058865302967 -0.1500994524231298  0.5511356364964134 0.09969151381706538 -0.1501590232561049  0.4514080878615336 0.1254488941652824 -0.1499007067907005  0.4763830668826378 0.1252839570668507 -0.1499761963143532  0.5013616912797272 0.1251001677941863 -0.1500421835928369  0.526348142847755 0.1249075750723894 -0.1501060699483879  0.5513380968712467 0.1247131293079206 -0.1501739725746579  0.4515571408669093 0.1504463681666738 -0.1498856983361828  0.4765441771233044 0.150283332875917 -0.1499667580782887  0.5015340484557214 0.1501028028315153 -0.1500406147541391  0.5265263887481678 0.1499145323556553 -0.1501125335802266  0.5515203050010627 0.1497299902540679 -0.15018761958477  0.4517141613852044 0.1754465920435087 -0.149877674296695  0.4767060634605342 0.1752814511516317 -0.1499624302799796  0.5017010947314529 0.1751036567874703 -0.1500410769063062  0.5266974844193443 0.1749192740620235 -0.1501181685659979  0.5516955702338374 0.174738249991112 -0.1501985313348337  0.4518767130819267 0.2004473522459778 -0.1498796045791837  0.4768742045863055 0.2002802241888973 -0.1499648843176744  0.5018747352000386 0.2001037691414455 -0.1500436243360802  0.5268738671997933 0.1999216010324568 -0.1501208404383083  0.5518734215616179 0.1997409986632759 -0.1502024378660933  0.45 0 -0.125  0.475 0 -0.125  0.5 0 -0.125  0.525 0 -0.125  0.55 0 -0.125  0.4506068310352719 0.02531528588607815 -0.1249603778378767  0.4754343625043906 0.02509604407787104 -0.1249917756428998  0.5003343750722067 0.02502128663968906 -0.1250144149338627  0.5253069260102144 0.02495568048493556 -0.1250372588177748  0.5503598565281427 0.02478036581282976 -0.1250618939043155  0.4509102453994971 0.05041922736327104 -0.1249342061891396  0.4757849949575531 0.05020116489530436 -0.1249842115340879  0.5006910219763985 0.0500558961360154 -0.1250242610408423  0.5256567995827157 0.04991549841348217 -0.1250623364248014  0.5506751991382365 0.04968793462137522 -0.1251025158349887  0.4511410577532188 0.07546073080877738 -0.1249123546542548  0.4760616084563702 0.07526248121308286 -0.1249765271257776  0.5009947131657467 0.0750830202590365 -0.1250291724652084  0.5259640479853022 0.07489949788802377 -0.1250792126435138  0.5509592541528336 0.07466886942222795 -0.1251332521664731  0.4513346331924754 0.1004691615563804 -0.124893709148578  0.4762832855096473 0.1002870339788374 -0.1249678895699766  0.5012403992760421 0.1000980230754347 -0.1250311436733478  0.5262167905595225 0.09989978744102458 -0.1250916983942996  0.5512038755792494 0.09968281204499302 -0.1251569211014134  0.4514955488449373 0.1254648828080777 -0.1248786004464533  0.4764668240386283 0.1252950950660874 -0.1249602103633618  0.5014418742352467 0.1251054100669079 -0.1250324020513716  0.5264259786564868 0.1249066791974201 -0.1251021494559454  0.5514139481798788 0.1247055232263434 -0.1251762725328961  0.4516469926055648 0.1504601452298059 -0.1248687952021662  0.476631319064682 0.1502932316961323 -0.1249555334934421  0.5016187347503934 0.1501076502546093 -0.1250345397722476  0.5266094144249686 0.1499138727704381 -0.125111514082225  0.5516020493899106 0.1497236270731327 -0.1251925167216926  0.4518067566362076 0.175459317159328 -0.1248653182917024  0.4767961103238784 0.1752906344633676 -0.1249554811864472  0.5017891914625411 0.1751083967818367 -0.1250381961750187  0.5267845449414745 0.1749190702471293 -0.1251192817637979  0.5517822436586243 0.1747329866957638 -0.1252051529376954  0.4519726638941483 0.2004600481968516 -0.1248719429126104  0.4769674782945594 0.2002891813098197 -0.1249622298944836  0.501966384376239 0.2001086224317846 -0.1250436007845449  0.5269649778849829 0.1999219409848335 -0.1251232951701838  0.5519649392689066 0.1997365189797448 -0.1252097528531608  0.45 0 -0.1  0.475 0 -0.1  0.5 
[...]
<PointData  Tensors="Piola Kirchhoff sec Stress"> 
<DataArray  type="Float64"  Name="Piola Kirchhoff sec Stress"  NumberOfComponents="9" format="ascii">6.0774771306181674e+02 1.6357000298483711e+03 7.8000587059302717e+01 1.6357000298483708e+03 3.0808952451890295e+03 2.2214051871011569e+02 7.8000587059302745e+01 2.2214051871011566e+02 1.3577359489702678e+03  8.9419604179138773e+01 9.0533847554280817e+02 -5.1072443233482911e-01 9.0533847554280817e+02 4.6030769012967994e+02 5.7471163313446397e+01 -5.1072443233481646e-01 5.7471163313446397e+01 1.9791109748504309e+02  -1.4223705686968748e+02 6.4556662970666616e+02 -1.5912346628773554e+01 6.4556662970666616e+02 -2.1602233362810054e+02 -1.3959170917952824e+02 -1.5912346628773570e+01 -1.3959170917952824e+02 -5.5911212212575315e+01  -5.0646741675688639e+02 5.4890262987209258e+02 -3.5532225353375239e+01 5.4890262987209201e+02 -8.5191981879498871e+02 -3.7617908176179429e+02 -3.5532225353375246e+01 -3.7617908176179429e+02 -3.0963196537118421e+02  -2.7805136354546289e+03 9.2928942064802811e+02 2.1548332119352384e+02 9.2928942064802766e+02 -4.1295337593715212e+03 -7.8753396973164718e+02 2.1548332119352384e+02 -7.8753396973164706e+02 -2.1390193016491735e+03  -1.2242842945725420e+03 1.2016962870298569e+01 2.1098563192059736e+01 1.2016962870298565e+01 6.7797199852951792e+02 -1.0803306303523943e+01 2.1098563192059736e+01 -1.0803306303523946e+01 4.8766611603762922e+00  -7.5181074098422221e+02 6.6114920046438601e+02 -2.0719214420527116e+01 6.6114920046438601e+02 6.0441517363979449e+02 -4.9510687327729492e+01 -2.0719214420527106e+01 -4.9510687327729499e+01 5.5193876584416749e+01  -3.0792604041115470e+02 6.9264515169019012e+02 -2.7840029570914758e+01 6.9264515169019046e+02 1.4982349372094325e+02 -1.0047568059574152e+01 -2.7840029570914758e+01 -1.0047568059574155e+01 7.0975714361852923e+01  -3.4097473555814346e+01 5.9227043251573787e+02 -3.1637374824024043e+01 5.9227043251573798e+02 -3.4097512316343676e+02 4.6529855211234327e+01 -3.1637374824024050e+01 4.6529855211234320e+01 8.6344916811188298e+01  7.0839620550164142e+01 1.0603977846185025e+02 -3.8458737163465656e+01 1.0603977846185026e+02 -8.0665093197461113e+02 9.5016741586990435e+01 -3.8458737163465649e+01 9.5016741586990420e+01 5.8988341605182065e+01  -8.8402183493263806e+02 4.2145397756421360e+01 -3.5620694955498013e+00 4.2145397756421318e+01 3.0141897351356772e+02 1.2353123909590721e+01 -3.5620694955497996e+00 1.2353123909590717e+01 6.2802314160145045e+01  -6.5880817013862463e+02 3.2619490821726453e+02 -7.3804705119407732e+00 3.2619490821726453e+02 4.4608468167636465e+02 -5.1525971587327701e+00 -7.3804705119407776e+00 -5.1525971587327684e+00 4.5474525540418568e+01  -3.1297375268464157e+02 4.7342351701849350e+02 -4.2617234360327512e+00 4.7342351701849367e+02 2.0958586468726563e+02 6.5044538581220461e+00 -4.2617234360327529e+00 6.5044538581220399e+00 6.8054683909428007e+01  -3.3166661375110763e+01 3.9461057621822602e+02 -1.0451321644130316e+00 3.9461057621822596e+02 -1.2786727475933765e+02 2.5229702721498224e+01 -1.0451321644130296e+00 2.5229702721498221e+01 6.3537293143363975e+01  1.0625805616704264e+02 1.5730952817712879e+01 -2.1065881268499642e+00 1.5730952817712868e+01 -1.8910437234894152e+02 2.7259489845502486e+01 -2.1065881268499664e+00 2.7259489845502486e+01 1.0022210923365205e+02  -5.5918991377585348e+02 -3.6791493984591035e+01 -4.3746315076851392e+00 -3.6791493984591042e+01 5.4975810338062672e+01 3.0494536253455099e+01 -4.3746315076851490e+00 3.0494536253455095e+01 6.0435626506901897e+01  -4.5297244926696851e+02 1.0376483069993718e+02 -4.5253191668459056e+00 1.0376483069993722e+02 2.2390188516761816e+02 1.0046951991373186e+01 -4.5253191668459003e+00 1.0046951991373193e+01 4.1600053273054250e+01  -2.2350041908022166e+02 2.1234446400386739e+02 2.8884541782502295e+00 2.1234446400386733e+02 1.4948704762403702e+02 1.1184168820803329e+01 2.8884541782502406e+00 1.1184168820803331e+01 5.6408417562789971e+01  -1.9527901974989430e+01 1.7085672320138161e+02 6.9517585494937215e+00 1.7085672320138161e+02 1.6136679684895579e+01 1.4075138012825313e+01 6.9517585494937206e+00 1.4075138012825310e+01 5.4515433776509269e+01  9.0003466435784958e+01 -2.9465855143577460e+00 -4.0576519571184289e+00 -2.9465855143577877e+00 1.2628317895646295e+02 4.1282571892791742e+00 -4.0576519571184289e+00 4.1282571892791724e+00 7.2937145324169265e+01  -4.0989226189815395e+02 2.6024863128624065e-01 -1.8349011320554449e+00 2.6024863128623682e-01 -5.5711770086513447e+01 2.0802122249015031e+01 -1.8349011320554458e+00 2.0802122249015021e+01 3.7962114192602840e+01  -2.7419406361583833e+02 -7.9592702147485541e+00 -3.9346248922093863e+00 -7.9592702147485435e+00 7.6715564341136528e+01 8.8507751881446044e+00 -3.9346248922093854e+00 8.8507751881446008e+00 3.6889750516942676e+01  -1.2891356513315259e+02 2.7547610751716594e+01 3.8487628488822705e+00 2.7547610751716565e+01 8.6143203714237330e+01 9.0809647708248633e+00 3.8487628488822723e+00 9.0809647708248580e+00 4.7178870282079387e+01  -4.4516008936593838e+00 1.2543519697468708e+01 6.5188443150755173e+00 1.2543519697468716e+01 7.7559142873793661e+01 8.3915365015593384e+00 6.5188443150755182e+00 8.3915365015593366e+00 4.7528872006945996e+01  7.3958650732411115e+01 -1.7801925635638515e+01 -3.6983643624820757e+00 -1.7801925635638508e+01 2.2690158082299473e+02 -1.0043128356785200e+01 -3.6983643624820730e+00 -1.0043128356785203e+01 6.0652620023031226e+01  -1.7657281965080509e+02 -4.2356509891262633e+01 -2.7975252510335689e+00 -4.2356509891262640e+01 -6.1580274482105878e+01 2.6825373616635435e+01 -2.7975252510335684e+00 2.6825373616635435e+01 4.0809659605345452e+01  -1.2661376958143089e+02 -8.5190478596599135e+01 -2.4306524662630262e+00 -8.5190478596599135e+01 6.3175044717199080e+00 9.0802032544378832e+00 -2.4306524662630284e+00 9.0802032544378743e+00 3.5177999804427522e+01  -5.1839704546285020e+01 -7.4320975598626390e+01 2.7163576566576833e+00 -7.4320975598626376e+01 4.7585370069901877e+01 6.8927308261490010e+00 2.7163576566576784e+00 6.8927308261490037e+00 4.2443308550311919e+01  9.4719960675599690e+00 -7.0147239601356830e+01 4.4073582043066528e+00 -7.0147239601356816e+01 9.1917434369284962e+01 5.3332200436953441e+00 4.4073582043066519e+00 5.3332200436953441e+00 4.3508195333520199e+01  6.1893045447481377e+01 -2.3864393438068326e+01 -3.0237380070111328e+00 -2.3864393438068326e+01 2.0669340213743499e+02 -1.5981286453324993e+01 -3.0237380070111310e+00 -1.5981286453324987e+01 5.4315661905905138e+01  -6.1061022799154550e+01 -6.8696181864749768e+00 -3.4232076299137968e+00 -6.8696181864749821e+00 -1.3018264910408128e+01 1.1089368222654764e+01 -3.4232076299137977e+00 1.1089368222654763e+01 4.4749406516817473e+01  -2.3053045208989477e+01 -7.4701065772827178e+01 -3.5363125358096825e+00 -7.4701065772827178e+01 -1.2979741896140442e+01 5.1250321071183489e+00 -3.5363125358096825e+00 5.1250321071183507e+00 3.7905775297364869e+01  2.2777154271295750e+00 -9.3681182117431561e+01 1.1723150445320276e+00 -9.3681182117431590e+01 3.3991735046335840e+01 4.1227593046081070e+00 1.1723150445320247e+00 4.1227593046081061e+00 4.1603252192364543e+01  2.1883364559598018e+01 -8.6526950947356127e+01 2.4029091493084218e+00 -8.6526950947356141e+01 8.6370110499049431e+01 3.1397618179141533e+00 2.4029091493084223e+00 3.1397618179141569e+00 4.3030912569627603e+01  5.4937297880598024e+01 -2.1602717381644887e+01 -2.8620489573195180e+00 -2.1602717381644887e+01 1.4022941652528766e+02 -1.4240471653836245e+01 -2.8620489573195176e+00 -1.4240471653836243e+01 5.1887934943043817e+01  -9.2889442183774662e+00 -6.3976939839099778e+00 -7.8762855219881400e-01 -6.3976939839099778e+00 2.0573091840009493e+01 3.2855333063584453e+00 -7.8762855219881367e-01 3.2855333063584484e+00 4.6448232798646124e+01  2.6080421321890356e+01 -4.5260893128015141e+01 -1.4063403225092901e+00 -4.5260893128015148e+01 1.8996322749772574e+01 1.7588277931912848e+00 -1.4063403225092894e+00 1.7588277931912839e+00 4.2837066895276919e+01  3.9370695443051574e+01 -6.8052579785946904e+01 9.2120877144298141e-01 -6.8052579785946890e+01 4.3721609691362836e+01 2.7703890501447201e+00 9.2120877144297963e-01 2.7703890501447206e+00 4.5097325970260869e+01  3.7279363438461580e+01 -5.9314535817974132e+01 1.5183860613714533e+00 -5.9314535817974111e+01 7.2526778926277601e+01 3.3089468899275203e+00 1.5183860613714526e+00 3.3089468899275194e+00 4.3869789341486651e+01  5.1466813850715099e+01 -1.0854673730636240e+01 -4.2681653460866169e+00 -1.0854673730636248e+01 7.8101225539927000e+01 -5.1578077618927276e+00 -4.2681653460866169e+00 -5.1578077618927276e+00 4.8822065730821201e+01  2.6785753988274621e+01 5.6435219031569419e+00 -1.2740243733595880e+00 5.6435219031569419e+00 4.5910992883923939e+01 -2.5091980534415432e+00 -1.2740243733595875e+00 -2.5091980534415446e+00 3.5348535020936602e+01  8.5252180234598086e+01 -5.1757833876451160e+00 -3.4916731740133335e+00 -5.1757833876451187e+00 4.9962852458126115e+01 1.0730304903523924e+00 -3.4916731740133349e+00 1.0730304903523933e+00 4.4501278985355661e+01  7.6929064276955131e+01 -1.1704966851773538e+01 -4.7013231093466761e+00 -1.1704966851773543e+01 5.9123910034192363e+01 5.0433318411931864e+00 -4.7013231093466787e+00 5.0433318411931873e+00 5.0013618309277696e+01  3.8974948538766441e+01 -9.0544729557663270e+00 -2.2680265863877915e+00 -9.0544729557663217e+00 5.8673544503430413e+01 6.6481169236219841e+00 -2.2680265863877924e+00 6.6481169236219841e+00 4.7427012248304827e+01  4.6104718977219740e+01 6.0204217889796512e+00 -5.9370386241666626e+00 6.0204217889796690e+00 5.2840434717825822e+01 4.9992392345314887e+00 -5.9370386241666626e+00 4.9992392345314904e+00 5.3326768357877796e+01  9.5010966898262336e+02 1.7583391875333473e+03 2.5342371847672034e+01 1.7583391875333468e+03 3.5348529814528374e+03 9.6726146338957122e+01 2.5342371847672059e+01 9.6726146338957108e+01 1.7687657721172750e+03  1.4393327209698322e+02 9.8562144100892840e+02 9.6575160790305397e+00 9.8562144100892806e+02 6.5308331616526357e+02 1.3418916728153070e+01 9.6575160790305379e+00 1.3418916728153073e+01 3.0327735657268403e+02  -3.8936682933576726e+01 7.3679539208273854e+02 -1.0421449528880144e+01 7.3679539208273866e+02 -2.4935992693106265e+01 -9.5613378113850416e+01 -1.0421449528880137e+01 -9.5613378113850416e+01 -1.5215658648623146e+01  -3.3148443072918457e+02 6.5829134805846331e+02 -2.7556042433693595e+01 6.5829134805846309e+02 -4.9770859753940260e+02 -2.1508156971718827e+02 -2.7556042433693598e+01 -2.1508156971718827e+02 -2.8194003809343258e+02  -2.6330896671189475e+03 1.0948855188524476e+03 5.7336416199708772e+01 1.0948855188524476e+03 -3.6252033089709780e+03 -4.0753459698174282e+02 5.7336416199708765e+01 -4.0753459698174282e+02 -2.3352103445266757e+03  -9.1646545721772497e+02 -9.7845360864599385e+01 9.3046068618792020e+01 -9.7845360864599385e+01 6.6353273006428822e+02 1.9791381568772053e+01 9.3046068618791992e+01 1.9791381568772053e+01 -4.4319298599157278e+01  -7.0331638045979605e+02 7.3509785996933238e+02 6.2054540489339205e+00 7.3509785996933181e+02 7.2063717657872371e+02 -4.3913004518032579e+01 6.2054540489339214e+00 -4.3913004518032608e+01 -3.2848147818299026e+01  -3.5496439402107495e+02 7.7183783136162981e+02 -3.1866460849997615e+01 7.7183783136162981e+02 1.2464546216672289e+02 -7.3683786255454720e+01 -3.1866460849997615e+01 -7.3683786255454720e+01 -2.1601513278054352e+01  -1.3968173857947190e+02 6.7232640049151189e+02 -4.1612855502855702e+01 6.7232640049151166e+02 -5.2541625581891731e+02 -1.0223306692158195e+02 -4.1612855502855695e+01 -1.0223306692158197e+02 -7.1378410077153418e+01  1.9730360308205968e+02 1.6749599668513983e+02 -3.7779682691331764e+01 1.6749599668513989e+02 -1.3349040201562764e+03 -1.6229312929429148e+02 -3.7779682691331764e+01 -1.6229312929429150e+02 -5.7906305820214122e+01  -6.7330624926382802e+02 2.6953544266255207e+01 6.9271459077339358e+01 2.6953544266255218e+01 3.4230956334119992e+02 5.5085189033701205e+01 6.9271459077339358e+01 5.5085189033701205e+01 1.0246014594613200e+02  -6.1873790002077885e+02 3.4328872669071711e+02 2.3184583287138771e+01 3.4328872669071723e+02 3.6874705079304010e+02 -1.3995033574794308e+01 2.3184583287138764e+01 -1.3995033574794308e+01 -1.6187844224689893e+01  -3.3307146001470835e+02 5.0646164736417694e+02 4.5751051237921372e+00 5.0646164736417694e+02 1.4049257324507681e+02 -1.8660391688721848e+01 4.5751051237921372e+00 -1.8660391688721852e+01 3.6368266395834020e+01  -5.7956523053739367e+01 4.1056473987549970e+02 -3.5943323211169278e+00 4.1056473987549964e+02 -2.2263292320596790e+02 -1.4505257464399859e+01 -3.5943323211169314e+00 -1.4505257464399868e+01 4.1157388158398994e+01  1.3268449919532131e+02 1.9862418148058996e+01 -3.7765908697128475e-01 1.9862418148059103e+01 -3.0352364197999037e+02 -2.9805799763688540e+01 -3.7765908697128669e-01 -2.9805799763688515e+01 1.1399180831810806e+02  -4.0972280341662616e+02 -1.7190380872091726e+01 4.2548866982185089e+01 -1.7190380872091730e+01 7.2598924635790453e+01 9.1521015627310319e+01 4.2548866982185082e+01 9.1521015627310334e+01 1.1957811395867628e+02  -4.2664817581816578e+02 1.3843596391431046e+02 2.5880485882254671e+01 1.3843596391431043e+02 1.6530696779740009e+02 3.7976845516426572e+01 2.5880485882254675e+01 3.7976845516426565e+01 7.8349774921813840e+00  -2.5065545479472834e+02 2.3604567957463291e+02 2.7939172121771009e+01 2.3604567957463294e+02 8.7624925792722422e+01 1.3941420734604398e+01 2.7939172121771012e+01 1.3941420734604399e+01 3.8548428060328192e+01  -2.5461534463386055e+01 1.8548355898745598e+02 2.3647798314274166e+01 1.8548355898745592e+02 -9.8143480819443596e+00 1.4238522749275371e+00 2.3647798314274180e+01 1.4238522749275366e+00 6.4022316345714600e+01  1.1237264397622114e+02 -1.0975679851152142e+01 8.6672755329597528e+00 -1.0975679851152128e+01 1.2029051153252426e+02 -2.2143595122004722e+01 8.6672755329597546e+00 -2.2143595122004715e+01 1.1939583727547544e+02  -3.1338777995154584e+02 1.4443618733658505e+01 3.4816069122762443e+01 1.4443618733658502e+01 -2.9757980340477381e+01 9.7352607501846066e+01 3.4816069122762443e+01 9.7352607501846066e+01 7.7701872376756299e+01  -2.6031073940875478e+02 3.1675820147041396e+01 2.3656741376539429e+01 3.1675820147041385e+01 4.8180785869758701e+01 5.0984849517102212e+01 2.3656741376539411e+01 5.0984849517102198e+01 1.7321436503905257e+01  -1.4892509345044357e+02 6.0889016035969561e+01 3.1493238247200011e+01 6.0889016035969547e+01 6.0824601293995741e+01 2.2606737692190702e+01 3.1493238247200015e+01 2.2606737692190709e+01 4.0660680145888854e+01  -4.6438570052040467e+00 4.0297302954122614e+01 2.7787567386083250e+01 4.0297302954122635e+01 8.1857697393131218e+01 -3.0000628074552758e+00 2.7787567386083246e+01 -3.0000628074552766e+00 6.0879670473748881e+01  9.2374793125291077e+01 -1.3697559940475951e+01 7.2142881970962218e+00 -1.3697559940475958e+01 2.5510728308963834e+02 -3.6496176475602631e+01 7.2142881970962192e+00 -3.6496176475602610e+01 9.5125023710804655e+01  -1.2608970622746432e+02 -1.8375190690798487e+01 1.5887866391676551e+01 -1.8375190690798469e+01 -2.0827208788934531e+01 9.0574351360792491e+01 1.5887866391676550e+01 9.0574351360792491e+01 9.2752096602768361e+01  -1.2580340254586008e+02 -4.3185934915065900e+01 1.5479413254546108e+01 -4.3185934915065900e+01 1.0933336454500717e+01 4.8844520767781731e+01 1.5479413254546103e+01 4.8844520767781724e+01 2.9575557858101607e+01  -6.6478068641273367e+01 -3.6588224846858324e+01 2.3876193773741488e+01 -3.6588224846858331e+01 4.3142766599358303e+01 2.0405890036598660e+01 2.3876193773741477e+01 2.0405890036598656e+01 4.0422001466318754e+01  1.1852436228009772e+01 -3.5156337394533779e+01 2.1115940270733528e+01 -3.5156337394533786e+01 1.0104406742142667e+02 -9.2545474007532196e+00 2.1115940270733528e+01 -9.2545474007532214e+00 5.2586356641358009e+01  7.4789655664583407e+01 -1.1065489877568529e+01 3.2804877403958872e+00 -1.1065489877568529e+01 2.3299874415400586e+02 -4.7132396742164531e+01 3.2804877403958868e+00 -4.7132396742164531e+01 6.6989107228290564e+01  -3.6485045386995395e+01 4.2345527668930103e+00 6.9817983391543903e+00 4.2345527668930147e+00 4.0359121852664437e+01 6.0641745432817729e+01 6.9817983391543894e+00 6.0641745432817714e+01 9.3645404284519643e+01  -2.2538003878432082e+01 -4.5459150035243539e+01 6.3258827957328787e+00 -4.5459150035243574e+01 7.8686352394126615e+00 3.4918051971299313e+01 6.3258827957328823e+00 3.4918051971299306e+01 4.0475128087043750e+01  -6.7598753792188413e+00 -6.1736475044533613e+01 1.3652785747850240e+01 -6.1736475044533591e+01 3.9303559847002916e+01 1.3170435998731190e+01 1.3652785747850238e+01 1.3170435998731190e+01 4.1796338045328987e+01  2.4948147165626629e+01 -5.4938942990377399e+01 1.2101481087939538e+01 -5.4938942990377399e+01 8.8694806774763407e+01 -1.1661095269909154e+01 1.2101481087939536e+01 -1.1661095269909158e+01 4.5373429526174718e+01  6.4022237488577957e+01 -6.2919113976276568e+00 -6.5102957273623607e-01 -6.2919113976276702e+00 1.5038232057555317e+02 -4.5051081572419847e+01 -6.5102957273623785e-01 -4.5051081572419847e+01 4.4162877132541105e+01  2.6612409920175528e+00 7.5322617390359081e-01 1.4521429877195016e+00 7.5322617390358815e-01 5.1251032211209314e+01 3.0695846404654052e+01 1.4521429877195013e+00 3.0695846404654048e+01 8.1745598898625985e+01  2.3532459966670103e+01 -2.7306274456371462e+01 2.3566753391529307e+00 -2.7306274456371462e+01 3.2950571159453524e+01 1.7819390482303131e+01 2.3566753391529294e+00 1.7819390482303138e+01 4.6335604350557169e+01  3.1311779306561590e+01 -4.5820830045262696e+01 7.2872140720797569e+00 -4.5820830045262674e+01 4.6482626590864641e+01 7.0603439345293371e+00 7.2872140720797551e+00 7.0603439345293353e+00 4.3575260700745503e+01  3.8074589166448796e+01 -3.8459829850017691e+01 6.0231287035311043e+00 -3.8459829850017719e+01 6.9020399586116000e+01 -7.1604422175422524e+00 6.0231287035311025e+00 -7.1604422175422524e+00 4.0519678109722470e+01  5.9956466656623519e+01 7.8517821964179990e-01 -3.5742908608620922e+00 7.8517821964178969e-01 7.5091875857096966e+01 -2.8677621471152779e+01 -3.5742908608620914e+00 -2.8677621471152779e+01 2.8880082967095504e+01  3.0248271807468548e+01 7.6153633263156042e+00 2.2826429828957484e+00 7.6153633263156042e+00 5.3953937688638661e+01 5.7959179453524099e+00 2.2826429828957484e+00 5.7959179453524090e+00 5.3117866057697476e+01  7.5978406883460110e+01 -2.3618641770486024e-01 1.2268810670255748e+00 -2.3618641770486287e-01 4.9765323872592191e+01 4.0415711626055035e+00 1.2268810670255743e+00 4.0415711626055018e+00 4.0297483960596026e+01  6.9804100376654517e+01 -4.5030613532967392e+00 4.8164519897103126e+00 -4.5030613532967463e+00 5.7424830897808057e+01 5.0083311544368705e+00 4.8164519897103126e+00 5.0083311544368687e+00 4.4513038693058476e+01  4.3370563796295599e+01 -7.2977328330512770e-01 5.3458594827676542e+00 -7.2977328330512403e-01 5.6202179947424675e+01 3.9378741158601400e+00 5.3458594827676533e+00 3.9378741158601400e+00 3.9132698861261268e+01  6.0553880267005397e+01 1.2611785054615080e+01 -4.6022499993631243e+00 1.2611785054615083e+01 5.0072809153854649e+01 -2.1689448103414004e+00 -4.6022499993631243e+00 -2.1689448103413982e+00 3.6713000794350961e+01  9.5392743304179442e+02 2.0003313534057288e+03 -1.1316926091136608e+00 2.0003313534057288e+03 3.7311415037308329e+03 1.0020817606578839e+02 -1.1316926091136763e+00 1.0020817606578844e+02 1.8638698550897445e+03  1.3191914215335868e+02 1.0919125557157320e+03 1.1859799083021132e+01 1.0919125557157320e+03 6.6602154466332274e+02 7.3412640857989393e+00 1.1859799083021137e+01 7.3412640857989322e+00 3.2950084015417161e+02  -4.0678853207944286e+01 8.0225371189600378e+02 -5.9584023159583159e+00 8.0225371189600367e+02 -2.1924510875707284e+01 -7.5235202780193845e+01 -5.9584023159583159e+00 -7.5235202780193845e+01 -2.0782662521136483e+01  -3.3954271659400433e+02 7.1441331295545353e+02 -2.2538943886564692e+01 7.1441331295545331e+02 -4.8837235650590816e+02 -1.5209358436028174e+02 -2.2538943886564688e+01 -1.52093584360