<?xml version="1.0"?>
<VTKFile type="UnstructuredGrid"  version="0.1"  >
<UnstructuredGrid>
<Piece  NumberOfPoints="405" NumberOfCells="1536">
<Points>
<DataArray  type="Float64"  NumberOfComponents="3"  format="ascii">0.45 0 -0.2  0.475 0 -0.2  0.5 0 -0.2  0.525 0 -0.2  0.55 0 -0.2  0.4501413534165342 0.02506122558287048 -0.2000154486812143  0.4750936566809903 0.02501728427897775 -0.200010061844047  0.5000685612183543 0.02500156178187503 -0.2000128815180398  0.5250586455530386 0.02498713804748922 -0.2000202433647494  0.5500622268982793 0.02495202702094556 -0.2000294706986067  0.4501868551330186 0.05007986677998785 -0.2000161275654942  0.4751573011914816 0.05004208738639736 -0.2000149599366755  0.5001357034598226 0.05001288073148004 -0.200018315715725  0.525125786486741 0.04998476963193391 -0.2000232924648573  0.5501255585247952 0.04994164454072054 -0.2000294757907586  0.450215176282559 0.07508808281557246 -0.200007996599444  0.4751998301564411 0.07505635038428057 -0.2000128020594621  0.5001874532507143 0.07502192424731537 -0.200017879353301  0.5251808974207671 0.07498639336265826 -0.2000225287075817  0.5501786823347778 0.07494449363011817 -0.2000278340184845  0.4502381591313376 0.100089862152744 -0.1999984076424984  0.4752309902328328 0.1000608473367136 -0.2000073499764189  0.5002256384375806 0.1000260712889485 -0.2000150985510601  0.5252221920793029 0.09998892881310661 -0.2000215598194432  0.550219728434879 0.09995117252250441 -0.2000284785343139  0.4502608419649399 0.125089378722957 -0.1999906548423119  0.4752578973145386 0.1250610798903517 -0.2000021387120497  0.5002558261388586 0.1250271632825268 -0.2000123639092606  0.525254106002367 0.1249910888017071 -0.200021426127076  0.5502521305937642 0.1249571204725284 -0.2000309537368831  0.450285666243829 0.1500885015083835 -0.1999856727989834  0.4752837818508631 0.1500597517746639 -0.1999984232740492  0.5002828106673806 0.1500270006019446 -0.2000105448940696  0.525281789870972 0.1499925809091079 -0.2000220094884426  0.5502804491842433 0.1499606889387345 -0.20003403864882  0.4503131986101127 0.175088537146403 -0.1999832385969127  0.4753111466394623 0.1750589310852562 -0.1999963064722816  0.5003101186551921 0.1750268259356057 -0.2000095969617217  0.5253093424949177 0.1749935224974347 -0.2000227755889198  0.5503085953941067 0.1749619633100322 -0.2000365574508763  0.4503432503690626 0.2000896875441448 -0.1999818171527459  0.4753408700037564 0.2000590770388343 -0.199994877846039  0.5003402565328228 0.2000269367874339 -0.2000090082535096  0.5253395948687187 0.1999939908043821 -0.2000233088526736  0.5503389052524054 0.199961958380159 -0.2000378750066807  0.45 0 -0.175  0.475 0 -0.175  0.5 0 -0.175  0.525 0 -0.175  0.55 0 -0.175  0.4501318383584326 0.0250659748394896 -0.1750043576492827  0.4750958989351182 0.02502160752906653 -0.1750072100459403  0.5000727536194709 0.02500577358369115 -0.175009603140189  0.5250645120761619 0.02499215691058003 -0.175014333293791  0.5500714437650276 0.02495701075030233 -0.1750205591530583  0.4501851622399033 0.05008133824681414 -0.1750049838894276  0.4751616474659217 0.05004333816518152 -0.1750106390002386  0.5001419626366842 0.05001474609366679 -0.1750149381431186  0.525132783285 0.04998654671586687 -0.1750201263085759  0.5501335430796386 0.04994230478707441 -0.1750269089981477  0.4502199749736879 0.07508613617957105 -0.1749999766956405  0.4752072296575441 0.07505477421762696 -0.1750088391351453  0.5001951979676377 0.07502150011310854 -0.1750152856352704  0.5251886014970715 0.07498640054013987 -0.1750213827052391  0.5501863481063889 0.07494387480105123 -0.1750290467363347  0.4502476039395052 0.100087032700816 -0.1749932190385633  0.4752410658230766 0.1000583410956917 -0.1750045020565207  0.5002351480310135 0.1000248196605829 -0.1750133775295572  0.5252312502553359 0.09998866721397849 -0.1750214039971624  0.5502285792610807 0.09995078101991405 -0.1750306317248145  0.4502725274219839 0.1250866920201676 -0.1749873539522481  0.4752696316540309 0.1250588587056159 -0.1750001444925555  0.5002669728008969 0.1250260695938019 -0.1750112495228063  0.525264873486314 0.1249911164578884 -0.1750215547738755  0.5502628796059831 0.1249572433574829 -0.1750326505987427  0.450298353998103 0.1500866098446931 -0.1749835165071604  0.4752965472026797 0.1500582249668244 -0.1749970530997494  0.5002953104168788 0.1500263137238875 -0.1750098205092562  0.5252941707480343 0.1499928616053024 -0.1750221063817401  0.5502930786968162 0.1499611389069045 -0.1750348909053211  0.4503259891886449 0.1750870819014188 -0.174981651630753  0.4753244269262262 0.1750578895942508 -0.1749954085934446  0.5003235533480541 0.1750264155135945 -0.1750091684850486  0.5253229049805817 0.1749938375743587 -0.175022791165329  0.5503225667657455 0.1749624745518991 -0.1750367583647883  0.4503550376665678 0.2000877668206431 -0.1749808441627177  0.4753541042216609 0.2000579849585497 -0.1749946665877559  0.5003539276505107 0.2000265696729078 -0.1750089741787453  0.5253535652274794 0.1999942479690071 -0.1750232000021847  0.5503534402988872 0.1999624794718942 -0.1750376652288294  0.45 0 -0.15  0.475 0 -0.15  0.5 0 -0.15  0.525 0 -0.15  0.55 0 -0.15  0.4501466359523622 0.02506899932020239 -0.1499974885849017  0.4751041221484538 0.02502212038462585 -0.1500043145746055  0.5000778733565376 0.02500637125135813 -0.1500070111945082  0.5250688635667783 0.02499302412097958 -0.1500106033304885  0.5500769997238742 0.02495666679818148 -0.1500154159283315  0.4502017077342835 0.05008481984449081 -0.1499953568719888  0.475173807125167 0.05004507675217122 -0.1500054958849275  0.5001512688888818 0.05001592027936904 -0.1500110215945956  0.5251413283736284 0.04998768290683767 -0.1500167132171984  0.5501423107153514 0.04994230706807885 -0.1500240472067585  0.4502367395496233 0.07508924554432159 -0.1499914653988509  0.4752211255446325 0.07505674413374037 -0.1500039473517475  0.500207061389827 0.07502269781021594 -0.1500118482996847  0.5251996321353449 0.07498706218153574 -0.1500193724163957  0.5501968192758837 0.07494345787574165 -0.150028747995442  0.4502642642175871 0.1000889964693909 -0.1499869616262642  0.4752557210084991 0.1000598249534578 -0.1500007750986557  0.5002483849252906 0.1000256911368737 -0.1500109441625159  0.5252437294950321 0.09998889509119523 -0.1500204901758976  0.5502403053799593 0.09994996934176605 -0.1500316234404817  0.4502882875573106 0.1250877750407068 -0.1499830324194425  0.4752843499705967 0.1250599232427618 -0.1499976004846713  0.5002808811621017 0.1250266829542968 -0.1500097112871299  0.5252782694674537 0.1249911693765091 -0.1500212424867999  0.5502757097044313 0.1249563839769687 -0.1500338973382212  0.4503132984615234 0.1500870784477815 -0.1499805396737576  0.4753110859861208 0.1500588535581008 -0.149995398562446  0.5003095621158109 0.1500267404474614 -0.1500089268407429  0.5253082028635918 0.1499928982013864 -0.150022071558829  0.5503068566173551 0.1499604615834638 -0.1500359403293192  0.45034056468897 0.1750871585369358 -0.1499794553630534  0.4753388796391523 0.1750582356181191 -0.1499944245585254  0.5003380121816733 0.1750267326155557 -0.1500087601482957  0.5253373848822516 0.1749939289201428 -0.1500229225773043  0.5503370662695595 0.1749620871229819 -0.1500376277997758  0.4503689441783362 0.2000874140314322 -0.1499796440292038  0.4753683333212703 0.2000580748123675 -0.1499945758724064  0.5003684335537408 0.2000267913033743 -0.1500091112507871  0.5253682954841862 0.1999944057100251 -0.1500234681881779  0.5503683919650826 0.1999624245570485 -0.150038401279052  0.45 0 -0.125  0.475 0 -0.125  0.5 0 -0.125  0.525 0 -0.125  0.55 0 -0.125  0.4501570725614176 0.02507269133690173 -0.1249932705903444  0.4751121997533214 0.02502274927933029 -0.1250000237810228  0.5000836825770915 0.02500658437973465 -0.1250040526753034  0.5250736842202147 0.02499303984504968 -0.1250080638995907  0.550082250533464 0.02495474567838071 -0.1250129247795496  0.4502173903730933 0.05008916903290177 -0.1249884970488929  0.4751869090297984 0.05004705573684038 -0.1249992386465148  0.5001619630915014 0.05001689296047196 -0.1250065707844298  0.5251508058142272 0.04998792138231125 -0.1250133331216558  0.5501515958512443 0.04994048867369134 -0.1250212050454521  0.4502542473428019 0.07509332808190942 -0.124984240949486  0.4752368184089493 0.0750595024363392 -0.1249977495170344  0.5002208231193042 0.07502417223355275 -0.125007516468014  0.5252122704355029 0.07498739547566356 -0.1250165602293302  0.550208805451137 0.07494208838338143 -0.1250270787542594  0.450282224925782 0.1000923108629598 -0.1249807766276794  0.4752723633430234 0.1000625100753152 -0.1249957827490309  0.5002636772055234 0.1000272317009868 -0.1250075740841778  0.5252581158494459 0.09998921086645308 -0.125018660097192  0.5502539443667069 0.09994895420873193 -0.1250311864521799  0.4503056110390043 0.125090250250114 -0.1249782713356719  0.475300973065639 0.1250622785770101 -0.1249940567379194  0.5002967009500824 0.1250280889498671 -0.1250074502876951  0.5252934803450265 0.1249914730244793 -0.1250202740165944  0.5502903342525612 0.124955669718799 -0.1250342589625579  0.4503298417262367 0.1500889660294189 -0.1249770017990677  0.4753273485760997 0.1500607144133533 -0.1249930891651247  0.5003254720455093 0.1500279310288264 -0.1250076059723675  0.5253237879348883 0.1499932140984264 -0.1250217300507556  0.5503221116883324 0.1499599935694591 -0.1250367340659291  0.4503568104927791 0.1750887774212071 -0.1249768261893669  0.4753549923691076 0.1750597820923549 -0.1249930865683022  0.5003539729528653 0.1750277820767364 -0.1250081879166858  0.5253532300720226 0.1749942821416328 -0.1250230488600299  0.5503528277330144 0.1749617811311915 -0.1250387222135058  0.4503851476712255 0.2000888930889786 -0.124978072933067  0.4753845278427961 0.2000594289575942 -0.1249942398867802  0.5003846580413389 0.2000277519920327 -0.1250092264815295  0.5253845503173092 0.1999947977166399 -0.1250239792828785  0.5503847381536464 0.1999622055598138 -0.1250397306931053  0.45 0 -0.1  0.475 0 -0.1  0.5 0 
[...]
<PointData  Tensors="Piola Kirchhoff sec Stress"> 
<DataArray  type="Float64"  Name="Piola Kirchhoff sec Stress"  NumberOfComponents="9" format="ascii">9.9909527466604047e+00 4.7288170643689006e+02 2.0076247484036127e+01 4.7288170643689023e+02 6.3707950125495495e+02 6.2438087326247462e+00 2.0076247484036124e+01 6.2438087326247373e+00 2.6341281790690158e+02  -2.9631036830248210e+01 2.6755569207077889e+02 5.7050562791312887e-01 2.6755569207077889e+02 5.0547821007288967e+01 -1.2651730689397848e+01 5.7050562791312720e-01 -1.2651730689397846e+01 1.7229152011272831e+01  -4.7556497674290405e+01 1.8707925528396811e+02 -2.9325435514977007e+00 1.8707925528396817e+02 -6.2358516865751533e+01 -3.9363966322656303e+01 -2.9325435514977003e+00 -3.9363966322656303e+01 -2.0945071909892601e+01  -1.0820025515584582e+02 1.5008610009725166e+02 -7.2348595337878852e+00 1.5008610009725166e+02 -1.7063427809177114e+02 -7.9472714237148608e+01 -7.2348595337878852e+00 -7.9472714237148622e+01 -6.3521449325232098e+01  -6.3486203969591031e+02 2.2441719617082722e+02 4.8948499087950324e+01 2.2441719617082717e+02 -9.2886634367287752e+02 -1.6527460039315289e+02 4.8948499087950331e+01 -1.6527460039315287e+02 -4.9340855932907198e+02  -3.8688542444349724e+02 -1.7273745225938988e+01 5.7404580956786777e+00 -1.7273745225938949e+01 5.6294084649369097e+01 1.0705480052548995e+00 5.7404580956786821e+00 1.0705480052549050e+00 -2.2936298660035344e+01  -2.3753279562513259e+02 1.5708134663454530e+02 -1.7791578033173667e+00 1.5708134663454524e+02 1.3371892743159387e+02 -1.1311344316007299e+01 -1.7791578033173641e+00 -1.1311344316007292e+01 1.4031759047761250e+00  -1.0403656323721680e+02 1.6898927873773752e+02 -4.5008185096254136e+00 1.6898927873773749e+02 4.2813613312387311e+01 -3.2613091652083614e+00 -4.5008185096254136e+00 -3.2613091652083592e+00 8.3010527436661139e+00  -2.9163854226783499e+01 1.4711975097356733e+02 -5.9604416897978192e+00 1.4711975097356733e+02 -6.1485619939017582e+01 9.3860217423117831e+00 -5.9604416897978210e+00 9.3860217423117849e+00 1.0572562552110211e+01  -4.8264896893277189e+00 3.0600932923095943e+01 -1.0128385106779824e+01 3.0600932923095943e+01 -1.5694382600971215e+02 2.0998117929903078e+01 -1.0128385106779827e+01 2.0998117929903078e+01 2.6057916509899086e+00  -2.3828423922392517e+02 3.1380428345204763e+00 -3.1454637889973140e+00 3.1380428345204843e+00 1.1086485228296402e+01 6.2033031498890683e+00 -3.1454637889973096e+00 6.2033031498890683e+00 3.2193635410261683e+00  -1.8184919958010704e+02 5.4147113744561814e+01 -8.9853592366151724e-01 5.4147113744561850e+01 8.2080532392316769e+01 -4.4149620392862804e-01 -8.9853592366151769e-01 -4.4149620392862815e-01 -6.9664749510483182e-01  -9.7707901485640392e+01 9.5419075654791584e+01 7.3456171289896988e-01 9.5419075654791584e+01 4.8524036788954511e+01 1.4169445015251529e+00 7.3456171289896932e-01 1.4169445015251525e+00 5.7005408711329073e+00  -2.9293456297868996e+01 8.5007728527997500e+01 1.0205744370516330e+00 8.5007728527997486e+01 -1.8001872829262201e+01 5.1852095071673974e+00 1.0205744370516336e+00 5.1852095071673983e+00 2.5446272081000569e+00  5.3044099614258933e+00 3.7324250909237917e+00 -2.0487510156809767e+00 3.7324250909238077e+00 -1.0708953008294287e+01 5.2517453376705054e+00 -2.0487510156809763e+00 5.2517453376705028e+00 1.2030045948237746e+01  -1.1807097765848933e+02 -1.8609526629123696e+01 -2.9397526776249796e+00 -1.8609526629123692e+01 -1.7201739340977692e+01 9.5375344341969370e+00 -2.9397526776249796e+00 9.5375344341969424e+00 6.7348899960974347e+00  -1.0458037195098088e+02 9.6012033532419183e-01 -7.9224956719811512e-01 9.6012033532419727e-01 2.6197693152813972e+01 3.0062553136429147e+00 -7.9224956719811446e-01 3.0062553136429120e+00 -3.0786440766101741e-01  -6.1669394165230031e+01 2.8524272908465711e+01 1.7267840861660402e+00 2.8524272908465704e+01 2.4100421835424772e+01 2.5267994462577201e+00 1.7267840861660353e+00 2.5267994462577197e+00 2.6348599950394260e+00  -2.0695342324448770e+01 2.5896225684526325e+01 2.5910914539554648e+00 2.5896225684526318e+01 6.8145070622127326e+00 2.5698442922630949e+00 2.5910914539554626e+00 2.5698442922630949e+00 4.9886287231856374e-01  4.4766664054728977e+00 -2.7007015010112476e+00 -2.2802908348328885e+00 -2.7007015010112503e+00 4.9612429824792073e+01 -6.0210701937430877e-01 -2.2802908348328890e+00 -6.0210701937430922e-01 7.4399476983354136e+00  -7.3000782961754382e+01 -3.8474489445827509e-01 -1.7511123500166463e+00 -3.8474489445827204e-01 -2.4172769378798545e+01 3.4606464647872919e+00 -1.7511123500166472e+00 3.4606464647872919e+00 2.7192967948266094e+00  -5.1011373863158092e+01 -1.1796152021172640e+01 -1.0203349739426126e+00 -1.1796152021172640e+01 -6.9210159752280633e+00 1.8149980025392523e+00 -1.0203349739426126e+00 1.8149980025392505e+00 1.1930644859984749e-01  -3.1498660765446687e+01 -7.5062401999456627e+00 1.5172915324684666e+00 -7.5062401999456574e+00 4.4400492194819803e+00 1.6615093988615905e+00 1.5172915324684626e+00 1.6615093988615894e+00 1.2920585030163434e+00  -1.2598139938090142e+01 -8.0532306401761709e+00 2.1965098540441277e+00 -8.0532306401761780e+00 1.3680165297494051e+01 1.1065450965930386e+00 2.1965098540441259e+00 1.1065450965930390e+00 9.7045704265906280e-02  3.7860789327831585e+00 -5.5350317159180431e+00 -1.9678051833820840e+00 -5.5350317159180475e+00 5.7823801556873462e+01 -3.4726435276411447e+00 -1.9678051833820853e+00 -3.4726435276411447e+00 6.6973425354088398e+00  -3.4898878115591664e+01 -4.8685735784814597e+00 -1.3781140706526542e+00 -4.8685735784814579e+00 -2.1978717257833633e+01 2.8886603483030977e+00 -1.3781140706526545e+00 2.8886603483030959e+00 3.4408448541357366e+00  -2.5032535841881820e+01 -1.8253957185619733e+01 -7.7849531840505748e-01 -1.8253957185619729e+01 -1.6307212897049087e+01 1.3695340639682532e+00 -7.7849531840505604e-01 1.3695340639682516e+00 4.2548661640113139e-01  -1.5245324302931797e+01 -2.1720656216435295e+01 8.7996194800371808e-01 -2.1720656216435309e+01 -3.8441729293928546e+00 9.0643360246905402e-01 8.7996194800372018e-01 9.0643360246905436e-01 9.6523015404390411e-01  -7.8555030888912496e+00 -2.0902057136970974e+01 1.3994851954844310e+00 -2.0902057136970967e+01 1.2437278579426629e+01 3.5910334495796825e-01 1.3994851954844310e+00 3.5910334495796770e-01 3.0317843133158506e-01  2.7936784353306470e+00 -5.5553895100254760e+00 -1.6105104110839774e+00 -5.5553895100254778e+00 4.2500938448762895e+01 -3.9171613730075152e+00 -1.6105104110839774e+00 -3.9171613730075152e+00 5.8218794479850224e+00  -2.7290828419436554e+01 2.8921421201829012e-01 -5.5078513215525404e-01 2.8921421201829212e-01 -1.3240511850929558e+01 1.0938468731453928e-01 -5.5078513215525404e-01 1.0938468731453901e-01 2.4180260290787721e+00  -1.5035793380405980e+01 -1.3527844005707566e+01 -8.9586872253234628e-01 -1.3527844005707564e+01 -1.4718402689222252e+01 3.5595581758200878e-01 -8.9586872253234617e-01 3.5595581758200789e-01 8.1784073489859821e-01  -8.7543973338328751e+00 -2.1062589083005385e+01 2.8649931207303342e-01 -2.1062589083005385e+01 -4.5456472602536548e+00 1.8392308759849768e-01 2.8649931207303531e-01 1.8392308759849746e-01 1.0229186039774802e+00  -5.7091325737548555e+00 -2.0190863863718381e+01 7.4266912585328881e-01 -2.0190863863718381e+01 8.9520876574637906e+00 -9.2529093441508489e-02 7.4266912585328870e-01 -9.2529093441508170e-02 6.2821503019908387e-01  2.0134606632879182e+00 -4.3051449709796943e+00 -1.1064227664548780e+00 -4.3051449709796907e+00 2.2091725936331045e+01 -3.3344225872132975e+00 -1.1064227664548782e+00 -3.3344225872132967e+00 5.2354715563292666e+00  -2.3549787637930375e+01 -7.4307510538443189e-01 6.5828626869732243e-01 -7.4307510538443156e-01 -4.1658018938016612e+00 -1.0573637480647642e+00 6.5828626869732298e-01 -1.0573637480647642e+00 2.7648691292353345e+00  -1.2806680800412559e+01 -7.9031769195708010e+00 -3.9148749818903855e-01 -7.9031769195708037e+00 -5.6696613393525608e+00 -2.3132012391625728e-01 -3.9148749818903850e-01 -2.3132012391625695e-01 1.4595338571194467e+00  -5.5956463070063380e+00 -1.4112979763013929e+01 1.0785875116398635e-01 -1.4112979763013930e+01 -9.6496324431333635e-01 -1.3730552257383419e-01 1.0785875116398644e-01 -1.3730552257383430e-01 1.6587003570606342e+00  -3.5897514095555674e+00 -1.2498579807520278e+01 4.6877527399541952e-01 -1.2498579807520281e+01 5.1646341234239124e+00 -5.3675472746589854e-02 4.6877527399541974e-01 -5.3675472746590312e-02 8.0120266989080546e-01  1.1164695382365397e+00 -1.8354319655370017e+00 -1.1638045786089672e+00 -1.8354319655370046e+00 6.4233997571167230e+00 -1.3678786979987487e+00 -1.1638045786089677e+00 -1.3678786979987481e+00 3.9171763692054915e+00  -2.8317408538383404e+01 4.1392235494139090e-01 1.5005360441324964e-01 4.1392235494139068e-01 6.4681825074524568e-01 -1.5424472033995202e+00 1.5005360441324900e-01 -1.5424472033995202e+00 -2.1650105803728378e-01  -7.6031895898500883e+00 -7.0262446515323973e-01 -1.1435351983824744e+00 -7.0262446515323951e-01 1.3612104040008666e+00 -2.0230617259180111e-01 -1.1435351983824742e+00 -2.0230617259180100e-01 1.4912095814094106e+00  -1.4320118540710829e+00 -2.4558101477717584e+00 -1.2986079434218496e+00 -2.4558101477717575e+00 2.6413480234059157e+00 3.3916358293694027e-01 -1.2986079434218498e+00 3.3916358293694016e-01 2.1526500971225095e+00  -4.1503412497041738e+00 -1.8076440895738535e+00 -4.4236251489525658e-01 -1.8076440895738564e+00 2.4394840999874479e+00 4.4606909630355301e-01 -4.4236251489525652e-01 4.4606909630355301e-01 1.2269356659702935e+00  4.1080305714981713e-01 1.3084531655945488e+00 -1.1419126837235276e+00 1.3084531655945522e+00 1.3791933748394236e+00 1.5724861917014399e-01 -1.1419126837235274e+00 1.5724861917014354e-01 4.1780224352755759e+00  1.0461157136630315e+02 4.9330942429113838e+02 7.6199742695678756e+00 4.9330942429113838e+02 7.7284827894331283e+02 -6.9881485342461565e+00 7.6199742695678738e+00 -6.9881485342461573e+00 3.5127541865051586e+02  -1.0524312696501843e+01 2.7892124930176823e+02 3.2668434598792699e+00 2.7892124930176817e+02 1.1678250892245359e+02 -1.5168194747081293e+01 3.2668434598792730e+00 -1.5168194747081296e+01 4.3146742252958511e+01  -2.0491439285202013e+01 2.0144844463356122e+02 -1.2948485191120480e+00 2.0144844463356122e+02 -1.2871565837011467e+01 -2.8533497208982002e+01 -1.2948485191120456e+00 -2.8533497208982006e+01 -9.6667701403261894e+00  -6.9449883822269854e+01 1.6853751857999751e+02 -5.3114798060177684e+00 1.6853751857999760e+02 -9.5959323585981423e+01 -4.6264114301360351e+01 -5.3114798060177684e+00 -4.6264114301360365e+01 -5.5487370779354691e+01  -5.9742468528559448e+02 2.5428779552965511e+02 1.3622859071870963e+01 2.5428779552965514e+02 -8.1281600627611385e+02 -8.4749232249778089e+01 1.3622859071870957e+01 -8.4749232249778089e+01 -5.2876454376143340e+02  -3.0804073149487795e+02 -4.2194517173248897e+01 3.0244500423931481e+01 -4.2194517173248869e+01 1.6706251322130775e+01 -4.7912157092714311e+00 3.0244500423931491e+01 -4.7912157092714311e+00 -6.5147958992567254e+01  -2.3912351625322739e+02 1.6975406889787124e+02 1.1111014373869663e+01 1.6975406889787129e+02 1.3748298432971009e+02 -1.7855971084195886e+01 1.1111014373869663e+01 -1.7855971084195886e+01 -3.4523353484723110e+01  -1.1941415378800362e+02 1.8198043983004030e+02 1.0704565165495104e+00 1.8198043983004024e+02 3.0862769339855120e+01 -2.0703486458392167e+01 1.0704565165495106e+00 -2.0703486458392167e+01 -1.6247782432276587e+01  -5.1054488277487657e+01 1.6018484460105063e+02 -4.3676199566130292e+00 1.6018484460105074e+02 -9.7881883054874166e+01 -2.2398399804485596e+01 -4.3676199566130292e+00 -2.2398399804485596e+01 -2.1258916282466394e+01  2.7264743599123179e+01 4.2418476966726359e+01 -7.3898977639639565e+00 4.2418476966726374e+01 -2.6870611252063685e+02 -3.1855973638978345e+01 -7.3898977639639591e+00 -3.1855973638978337e+01 -1.9327170889522609e+01  -1.9660104313460766e+02 2.9505174287906484e+00 2.1544552194410429e+01 2.9505174287906470e+00 3.4440281975845402e+00 1.7277984694070145e+01 2.1544552194410429e+01 1.7277984694070145e+01 5.0329768357072622e+00  -1.8264190624359833e+02 6.0419183134119542e+01 1.4835732519265127e+01 6.0419183134119550e+01 4.7777501590835179e+01 -2.1509141912955059e+00 1.4835732519265129e+01 -2.1509141912955050e+00 -2.2963436740398038e+01  -1.0654831572893137e+02 1.0303297938957513e+02 1.0902383502922364e+01 1.0303297938957513e+02 2.7546372484482884e+01 -3.6548949028058586e+00 1.0902383502922364e+01 -3.6548949028058599e+00 -2.1238777392125723e+00  -3.2732747111380370e+01 8.7583478856542428e+01 5.5659684390175768e+00 8.7583478856542413e+01 -3.6043277432921009e+01 -2.4071206369369444e+00 5.5659684390175777e+00 -2.4071206369369462e+00 1.6384586375946411e+00  1.5891740331267322e+01 3.2672339011360392e+00 7.6766032224654801e-01 3.2672339011360414e+00 -3.1216757088629112e+01 -4.5599953910623388e+00 7.6766032224654823e-01 -4.5599953910623388e+00 2.0539586257459383e+01  -9.5806425836603765e+01 -1.0229379840603734e+01 1.0824976059597242e+01 -1.0229379840603734e+01 -1.9223092720581068e+01 2.6360009630568833e+01 1.0824976059597244e+01 2.6360009630568833e+01 2.0683675061659230e+01  -1.0939952887818144e+02 1.1829360167738036e+01 1.1791209005397809e+01 1.1829360167738040e+01 7.7506210220813179e+00 1.2851696972757523e+01 1.1791209005397809e+01 1.2851696972757525e+01 -1.1387402714387157e+01  -7.3101027574558756e+01 3.5232473466036922e+01 1.3328929329696299e+01 3.5232473466036936e+01 6.8767455073267740e+00 5.5788455792948808e+00 1.3328929329696294e+01 5.5788455792948817e+00 -2.1416975340071329e+00  -2.0676582489551070e+01 3.0088792801319862e+01 1.0307277540216447e+01 3.0088792801319865e+01 2.4924374885545730e+00 1.4933908811803491e+00 1.0307277540216443e+01 1.4933908811803489e+00 5.5666167398512441e+00  1.2697574199665439e+01 -4.6038862373960336e+00 2.4695991167876148e+00 -4.6038862373960452e+00 5.1576524484621039e+01 -3.7779906042592195e+00 2.4695991167876152e+00 -3.7779906042592222e+00 2.0508585990746969e+01  -6.3861860488040499e+01 3.0769696508736724e+00 7.6366562644317959e+00 3.0769696508736741e+00 -1.6911909134956709e+01 2.1631375717615821e+01 7.6366562644317915e+00 2.1631375717615818e+01 1.2836726757716258e+01  -5.5297359365389482e+01 -3.4998094093254837e+00 8.0262215256771441e+00 -3.4998094093254859e+00 -1.2199847554833797e+01 1.4196214291299414e+01 8.0262215256771405e+00 1.4196214291299414e+01 -5.3510040791559819e+00  -3.9259510189423949e+01 1.2595354853496490e-01 1.0910087798595871e+01 1.2595354853496565e-01 -8.9592139909903068e-01 7.2583918495548572e+00 1.0910087798595875e+01 7.2583918495548527e+00 -1.6447042244174961e-01  -1.1704669075567450e+01 -1.2924971996011787e+00 9.1089769929380733e+00 -1.2924971996011738e+00 1.5837107202596188e+01 5.2566140364188163e-01 9.1089769929380697e+00 5.2566140364188252e-01 4.9690895665516406e+00  9.8067589833154578e+00 -4.3692439478677692e+00 1.5747398450325267e+00 -4.3692439478677692e+00 6.5471146194737230e+01 -6.7752285130791856e+00 1.5747398450325245e+00 -6.7752285130791883e+00 1.4449246490017709e+01  -2.5655303357553727e+01 -2.0814426957099208e+00 2.0907983602229150e+00 -2.0814426957099217e+00 -9.9264937982060744e+00 1.4965836769691885e+01 2.0907983602229141e+00 1.4965836769691887e+01 1.5513224399915218e+01  -2.6834419810679627e+01 -1.2066069611747833e+01 3.8482603925760803e+00 -1.2066069611747828e+01 -1.3358111592725464e+01 1.1260200712029377e+01 3.8482603925760803e+00 1.1260200712029375e+01 -1.1189370234879221e+00  -1.9253125505607443e+01 -1.4612821138173825e+01 6.6886826833276691e+00 -1.4612821138173821e+01 -3.5471992347000958e+00 5.7049077049098269e+00 6.6886826833276691e+00 5.7049077049098242e+00 5.9769120147748267e-01  -6.3204471736237320e+00 -1.3618885980486626e+01 5.8113887133085180e+00 -1.3618885980486624e+01 1.5630796040701274e+01 -9.8932504739272120e-01 5.8113887133085154e+00 -9.8932504739272165e-01 3.4805512555485425e+00  7.2386322586711049e+00 -2.8388904095768339e+00 3.4163657978552786e-01 -2.8388904095768344e+00 4.8839298808065180e+01 -8.4083313277606759e+00 3.4163657978552597e-01 -8.4083313277606759e+00 8.3054359815000645e+00  -1.8360250077511211e+01 1.3880680118074469e+00 6.3594698615832002e-01 1.3880680118074444e+00 -9.1163122876448910e-01 7.1618359001465475e+00 6.3594698615832057e-01 7.1618359001465501e+00 1.2017072728979974e+01  -1.2608037027535332e+01 -9.7344023776681006e+00 5.8364092731961104e-01 -9.7344023776680988e+00 -9.3216568490818030e+00 6.3966853408689897e+00 5.8364092731961092e-01 6.3966853408689897e+00 1.1513104193063881e+00  -9.3825220272779983e+00 -1.5522338023157953e+01 2.8515771187593542e+00 -1.5522338023157957e+01 -2.4828097617425451e+00 3.0722325542415785e+00 2.8515771187593550e+00 3.0722325542415772e+00 1.0022984777097361e+00  -3.7270090477478925e+00 -1.4158337957580439e+01 2.6409996605595851e+00 -1.4158337957580445e+01 1.0674573709884919e+01 -1.8627618835363320e+00 2.6409996605595856e+00 -1.8627618835363324e+00 2.0110856228184231e+00  5.5216339355446902e+00 -1.3054806506421397e+00 -5.1832775645507534e-01 -1.3054806506421397e+00 2.4947581999164040e+01 -7.8346420970973956e+00 -5.1832775645507645e-01 -7.8346420970973956e+00 3.4317693174679746e+00  -1.4421599562373716e+01 7.1896487817908056e-02 1.5778541935391144e-01 7.1896487817908056e-02 1.8802440575300565e+00 1.6246993586515583e+00 1.5778541935391133e-01 1.6246993586515583e+00 9.7438726641669078e+00  -8.2499800455101457e+00 -5.6220680381033938e+00 -9.8850746980422044e-01 -5.6220680381033956e+00 -2.4826440756261032e+00 2.4628595467376693e+00 -9.8850746980422044e-01 2.4628595467376693e+00 1.8661617753932727e+00  -4.6677063987909371e+00 -1.0212341209737090e+01 3.4592553538228210e-01 -1.0212341209737083e+01 5.8739045845790462e-02 1.1333024395638165e+00 3.4592553538228288e-01 1.1333024395638163e+00 1.0970512232250815e+00  -1.8608186502104003e+00 -8.6129585185144464e+00 5.4684107355278622e-01 -8.6129585185144499e+00 5.3398952431080122e+00 -1.4696364812407237e+00 5.4684107355278588e-01 -1.4696364812407241e+00 7.3784039219935660e-01  4.6564427764600813e+00 3.3635230902002000e-01 -1.0659407258432834e+00 3.3635230902002106e-01 6.5726785199976474e+00 -4.9351632179575988e+00 -1.0659407258432836e+00 -4.9351632179576006e+00 1.8606407803675984e-01  -1.1910579019261595e+01 1.4976134713551432e+00 -1.3127346161129863e+00 1.4976134713551432e+00 2.9250624956889331e+00 -1.3207502021067159e+00 -1.3127346161129867e+00 -1.3207502021067159e+00 4.0869195059115029e+00  -1.2603635925876042e+00 1.7526580706934573e-02 -3.1693094052302557e+00 1.7526580706935482e-02 1.5239358493442712e+00 4.1292501703920637e-01 -3.1693094052302562e+00 4.1292501703920637e-01 4.2549542011526398e-01  5.1863032399769460e-01 -9.7130007621730974e-01 -1.4858884821445462e+00 -9.7130007621730896e-01 2.5469975216620648e+00 3.6313980846735350e-01 -1.4858884821445455e+00 3.6313980846735350e-01 5.3040754382111499e-01  -1.8129780142299097e+00 -1.3676950643913124e-01 -4.6706146101152196e-01 -1.3676950643913130e-01 2.2756080153681197e+00 7.9719323928703317e-02 -4.6706146101152163e-01 7.9719323928703276e-02 -5.3610707700867999e-01  5.3052785820825523e+00 2.7808527356443999e+00 -1.3874793693579421e+00 2.7808527356444004e+00 1.2873609355897113e+00 -9.4784778014507109e-01 -1.3874793693579421e+00 -9.4784778014507109e-01 1.2522920991768438e+00  7.4556430770102054e+01 5.6198038222434525e+02 -1.0954095733364653e+00 5.6198038222434525e+02 7.9494278586024893e+02 6.2185326353335366e+00 -1.0954095733364630e+00 6.2185326353335366e+00 3.4746872853674364e+02  -2.3684364067339605e+01 3.0857729862731492e+02 3.8725032880315973e+00 3.0857729862731514e+02 1.1146377564343398e+02 -1.0826616112017726e+01 3.8725032880315959e+00 -1.0826616112017719e+01 3.9181815803961079e+01  -2.3869863131826328e+01 2.1804943740832104e+02 -2.2467290596844189e-01 2.1804943740832101e+02 -1.4464613374733469e+01 -2.2460848609486426e+01 -2.2467290596844047e-01 -2.2460848609486430e+01 -1.3775401413770400e+01  -7.1297613118072903e+01 1.8089273362824031e+02 -4.1473481799643297e+00 1.8089273362824025e+02 -9.330863493