<?xml version="1.0"?>
<VTKFile type="UnstructuredGrid"  version="0.1"  >
<UnstructuredGrid>
<Piece  NumberOfPoints="405" NumberOfCells="1536">
<Points>
<DataArray  type="Float64"  NumberOfComponents="3"  format="ascii">0.45 0 -0.2  0.475 0 -0.2  0.5 0 -0.2  0.525 0 -0.2  0.55 0 -0.2  0.4501413534165342 0.02506122558287048 -0.2000154486812143  0.4750936566809903 0.02501728427897775 -0.200010061844047  0.5000685612183543 0.02500156178187503 -0.2000128815180398  0.5250586455530386 0.02498713804748922 -0.2000202433647494  0.5500622268982793 0.02495202702094556 -0.2000294706986067  0.4501868551330186 0.05007986677998785 -0.2000161275654942  0.4751573011914816 0.05004208738639736 -0.2000149599366755  0.5001357034598226 0.05001288073148004 -0.200018315715725  0.525125786486741 0.04998476963193391 -0.2000232924648573  0.5501255585247952 0.04994164454072054 -0.2000294757907586  0.450215176282559 0.07508808281557246 -0.200007996599444  0.4751998301564411 0.07505635038428057 -0.2000128020594621  0.5001874532507143 0.07502192424731537 -0.200017879353301  0.5251808974207671 0.07498639336265826 -0.2000225287075817  0.5501786823347778 0.07494449363011817 -0.2000278340184845  0.4502381591313376 0.100089862152744 -0.1999984076424984  0.4752309902328328 0.1000608473367136 -0.2000073499764189  0.5002256384375806 0.1000260712889485 -0.2000150985510601  0.5252221920793029 0.09998892881310661 -0.2000215598194432  0.550219728434879 0.09995117252250441 -0.2000284785343139  0.4502608419649399 0.125089378722957 -0.1999906548423119  0.4752578973145386 0.1250610798903517 -0.2000021387120497  0.5002558261388586 0.1250271632825268 -0.2000123639092606  0.525254106002367 0.1249910888017071 -0.200021426127076  0.5502521305937642 0.1249571204725284 -0.2000309537368831  0.450285666243829 0.1500885015083835 -0.1999856727989834  0.4752837818508631 0.1500597517746639 -0.1999984232740492  0.5002828106673806 0.1500270006019446 -0.2000105448940696  0.525281789870972 0.1499925809091079 -0.2000220094884426  0.5502804491842433 0.1499606889387345 -0.20003403864882  0.4503131986101127 0.175088537146403 -0.1999832385969127  0.4753111466394623 0.1750589310852562 -0.1999963064722816  0.5003101186551921 0.1750268259356057 -0.2000095969617217  0.5253093424949177 0.1749935224974347 -0.2000227755889198  0.5503085953941067 0.1749619633100322 -0.2000365574508763  0.4503432503690626 0.2000896875441448 -0.1999818171527459  0.4753408700037564 0.2000590770388343 -0.199994877846039  0.5003402565328228 0.2000269367874339 -0.2000090082535096  0.5253395948687187 0.1999939908043821 -0.2000233088526736  0.5503389052524054 0.199961958380159 -0.2000378750066807  0.45 0 -0.175  0.475 0 -0.175  0.5 0 -0.175  0.525 0 -0.175  0.55 0 -0.175  0.4501318383584326 0.0250659748394896 -0.1750043576492827  0.4750958989351182 0.02502160752906653 -0.1750072100459403  0.5000727536194709 0.02500577358369115 -0.175009603140189  0.5250645120761619 0.02499215691058003 -0.175014333293791  0.5500714437650276 0.02495701075030233 -0.1750205591530583  0.4501851622399033 0.05008133824681414 -0.1750049838894276  0.4751616474659217 0.05004333816518152 -0.1750106390002386  0.5001419626366842 0.05001474609366679 -0.1750149381431186  0.525132783285 0.04998654671586687 -0.1750201263085759  0.5501335430796386 0.04994230478707441 -0.1750269089981477  0.4502199749736879 0.07508613617957105 -0.1749999766956405  0.4752072296575441 0.07505477421762696 -0.1750088391351453  0.5001951979676377 0.07502150011310854 -0.1750152856352704  0.5251886014970715 0.07498640054013987 -0.1750213827052391  0.5501863481063889 0.07494387480105123 -0.1750290467363347  0.4502476039395052 0.100087032700816 -0.1749932190385633  0.4752410658230766 0.1000583410956917 -0.1750045020565207  0.5002351480310135 0.1000248196605829 -0.1750133775295572  0.5252312502553359 0.09998866721397849 -0.1750214039971624  0.5502285792610807 0.09995078101991405 -0.1750306317248145  0.4502725274219839 0.1250866920201676 -0.1749873539522481  0.4752696316540309 0.1250588587056159 -0.1750001444925555  0.5002669728008969 0.1250260695938019 -0.1750112495228063  0.525264873486314 0.1249911164578884 -0.1750215547738755  0.5502628796059831 0.1249572433574829 -0.1750326505987427  0.450298353998103 0.1500866098446931 -0.1749835165071604  0.4752965472026797 0.1500582249668244 -0.1749970530997494  0.5002953104168788 0.1500263137238875 -0.1750098205092562  0.5252941707480343 0.1499928616053024 -0.1750221063817401  0.5502930786968162 0.1499611389069045 -0.1750348909053211  0.4503259891886449 0.1750870819014188 -0.174981651630753  0.4753244269262262 0.1750578895942508 -0.1749954085934446  0.5003235533480541 0.1750264155135945 -0.1750091684850486  0.5253229049805817 0.1749938375743587 -0.175022791165329  0.5503225667657455 0.1749624745518991 -0.1750367583647883  0.4503550376665678 0.2000877668206431 -0.1749808441627177  0.4753541042216609 0.2000579849585497 -0.1749946665877559  0.5003539276505107 0.2000265696729078 -0.1750089741787453  0.5253535652274794 0.1999942479690071 -0.1750232000021847  0.5503534402988872 0.1999624794718942 -0.1750376652288294  0.45 0 -0.15  0.475 0 -0.15  0.5 0 -0.15  0.525 0 -0.15  0.55 0 -0.15  0.4501466359523622 0.02506899932020239 -0.1499974885849017  0.4751041221484538 0.02502212038462585 -0.1500043145746055  0.5000778733565376 0.02500637125135813 -0.1500070111945082  0.5250688635667783 0.02499302412097958 -0.1500106033304885  0.5500769997238742 0.02495666679818148 -0.1500154159283315  0.4502017077342835 0.05008481984449081 -0.1499953568719888  0.475173807125167 0.05004507675217122 -0.1500054958849275  0.5001512688888818 0.05001592027936904 -0.1500110215945956  0.5251413283736284 0.04998768290683767 -0.1500167132171984  0.5501423107153514 0.04994230706807885 -0.1500240472067585  0.4502367395496233 0.07508924554432159 -0.1499914653988509  0.4752211255446325 0.07505674413374037 -0.1500039473517475  0.500207061389827 0.07502269781021594 -0.1500118482996847  0.5251996321353449 0.07498706218153574 -0.1500193724163957  0.5501968192758837 0.07494345787574165 -0.150028747995442  0.4502642642175871 0.1000889964693909 -0.1499869616262642  0.4752557210084991 0.1000598249534578 -0.1500007750986557  0.5002483849252906 0.1000256911368737 -0.1500109441625159  0.5252437294950321 0.09998889509119523 -0.1500204901758976  0.5502403053799593 0.09994996934176605 -0.1500316234404817  0.4502882875573106 0.1250877750407068 -0.1499830324194425  0.4752843499705967 0.1250599232427618 -0.1499976004846713  0.5002808811621017 0.1250266829542968 -0.1500097112871299  0.5252782694674537 0.1249911693765091 -0.1500212424867999  0.5502757097044313 0.1249563839769687 -0.1500338973382212  0.4503132984615234 0.1500870784477815 -0.1499805396737576  0.4753110859861208 0.1500588535581008 -0.149995398562446  0.5003095621158109 0.1500267404474614 -0.1500089268407429  0.5253082028635918 0.1499928982013864 -0.150022071558829  0.5503068566173551 0.1499604615834638 -0.1500359403293192  0.45034056468897 0.1750871585369358 -0.1499794553630534  0.4753388796391523 0.1750582356181191 -0.1499944245585254  0.5003380121816733 0.1750267326155557 -0.1500087601482957  0.5253373848822516 0.1749939289201428 -0.1500229225773043  0.5503370662695595 0.1749620871229819 -0.1500376277997758  0.4503689441783362 0.2000874140314322 -0.1499796440292038  0.4753683333212703 0.2000580748123675 -0.1499945758724064  0.5003684335537408 0.2000267913033743 -0.1500091112507871  0.5253682954841862 0.1999944057100251 -0.1500234681881779  0.5503683919650826 0.1999624245570485 -0.150038401279052  0.45 0 -0.125  0.475 0 -0.125  0.5 0 -0.125  0.525 0 -0.125  0.55 0 -0.125  0.4501570725614176 0.02507269133690173 -0.1249932705903444  0.4751121997533214 0.02502274927933029 -0.1250000237810228  0.5000836825770915 0.02500658437973465 -0.1250040526753034  0.5250736842202147 0.02499303984504968 -0.1250080638995907  0.550082250533464 0.02495474567838071 -0.1250129247795496  0.4502173903730933 0.05008916903290177 -0.1249884970488929  0.4751869090297984 0.05004705573684038 -0.1249992386465148  0.5001619630915014 0.05001689296047196 -0.1250065707844298  0.5251508058142272 0.04998792138231125 -0.1250133331216558  0.5501515958512443 0.04994048867369134 -0.1250212050454521  0.4502542473428019 0.07509332808190942 -0.124984240949486  0.4752368184089493 0.0750595024363392 -0.1249977495170344  0.5002208231193042 0.07502417223355275 -0.125007516468014  0.5252122704355029 0.07498739547566356 -0.1250165602293302  0.550208805451137 0.07494208838338143 -0.1250270787542594  0.450282224925782 0.1000923108629598 -0.1249807766276794  0.4752723633430234 0.1000625100753152 -0.1249957827490309  0.5002636772055234 0.1000272317009868 -0.1250075740841778  0.5252581158494459 0.09998921086645308 -0.125018660097192  0.5502539443667069 0.09994895420873193 -0.1250311864521799  0.4503056110390043 0.125090250250114 -0.1249782713356719  0.475300973065639 0.1250622785770101 -0.1249940567379194  0.5002967009500824 0.1250280889498671 -0.1250074502876951  0.5252934803450265 0.1249914730244793 -0.1250202740165944  0.5502903342525612 0.124955669718799 -0.1250342589625579  0.4503298417262367 0.1500889660294189 -0.1249770017990677  0.4753273485760997 0.1500607144133533 -0.1249930891651247  0.5003254720455093 0.1500279310288264 -0.1250076059723675  0.5253237879348883 0.1499932140984264 -0.1250217300507556  0.5503221116883324 0.1499599935694591 -0.1250367340659291  0.4503568104927791 0.1750887774212071 -0.1249768261893669  0.4753549923691076 0.1750597820923549 -0.1249930865683022  0.5003539729528653 0.1750277820767364 -0.1250081879166858  0.5253532300720226 0.1749942821416328 -0.1250230488600299  0.5503528277330144 0.1749617811311915 -0.1250387222135058  0.4503851476712255 0.2000888930889786 -0.124978072933067  0.4753845278427961 0.2000594289575942 -0.1249942398867802  0.5003846580413389 0.2000277519920327 -0.1250092264815295  0.5253845503173092 0.1999947977166399 -0.1250239792828785  0.5503847381536464 0.1999622055598138 -0.1250397306931053  0.45 0 -0.1  0.475 0 -0.1  0.5 0 
[...]
<PointData  Vectors="traction"> 
<DataArray  type="Float64"  Name="traction"  NumberOfComponents="3" format="ascii">3.1183593356198543e+02 -1.3417304586691102e-02 -4.9691958184298049e-03  5.7121263250431966e-14 -1.8880170769158600e-18 -2.1743317545140893e-18  3.2735357966314187e-15 -7.3939578194948832e-20 1.8348526596954966e-18  4.5558333211579189e-16 6.7969990259796726e-20 4.4473918520032241e-16  2.8488812694059487e-03 3.2354677919095494e-04 2.8197159669542096e+00  1.8188159859649443e+02 2.2537871317705920e-03 -4.5828225994073981e-03  7.1016497807080465e-14 -9.6642476112423161e-19 -2.6632936339741118e-18  2.4041372689066957e-15 -4.7531478106902324e-20 -3.3619745377555949e-17  -8.6990039647081389e-18 -1.0529553849565224e-20 -5.5009027718642057e-16  1.1482010612562479e-03 5.3012922231942716e-05 -3.3394545565867551e-01  8.5733319839621274e+01 4.0492946223629842e-03 -3.2611426673237586e-03  1.8373608511699812e-14 7.0586213185143534e-19 -2.5448209488977788e-18  1.6983397191339307e-15 5.2406116770635460e-21 -3.6072921194675574e-17  5.7382059177465711e-16 -2.2795134982030198e-20 -4.8429614807614595e-16  4.6060854821099443e-06 -2.6572007482799752e-05 -2.3081497378514060e+00  4.6724926458158045e+01 3.3673187078978074e-03 -2.1894984855951875e-03  -3.7096375224103879e-15 1.5567898511195955e-19 -2.8019265344133631e-18  7.4927400789928462e-16 7.7641516260076152e-21 -2.3688882234083205e-17  7.3991994117520397e-16 -1.4265661610060588e-20 -1.7592673243467115e-16  -3.2514132672475620e-05 -4.7849650013052900e-05 -2.3886799138154418e+00  3.4179132305662137e+01 3.2768479669503074e-03 -1.9258311052829434e-03  8.4258380727876388e-15 3.3773103639799058e-19 -2.3875802652194379e-18  2.8156524300842768e-16 2.6068794519507152e-21 -3.1979978495470592e-17  1.1762947920888534e-16 -1.2039492755432188e-20 -3.7585340363184092e-16  -2.8308441834853461e-05 -4.6461745490970274e-05 -2.3358961923310448e+00  1.4340710537654481e+01 3.3443971568753042e-03 -1.7154984418309011e-03  1.8820621579493064e-15 4.1502126718892214e-19 -2.4678943209626975e-18  3.1499728755477878e-16 4.7749585863049344e-20 -2.4660367512419381e-17  6.2248016154344638e-16 -6.2496618828186328e-21 -2.8115724584798950e-16  -1.5340485771274888e-06 -2.3856509276731924e-05 -2.0048936244428992e+00  1.1845128483378790e+01 1.4726200831517299e-03 -7.6545406649721468e-04  2.0915380740649273e-15 3.0683784418365393e-19 -2.7255914636785100e-18  1.1604781932435122e-16 7.9368080853982129e-21 -2.7152336115573994e-17  6.1703057020239635e-16 -2.9788218460520096e-21 -4.1357119560040299e-16  -5.3663491374146536e-06 -2.3387533442899491e-05 -1.7305905361334755e+00  1.0642976938245168e+01 1.0277138495406036e-03 -5.7575501880092539e-04  1.2962237548905184e-15 2.4724965389870998e-19 -1.8510680657035476e-18  6.9856455030497498e-17 6.0017380414009732e-21 -3.3928536960249377e-17  1.7430275226332868e-16 -2.2268707564381228e-21 -4.0064520794452937e-16  -4.2328157898859278e-06 -2.0451591563814194e-05 -1.6119198838805764e+00  2.1793364672405566e+01 3.1436995746608673e-03 -2.1030067483244308e-03  -7.5890193705808447e-16 -4.0337562021118960e-20 -1.4918049026478304e-18  3.7504630312363161e-17 1.1090655916606951e-20 -6.6936532573062473e-18  2.7592743983755115e-16 9.1991598415613105e-22 4.0213748918584963e-17  6.4276825979819583e-06 -2.9011553284218141e-05 -4.4262197318530312e+00  2.0789062237465694e+02 -8.9448697244607286e-03 -3.3127972122865344e-03  6.9223956812656145e-14 -2.4113120511124385e-18 -1.0207526285876491e-18  4.2018925595875635e-15 -1.6057993584062529e-19 1.1178573737015950e-17  2.2112558057330675e-16 -1.4612298990549424e-21 6.4092754544405581e-17  4.6536032388289389e-01 3.1475704345693843e-05 -3.1263341040045503e-05  9.0940799298247370e+01 1.1268935658852910e-03 -2.2914112997037021e-03  -1.4383154943488095e-14 -7.1804926447671098e-19 -2.5882323713661045e-18  1.5178807594358607e-15 -4.3971359787209018e-20 -7.8524604826244546e-18  1.1750286712220567e-15 -2.7425222029104336e-20 2.7469152056994797e-17  2.6233826609894217e-01 -1.2364095678284806e-05 -1.0457106425744018e-05  4.2866659919810644e+01 2.0246473111814899e-03 -1.6305713336618795e-03  2.7006334373205854e-14 5.9970435648442041e-19 -1.8665589542684731e-18  2.9212545743565106e-15 8.4363018270610468e-20 -1.0392932196498606e-17  1.0151403678680201e-15 -5.3922898961162220e-21 -4.0428853235071218e-17  3.6697293719328461e-01 -1.1774193318656559e-05 -7.6093089664218561e-06  2.3362463229079033e+01 1.6836593539489044e-03 -1.0947492427975959e-03  1.2184183006724322e-14 7.1578198705360394e-20 -1.6042435130046382e-18  1.2446699333254098e-15 -9.9979378355601590e-21 -7.2824585560855273e-18  3.2691948456049309e-16 4.8885665966041932e-21 -6.8989316865730317e-17  4.2239731054910107e-01 -9.3295215045481924e-06 -2.5060849126998401e-06  1.7089566152831090e+01 1.6384239834751554e-03 -9.6291555264147127e-04  3.6781809335451125e-15 -4.0607782975855063e-19 -1.2875456258338496e-18  -9.8160469968372326e-17 -2.1190450529004703e-20 -9.9917952367565930e-18  3.4062971066694850e-16 -3.5572661980049550e-21 -4.2879072055046409e-17  4.4786428367764830e-01 -7.0548566591866865e-06 -1.0976886441954422e-07  7.1703552688272376e+00 1.6721985784376521e-03 -8.5774922091545064e-04  5.1670165927917755e-16 1.0999076693917931e-18 -1.8717236579559682e-18  1.9867959549802414e-16 3.0316100387271750e-21 -9.5071290814484222e-18  2.8438850143553190e-16 -2.7795664283682719e-22 -7.1827326136522779e-17  5.3461774601954259e-01 -2.6022939402994296e-06 5.0454892281463949e-06  5.9225642416893933e+00 7.3631004157586461e-04 -3.8272703324860745e-04  1.0204003960044021e-15 1.9767418173065097e-19 -1.6735598964992951e-18  2.6452798801674565e-16 4.5004974147680410e-20 -1.0276223963270448e-17  3.5958528308607154e-16 1.9813574388796191e-21 -7.3796724695846182e-17  6.0303001818470359e-01 -1.0152413259847994e-06 7.5878943060346997e-06  5.3214884691225750e+00 5.1385692477030193e-04 -2.8787750940046291e-04  -1.0346319374554643e-15 -1.6945679435118405e-19 -1.0325953262666357e-18  2.6226444975902230e-16 1.7494219759005032e-20 -9.4643784398199100e-18  4.5320839802485895e-16 4.7331944097349481e-21 -6.5229992827962910e-17  6.4338084731669298e-01 -3.3879995218906776e-08 9.0625818736478947e-06  7.2644548908018569e+00 1.0478998582202899e-03 -7.0100224944147761e-04  1.9769781807960612e-15 1.5567211343588495e-19 -8.7948607490124798e-19  2.8815782017023232e-16 5.3257195015114260e-21 -3.1355420914476515e-18  2.2802918153954620e-16 6.2445527477511707e-21 -3.4696137655042501e-17  1.4830486808982377e+00 2.7329085145645249e-06 2.1769675110979508e-05  2.7530432792262087e+02 -2.7743560544728372e-03 -1.9868139803242511e-03  6.6435178796913814e-14 -1.0606577770554847e-18 -1.9145280795718236e-19  4.3331113562409473e-15 -8.9330052642969958e-20 2.1049069403012060e-18  9.0100232407761423e-17 -7.9960312516323794e-21 -1.7593263046302055e-20  -6.1581699741860944e-03 -2.3319763784142295e-06 -2.2394538071534434e-05  1.2182740391938100e+02 1.4386021588659779e-03 -1.2291805231695011e-03  3.8718819883267988e-14 -1.3605379146343063e-18 -9.5513825905798213e-19  1.3737607926203002e-15 -7.4767735844840964e-20 6.8735145747361831e-19  7.9702054237578092e-16 -2.3254222472138387e-20 1.0603968491588922e-17  5.2998322838375959e-02 -2.3513123856257022e-06 -9.9309107136202918e-06  6.4264819994007254e+01 2.1207718445083209e-03 -8.7084242570892745e-04  3.9067810041475897e-14 7.9078182893919420e-19 -1.2554646330938938e-18  6.7943619678215770e-15 -1.2239789889373241e-19 -1.7933346383741007e-18  -2.0182318980626566e-16 1.7761975492787235e-21 -3.8385356719743286e-18  2.0806355020071496e-01 -2.4726266264048556e-06 -4.3295963476673421e-06  3.7398123399950549e+01 1.7991404454520874e-03 -6.7645998173522992e-04  1.2685100426964097e-14 -9.5718609138335796e-19 -2.7122445821609689e-19  1.4998588841874298e-15 4.8247923077315752e-20 -2.1444216206285034e-18  7.3718574512340923e-16 1.2415751260231255e-20 -1.1098297627813809e-17  3.0193895618760119e-01 -1.9553037110782952e-06 -1.0362644845583474e-06  2.7569917379695532e+01 1.8233108229508833e-03 -6.6002275654504765e-04  1.6075380726247253e-14 1.1773715179273448e-18 -8.4084562756625394e-19  2.1396466872774408e-15 3.2949640935348227e-20 -1.7254845949548642e-18  4.7394605540238677e-16 8.1857100432622057e-22 -6.1813923348386535e-18  3.4773059163825853e-01 -1.3967536103546544e-06 5.7726547604707468e-07  1.0506257587565605e+01 2.0475543360365589e-03 -7.2585901163081884e-04  6.9645747860612138e-15 -7.9006224067613930e-20 -5.4661114482336331e-19  6.0858428241488757e-16 9.7651731881933821e-20 -2.2583097793525355e-18  2.3772845573157836e-16 2.1889237609462912e-21 -1.0711549499893173e-17  4.9030583318252124e-01 5.1480593610596082e-07 4.0012383620444167e-06  6.6184741576509012e+00 7.2692523506218945e-04 -2.6308263419032605e-04  2.0015409739067476e-15 5.4085149893431886e-19 -6.1551570938718431e-19  4.4878112926869504e-16 7.9547703911737586e-20 -2.2314631847316203e-18  7.7287186832907253e-17 1.6386230093675976e-20 -9.7656893174676292e-18  5.9715306901774912e-01 1.5314475836434060e-06 6.2635288502835626e-06  5.2933849591658113e+00 4.4616894987991110e-04 -1.7177697900729849e-04  8.1452334975117440e-16 4.0770342528840417e-19 -3.7763761205150902e-19  7.0811929925272682e-17 4.7935099936097674e-20 -2.2164090060616964e-18  7.2649929486374449e-16 9.0088290722063742e-21 -9.4436156626641884e-18  6.5577934761168366e-01 2.1230673036708312e-06 7.6720188745444618e-06  4.6073489505794063e+00 1.0689396291117036e-03 -5.0677287218714668e-04  6.0262522843911580e-16 5.9762662721032511e-20 -4.0763413629493721e-19  2.1194437392165988e-16 3.2271579985069806e-20 -1.5955679202391074e-18  2.0877771044833441e-16 9.1806999456706412e-22 -1.2939907948707012e-17  1.5844209379217271e+00 6.1723866317144984e-06 1.8940915223015137e-05  3.0000553540971640e+02 -3.4547446740739642e-03 -7.5832266813804150e-04  1.0143670558796064e-13 -8.4158033065635335e-19 -1.5333878906026778e-19  4.1961115864701054e-15 -4.5700846273151935e-20 4.5871303878140849e-20  1.1066237385438005e-16 -3.8127291765803566e-21 1.4853498303999161e-20  -2.1835687347590127e-01 -5.3621008260294989e-06 -2.6715473364493784e-06  1.3444877897657886e+02 1.5165244352910469e-03 -6.4316726010007509e-04  2.4143148538094380e-14 -4.6500712666041500e-19 -3.2359491409290210e-19  7.1630898459279570e-15 -6.7649986500062521e-20 2.0181846797208728e-19  9.6299311033251644e-16 -1.2402701860543595e-20 5.2202778338811423e-19  -4.6682591131952500e-02 -1.0718301328743467e-07 -7.5429226184883205e-07  7.6987912180614032e+01 2.2467805112682195e-03 -5.3537522346976260e-04  4.3725058676844746e-14 7.0874364566087822e-19 -2.4649930853255427e-19  5.3424015717907576e-15 -1.7925973836097094e-20 -1.7271516211598791e-19  1.0316478326082131e-15 -2.0558144466391494e-20 -8.2942204044953227e-20  1.2865778880832471e-01 5.2441279145450944e-07 7.1175250492328718e-07  4.6464138121731935e+01 2.0446548417429604e-03 -4.9398081030161485e-04  4.5582669581018780e-15 1.0077333833069100e-18 -4.1332317316062191e-19  3.8926754872581822e-15 5.0140701389802534e-20 -3.7367243894257787e-19  1.2740257761266986e-15 1.1030459304897447e-20 -9.5328940691004930e-19  2.4201032732795849e-01 1.0402750866399157e-06 2.0517817121584038e-06  3.5127671900316329e+01 1.9992987168443669e-03 -4.8527906986199556e-04  1.1703247478697279e-14 8.1635375827966488e-19 -2.1513876090674910e-19  2.6166753439238752e-15 1.1453569519168153e-20 -2.9380143512359721e-19  8.0055391077402061e-16 -9.0422778328906251e-21 -9.3735008336645344e-19  2.9941641596811946e-01 1.3424903393668337e-06 2.8001757562302486e-06  1.3417631983146441e+01 2.3477542250076103e-03 -6.5036883192644247e-04  1.0108971177530089e-14 8.8588374817525445e-19 -4.9132010257616668e-19  1.5990523115698543e-15 2.0086363006945895e-20 -3.6657949446617882e-19  7.4654938828059451e-16 1.4564215396879540e-20 -9.7267565088425443e-19  4.7956902407214302e-01 2.5860312537083284e-06 4.9083600125328478e-06  7.5952192325294110e+00 7.5198080770942470e-04 -2.2480633520774985e-04  6.8524563429164803e-15 1.5549059783054077e-19 -3.3792604285666852e-19  9.2206167233711771e-16 4.1498939011350618e-20 -3.6304052044153889e-19  4.7642966417004535e-16 4.2706060973352147e-22 -1.0364609774259275e-18  6.1133110696732240e-01 3.5259878408020887e-06 6.2406877302352409e-06  5.5424439017294489e+00 4.5827576514248107e-04 -1.4923301179596327e-04  -7.9630547409559261e-16 2.9470326744848822e-19 -1.5969391725604466e-19  6.5960188443897037e-16 4.6394191346126356e-20 -3.6794262642447044e-19  5.5918613300243550e-16 1.2376194878545239e-20 -9.7402953675541525e-19  6.8335408452158453e-01 4.1890629784872036e-06 6.9288805658136738e-06  4.3644064968428378e+00 1.3462956012457604e-03 -5.4546473070256959e-04  3.4717321239204795e-15 4.8495782801178548e-19 -1.7840410925323302e-19  2.7146906284333911e-16 2.5071034658100067e-20 -4.3830973382128200e-19  2.0814332955014379e-16 1.5706838611294588e-20 -1.6297105589583736e-18  1.6995055462432556e+00 1.0223381258545763e-05 1.6770513897000417e-05  3.0838536967475727e+02 -3.7076281857258571e-03 -2.7620472244608906e-04  2.8967935960963850e-14 -3.2818552811365578e-19 -5.9660899428078865e-20  3.0946268780967056e-15 -4.1736807336926657e-20 -5.5435424688418179e-21  -1.1903556362581287e-16 -2.6188441182997358e-21 3.1420744126340360e-20  -3.4301732571118559e-01 -2.4001386268575589e-06 3.5246729729326799e-06  1.3940435575714673e+02 1.5218408514947003e-03 -3.2287460502943634e-04  9.4960140781428529e-15 -6.9095476691187786e-19 -1.3282286944016952e-19  1.3134996929047265e-15 -2.0364010076675706e-20 4.0734488699855989e-21  1.2148371443525059e-15 -5.8700321814721714e-21 2.3995043829526595e-20  -1.0632126123190556e-01 5.5705670843239911e-07 2.0394770603224810e-06  8.3358947050671219e+01 1.4616137743580309e-03 -2.1012912579679150e-04  6.0290815512568078e-14 2.6630561051147818e-19 -1.5131000597243076e-19  3.5551490538932845e-15 -2.1819092422143875e-20 -3.0022604670493505e-20  3.8452468670970803e-16 -3.8399184504086901e-21 1.5156511491524331e-20  8.5474219605751786e-02 1.5683634703478747e-06 2.7051453339998684e-06  5.1557512485316707e+01 2.3061722569527147e-03 -3.6746271906896473e-04  8.6986460275253191e-15 6.2471249916273710e-19 -2.3956827014550018e-19  1.0775277373116717e-15 5.2044523655765420e-20 -6.2903057651280388e-20  1.0101865335309244e-15 8.9976188894484728e-21 -6.8985972448585324e-20  2.1329887922738169e-01 2.1823959238780782e-06 3.3768846315482747e-06  3.9465641944497115e+01 1.9691014784665407e-03 -3.3630231175314583e-04  1.0342750279570735e-15 -3.7876282761589938e-20 -1.9522868002321116e-19  1.3430729468308351e-15 6.6041585600402140e-20 -6.6006298288814250e-20  3.0936920731165269e-16 1.6946585770623993e-20 -1.0846543589000937e-19  2.7833082731672354e-01 2.5123799469919655e-06 3.7539019416912245e-06  1.6054531426340734e+01 2.5059603804488662e-03 -5.4589515045210338e-04  9.2411830017220221e-15 2.7990349028942629e-19 -1.1249128147133911e-19  3.8843619155012544e-16 8.9972009725120149e-20 -7.5033134991994511e-20  4.0441283172483385e-16 1.7114467056073666e-20 -8.4656349719620739e-20  4.8292896773273780e-01 3.7036935786026966e-06 4.9462518677358637e-06  8.6414244940218072e+00 3.1977093186192409e-04 -8.2864226242240516e-05  6.8928383720281934e-15 2.9696856497134332e-19 -9.8989521657114446e-20  8.8655473824860476e-16 2.8020916848540165e-20 -7.1185333651080785e-20  4.4489079439972090e-16 1.2248994682528459e-20 -1.0881944306164023e-19  6.3289598284302451e-01 4.7205068933281612e-06 5.7738874023408593e-06  6.0503044681965230e+00 6.4501021340370444e-04 -1.8684589722398265e-04  7.6820288033725454e-15 1.6532749704059042e-19 -1.5463319058981682e-19  7.0532385179091067e-16 3.3289225035224539e-20 -5.7797958105181877e-20  1.1084206984081042e-15 1.6998896407805320e-20 -1.1433918714762658e-19  7.1484437136328549e-01 5.3393162902222126e-06 6.1695776942978337e-06  4.5074234875881452e+00 1.9923819759443224e-03 -7.0726999367098453e-04  3.5997246192129619e-16 2.3590976752725594e-19 -2.7855269074463959e-19  6.3261964110402432e-16 7.1704293544035845e-20 -1.0448506607009900e-19  7.2091244090669046e-16 1.0135458717793430e-20 -1.3909845914522106e-19  1.8085656571104176e+00 1.4113566709180527e-05 1.3528989274825088e-05  3.1345888300010586e+02 -3.6860669174846234e-03 -8.0557769306453998e-05  6.8529205568677455e-14 -5.7375546391739149e-19 -3.0349136131920774e-20  3.2530027011954454e-15 -1.1030418229366428e-20 -2.3626351545973662e-21  -2.9386367668954274e-17 -1.1386681323990502e-21 2.6976253887935486e-21  -4.0865683554588889e-01 -6.0345742065928824e-07 5.1037864129503985e-06  1.4233747481137891e+02 1.5325249365275716e-03 -1.7640324400003692e-04  1.2413914160200102e-13 5.6631614414228885e-19 -5.8555806083213415e-20  4.1121172303256717e-15 4.0446528083024153e-21 -8.8341978663094662e-21  -3.9585899409237515e-18 -1.4649936482661537e-21 3.1167730623510866e-21  -1.3794955325727401e-01 6.5794338785352475e-07 2.7089346943564847e-06  8.6741341640653360e+01 2.2770484096597669e-03 -2.0427933465742731e-04  2.6326818316657868e-15 2.9742763031563983e-19 -4.1771203170518261e-20  4.8053052544751322e-15 -1.8108977180090526e-20 -1.1848342001277570e-20  9.1046609766012012e-17 -5.2345370321624025e-21 4.3176015056828284e-21  6.2853144270188246e-02 1.8817332473249277e-06 2.9346293088551512e-06  5.5354419012600680e+01 2.0754988207676473e-03 -2.2731045414057141e-04  -1.0436068877111933e-16 -1.8938492753457606e-19 -2.4700453709361896e-20  4.6933040980503839e-15 8.4363878797842993e-21 -2.4494502149257707e-20  1.3538422560155081e-15 7.4183141331924938e-21 -6.2982162298169180e-21  1.9975843250047107e-01 2.6598308421270412e-06 3.2546166788327684e-06  4.3641844243108217e+01 1.5768838062374321e-03 -1.9653818240546812e-04  1.3790684864548451e-14 5.1315576868197279e-19 -9.1548073326570502e-20  1.6663964515655432e-15 1.0589886645046828e-19 -2.8953715551069814e-20  4.5851786047511524e-16 1.3735914785372000e-20 -1.5745452297927584e-20  2.6998812482413959e-01 3.0697702511935966e-06 3.4708770146366155e-06  1.9103034372500801e+01 2.8056080699636566e-03 -5.2142796831120344e-04  1.2024825074848003e-14 8.9281803152357477e-19 -1.7255450146239500e-19  9.6547073332386972e-16 7.5880073693565768e-20 -2.1531533063296668e-20  8.3915704905315939e-16 1.2145821520060734e-20 -1.3350982621695603e-20  4.9270511013085883e-01 4.4094688739687956e-06 4.3151487334127194e-06  1.0926504173941698e+01 1.0823135009432631e-04 -2.5829557669177916e-05  1.7702658823022588e-15 9.1479092253633036e-19 -1.7147269132027676e-19  1.0736598638318169e-15 8.3205239991363708e-20 -1.6671370952497590e-20  8.1586959237216031e-16 1.1491552626936602e-20 -1.3837744621602826e-20  6.5701374158495573e-01 5.4122608991891886e-06 4.9715901656909457e-06  8.1313463930242449e+00 4.3423698428498431e-04 -1.1799555178934049e-04  6.3446896249576573e-15 1.5715130238447951e-19 -4.8068856206122592e-20  8.8283867677682775e-16 6.6562831070173855e-20 -1.7359028286491347e-20  9.0956186320748654e-16 1.0497143762276264e-20 -1.4364138447346968e-20  7.4676268321767370e-01 6.0118743702781775e-06 5.2079905672863786e-06  7.0480219280435268e+00 2.1149248823259578e-03 -6.9172630519166440e-04  6.3994420426282030e-15 5.0494005978272864e-19 -3.5778029475945739e-19  5.7444761191115718e-16 5.4426418936389121e-20 -3.5650060430922054e-20  8.3958320211521765e-16 1.2510760990946580e-20 -2.1938983791658820e-20  1.9074953374623296e+00 1.4703150699555949e-05 9.8386942431521711e-06  3.1026367421681306e+02 -3.5505069177724224e-03 -2.6730216545006312e-04  3.6590883440370213e-14 -5.5668758105748903e-19 -3.3353749196094439e-20  3.9532204723745114e-15 -5.3979652195837511e-20 -2.2875258504423830e-21  5.1269246433694821e-17 4.4207577144763037e-22 1.6081526437254970e-21  -4.6000141129768640e-01 3.6393238828413210e-07 2.7169432506903346e-06  1.4106345207329588e+02 1.6242244451981152e-03 -1.3429701955830308e-04  7.2532729652670427e-15 -4.7274386602016622e-19 -3.1974362878809310e-20  5.9246026428516268e-15 2.4471309486448387e-20 -4.1567604688171210e-21  9.1910814108613170e-16 8.0115013643108143e-23 1.1166517665606154e-22  -1.6267327355303