<?xml version="1.0"?>
<VTKFile type="UnstructuredGrid"  version="0.1"  >
<UnstructuredGrid>
<Piece  NumberOfPoints="405" NumberOfCells="1536">
<Points>
<DataArray  type="Float64"  NumberOfComponents="3"  format="ascii">0.45 0 -0.2  0.475 0 -0.2  0.5 0 -0.2  0.525 0 -0.2  0.55 0 -0.2  0.4505213250236006 0.02527242270179238 -0.2000019724390222  0.4753486816189037 0.02507772326310869 -0.2000110255917591  0.5002610941776403 0.02500139991102409 -0.2000460181186551  0.5252312987490469 0.02492896026226231 -0.2000955783866977  0.5502572202330805 0.02476954296180094 -0.2001485852689704  0.4507740381406229 0.05037618631789338 -0.2000166030879471  0.4756499004043898 0.05017858486116433 -0.2000312689084213  0.5005643972627704 0.05003843600660361 -0.2000679053952832  0.5255308221649725 0.04990232932546285 -0.200110903529806  0.5505396327877105 0.04969620024928623 -0.2001548962228636  0.4509698504449445 0.07542817882912255 -0.2000031491128607  0.4758908045979545 0.07524526117694118 -0.2000322992514379  0.5008317006751993 0.07507254610261517 -0.2000706328192651  0.5258050029818404 0.07489673975148449 -0.200109507266881  0.5508019407126098 0.07468434564643672 -0.2001480947866864  0.4511326139839791 0.1004467072001054 -0.1999750076709793  0.4760841775695867 0.1002769795302929 -0.200017878460226  0.5010496851119156 0.1000929025474124 -0.2000637975231447  0.5260319900384395 0.09990091040043733 -0.2001071078566837  0.5510245089454391 0.09969891326199988 -0.2001499837068488  0.4512678974427138 0.1254499480109942 -0.1999388776698869  0.4762457027000664 0.1252885886852541 -0.1999980332106513  0.5012290161288548 0.1251021558388823 -0.2000549194840649  0.5262187454814516 0.1249077799289799 -0.2001081807012365  0.5512112172763051 0.1247189783187936 -0.2001615775359601  0.4514011616612073 0.1504475526315967 -0.19990848744935  0.4763934804088449 0.150286894506155 -0.1999803380660785  0.5013880445718526 0.1501041252933945 -0.2000479399087813  0.5263828507693978 0.1499138309958776 -0.200112252884052  0.5513771260358679 0.1497336523598238 -0.2001776620137798  0.4515501305221244 0.1754463848635926 -0.1998921485989755  0.4765465472434611 0.1752827704170227 -0.1999692981034305  0.501545186584155 0.1751036542382519 -0.200043965553778  0.5265429139152602 0.1749180145262659 -0.2001168236798844  0.5515395913855027 0.1747400441385369 -0.2001914734834846  0.451709822375618 0.2004469691340247 -0.1998840906852285  0.4767108907946843 0.2002804467942057 -0.1999628140705281  0.5017144713210737 0.2001028073632037 -0.2000417316557231  0.5267138214785259 0.199919795207396 -0.2001200087510792  0.5517105700889005 0.1997407736429247 -0.2001988832837875  0.45 0 -0.175  0.475 0 -0.175  0.5 0 -0.175  0.525 0 -0.175  0.55 0 -0.175  0.4505085985234094 0.02528655272286875 -0.174984409820275  0.4753706337076584 0.02509088928073427 -0.1750080393275836  0.500289340362561 0.0250177132908125 -0.1750331586810668  0.5252658546745936 0.02495250818127541 -0.175066005528646  0.5503072742278327 0.0247935974090001 -0.1751015400352931  0.4507807822398864 0.05038570043608769 -0.1749840376858895  0.4756805027737024 0.05018625852632938 -0.1750188083317856  0.5006036221471444 0.0500475333902603 -0.1750543976821461  0.5255734477375548 0.04991119879023843 -0.1750933937238676  0.5505869837020992 0.04970033455686394 -0.1751346582876826  0.4509945344096064 0.07542673858321007 -0.1749710951450561  0.4759314072983525 0.07524342441227971 -0.1750166688796111  0.5008769382832847 0.07507326717229261 -0.1750591737872243  0.5258509693473931 0.07489780273132304 -0.1751014572975062  0.550847625274575 0.07468211011845609 -0.1751471284677049  0.4511747267386315 0.1004390193925474 -0.1749481373261931  0.4761356371282205 0.1002690221811004 -0.1750042589787348  0.5011021781487622 0.1000894341156735 -0.1750553616908161  0.5260834537417645 0.09990060996636108 -0.1751044298118192  0.5510745743137044 0.09969726340004587 -0.1751567124480646  0.4513273698660022 0.1254394138154877 -0.1749216131012681  0.4763076593344674 0.1252789642585275 -0.1749882063816804  0.501289889807886 0.1250980781938827 -0.175049358884696  0.526278203977815 0.1249084967426553 -0.175107843102478  0.5512699776046648 0.1247195348113787 -0.1751687710727928  0.4514736183402351 0.15043937904961 -0.1748995620714065  0.4764645796778877 0.1502794164190482 -0.1749745830124418  0.5014570922681655 0.1501011502324551 -0.1750448171413794  0.5264508058566314 0.1499154668344396 -0.1751125963393084  0.55144567081695 0.1497356697016532 -0.1751822089927726  0.4516281365234608 0.1754410749352064 -0.1748870089213095  0.4766232613215617 0.175278072253235 -0.1749667666659093  0.5016203234700438 0.1751020032364012 -0.175042844615217  0.5266175613372844 0.1749197340093418 -0.1751172438907352  0.5516156614257481 0.1747423635709712 -0.1751933982070802  0.4517887984119001 0.2004423270716752 -0.1748836328789905  0.4767894438388283 0.2002770082181795 -0.1749647360935313  0.5017917413245091 0.2001019030125314 -0.175042871053387  0.5267911596643129 0.1999213840378763 -0.1751196963691548  0.551789900302994 0.1997432586153996 -0.1751983954318462  0.45 0 -0.15  0.475 0 -0.15  0.5 0 -0.15  0.525 0 -0.15  0.55 0 -0.15  0.4505641934496316 0.02529892786387913 -0.1499713212885327  0.4754027264117865 0.02509288448142715 -0.1500036239294446  0.5003110652486589 0.02502034515763543 -0.1500242325753519  0.5252862835850569 0.02495620036810566 -0.1500481388412498  0.5503354279130395 0.02479054809868305 -0.1500742236436864  0.450846369539536 0.05039964865723959 -0.1499559663225182  0.475731056420844 0.05019275968247131 -0.1500038308005031  0.5006453729396361 0.05005228177372726 -0.1500399248497843  0.5256143531395516 0.04991577013153166 -0.1500767955181211  0.5506315066724236 0.04969877793632799 -0.1501166764631362  0.4510656022031089 0.07544086030240969 -0.1499394356136856  0.4759929033942057 0.07525104672214904 -0.1499987630113278  0.5009324979511083 0.07507778270172469 -0.1500454259839512  0.5259049940286348 0.0748999254620524 -0.1500912118175741  0.5509013131349684 0.0746785525721288 -0.1501416846927828  0.4512514047493661 0.1004507911683047 -0.1499201305119618  0.4762051713507734 0.1002752650738097 -0.1499881832456483  0.5011671595429161 0.1000925180689726 -0.1500447338843194  0.5261464497928494 0.09990058865302967 -0.1500994524231298  0.5511356364964134 0.09969151381706538 -0.1501590232561049  0.4514080878615336 0.1254488941652824 -0.1499007067907005  0.4763830668826378 0.1252839570668507 -0.1499761963143532  0.5013616912797272 0.1251001677941863 -0.1500421835928369  0.526348142847755 0.1249075750723894 -0.1501060699483879  0.5513380968712467 0.1247131293079206 -0.1501739725746579  0.4515571408669093 0.1504463681666738 -0.1498856983361828  0.4765441771233044 0.150283332875917 -0.1499667580782887  0.5015340484557214 0.1501028028315153 -0.1500406147541391  0.5265263887481678 0.1499145323556553 -0.1501125335802266  0.5515203050010627 0.1497299902540679 -0.15018761958477  0.4517141613852044 0.1754465920435087 -0.149877674296695  0.4767060634605342 0.1752814511516317 -0.1499624302799796  0.5017010947314529 0.1751036567874703 -0.1500410769063062  0.5266974844193443 0.1749192740620235 -0.1501181685659979  0.5516955702338374 0.174738249991112 -0.1501985313348337  0.4518767130819267 0.2004473522459778 -0.1498796045791837  0.4768742045863055 0.2002802241888973 -0.1499648843176744  0.5018747352000386 0.2001037691414455 -0.1500436243360802  0.5268738671997933 0.1999216010324568 -0.1501208404383083  0.5518734215616179 0.1997409986632759 -0.1502024378660933  0.45 0 -0.125  0.475 0 -0.125  0.5 0 -0.125  0.525 0 -0.125  0.55 0 -0.125  0.4506068310352719 0.02531528588607815 -0.1249603778378767  0.4754343625043906 0.02509604407787104 -0.1249917756428998  0.5003343750722067 0.02502128663968906 -0.1250144149338627  0.5253069260102144 0.02495568048493556 -0.1250372588177748  0.5503598565281427 0.02478036581282976 -0.1250618939043155  0.4509102453994971 0.05041922736327104 -0.1249342061891396  0.4757849949575531 0.05020116489530436 -0.1249842115340879  0.5006910219763985 0.0500558961360154 -0.1250242610408423  0.5256567995827157 0.04991549841348217 -0.1250623364248014  0.5506751991382365 0.04968793462137522 -0.1251025158349887  0.4511410577532188 0.07546073080877738 -0.1249123546542548  0.4760616084563702 0.07526248121308286 -0.1249765271257776  0.5009947131657467 0.0750830202590365 -0.1250291724652084  0.5259640479853022 0.07489949788802377 -0.1250792126435138  0.5509592541528336 0.07466886942222795 -0.1251332521664731  0.4513346331924754 0.1004691615563804 -0.124893709148578  0.4762832855096473 0.1002870339788374 -0.1249678895699766  0.5012403992760421 0.1000980230754347 -0.1250311436733478  0.5262167905595225 0.09989978744102458 -0.1250916983942996  0.5512038755792494 0.09968281204499302 -0.1251569211014134  0.4514955488449373 0.1254648828080777 -0.1248786004464533  0.4764668240386283 0.1252950950660874 -0.1249602103633618  0.5014418742352467 0.1251054100669079 -0.1250324020513716  0.5264259786564868 0.1249066791974201 -0.1251021494559454  0.5514139481798788 0.1247055232263434 -0.1251762725328961  0.4516469926055648 0.1504601452298059 -0.1248687952021662  0.476631319064682 0.1502932316961323 -0.1249555334934421  0.5016187347503934 0.1501076502546093 -0.1250345397722476  0.5266094144249686 0.1499138727704381 -0.125111514082225  0.5516020493899106 0.1497236270731327 -0.1251925167216926  0.4518067566362076 0.175459317159328 -0.1248653182917024  0.4767961103238784 0.1752906344633676 -0.1249554811864472  0.5017891914625411 0.1751083967818367 -0.1250381961750187  0.5267845449414745 0.1749190702471293 -0.1251192817637979  0.5517822436586243 0.1747329866957638 -0.1252051529376954  0.4519726638941483 0.2004600481968516 -0.1248719429126104  0.4769674782945594 0.2002891813098197 -0.1249622298944836  0.501966384376239 0.2001086224317846 -0.1250436007845449  0.5269649778849829 0.1999219409848335 -0.1251232951701838  0.5519649392689066 0.1997365189797448 -0.1252097528531608  0.45 0 -0.1  0.475 0 -0.1  0.5 
[...]
<PointData  Vectors="traction"> 
<DataArray  type="Float64"  Name="traction"  NumberOfComponents="3" format="ascii">9.9957943237484824e+02 -3.3682429189326082e-02 -1.8200345451923453e-02  6.0943052287486091e-14 -1.2360458648629070e-18 -1.7254868449092927e-18  5.6367233370585333e-15 -1.5503516227074141e-19 1.3844866712696544e-17  9.1255634960123027e-16 2.2383879494177855e-19 4.1598364652113853e-16  8.6804656122669820e-03 1.1058484131801886e-03 5.3843943606587947e+00  6.0840227037953184e+02 5.8094369377947293e-03 -1.5506710996058675e-02  1.4585607171229091e-13 -2.4304771210511816e-18 -5.0929495018762708e-18  2.9085380692053974e-15 4.8622752678785834e-20 -2.5189183482679187e-17  1.6386076537609720e-16 -5.0908545217726907e-21 -5.2090898659881566e-16  8.7523085355354214e-04 -1.4597464498859158e-04 -2.0467958454541662e+00  3.6292965627111761e+02 1.3536649254517547e-02 -1.2190147679405865e-02  1.1651080204129498e-13 2.0479902377382538e-18 -6.3411845263212929e-18  7.9716608218992841e-15 1.0908273714719041e-19 -7.1913861501255405e-17  9.0607816054222084e-16 1.9022321251002141e-21 -6.8823928865616366e-16  -7.0716625800331293e-05 -5.1714877301457317e-06 -4.8168600665204266e+00  2.4644105655462252e+02 1.3342391397706118e-02 -9.3282625240561738e-03  5.3795346373643867e-14 3.6517602591772586e-18 -6.2271519113483567e-18  3.8437337964681095e-15 1.8903421661638443e-19 -5.0146438898692169e-17  1.2251263470985397e-15 -7.7964761378846022e-22 -1.1076026558317724e-15  -8.5284659787575640e-05 -2.1669598690860212e-05 -5.1052119219379533e+00  1.9838270309367059e+02 1.6017418465358934e-02 -9.8839138069426857e-03  4.3138029260657012e-14 3.0859502173865843e-18 -5.5818728121895461e-18  1.6504033806858011e-15 2.2056253005206893e-19 -5.6845645973030021e-17  1.6549991930540626e-15 1.1473676250976495e-20 -8.2585106620198727e-16  -8.5368363714713797e-05 -2.8939785099201577e-05 -5.1507067061588927e+00  8.7165041466260021e+01 1.0291627656075492e-02 -5.3931053468895271e-03  1.3114783627565565e-14 1.8973934646362212e-18 -5.8700610312183097e-18  7.2945824592706267e-16 1.6176799605753096e-19 -6.6376172849228407e-17  1.7264000981989935e-15 6.7074081974948631e-21 -8.8017283204046954e-16  -7.8417284083577807e-05 -3.2791329261514319e-05 -5.2493733759637244e+00  3.9330344739451753e+01 9.3809743708700641e-03 -4.3365563674598005e-03  9.5124377464935275e-15 1.7723166081859167e-18 -5.2216494618090323e-18  9.3010010465087664e-16 1.1807961693442659e-19 -7.8955487087730670e-17  1.1260078987713838e-15 -1.4017764634087651e-21 -6.9772707552310257e-16  -8.1960645120779572e-05 -4.0172228293499977e-05 -5.2132533458402275e+00  2.4742062257169579e+01 4.7491684255484782e-03 -2.0906407869361035e-03  1.2250189270219051e-14 2.6110170701995140e-18 -6.1282762370647346e-18  9.7371379270656018e-16 1.3226673654434599e-19 -3.8602054246086669e-17  1.6667484225762263e-15 2.4102416329562526e-21 -1.0860182187949948e-15  -8.1997901707928317e-05 -4.1272454513475712e-05 -5.1565301691051051e+00  2.3930711598185692e+01 1.9252000475106491e-02 -7.7714323850403009e-03  6.7101010245000071e-15 9.9744809353871273e-19 -3.1823377514045234e-18  8.4348546677840216e-16 2.2755645656592205e-19 -4.3312008565733066e-17  1.9213563615258518e-15 2.4042934590844942e-20 -1.7793913991671288e-17  -2.0281690078530136e-04 -1.3117556407834280e-04 -1.4849237207474717e+01  6.6638628824989883e+02 -2.2454952792884054e-02 -1.2133563634615633e-02  1.1314166096202764e-13 -2.2954304733807175e-18 -2.4177088843910832e-18  4.5482106028051055e-15 -1.1943708907352233e-19 1.3417376152439387e-17  1.4190015473008589e-15 -1.8703394279435895e-21 1.1124119618773786e-16  1.4892701564198729e+00 1.7332241223904820e-05 -4.1031936876419069e-05  3.0420113518976643e+02 2.9047184688973629e-03 -7.7533554980293434e-03  -7.4323594813630950e-14 -4.8131390173077019e-18 -4.6726526256071710e-18  9.8719960861331208e-15 -4.7177961684953428e-19 -1.0735707820662214e-17  2.2238690282208340e-15 -2.2977263532734632e-21 2.9328772164089757e-17  8.1537620734277128e-01 -8.3919818176627320e-06 -1.8747958805007363e-05  1.8146482813555863e+02 6.7683246272587710e-03 -6.0950738397029343e-03  7.4118582917228536e-14 1.6405330263377625e-18 -6.6796178700224832e-18  1.0025417258223447e-15 -1.4522885579512170e-19 -1.6112020859246050e-17  1.8591622606882681e-15 -3.0239049795383259e-20 -7.4832696741454558e-17  1.1047515764943654e+00 -7.1897924334859319e-06 -2.1442512166668579e-05  1.2322052827731123e+02 6.6711956988530653e-03 -4.6641312620280852e-03  2.2823356584522435e-14 2.4014340301068238e-18 -3.6552789118344489e-18  7.5249689239480412e-15 3.6637163088616761e-19 -2.8426107975897652e-17  1.8003624394870320e-15 2.6022597794379266e-20 -1.2912966512288634e-16  1.2513308181131175e+00 -6.8457521899066605e-06 -1.8665370683050767e-05  9.9191351546835335e+01 8.0087092326794548e-03 -4.9419569034713420e-03  2.1638296480416240e-15 9.9580537143465578e-18 -4.4441132166431971e-18  4.7411731604391442e-16 5.0661346344797812e-19 -2.4908674197191235e-17  1.4872893221961571e-15 3.9856426911472765e-20 -1.6313598331805089e-16  1.3095043212661959e+00 -5.9922522075200538e-06 -1.6833981915427557e-05  4.3582520733129989e+01 5.1458138280377486e-03 -2.6965526734447666e-03  7.6972099005897543e-15 1.3484623126158039e-18 -5.3198683081025518e-18  3.1789912162071029e-15 5.5783689859591199e-19 -2.2895566620632214e-17  1.6826264437339170e-15 6.2430843781885590e-20 -1.6440105460155513e-16  1.4495209567199465e+00 -5.3291480124832192e-06 -1.0767991132099174e-05  1.9665172369725902e+01 4.6904871854350424e-03 -2.1682781837299011e-03  1.8163440713552211e-14 1.3167578106768326e-18 -3.5264393641682894e-18  1.5382196905448700e-15 -3.4303686995395949e-20 -1.7058932193127387e-17  1.2851734214865594e-15 3.2628613010455618e-20 -1.0639033849138858e-16  1.5205238277636646e+00 -4.7494198939613196e-06 -5.7607038059238816e-06  1.2371031128584788e+01 2.3745842127742365e-03 -1.0453203934680530e-03  1.8007973643583239e-14 2.9536726658065806e-18 -2.5812375719148007e-18  1.6285131978375600e-15 3.5954307046862144e-19 -2.4817101360036593e-17  9.3136441557077242e-16 4.0395913451301668e-20 -1.2277027945334749e-16  1.5549411933842490e+00 -4.0744715614442978e-06 -2.3174093192284648e-06  7.9769038660618934e+00 6.4173334917021624e-03 -2.5904774616800999e-03  1.0777216734315361e-14 3.8688119917945209e-18 -2.8195459474655120e-18  1.2095771973004327e-15 3.8891286789456413e-19 -6.1019196472140925e-18  1.1196717217391995e-15 7.4676771658092411e-20 -1.5224803837723339e-16  3.2993812247114271e+00 -4.8421999784008318e-06 1.4224118551526602e-05  8.6859191177546450e+02 -6.0241227697799419e-03 -7.3452868134256631e-03  1.8746777433941685e-13 -2.1369068170606160e-18 -1.7682420106071176e-18  1.2265607402579573e-14 -1.2258662289903315e-19 3.3479080985747068e-18  1.2930318121905935e-15 -7.5400309986043997e-21 4.5355507564391703e-19  1.2187161228062346e+00 -1.4648884439890910e-06 -3.5491654960390078e-05  3.9881731650598090e+02 3.5035346239946251e-03 -4.4731243870451496e-03  1.8838621144560531e-13 -2.3138157424233026e-18 -4.8031425614945059e-18  1.2681257335217968e-14 -7.7921849803720139e-20 6.0297709086420530e-19  2.5190569432512966e-15 -2.0093289193371906e-20 1.9819131222700399e-17  6.8168358596985967e-01 -8.2730615982386957e-07 -1.6289789131001507e-05  2.4867035397327390e+02 7.0755008838020326e-03 -3.6332757565925478e-03  7.1309457745582877e-14 2.1929290154133000e-18 -2.2020141536723350e-18  1.0692601878923161e-14 2.2081356007108031e-19 -2.8758302024275929e-18  -8.0272774755582580e-17 -5.7498578111060038e-20 -7.6534811791935080e-18  9.0474087228547018e-01 -1.3852633904265481e-06 -1.2928372633242693e-05  1.7014367130812545e+02 7.4539239931519343e-03 -3.2350264803016888e-03  6.5583452331301518e-15 2.9056838200977068e-18 -2.8019247370395757e-18  7.2856948378216176e-15 2.0666639927433189e-19 -4.1849170455153947e-18  1.4490686698861575e-15 4.9157132826267501e-20 -1.2168817143496502e-17  1.0384485279524764e+00 -1.4614710592180617e-06 -1.0487840174378335e-05  1.3767993884740309e+02 7.2585511452630466e-03 -2.9344594778979620e-03  4.2889168739188144e-14 2.7435042832943351e-18 -2.1147424618083047e-18  4.4528385169414177e-15 4.3317427903465110e-19 -5.6011944703343482e-18  1.5739215179215650e-15 5.1007390136453322e-20 -1.4339869592162753e-17  1.1007483324585516e+00 -1.4355552937151838e-06 -9.1245011773164540e-06  6.4585023965577847e+01 7.8618062144518684e-03 -2.8192054617481280e-03  5.0401525457592382e-14 3.8281830675807292e-18 -1.5827095076522877e-18  4.0114659666703597e-15 1.8465829514692771e-19 -5.4268315075810954e-18  1.0454435844996425e-15 1.3470054903571023e-19 -2.1199287883017281e-17  1.2711537754408504e+00 -7.7799296164227500e-07 -4.7712302451027922e-06  3.0409324734432250e+01 6.4149814329898976e-03 -2.1130183325927640e-03  2.0687794419706567e-14 8.4960871987506385e-18 -2.5366717108400164e-18  2.6066607299037352e-15 6.3639177976165410e-19 -3.9144098151377218e-18  1.8184314272701713e-15 6.3456086049288106e-21 -2.2162074507996203e-17  1.3812427486351320e+00 5.0027448199175654e-07 -9.8280293020700043e-07  1.9478426245194278e+01 4.1464585996857572e-03 -1.3188138399828895e-03  2.1480696887746867e-15 5.6395727273976847e-18 -2.3871918007819344e-18  1.8539850740849680e-15 6.9152275305632362e-19 -4.4681799703161999e-18  4.9483663112051764e-16 6.0555042051982851e-20 -1.4478898984727326e-17  1.4415446952958189e+00 1.8093622737847462e-06 1.2812781816359526e-06  1.4308194293883204e+01 7.4331476094668496e-03 -2.2475875556238006e-03  1.5564892763355714e-15 1.5444595466973178e-18 -1.2216117863109662e-18  2.4973638838381733e-15 5.9457195874965071e-19 -4.9697859714125015e-18  8.5571314940772992e-16 1.1037268018325237e-19 -2.7966851510525093e-17  3.1983742537077653e+00 8.3319400630031204e-06 1.2848233685193691e-05  9.5572733938724923e+02 -7.5826482780645106e-03 -3.9938705029278002e-03  2.9929209189651501e-13 -1.6250874700720535e-18 -9.5509526749848721e-19  1.7516459602616577e-14 -9.6981791839251676e-20 7.8911519078965682e-20  1.6110523937921062e-15 -3.1470926969871203e-21 2.4369192210773960e-19  1.0548212197759468e+00 -7.2737206078593516e-06 -1.2790264915778583e-05  4.4224410305445230e+02 3.6273937152562687e-03 -2.6754768682750170e-03  2.7861309640144908e-13 -1.0216916417147533e-18 -1.4532536896613252e-18  2.2020331403926095e-14 -1.1641130221301734e-19 2.3122274690806078e-19  3.6441933414570347e-15 -2.6558981040993072e-20 8.6306995324453420e-19  5.9391840449250843e-01 3.6759561861024325e-09 -6.2456008409256914e-06  2.8715858189754630e+02 7.5335276856573607e-03 -2.3732952758306852e-03  1.3753071067476484e-13 3.2897879842201331e-18 -5.4900123390723469e-20  1.8664894946491308e-14 -5.3144741753704272e-20 -5.0557309493191174e-19  3.9417899415877614e-15 -9.7145486687583980e-21 3.6141733030899146e-19  7.9236185261673819e-01 3.5187138497232540e-07 -5.6671334082277481e-06  2.0038673493822134e+02 7.2295946271992654e-03 -2.0154094993150092e-03  2.1696583701241225e-13 3.7876964902814467e-18 -9.3387637014282690e-19  1.7546645306154623e-14 3.6300489701906677e-19 -6.2724479827667389e-19  2.7722212297905465e-15 3.8263017561176411e-20 -1.3258629062169865e-18  9.2105452000739585e-01 7.2101320266595476e-07 -4.5429952802472991e-06  1.6415244451564607e+02 6.5224188428908442e-03 -1.7541439156745563e-03  4.6820591892744398e-14 1.6329726525092218e-18 -1.3839092155686577e-18  1.2240801754405811e-14 3.3348003992427082e-19 -7.8034331584365767e-19  1.6837964166621275e-15 6.0775021059173224e-20 -1.4277234122704877e-18  9.8453847295844632e-01 9.5220978803327177e-07 -3.7606546949710560e-06  8.0123896561038279e+01 9.0354159466446305e-03 -2.3468471393988631e-03  7.3175140962318646e-14 2.1469701548341659e-18 -1.3191002939148975e-18  8.8929708180150355e-15 5.3525763339577616e-19 -8.8514413104555211e-19  1.8040113897383191e-15 5.7585679208930587e-20 -1.9736994917926773e-18  1.1736895308595776e+00 2.3123119737950099e-06 -7.1288236618241868e-07  3.9181648631619140e+01 8.0283014739502730e-03 -2.0303463951804814e-03  1.1620335141621046e-14 2.4251794621197024e-18 -1.5993252641938905e-18  3.8704731773613796e-15 6.7060617443082205e-19 -7.8603795809127208e-19  1.9914229512777675e-15 8.6689546709537281e-20 -2.0674341144060988e-18  1.3091455797567988e+00 4.2725387200628253e-06 1.9462428115689851e-06  2.5911100072910145e+01 5.2486935049166688e-03 -1.3148786174516423e-03  3.2589816334012204e-15 3.9146432083749824e-18 -5.8897070802407927e-19  1.3933564472017353e-15 7.0936465202095205e-19 -6.8860271998719738e-19  2.1375210471810685e-15 2.0165950877377889e-19 -2.5090827686760843e-18  1.3862393714715890e+00 5.8263237444083980e-06 3.5127424484999693e-06  2.0158995888175035e+01 9.7064308071471532e-03 -2.4007691159178908e-03  6.3337096816772336e-15 5.8039764943250517e-18 -1.1337944427411090e-18  1.4535160454548678e-15 7.5176268576699579e-19 -1.1752417992205944e-18  6.6605881656757788e-16 2.0696074733545118e-19 -2.5921368762165469e-18  3.1617252457755614e+00 1.7536813079242623e-05 1.3695619117996209e-05  9.9237072902990133e+02 -7.9674127401500195e-03 -2.2968404495322878e-03  1.6898790359234046e-13 -1.8092834531064840e-18 -2.3402749035892458e-19  1.5098867305573497e-14 -6.6583086049817341e-20 -3.3148192844041303e-20  1.5156122689075456e-15 -3.7219827247871812e-21 6.2809186722966346e-20  9.0484980051756181e-01 -4.1086049268070159e-06 -6.3654724663471837e-06  4.6029774485830001e+02 4.0082070090954091e-03 -1.6499675701397763e-03  3.0375509992991311e-13 -1.0871191778330908e-18 -1.3035754677625739e-18  2.1121334145601826e-14 -1.0255817449400562e-19 -1.3348252282261174e-19  4.4291172834190488e-15 -8.6539164242442077e-21 2.8022205564219335e-20  5.1857374005343604e-01 5.6944400897816156e-07 -3.0039930477796386e-06  3.0731801344308712e+02 7.2298238467828216e-03 -1.4072159246760806e-03  -3.1735700333180859e-14 1.2590457285502661e-18 -5.3267319284818945e-19  1.3580006943215523e-14 1.0291302136360456e-19 -1.3031015814242413e-19  4.4055897589758084e-15 1.9198817974396855e-21 1.3602604633919474e-20  7.1727146811806453e-01 1.4565525313205194e-06 -2.2734538658455292e-06  2.1770173101431760e+02 7.2200864913095873e-03 -1.3089808616081572e-03  8.1123580908622825e-14 3.7426801665014969e-18 -7.0245959446148614e-19  1.6250800845286975e-14 5.5554602852609648e-19 -1.6215509279916245e-19  2.6990904550234514e-15 7.6412352392234239e-20 -8.6582818842129688e-20  8.4889601515268476e-01 2.0677641020624212e-06 -1.3878309957062971e-06  1.8031582126339487e+02 5.9737352092527939e-03 -1.0685011711291520e-03  1.0510247955572877e-13 2.1719896792124003e-18 -6.3204169712803787e-19  1.6994162334069417e-14 3.1234963442344060e-19 -1.8324483381631747e-19  5.0197570893388729e-15 9.4133032302008536e-20 -2.1932182265376460e-19  9.1492891653300490e-01 2.4661212951523565e-06 -8.4325576921677966e-07  9.1561840523702415e+01 9.9516078970802602e-03 -1.8402982090957715e-03  1.1780234363157651e-13 1.8215383184314761e-18 -5.9910837472397457e-19  7.7207592763907056e-15 2.5521058820928832e-19 -1.6024747337504496e-19  2.2747719726891051e-15 5.8332529851146639e-20 -2.1091307280889798e-19  1.1192982711963382e+00 4.4002145506873345e-06 1.2598386165523700e-06  4.6246181073223987e+01 9.0684992296140403e-03 -1.7416306647691157e-03  4.8658170934726552e-15 2.5738778570615453e-18 -3.9598120877869924e-19  4.9874948495487243e-15 2.5128486034165497e-19 -2.3267038590284372e-19  1.6845804831497454e-15 6.9423084071630700e-20 -2.2927823044579425e-19  1.2709396814361777e+00 6.7155044857744206e-06 3.1348615325515324e-06  3.1529301032761055e+01 6.5464353306083382e-03 -1.2870901343004864e-03  1.3216907081158259e-14 7.9734088980083181e-18 -6.3934441537240482e-19  1.7399220213405249e-15 4.3323032774433473e-19 -2.6172347674972979e-19  1.5174540400527658e-15 6.6464923638949030e-20 -2.5442733467308881e-19  1.3570202849390158e+00 8.4938387549811509e-06 4.1558612258084054e-06  2.5173840873751388e+01 1.0964691191363486e-02 -2.3425923999174456e-03  9.4853266820174795e-16 5.0498122460194014e-18 -1.3104308060299201e-18  2.4099710796664431e-16 1.0137857746779794e-18 -2.3958886700940511e-19  1.1203821702741243e-15 1.1902005988581083e-19 -3.3992099035776468e-19  3.1463608378565331e+00 2.3238540746817444e-05 1.2789524434463610e-05  1.0145388367149228e+03 -7.7981490118606391e-03 -1.5351532253932939e-03  9.0738183356702952e-14 -1.0749095036180689e-18 -3.7041255589692511e-19  1.2049737093435882e-14 -4.5966099137050492e-20 -2.0454914115987466e-20  1.8009201107088417e-15 -2.4596613468181012e-21 -2.0006743860552177e-21  8.0042037164380841e-01 -2.0023739899238085e-06 -2.1095816334993643e-06  4.7149209737784133e+02 4.1519786609354667e-03 -1.1316861308337048e-03  2.5605649806136907e-13 -1.5207372425632896e-19 -5.6903389383823352e-19  2.0889317959043989e-14 -1.2180600425200008e-19 -7.7665053013163126e-20  2.8109994325485238e-15 -1.7195053389751911e-20 -1.6851749405178274e-23  4.6656480308053155e-01 6.5221015704168511e-07 -9.2888773239749994e-07  3.2148721802689937e+02 7.3725939492493703e-03 -1.0193171590282693e-03  1.5877362285353784e-13 2.4790920500760685e-18 -3.8816731483654500e-19  3.0473655980979207e-14 7.8686723146810574e-20 -1.0130764029618625e-19  5.0345074723466240e-15 -9.6273737632420761e-21 -1.8659239871025878e-20  6.6668167672002110e-01 1.9253980592434263e-06 -5.7527851621182528e-07  2.3020560740832616e+02 7.3481976249248123e-03 -9.9167873631556967e-04  1.7528047925998893e-14 2.1761172386602119e-18 -2.2231742526667193e-19  1.3138976691472320e-14 2.8784019780428801e-19 -8.8530622004244969e-20  1.1412275467924999e-15 4.4693656912254171e-20 -2.3839320794955239e-20  8.0142444804377988e-01 2.8402770172902012e-06 -5.1813246802048465e-08  1.9209682303635714e+02 5.7933731145691824e-03 -7.9423422612672607e-04  1.2752872082943339e-13 2.2368103462117508e-18 -5.5137740537902314e-19  8.6995338046939138e-15 3.6292203114070848e-19 -8.2259266186463023e-20  2.8153346490643182e-15 8.8810651798422423e-20 -4.1167715204087990e-20  8.6982591044355029e-01 3.3996012576753218e-06 3.0773614400502456e-07  1.0070380141192956e+02 1.0508263255382830e-02 -1.5977062386333890e-03  2.9574183348605123e-14 1.2929719246966559e-18 -6.1337023531540416e-19  7.2932652843631332e-15 2.7936873089064665e-19 -8.9718461137202597e-20  1.6538515398628593e-15 6.6728071323722355e-20 -3.8495993921386366e-20  1.0852510719738608e+00 5.7668921414647720e-06 1.8162565100266189e-06  5.2737377142369780e+01 9.6737392655350200e-03 -1.5728166491927314e-03  2.4993675028508679e-15 -8.1494109859431548e-19 -5.3341816137184105e-19  6.9800878846824983e-15 2.3589799637140334e-19 -8.8615359300363792e-20  2.5354236878759027e-15 6.7798877792212579e-20 -3.9645106505615815e-20  1.2478406860091382e+00 8.3306693822738091e-06 3.1283335019288369e-06  3.6615918751328444e+01 7.0387903629343697e-03 -1.1986048568572534e-03  1.3798956914394367e-14 6.8697010005104545e-19 -7.1284590474765124e-19  1.4541054958124221e-15 2.7893346215709835e-19 -7.1840972369844991e-20  1.3442935823713708e-15 7.7202160670103490e-20 -4.3045818540365531e-20  1.3407638384674387e+00 1.0239904142954844e-05 3.8688622341410373e-06  3.1654945034937214e+01 3.5949272231192968e-03 -7.0907137283558145e-04  2.9799096627556611e-14 3.7553691824256511e-18 -8.3463830090152645e-19  2.3097680005992756e-15 7.7252531643324256e-19 -2.3937307869377192e-19  1.4421367952292445e-15 2.5732725899262683e-19 -6.5087423873964767e-20  3.1505057859008225e+00 2.7453978940628548e-05 1.0384299652896720e-05  1.0427858793624459e+03 -7.5020708554152825e-03 -7.9484194126665274e-04  6.4421566535198592e-14 -1.1249680003411280e-18 -1.5203122500084526e-19  1.6518423239936987e-14 -4.7578439141892385e-20 -1.9970352321506693e-20  2.0782916245556419e-15 2.7279775440516275e-22 -1.7973091313054906e-21  6.8527163943598779e-01 -7.0848238427576060e-07 -1.0389038893724426e-07  4.8652397543634282e+02 4.0279127221959496e-03 -5.0578695228537657e-04  4.6102072193268666e-13 1.3471078773557795e-18 -2.5084038797450309e-19  1.2567816484026208e-14 1.7238012806678874e-20 -3.4883503041109965e-20  1.4489339313958840e-15 -1.0831872754049396e-20 -7.0049675077427931e-21  4.0926639157109412