/*--------------------------------*- C++ -*----------------------------------*\
| =========                 |                                                 |
| \\      /  F ield         | OpenFOAM: The Open Source CFD Toolbox           |
|  \\    /   O peration     | Version:  2206                                  |
|   \\  /    A nd           | Website:  www.openfoam.com                      |
|    \\/     M anipulation  |                                                 |
\*---------------------------------------------------------------------------*/
FoamFile
{
    version     2.0;
    format      ascii;
    arch        "LSB;label=32;scalar=64";
    class       surfaceScalarField;
    location    "0.270000000000000018";
    object      alphaPhi0.water;
}
// * * * * * * * * * * * * * * * * * * * * * * * * * * * * * * * * * * * * * //

dimensions      [0 3 -1 0 0 0 0];

oriented        oriented;

internalField   nonuniform List<scalar> 
20390
(
2.81656038026091744e-05
-7.88738383992138592e-06
2.63777646486036581e-06
-2.42130287451564831e-05
4.58219668483800986e-05
-9.75866763972392039e-06
5.36877855110653554e-06
-2.3680786619973806e-05
5.17933656840711965e-05
-1.1094854484234689e-05
4.54485986555895184e-06
-3.7369155260651179e-05
5.73182097822667896e-05
-1.03582004855060634e-05
5.78139751495491733e-06
-4.3000961853784793e-05
7.96779644990407637e-05
-1.07867265006672015e-05
9.14633712098067269e-06
-4.76411768136673385e-05
0.00012388298786361314
-1.12643351654576242e-05
9.7791182332645814e-06
-6.47118040151129756e-05
0.000147766187836071371
-1.27768670074016307e-05
9.57651789682689245e-06
-7.28151577914161094e-05
0.000162289156370615299
-1.26960881953764781e-05
8.11540404867200006e-06
-7.88252443458725336e-05
0.000202804993684289534
-1.28064204303132469e-05
8.49616789437041499e-06
-8.42587925526524996e-05
0.000278129058546365408
-1.25872335678432313e-05
1.58217921797716059e-05
-9.21152030281387023e-05
0.000318079328749775749
-1.29020026103558295e-05
3.77214759628471789e-05
-9.1288782046600246e-05
0.000307747318668011175
-1.2475598696975593e-05
4.99288440659306483e-05
-8.67610070290000812e-05
0.000271924716468784468
-1.1177906865282499e-05
4.58091979173835264e-05
-7.91602375453019451e-05
0.000238020292549108773
-9.6733604888024818e-06
3.74835742505339587e-05
-6.93395470586575239e-05
0.000224349272498904019
-8.07729965150996407e-06
3.27529690079962399e-05
-6.19880409810703609e-05
0.000213257302024623743
-6.97224275279469055e-06
3.23653501857258888e-05
-5.56960213020749891e-05
0.000192899493293754271
-6.13879114143184825e-06
3.13520122667733996e-05
-4.89415809105484898e-05
0.000172158003217496962
-5.37621710054416876e-06
2.75750068138057548e-05
-4.31242587508077021e-05
0.000158382865980030403
-4.61995228612957799e-06
2.64693469162405196e-05
-3.83824537951715783e-05
0.000138743870308525181
-4.26726603623028182e-06
2.50109926909076444e-05
-3.4451911900680563e-05
0.000120624866047344234
-3.74085820989798575e-06
2.26220640341457544e-05
-3.21202323510132778e-05
0.000103416519516713747
-3.22200843813380636e-06
1.99169198543354632e-05
-2.78606555596306154e-05
8.74464644052824481e-05
-2.74457148825015029e-06
1.73546116636166411e-05
-2.37104403296620504e-05
7.47667325387116918e-05
-2.22750915337562726e-06
1.61358639536300595e-05
-1.91023732888284718e-05
6.21126778148096146e-05
-2.06648630848897637e-06
1.44851204654989427e-05
-1.59158073621130632e-05
4.79659201969029618e-05
-1.92537213034838522e-06
1.24201736234518953e-05
-1.33002116967206559e-05
3.53173159652676023e-05
-1.61932136003225764e-06
9.83452129256165249e-06
-1.0216730269380618e-05
2.93865104938266064e-05
-1.19832542833823841e-06
7.70667017048692223e-06
-8.19356291905554043e-06
2.4437817166621296e-05
-1.04169598449944044e-06
6.54833844109193828e-06
-6.76515042841328961e-06
1.79752649267667763e-05
-8.89768449834769966e-07
5.34332976740881392e-06
-5.31765878694169833e-06
1.36603036423502377e-05
-5.92800877189665043e-07
4.01586867079390283e-06
-4.1022806279625816e-06
1.15457109501972041e-05
-4.00801204048346062e-07
3.16374775064689948e-06
-3.31817834845667323e-06
8.61112691551723552e-06
-3.03384234592637468e-07
2.55978651410741186e-06
-2.67983040723064329e-06
6.62406747668245106e-06
-1.73268550561344917e-08
1.93988520426305747e-06
-2.01321422486292412e-06
5.09318030858029881e-06
1.09611071632652516e-07
1.46500907520935938e-06
-1.65398352632456219e-06
2.57908574994483506e-06
3.20537518120988207e-07
1.36366729181420068e-06
-1.32763586497829243e-06
1.04032860054421465e-06
4.45338047226817529e-07
8.26373040427890099e-07
-9.37105978619642479e-07
5.20067048435091082e-07
9.58447833027498061e-07
-1.17142051280551033e-06
3.61704943032730518e-06
-1.08337225557214425e-08
-2.31487558256154145e-07
-1.25147819290005989e-05
9.96929403066323288e-06
-3.56231707761600278e-06
4.80206188543575449e-09
-1.24188145251591385e-05
1.81919968350728797e-05
-7.36100910899202034e-06
2.57648844777962981e-06
-1.5211153005443912e-05
2.45799566246759411e-05
-7.0684328928126191e-06
4.78221990114013971e-06
-1.55651893842934013e-05
2.94012542840549621e-05
-5.74584977442840601e-06
5.66202864330214935e-06
-1.68834021122511241e-05
3.19475000142164167e-05
-4.93706785302134003e-06
5.63286521518780544e-06
-1.60253877079431461e-05
3.18110420506550698e-05
-4.58352099511073035e-06
5.1298399150502092e-06
-1.46527956750263252e-05
3.08514895581257274e-05
-4.49609295415009984e-06
4.65265039138530394e-06
-1.35820057547553298e-05
3.02583779401113093e-05
-4.47135154216434203e-06
4.46530134226547055e-06
-1.39655068598693963e-05
2.96816062789360475e-05
-4.104392581325254e-06
4.64909875834804757e-06
-1.41846711415979783e-05
2.86097452420781586e-05
-3.60937872210622875e-06
4.95169669705154168e-06
-1.46675847366246246e-05
2.66994660548734619e-05
-3.18268542966489123e-06
5.00219279991572559e-06
-1.35927119986699861e-05
2.43956496519975275e-05
-2.66145285962863825e-06
5.47691725458016859e-06
-1.25761841900721227e-05
2.199255230965952e-05
-2.15777062251097841e-06
5.47507933934651865e-06
-1.12425976924091663e-05
1.97734489043767228e-05
-1.70393603736565086e-06
5.20599571924871093e-06
-9.85525605550144419e-06
1.76219244707167447e-05
-1.3741603702506679e-06
4.98347111471819315e-06
-8.82639933092990559e-06
1.56240093901851167e-05
-1.15654652186174861e-06
4.66214554201694578e-06
-7.9383931761067413e-06
1.37772904176429442e-05
-1.00533214203189889e-06
4.3261548806207862e-06
-7.152582758824813e-06
1.21386642451884734e-05
-8.47736486113318772e-07
4.05663714558103729e-06
-6.46945081261322934e-06
1.05836650248546903e-05
-7.32880014843570733e-07
3.75391297323102878e-06
-5.9473511167223744e-06
9.13975482715004074e-06
-6.20647366959280817e-07
3.44593734407496607e-06
-5.29310013680959563e-06
7.76857719753489433e-06
-5.29724761233187343e-07
3.09990186173808295e-06
-4.64672287232229421e-06
6.58987356836797318e-06
-4.52040870945312376e-07
2.78749279801259826e-06
-4.07146990629016532e-06
5.72235249838484847e-06
-3.62764183672403269e-07
2.48850328918688336e-06
-3.49080762389510282e-06
5.06926671109637112e-06
-3.12794252054419011e-07
2.16928609526411566e-06
-3.03825962228065892e-06
4.51111261935583688e-06
-2.75938238559411881e-07
1.78272815059992627e-06
-2.60572026790656097e-06
4.31129581539651759e-06
-2.66063628220302225e-07
1.3716087363671935e-06
-2.30455145824025478e-06
4.29465359338078731e-06
-2.54108283414440948e-07
1.12716055185725296e-06
-2.07108147924996515e-06
3.81135731077826911e-06
-2.38422030787880923e-07
1.02681213487068637e-06
-1.79597002524502614e-06
3.52856584489811894e-06
-2.17505898980933229e-07
8.55214124282679747e-07
-1.59159210154990329e-06
3.38621193250426619e-06
-1.98216149857944787e-07
7.99579557269365157e-07
-1.39380641429334728e-06
2.97838291298310751e-06
-1.60209167825615374e-07
7.37654488426197881e-07
-1.17454697204441043e-06
2.7211848937893098e-06
-1.16839380306013277e-07
6.35692414586334753e-07
-1.01699023563274146e-06
2.57966766550680858e-06
-5.32567554011397654e-08
5.73684776441917999e-07
-8.90573694705935754e-07
2.170538219541778e-06
-9.36953747665995122e-09
4.66501943052468988e-07
-7.16459370833106179e-07
2.18458329097381976e-06
2.15884136478272409e-07
4.46089639410722736e-07
-6.20302500184268079e-07
1.53606054266733894e-06
6.27578777096729385e-07
6.36270166968840347e-07
-8.20813002912415937e-07
1.07723334458378366e-06
9.03081657447341009e-07
-1.02895569886782679e-06
5.08589510418641037e-09
-2.19978255381591219e-10
-1.83939283226734717e-08
8.99702196943914374e-09
3.55056544160342144e-06
-2.36480007933085845e-06
-1.25579590805857476e-08
-4.66794112162908312e-06
6.86448840575186568e-06
-2.81001515148322615e-06
1.23714599306539397e-06
-9.23739135312962922e-06
6.49715941909242113e-06
-1.52372492634542651e-06
1.36948100936891844e-06
-6.75925711545862281e-06
5.53550481265783275e-06
-7.70622178870111909e-07
9.17454996774071558e-07
-5.24305135608671413e-06
5.04377902218597479e-06
-8.3531159934697234e-07
7.57799569772064279e-07
-4.85108905719554225e-06
4.74754892166399651e-06
-1.03062886679707391e-06
7.46680925332303764e-07
-4.59992502256950866e-06
4.65188942932909429e-06
-1.12644922363069466e-06
7.14182151451964632e-07
-4.66307804311113279e-06
4.48820896720825797e-06
-1.0281212703627692e-06
7.39672018428333888e-07
-4.63656321662223313e-06
4.16384171396793744e-06
-7.76835508604166973e-07
7.70569775254798021e-07
-4.26535306617176776e-06
3.57466028967332862e-06
-5.1491331429582144e-07
8.5896794808219019e-07
-3.701272008617405e-06
2.85454426065767321e-06
-3.58556722954236584e-07
7.24835488482466594e-07
-3.06456209000638808e-06
2.23976338272102544e-06
-3.06040788931874526e-07
6.5648333305110836e-07
-2.58435704009019821e-06
1.84381060426025507e-06
-3.15802156465449734e-07
6.65228444024777357e-07
-2.28912887624853806e-06
1.63840401395774281e-06
-3.26857004571269077e-07
6.93108958320963094e-07
-2.04927254697509941e-06
1.5251386165914322e-06
-3.19911671469462172e-07
7.35817193063135099e-07
-1.86602860469767394e-06
1.4279639235220565e-06
-2.96662128641619782e-07
7.52696378546277594e-07
-1.70280402698954054e-06
1.32246953089798224e-06
-2.59622268546115082e-07
7.1452755047234918e-07
-1.52115898966140285e-06
1.20346259538072368e-06
-2.12714240876367636e-07
6.58795632031112348e-07
-1.32517405403973446e-06
1.07177282873053009e-06
-1.66006187059694754e-07
5.78961600372238606e-07
-1.1373577895611339e-06
9.38826511575939357e-07
-1.21949255712951444e-07
4.99165766691319211e-07
-9.59964389841249208e-07
8.10160093836964548e-07
-8.61380471715372332e-08
4.11058421288072695e-07
-7.94401351234273322e-07
6.83477227893564678e-07
-5.97642168970818024e-08
3.24047734759454855e-07
-6.55949151863457801e-07
5.77021065312808328e-07
-4.05032867729589108e-08
2.45621792311907059e-07
-5.25785992939741674e-07
4.80152253456276202e-07
-2.94408958592701795e-08
1.83071671674568871e-07
-4.33052876359391295e-07
4.03770448177047785e-07
-2.37643385742631808e-08
1.36296265676205804e-07
-3.60524999408490245e-07
3.47841333208926064e-07
-1.95556200607024089e-08
1.00159919203566266e-07
-3.01845192709587289e-07
2.95780838276764986e-07
-1.53643177327984374e-08
7.83786348774549552e-08
-2.55681557391083219e-07
2.57664866569565721e-07
-1.46608417576806182e-08
6.43318447224493163e-08
-2.09874463680769726e-07
2.33562356727699562e-07
-1.42783107080590175e-08
5.70241515592658782e-08
-1.69289869205209511e-07
2.26696346267137719e-07
-1.15605999692066151e-08
5.31090249691854979e-08
-1.35285950336250972e-07
2.46286505409752391e-07
-6.55846531773958074e-09
5.20017452279429845e-08
-1.38380153867485535e-07
2.25927635085586018e-07
-1.93734511069014415e-09
4.40811393506659863e-08
-1.3124349035234192e-07
2.38165260802284229e-07
-1.74232787003451405e-09
4.04825058224297473e-08
-1.14087503088884957e-07
3.42725794431331294e-07
4.1248291849831827e-09
5.27258604301304908e-08
-1.16311641327462286e-07
5.92452596746232355e-07
8.25627503670216418e-08
1.57288521366671678e-07
-2.77779938991500111e-07
7.97301721542540771e-07
3.36816060646381029e-07
3.70123569785987188e-07
-4.88339285079750102e-07
1.12731526311995361e-06
7.55240425252030933e-07
-9.17366538533220002e-07
1.74364871950561593e-11
-1.08589030771055379e-10
-4.12578449540980736e-10
6.33394626577973885e-11
4.03680205989415614e-07
-1.39892959419935121e-09
-2.04064330058455646e-09
-2.69946423684640659e-06
3.06207671920316222e-08
-7.0141274969092662e-09
-2.87507570317674313e-09
-2.40880031348262698e-06
-1.1276916426083131e-07
-2.01824795306056833e-08
-8.70579361543281197e-09
-1.34959061804903243e-06
-9.16684515752936924e-08
-5.53154394786462883e-08
-2.67834136943267224e-08
-7.37536836764068753e-07
9.10531320420672599e-08
-1.74887413826770581e-07
1.46242213242268285e-10
-9.00847867793166537e-07
2.63047646676676887e-07
-2.27060282725182348e-07
1.9613326991610314e-08
-1.10426012775754355e-06
2.82013189140776766e-07
-1.43079293329389763e-07
5.8640450851596442e-08
-1.19954469697468764e-06
1.67950595543845133e-07
-6.27161661156980407e-08
5.68033613353195933e-08
-1.00343364605663439e-06
6.36114775760206889e-08
-2.46967244337428322e-08
5.56835239788914737e-08
-7.79440208143321849e-07
2.65006208610390852e-08
-1.89235332542449574e-08
6.77783839712385229e-08
-5.91237976436901985e-07
4.62254748255316884e-08
-3.39326891140001331e-08
5.3785452313380611e-08
-4.64495114223063183e-07
9.18765400841972935e-08
-4.99419127836465435e-08
5.46312925284948205e-08
-4.3859920266016799e-07
1.46176071685139081e-07
-6.30700525530186775e-08
6.86053152784556516e-08
-4.62179709696816342e-07
1.98116388386343033e-07
-7.1808983643127787e-08
9.92717128280104051e-08
-4.92951044780797994e-07
2.30878232143565076e-07
-6.69679006712004639e-08
1.22077396244032808e-07
-4.90754524958388263e-07
2.38181661714507307e-07
-5.4915413363179109e-08
1.27222292651331861e-07
-4.5410349966528621e-07
2.25341165100636801e-07
-3.77349973121789516e-08
1.15069650198850366e-07
-3.94225176362345582e-07
2.02124365416939678e-07
-1.8741279986058303e-08
8.73758716434907278e-08
-3.13094159798668642e-07
1.77978487325773028e-07
-4.54192805637881617e-09
5.97121990928841965e-08
-2.41667996795472096e-07
1.5058953702625621e-07
-7.1202423885168477e-10
5.12023168079085407e-08
-1.86897494122704609e-07
1.29233166048738219e-07
-1.522953440677621e-09
4.39415321229195489e-08
-1.3604426144277945e-07
1.12527357858315741e-07
-1.83983837098351558e-09
3.64553054313152772e-08
-1.0780102924002894e-07
9.67895115827452556e-08
-1.78887909030861986e-09
2.99967385445309886e-08
-8.39370708614437652e-08
8.0890749533090888e-08
-1.5578948577377417e-09
2.50020043663352802e-08
-6.64930259123407194e-08
6.57441341871722247e-08
-1.23746182454952255e-09
2.03078742918810273e-08
-5.29704117345448667e-08
5.22178348599572918e-08
-1.0814866024324039e-09
1.48732793156547404e-08
-4.06982080760471325e-08
4.51344558587906796e-08
-9.44889527887780044e-10
1.18306937111207073e-08
-3.18773142768486977e-08
3.9606316162073308e-08
-7.77634563740301017e-10
1.07765122856174992e-08
-2.6951715123097211e-08
3.3168807390321463e-08
-6.10045467562238207e-10
9.76532238276702895e-09
-2.30315033384961117e-08
2.66409519528435596e-08
-5.45192214110469097e-10
6.45024341986017441e-09
-1.9740896089350294e-08
2.2461404513217476e-08
-8.91500001331121554e-10
5.23173308329942634e-09
-1.53876163827778403e-08
2.11283546053160015e-08
-9.63975677083732567e-10
4.90305781344162575e-09
-1.28881303684131682e-08
2.30494465109341847e-08
-1.12255455573627588e-09
4.86214624586347516e-09
-1.19183505967003473e-08
4.95735752380537969e-08
1.47590605632647596e-09
7.92918920308099978e-09
-1.91982031716013571e-08
1.49645699294663369e-07
2.02686432242904761e-08
3.7725673820905655e-08
-7.96258575680336867e-08
3.14076741771060445e-07
1.89762262249118027e-07
1.81953240658756937e-07
-2.79294818879283107e-07
8.22197226334012447e-07
5.97666109856994053e-07
-7.5016503764086253e-07
-2.9579515304971158e-10
-4.45821519735050699e-12
-4.59837476685172936e-11
2.59688387242825528e-10
-1.82417033401124006e-09
-4.00714121120585109e-11
-1.63057574946269274e-10
4.16594918046222505e-10
-8.42810756327418896e-09
-1.44151170495430449e-10
-5.12920333711840076e-10
6.01809583582076798e-10
-3.40538480177988485e-08
-4.59083146764972365e-10
-1.44420627008074446e-09
7.95653662654040848e-09
-1.077491374087837e-07
-9.67619028192598404e-10
-4.62887576028062968e-09
2.60585682156269538e-08
-1.39101477317414644e-07
-4.86501220751571322e-09
-4.78615831824921796e-09
-1.27817832540975683e-07
-1.14289088063855458e-07
-5.42375378407503073e-09
3.86340189854229476e-10
-2.45611966518480856e-07
-8.22901174424785025e-08
-4.69239573918891063e-10
2.22232946828596931e-09
-1.79711452480790418e-07
-5.99976046231020779e-08
-8.04606142645369451e-10
3.6489867793065182e-09
-9.71662116343973257e-08
-4.24313388854802754e-08
-5.85580898125588813e-10
5.58734040767403908e-09
-6.23145608325123718e-08
-3.08911666948997436e-08
-2.33623471312034302e-10
6.6430443139598139e-09
-5.56837981167956254e-08
-2.27548852543277477e-08
-4.82058534470905503e-11
7.58427005883316514e-09
-7.02073421467332225e-08
-1.36516052357026988e-08
-9.46278679759628915e-11
8.86946051087697285e-09
-9.14849977610570821e-08
-3.81303045590691966e-09
-8.94388454206995511e-11
9.2785062095196855e-09
-1.06907275727275774e-07
4.72091852518325919e-09
-1.4725714826670363e-11
9.40900793009900074e-09
-1.1457266402016824e-07
1.03972051378702851e-08
-1.35304965820082399e-10
8.75383190253952176e-09
-1.05061070562654188e-07
1.3405467836934675e-08
-2.71219707732241824e-10
8.34462518351659748e-09
-8.76680617272101288e-08
1.4722033808578252e-08
-2.70367721619109005e-10
8.74517436864390494e-09
-6.43944233393539829e-08
1.52730938955362611e-08
-2.93414648972690438e-10
8.67520964477993091e-09
-4.23083677660793138e-08
1.66009977770997365e-08
-4.55319013914927315e-10
8.76052995081112806e-09
-3.60837882887249701e-08
1.58207036248400598e-08
-5.30247250198364793e-10
8.27040259582921959e-09
-3.00958513233971486e-08
1.39030593022644859e-08
-7.04853832967031925e-10
7.0450499855325968e-09
-2.38966775609662488e-08
1.2003961545544072e-08
-1.0731263152302019e-09
5.84987632610651468e-09
-1.87054697898807375e-08
1.00974858608034101e-08
-1.2310459253928669e-09
4.76134411892251926e-09
-1.45385219462999824e-08
8.20957055542081563e-09
-1.32859655229071218e-09
3.43586891971021567e-09
-1.17805406481857892e-08
6.49052111260696167e-09
-1.0797844960181508e-09
2.45102723177933315e-09
-1.00136469884278354e-08
5.06969407654938513e-09
-8.19331277919191825e-10
1.71230120501485023e-09
-8.51898649304588337e-09
4.14015900693532916e-09
-6.83515170059234429e-10
1.33228252188336549e-09
-7.79002055722973197e-09
3.31159512214752858e-09
-6.32769137427611679e-10
1.17831833612764016e-09
-5.54726436773178924e-09
2.52211258663694238e-09
-5.40554328867124261e-10
1.05513120378098491e-09
-3.72669894236388553e-09
1.8738449461337927e-09
-4.20368002753983234e-10
8.91164921014928328e-10
-2.94137510071654698e-09
1.4755916057837229e-09
-3.48607783808777568e-10
7.98393904455436908e-10
-2.4013257088221636e-09
1.14222636889895876e-09
-3.41767932223641017e-10
8.1961690616350116e-10
-2.21094677122865643e-09
9.81765112057112926e-10
3.1844381459362656e-10
1.00513805982409399e-09
-2.3857962417745464e-09
3.04750818344014337e-09
1.91402835756951588e-09
2.24325051809552947e-09
-4.64157307183258014e-09
2.30641996795042145e-08
1.35125480772043166e-08
1.10351589626021341e-08
-2.2337284384615203e-08
7.39895403994669733e-08
1.56214830040105467e-07
9.97024394486559278e-08
-1.48421743945883834e-07
5.11787750496008461e-07
3.77102228086354364e-07
-5.84450400298644168e-07
-2.79013669118092304e-11
2.54589248730536698e-12
-9.70130495762336913e-12
3.57604113148766133e-11
-8.98292120740200106e-11
-3.38783286745299812e-12
-2.33497226923976741e-11
7.03556696026694777e-11
-2.95364023725010007e-10
-1.62518813303966151e-11
-6.59279661819791539e-11
1.69987888212279795e-10
-8.96204195046753531e-10
-5.37362031264781634e-11
-1.64991857061816134e-10
6.45227637108382429e-10
-2.68077176197287252e-09
-4.98332670190323302e-11
-3.74788963486402732e-10
1.67934698348709484e-09
-7.16224178731057546e-09
-5.84068906830357149e-11
-5.49877285907980515e-10
8.46188057060309697e-10
-8.03890462312319155e-09
-9.35316859424834596e-11
-3.88741894385033512e-10
-3.77463898514925899e-09
-8.36816479899346891e-09
-2.52312655107061024e-10
-3.36617714015864596e-11
-9.11275380128302926e-10
-9.44238962100559444e-09
-2.48399253218650401e-10
1.89330264862623626e-10
-2.51170299774093712e-09
-1.04326322535307155e-08
-6.71274717957843123e-11
4.35222776156134086e-10
-3.68167767497900174e-09
-1.14643486741857441e-08
3.17820394036183674e-10
5.91922974273395737e-10
-4.48128412530415982e-09
-1.24868340945519731e-08
5.31663014313018014e-10
7.07626078838447318e-10
-5.38484180014012516e-09
-1.15838971873526798e-08
6.20359276190412983e-10
9.46625316331017754e-10
-8.40044465711643936e-09
-1.01447604453071527e-08
4.83439480129531311e-10
1.05408515881736765e-09
-8.76827233145931348e-09
-8.37543024199751021e-09
2.88412509879555424e-10
1.12124756703481244e-09
-8.46348058911479821e-09
-6.88006021811854137e-09
2.38396317927217185e-10
1.20812467074144343e-09
-8.90057305946262376e-09
-5.34930339934344894e-09
2.69885433536623837e-10
1.31419751054140847e-09
-9.315817866591173e-09
-3.88818319153941337e-09
2.90420044178447431e-10
1.41298432766700023e-09
-8.87390518362415666e-09
-2.62175904727713066e-09
2.70167775091819139e-10
1.34930418611894315e-09
-7.4851269491970066e-09
-1.71462230155807857e-09
-1.82198650362773329e-11
1.22431680114311809e-09
-5.97085640306963653e-09
-1.06768823528196018e-09
-1.56598946119226304e-10
9.98779411406006446e-10
-5.69516173897871184e-09
-6.53265822716912411e-10
-2.28202659888144665e-10
8.56704387705644133e-10
-5.18820980822890911e-09
-4.32666214874734207e-10
-2.50264005189269033e-10
7.10799264001262128e-10
-4.41418504958037552e-09
-3.65863471838342236e-10
-2.85556829811174815e-10
5.45014258361289462e-10
-3.34514084781795023e-09
-3.6707376414886871e-10
-3.76339836472138924e-10
4.03809562811354959e-10
-2.01525933470198664e-09
-3.94269873477325707e-10
-3.69716201075796849e-10
3.16965331318322175e-10
-1.38945809832629794e-09
-4.32158772957221029e-10
-2.87423637931578225e-10
2.72681772644403835e-10
-1.06531246647439075e-09
-4.91318080186849185e-10
-2.37530343879788373e-10
2.39826090989872814e-10
-9.09562526274060481e-10
-6.0145810893172102e-10
-2.2040652544151535e-10
2.35425016055924906e-10
-8.09525858003666964e-10
-7.3665147275272025e-10
-1.87437041187054093e-10
2.22963686033423183e-10
-7.16178023743566202e-10
-9.2090821382904125e-10
-1.49835982162576291e-10
2.02380317084683726e-10
-6.54525566396818341e-10
-1.03657401268311515e-09
-1.13901134529063929e-10
1.98034642452961872e-10
-6.27976040557781924e-10
-1.07323240150109455e-09
1.14483887604916177e-10
2.09212763013565005e-10
-6.27446866598467114e-10
-1.11126133144003674e-09
7.49137973869867213e-10
4.09443484550645402e-10
-8.39211541980526993e-10
-1.11275014127187716e-09
2.72874927069160154e-09
1.07055631799584314e-09
-1.83707726564765817e-09
-2.08200722294760264e-09
1.80569466945469131e-08
6.39564047613647151e-09
-9.48246492729472627e-09
-1.41264470267573643e-08
1.74966550049257947e-07
7.03328511878346786e-08
-9.73482028072928323e-08
4.19799618770349762e-07
2.60923913080293631e-07
-3.64582547928191595e-07
-1.40033267615629603e-11
1.75427420618663158e-12
-3.53474739584655951e-12
2.04461710125777571e-11
-3.783294880296034e-11
-2.54043933268665161e-13
-1.12220925376943868e-11
4.10494610974100705e-11
-7.69863437022194579e-11
-5.96965059000475505e-12
-2.69805500858663375e-11
9.10574329686759415e-11
-1.1189258532754442e-10
-1.87681063624889999e-11
-3.35397081152549206e-11
2.30931707513586653e-10
-3.02062623759420779e-10
-9.5104149891268483e-12
-4.62051154912823588e-11
2.08731023625084687e-10
-4.88189176182522403e-10
-1.96597365077483442e-12
-5.92730713900352282e-11
5.1980521300482958e-10
-8.4282307406894798e-10
7.00427390829046962e-12
-5.16875755322465675e-11
8.63936515911391117e-11
-1.5264956012216404e-09
-8.89788420809604282e-12
-3.14092142096397593e-11
1.60411420082084219e-10
-2.41486862490605496e-09
-1.20619526979702743e-12
1.47654242559936594e-12
1.92667267320386772e-10
-3.49884393355333818e-09
1.02173068042187796e-10
7.04622510938685322e-12
2.2834549125536736e-10
-4.21625171047207049e-09
2.930999832239957e-10
9.77651895536541599e-12
-1.32304148030500464e-10
-4.38360712111160162e-09
2.7070295650599422e-10
2.78131706855357683e-11
-6.69226531950704908e-10
-4.05604730643114587e-09
2.34401984738883213e-10
6.9518356162667824e-11
-1.21430275117403531e-09
-3.6150428824198941e-09
1.60445853462425398e-10
9.88183342656306059e-11
-1.355563523859347e-09
-3.18290285232331658e-09
9.27627777979727538e-11
1.24817284444559533e-10
-1.35121896733490159e-09
-2.85757759289695875e-09
6.64260227588112798e-11
1.58596298085042228e-10
-1.48372059939121276e-09
-2.47158841503019107e-09
7.11237353706537129e-11
1.95080002171140439e-10
-1.58854829211316511e-09
-2.01750498635644705e-09
7.9837329035977531e-11
2.10116174482440525e-10
-1.56758078143792904e-09
-1.6120627636843582e-09
3.69830479894657641e-11
2.02938873210411291e-10
-1.35429500794144779e-09
-1.32341203683916139e-09
-3.6150450487977328e-11
1.79646246662434319e-10
-1.06730167782185588e-09
-1.12206155471160239e-09
-8.05341637326607886e-11
1.63572118858481106e-10
-9.13172887140909162e-10
-9.60907839515483131e-10
-9.0182904638383399e-11
1.46825944037132251e-10
-7.21233776399810003e-10
-8.13703386993032414e-10
-9.15179829698977762e-11
1.27781827939683223e-10
-5.75442672630842699e-10
-7.06433127578868708e-10
-9.91694021067573861e-11
1.02352225932518483e-10
-4.32549285151079824e-10
-6.43505672847973883e-10
-1.1743063672418968e-10
7.95270077617307414e-11
-3.15649406629483848e-10
-6.37624052655724945e-10
-9.47735250822796413e-11
6.95713376466826052e-11
-2.62426592938035832e-10
-6.22681530158743979e-10
-8.02293738110001427e-11
6.40890636936330948e-11
-2.52663635136202417e-10
-6.0774973503260524e-10
-7.33764680474906486e-11
5.92411523411965704e-11
-2.30899296468208867e-10
-6.25694135415222491e-10
-6.92232337936291263e-11
6.01113156726713419e-11
-2.05618179970721987e-10
-6.82650041464942952e-10
-6.49063601026642851e-11
5.97975676186923507e-11
-1.90715486020522332e-10
-8.17405805607160496e-10
-6.00120705333742799e-11
6.02069138744932107e-11
-1.91303312248848344e-10
-8.47036884779489244e-10
-4.27828920486483227e-11
6.66360679515323154e-11
-2.06357229482241795e-10
-8.47837126840764467e-10
3.15406302663778886e-10
1.04524800900582006e-10
-2.45512344644460367e-10
-1.17882678813859559e-09
9.01949885338604396e-10
2.16848865724297068e-10
-4.41323476171828675e-10
-1.68918791113321162e-09
3.25187644465688417e-09
7.54821719384234546e-10
-1.19916464508074269e-09
-4.37697972524295352e-09
1.96851856110118917e-08
4.97243864699476001e-09
-6.90449528088305786e-09
-3.02070380082256223e-08
1.92131226617053087e-07
5.38422042989986124e-08
-7.74916864402101852e-08
3.84820528228643717e-07
1.92078215518872075e-07
-2.61265866997943615e-07
-7.16716372597477465e-12
1.41159419802064368e-12
-2.7775748242353509e-12
1.16337356267523966e-11
-1.48798352691536852e-11
4.08923921765443584e-13
-8.59519837540510629e-12
1.57359514142473308e-11
-3.838814872281411e-11
-8.07491911724937541e-13
-1.0255701197271579e-11
1.88708712625499865e-11
-3.84332792081760563e-11
-3.09792765519268664e-12
-1.50124068901918013e-11
8.79200094626421979e-11
-6.46540397496707547e-11
-1.30431139996587287e-12
-1.34451400839163602e-11
8.83543486331051965e-11
-1.04417861546831912e-10
4.03146619516518467e-13
-1.30679243350235513e-11
1.28354195950514689e-10
-2.48362546887672401e-10
4.70806812897629303e-12
-1.17434023016988714e-11
9.81000682789259517e-11
-4.31495400565040501e-10
1.16816867583068109e-11
-9.01528215054449523e-12
5.32637220504696644e-11
-7.51637344436513672e-10
2.81274221188895923e-11
-1.16153587153643742e-12
2.08519862997684928e-10
-1.04189154260337545e-09
4.73113716383083557e-11
-8.52037466124658978e-12
2.90415152339197569e-10
-1.00919825017425102e-09
5.9785408289722562e-11
-9.18622016875444317e-12
8.22675627905487693e-11
-9.78200832968220136e-10
4.07557481059840649e-11
-1.38130306349275641e-12
7.56000831985040816e-12
-9.15829051436402895e-10
2.91400658276144375e-11
7.55888613239810801e-12
-8.62445416479711914e-11
-8.72924849862908789e-10
1.76525528655459973e-11
1.07977711919777894e-11
-1.37481193162026236e-10
-8.43865404425329821e-10
2.23275370837084633e-12
1.49851139248880406e-11
-1.76558293907071861e-10
-8.0528838921174473e-10
-2.7984855118389845e-12
2.24811374233191328e-11
-2.21843564906773917e-10
-7.38232774199239018e-10
8.7506262347654981e-13
3.18806683661773816e-11
-2.6340999053866413e-10
-6.48899313064977584e-10
6.66898158179010494e-13
3.69973333790398703e-11
-2.74996898284901359e-10
-5.72320838742095031e-10
-2.03918759200200397e-11
3.59093687110606352e-11
-2.39383441870483796e-10
-5.1782829081766658e-10
-4.32729686071247497e-11
3.22482965554677598e-11
-1.89429710377796921e-10
-4.76269369388737863e-10
-5.28676868366169106e-11
3.09109812491376019e-11
-1.53927237499506745e-10
-4.36806338546883542e-10
-5.08324934475438911e-11
2.98604517462881093e-11
-1.36244355429875657e-10
-3.93051959429786608e-10
-4.6231061877966158e-11
2.78485168183569371e-11
-1.19945254897868647e-10
-3.59373635391401115e-10
-4.4901120844163259e-11
2.40258406617023969e-11
-9.48289499819022044e-11
-3.42971120515024291e-10
-3.33006473059107995e-11
2.08318627042380825e-11
-7.5695942515069707e-11
-3.50863976547041563e-10
-2.62127904193333444e-11
1.99140732507499584e-11
-7.34391535922701876e-11
-3.45241596261105408e-10
-2.56185969942537271e-11
1.87775260732892899e-11
-7.3516809482652412e-11
-3.37634459074095191e-10
-2.55150474692554998e-11
1.79808487800500945e-11
-6.86958465635958128e-11
-3.43283881791366161e-10
-2.61720585072043887e-11
1.90697624084673991e-11
-6.31792662657570636e-11
-3.86821745470633335e-10
-2.77382279449389397e-11
2.00420063229328143e-11
-6.31378602610967235e-11
-4.18086721037570816e-10
-2.29667227277598946e-11
2.3479631270401655e-11
-6.89503433598640621e-11
-4.23893582425112915e-10
7.90500785567435604e-11
3.17968607239158173e-11
-8.07259741170866445e-11
-5.86326647958425343e-10
3.27018150531675616e-10
6.67303150247662975e-11