/*--------------------------------*- C++ -*----------------------------------*\
| =========                 |                                                 |
| \\      /  F ield         | OpenFOAM: The Open Source CFD Toolbox           |
|  \\    /   O peration     | Version:  2206                                  |
|   \\  /    A nd           | Website:  www.openfoam.com                      |
|    \\/     M anipulation  |                                                 |
\*---------------------------------------------------------------------------*/
FoamFile
{
    version     2.0;
    format      ascii;
    arch        "LSB;label=32;scalar=64";
    class       volVectorField;
    location    "0.270000000000000018";
    object      U;
}
// * * * * * * * * * * * * * * * * * * * * * * * * * * * * * * * * * * * * * //

dimensions      [0 1 -1 0 0 0 0];

internalField   nonuniform List<vector> 
7236
(
(0.528059070080532433 -0.152408183405200154 0.268565924940134426)
(0.863799247877524934 -0.203401671884544027 0.316870674242183736)
(1.08759280913103784 -0.180624748610736074 0.360389589234856644)
(1.36606429895648041 -0.151906739371109989 0.433302512489053271)
(1.64419115466011556 -0.125162189646045752 0.53578559786022284)
(1.85955641877731748 -0.10286379559567134 0.600154905335791633)
(1.99915575552444857 -0.0931530031998053509 0.635597133590421692)
(2.11079748192008365 -0.0871273709575426103 0.65344873726578856)
(2.19944714379956263 -0.0818330638487840961 0.659692643906301446)
(2.25515232465850879 -0.0734593515072740205 0.657053051511349295)
(2.28427575923588844 -0.0678155671909980301 0.648026228566729201)
(2.31388150016609151 -0.0642108568010321679 0.639790424016586368)
(2.35005175213450679 -0.0608856055819772674 0.629748857379925364)
(2.39023903423878004 -0.0579068810882815907 0.619923726990223023)
(2.4285390353643761 -0.0545562490642779382 0.611833306581453851)
(2.46030877859338082 -0.0516233278945880045 0.604467679184200968)
(2.48982676159005356 -0.0492616991055072062 0.598699271371760045)
(2.51930980515706615 -0.0472745640405857065 0.594076757942061717)
(2.54654322463598115 -0.0452352361037146183 0.590116950651339289)
(2.57243389348455009 -0.0439176631312695534 0.586800543443161349)
(2.60075377910397121 -0.0426663056439544053 0.582980521425591314)
(2.62766490946173681 -0.0416744576833847219 0.580150082718762006)
(2.6540735716103967 -0.0407366428034105429 0.577808920625658917)
(2.67751877609960864 -0.0391318960080232134 0.574863120906025982)
(2.69655690675975013 -0.0374461227771031788 0.569547059423357149)
(2.71554167491363563 -0.0355891704741365666 0.56414213383733991)
(2.7370401203736856 -0.0336766643184103209 0.560334118077531529)
(2.75844854417381136 -0.0298098154877954984 0.556553317300307659)
(2.77087849537956421 -0.0260119238295582512 0.552143401763128594)
(2.78333641615358962 -0.0234878646879095182 0.547110323766554996)
(2.79890490157568195 -0.0191586654548752885 0.541073283321560239)
(2.79688812327988234 -0.0128933418042641284 0.534205281232348339)
(2.78731363800137943 -0.00956933258433588507 0.525647392642945244)
(2.76419850117540289 -0.00167887275504547545 0.517699886930751974)
(2.67814769979294764 0.0183388858622283088 0.518868988272276344)
(2.4692003395863269 0.0800143147009798605 0.554389513161758107)
(1.93047314771472545 0.253591748494025326 0.585380269394579988)
(0.852746297952364563 0.324613000784036321 1.12524343938020177)
(0.240026604748371758 -0.438987436416716448 0.181390040506866801)
(0.783994761305300991 -0.447497381651007053 0.271268428156717423)
(1.31443592147922339 -0.430262206813155412 0.441083571159567311)
(1.61230183642395719 -0.382108011828518279 0.563097469928738881)
(1.75402394872958278 -0.331713611038213674 0.620709844942289424)
(1.7979456526848534 -0.268905762215536748 0.65791745613771524)
(1.77956746243744779 -0.23546115478933341 0.659494995858918909)
(1.74429877039893944 -0.216456928624682549 0.661506153655104789)
(1.72036612645236775 -0.201956726000608794 0.659948761034091724)
(1.71851797913377147 -0.173832436375936261 0.653390821265597554)
(1.73572515814341566 -0.153673042258703429 0.651780215707986388)
(1.74162031157831332 -0.141455694971318463 0.650637136702564955)
(1.74673456592492515 -0.131553272994792553 0.650936103445403536)
(1.76249764414476751 -0.121795519108528413 0.647783522247391441)
(1.78320244172885589 -0.109254576046816113 0.645125691922619815)
(1.79628563956278064 -0.0969645840673327014 0.646113829426709585)
(1.80274457832024604 -0.088862738630364313 0.650936055881964348)
(1.80179685138675882 -0.0831093697855691399 0.660237051895129601)
(1.79920933340645139 -0.0745640720850235111 0.673140825957583955)
(1.78363870637813893 -0.072548541704704414 0.684466951611930052)
(1.76014087648979234 -0.0702568844088948125 0.694377183231894235)
(1.73276527337089226 -0.0692801822858981481 0.704550140237889533)
(1.7042918552909383 -0.0691608208733184987 0.714343374978910539)
(1.68401482034469629 -0.064461536492593105 0.720992104806674305)
(1.66387974798323479 -0.0648083974297474358 0.721260398703297723)
(1.64877765642444118 -0.0686478814486903149 0.716208155629787235)
(1.64726188469005264 -0.0730300296047660114 0.707462834401570095)
(1.67159275471835067 -0.0676301813463215523 0.6963494692177713)
(1.70284477027675063 -0.0675856621632724697 0.68040124820269432)
(1.73371020886991323 -0.0678212029024298502 0.663597318078078424)
(1.77742089918370394 -0.0596831981964168201 0.649929512125845155)
(1.82634332177610914 -0.0508974663189585216 0.634726731264102062)
(1.85926338307340822 -0.0442835050278415354 0.615416907359655485)
(1.89659678002543597 -0.0207519835885809495 0.5980136261189819)
(1.92448922007688972 0.0312529834053622141 0.592280554803469528)
(1.89930403163727335 0.17615068051797772 0.606139937467593426)
(1.74018024646142488 0.515395626699455489 0.732269069261821004)
(1.17410986448587207 0.86496591012489088 1.20743147267754236)
(-0.163775302786394628 -0.58559723643099737 -0.750813753879262302)
(0.92358153793339004 -0.532370343093371834 0.133446345846005149)
(1.19264108751365061 -0.492905292541536422 0.500466153759165477)
(1.11917404318838853 -0.408148601683372636 0.446558513150997149)
(0.982544314691058962 -0.285450896970050105 0.377524407975998233)
(0.86689030994171834 -0.190779104041243652 0.356223863929514772)
(0.806952407704352614 -0.160466585494763225 0.364162350169380478)
(0.816886568733000473 -0.161538286003532094 0.403215329255671551)
(0.841005561210933728 -0.1563857130456624 0.454273956892187969)
(0.851872673276907855 -0.133465245414537442 0.484189751283398417)
(0.839400157677644532 -0.11737986713211003 0.497517079577481314)
(0.781681104202193389 -0.101936820100812425 0.501935042822874933)
(0.71366751981505594 -0.0919993152388961788 0.500482292017813024)
(0.675550317425837599 -0.0904314002920178356 0.513527896315533305)
(0.680032760680127302 -0.0864609663395321248 0.542095174015720938)
(0.717502565632390565 -0.0838639286065529926 0.57914608840856463)
(0.767421035870934132 -0.083411519709228249 0.61711178778890341)
(0.813833713974558393 -0.0821874650357709152 0.648650728252588959)
(0.853760734850991687 -0.0773394035260916157 0.674778400628863073)
(0.881533360998961291 -0.0736340712085662569 0.682297193137322955)
(0.903225549796793925 -0.067866472293060337 0.67930364922867259)
(0.915961696485468324 -0.0625596605990352828 0.668630337426501686)
(0.920292162691145221 -0.0593850710227266793 0.649956776105142242)
(0.919692743945122904 -0.0552296245829711624 0.619592863649523484)
(0.914225602871315157 -0.0570392243767787327 0.582836449339161566)
(0.9081692469548448 -0.0614234980567833141 0.54667241462998728)
(0.896065100189936792 -0.0662171633607752524 0.5094343285924543)
(0.885051740162042577 -0.0644368686794487833 0.475604350797324216)
(0.877035103016227224 -0.0673069022473456458 0.446964637644011731)
(0.874358838936793781 -0.0663922230916921124 0.422804491736159249)
(0.879142685562454562 -0.05721141843170581 0.401154221764587315)
(0.895635286264299668 -0.0447539877688063747 0.384495280117554461)
(0.909794577164908302 -0.0352338040829150573 0.369016172640938667)
(0.936334690232858757 -0.0131730566235782887 0.363846350830886789)
(0.933772539891403519 0.05207089466532068 0.376859001449337816)
(1.01069805839400839 0.260494946666742444 0.469671014211963445)
(1.04580420770343352 0.75483997252241708 0.684561717257463287)
(0.940234294544158078 1.4219168537505964 1.21541780786331866)
(-0.189498577641163263 -0.290380642421492585 -0.446008088354109766)
(0.465811966245639086 -0.532333734357584909 0.273428533801441442)
(0.163687120965597843 -0.399646769729423867 0.117305339981817872)
(-0.0453929735144195656 -0.185650659328665452 0.0389954446692186985)
(-0.134473480939451023 -0.0626913308368415162 -0.0181958287378089154)
(0.00120368873844341195 -0.0753686263197514694 0.141009392213613027)
(0.129774146560329651 -0.11855728016237696 0.255906960074673673)
(0.198727945435019759 -0.113576835610845139 0.29958103123616403)
(0.161816488697047373 -0.0812023960751323409 0.300582555111794159)
(0.0862752225767628861 -0.0429454796628538082 0.307414424565635558)
(0.0305424752109193925 -0.0185884838972632215 0.329639296473108634)
(0.0265857509300760908 -0.0151667428453708467 0.361144960636548995)
(0.088461474434532672 -0.0313466596605241898 0.39837159841888653)
(0.174812493300574884 -0.0560714269398931292 0.440605594851489035)
(0.269434621135971664 -0.076130358584007754 0.4870323806864153)
(0.351944101708427215 -0.0865262167813185407 0.521213922568818488)
(0.415504814643265885 -0.0876582838624588162 0.54264575956027139)
(0.462891755500151492 -0.0797339552911116856 0.559095103125806347)
(0.492476420309589602 -0.0642410269485238494 0.55093916850946123)
(0.509904941229169628 -0.0474073689722537828 0.527006200106943545)
(0.524334961967801494 -0.0307219892093425068 0.499992592300626093)
(0.533235542489591152 -0.015098518596987992 0.468251322919338686)
(0.540522301662917815 -0.00399844315934486799 0.433486695935468291)
(0.542680053947731555 0.00513850157060665412 0.396584351050015604)
(0.538878561127135169 0.0105300031856346895 0.363250062800099527)
(0.530002516891801556 0.0134371683292079588 0.334205377520852831)
(0.520809225507181339 0.0153467060488265382 0.308936539190846071)
(0.511440030958445702 0.0166320176125064056 0.286566528193212822)
(0.496657207122415401 0.0140977970965672269 0.267259365599116505)
(0.472772283612283517 0.0115556276752437972 0.248469724556465765)
(0.448220297435254655 0.0111790992579895374 0.229280647204435889)
(0.431368043224148789 0.0158920308544233876 0.208407716713105429)
(0.412682087211847293 0.0249004093382731856 0.187547629194623089)
(0.385651813009983524 0.0432053497457838692 0.178718550502852291)
(0.35436601576777832 0.0987210288273460274 0.201913158362322931)
(0.396138139480183837 0.284292004410269972 0.315335224644818946)
(0.419281871212009993 0.858639786608232924 0.59205445524047251)
(0.716668023662676568 1.79487112481141975 1.19177255619333167)
(-0.207705654349565255 -0.11835690435310367 -0.718241817958773732)
(-0.441448612376867278 -0.212149345071605849 -0.175510733835458843)
(-0.395571223918890713 -0.0685465285977611971 -0.232856896209645364)
(-0.428121778447350443 -0.0468781178094318865 -0.276280917465309639)
(-0.432611288915022096 -0.0542575004591768287 -0.208376233303987801)
(-0.350499623930161652 -0.0797429689426783772 0.015281504647309832)
(-0.32710167937261303 -0.0521923419275267808 0.127460357245589545)
(-0.355302881360280376 -0.0066529467333538185 0.131333266325028564)
(-0.34339359178090556 0.0166605858471687365 0.15253390089975033)
(-0.304499688812013392 0.0153099499086645288 0.188627631596558765)
(-0.235836046268697586 -5.31405147902175301e-05 0.220515767295234782)
(-0.169493952289523575 -0.0225695241836963295 0.249495449887979948)
(-0.103023825121791188 -0.0431877829218155485 0.27690470724284949)
(-0.0452141891228000498 -0.0500660203498198841 0.298271002737777846)
(0.00384177526456344967 -0.0462126439061952485 0.315973444328603026)
(0.0401881079418425907 -0.0305511797370638521 0.327523902713213966)
(0.0716263204786697638 -0.0132030111112557587 0.337394230771190351)
(0.0972536976452570145 0.00444980768377464288 0.333185009266956933)
(0.119911358701977375 0.0222650140988742973 0.317233386527576322)
(0.144723346401099295 0.0346744111565720492 0.299514486382603029)
(0.167309227897518065 0.0439762423216586013 0.28363519917668234)
(0.183854743360110956 0.0514864859509295142 0.267784583960805178)
(0.193884611961690018 0.0569314803002333447 0.248952717569211307)
(0.19431968713858716 0.0609716271083851763 0.225620383931536606)
(0.187164019178132301 0.0622098228638590794 0.20309790452537238)
(0.176221378633144604 0.0603702789886272559 0.184576721877871719)
(0.16810444643544678 0.0603105590049493809 0.169719991608853038)
(0.161298039176290542 0.0628719161258330106 0.156668437833325569)
(0.14710761933664715 0.0634249719868598127 0.144130907492383747)
(0.122231013925592547 0.0593367205047408142 0.131083659723288115)
(0.0969480128050478895 0.0568159855969602029 0.117308998270802226)
(0.0802271333044239643 0.0625197505614779325 0.103835211206532135)
(0.0641770186979355589 0.0696523286459087287 0.0935920909614853386)
(0.0368260058673708784 0.0790653142032652079 0.094221719688058217)
(0.0134270993146377651 0.118049193632090654 0.11908926918583515)
(0.0634724596969693661 0.287884096514024967 0.220451077607096091)
(-0.00581120592986233975 0.87550749296052055 0.51310565206250236)
(0.52985654678883598 1.90555709026802145 1.14525962762126854)
(-0.244442241115073733 -0.000399014454894347503 -0.994189221085657104)
(-0.394275755937801897 -0.0921170745317145268 -0.258752527352815231)
(-0.370006017826029987 -0.075791367043478608 -0.216534469411042874)
(-0.431647249676935241 -0.0709600405636781201 -0.220863350545594861)
(-0.458025080749490443 -0.0392152689617886602 -0.205103148382014988)
(-0.460268531376700762 -0.0120343278815377187 -0.110941341841156157)
(-0.434571787738796289 0.00787991218328948882 -0.016546990511346775)
(-0.403520360427856328 0.016300424447326857 0.0317302757540337543)
(-0.370167122399371218 0.0247978459208657506 0.0629578436189081048)
(-0.338356740745821671 0.0322482332622247361 0.0893007333487756821)
(-0.306604565398029938 0.0354330702887410004 0.107480406884268881)
(-0.273363771889000129 0.0361221389832318066 0.119718070411781646)
(-0.241745306328196519 0.0364860401434233123 0.132592100334514268)
(-0.213023165633333178 0.039040883636701551 0.141446089264826991)
(-0.18354996750361513 0.0427228403390434927 0.153636951700489632)
(-0.155758920777362558 0.0491356491217780633 0.165740965100511534)
(-0.131336892111353881 0.0573343655789310264 0.17340514338631377)
(-0.110397006888814375 0.066238812727522467 0.171328784316622434)
(-0.0904146748492006824 0.0744458796017919144 0.162570361198119157)
(-0.0706542490677209561 0.0796128028145264011 0.153848823870894574)
(-0.0507689598712896192 0.0850617699076080674 0.149246518931596295)
(-0.0350975788342147085 0.0915207821524228748 0.14487393491363354)
(-0.0251639944461691661 0.0976623083160348959 0.136092488765898245)
(-0.0220729095396388839 0.100744891250309887 0.122289847752564393)
(-0.02448877667005641 0.0995313373894965575 0.108862832897658052)
(-0.0303142505329751996 0.0957704582823784012 0.0986492497780050437)
(-0.0351525459284116118 0.0951382146221761288 0.0909435222343408511)
(-0.0414188068361610456 0.0974438568741725769 0.0837975693631759777)
(-0.0529176658665652319 0.0973425873417455151 0.0765501350776927325)
(-0.071988309680565285 0.0915127829338874821 0.0692948533002874928)
(-0.0910724769939928319 0.0867631110616527423 0.0619495673373689285)
(-0.104685876240965911 0.0894259996104248556 0.056007748445619121)
(-0.12072217734987907 0.0952018811712749408 0.0545057025793799638)
(-0.14454453364282599 0.100812371286774838 0.0595321990391289163)
(-0.150848477594356462 0.122137495246759792 0.0812755742494747913)
(-0.107915843300526504 0.282512152575047859 0.171062666126453489)
(-0.245650995229280744 0.871677807743982958 0.4689838944921636)
(0.366471969498833539 1.90451400833919937 1.07280328697078486)
(-0.1236940451349645 0.0668244628086125392 -0.858949057277048289)
(-0.392270089435213021 0.00352875633251065191 -0.296300525712051011)
(-0.38054220692972679 -0.0276488698711958164 -0.215386373137021275)
(-0.431807221203353853 -0.0452542564350670931 -0.189754661318997958)
(-0.449872880079561444 -0.0292592563621012977 -0.147183228411420924)
(-0.446853261027363224 -0.00549367846951645186 -0.0814368026513794807)
(-0.428189682290557594 0.0175437739674955337 -0.0260765452589803506)
(-0.403596803826967498 0.0360991186069264669 0.00415477261696962918)
(-0.377199804471786526 0.0488919838326150324 0.0230325035774214815)
(-0.351943530600398291 0.05791982029926869 0.0371926963492432081)
(-0.32859907525955151 0.0628039516659544828 0.0475633410240668408)
(-0.308516733538924781 0.0652890028871803696 0.0537898399454135798)
(-0.290640564910577437 0.0662345494168659898 0.0607419769089070638)
(-0.27493199428673315 0.0665558064584774317 0.0695596968256346898)
(-0.259680646309566499 0.0699689157065856437 0.0804412927071237183)
(-0.243112739359133662 0.0771867765108513876 0.0899764402555994491)
(-0.223848712248743614 0.0859605854696404159 0.0953431201731574224)
(-0.203863405861534536 0.0933165817770650191 0.0953397483825064312)
(-0.184747510471328813 0.0983661249467148308 0.0923031455798970918)
(-0.167385555929636359 0.101697449998166545 0.0892850648592687368)
(-0.152235559750301563 0.106803475712498805 0.0871838023228748982)
(-0.140892031252956074 0.113926014980070295 0.0841452644790221388)
(-0.13331736322483495 0.120268484118053742 0.0780285528126171968)
(-0.129276220141681969 0.122890641610884283 0.0697067741568675042)
(-0.128488945101944779 0.121183475705776769 0.0623462405389870189)
(-0.130773796764971639 0.117792555420026437 0.0570053553817929867)
(-0.134701076445142648 0.117011253907898433 0.0530520383463744666)
(-0.138044113704783145 0.119155195366209971 0.0496441903918969502)
(-0.146626842057272555 0.119058912526314037 0.0462961333223908672)
(-0.159534059714985882 0.113704411466376581 0.0426749023176567974)
(-0.176385671845839476 0.108894579667380212 0.0394099862731348907)
(-0.194070214270565644 0.110705777046532061 0.0384924490792994192)
(-0.212132184208093932 0.116121803230126913 0.04124064658924885)
(-0.231692682860610094 0.119362676160167366 0.0471658399991090604)
(-0.231887169657506442 0.129596036120249253 0.064520933184939594)
(-0.217169057851500397 0.28383439411387601 0.151534849345015932)
(-0.382513827838317222 0.876523292883845229 0.453016186433106871)
(0.222514002081892343 1.82710557064880286 0.978025799494463)
(-0.143903119470035784 0.132835884082716543 -0.904486889124995086)
(-0.408838629896248362 0.0433873731658494938 -0.323698827904772779)
(-0.401982567976167771 -0.000648098059773411644 -0.215678443653435803)
(-0.434170503321499424 -0.023724423016344566 -0.16582037411255815)
(-0.44128578196039836 -0.0140547169977785456 -0.11563298081071971)
(-0.436709061880026561 0.00400511816478046553 -0.0639028639727094311)
(-0.419975422430951428 0.0225534384583007987 -0.0251062275921327821)
(-0.398792685179592543 0.0383651834574358502 -0.00150999116116495163)
(-0.37678979080530095 0.0510662340550026919 0.0136040485846448747)
(-0.355324962425518032 0.0616861365217570984 0.0246482541539820715)
(-0.334907054203726628 0.068854107988316926 0.0315088077640262518)
(-0.317075579493217297 0.0724262805518133129 0.0357710945814313647)
(-0.301693707687228141 0.0743542591081418208 0.04102033498314267)
(-0.28767533571639109 0.0757590247157839264 0.0482344854578575441)
(-0.274529134789170348 0.0798499307963438792 0.0563264360249179225)
(-0.261126937231121847 0.0873562559257595739 0.0630451669000471476)
(-0.246998242752431901 0.0961183192528599073 0.0664454706936225548)
(-0.232227451024442616 0.103576326632244489 0.066867317260798434)
(-0.217333075977655082 0.108744621798679719 0.0656616596886773485)
(-0.203124019600992772 0.112732513283005625 0.0637103406081191564)
(-0.192159256545749696 0.118306461336699087 0.0609466772853072755)
(-0.183672373952316254 0.125258950428037891 0.0570863115102255847)
(-0.177202962700050537 0.131168142958648842 0.0519739499158816745)
(-0.172514357434032595 0.133702009133783439 0.0466514894589893092)
(-0.170124662843445518 0.132807828854991677 0.0422300652113786965)
(-0.170631747481216511 0.130759072389150799 0.0388963966195070565)
(-0.173618392009172229 0.130690286709754716 0.0365124653050746262)
(-0.177742643197085909 0.133114664375092701 0.0350065806195714244)
(-0.183958942914445728 0.133586666885322863 0.0338193022797646237)
(-0.194509048011749008 0.129965188850593077 0.0323051251100528944)
(-0.210071209617631621 0.127101125130544834 0.0315596885477537892)
(-0.227855556031582196 0.129303243746935748 0.0333238856998041774)
(-0.246962304226361923 0.133540323413150253 0.0378005736771978296)
(-0.266321813252657913 0.134667483553780248 0.0440726463159040599)
(-0.273269057711830299 0.143381977075385303 0.0584049272067773267)
(-0.291328470307224363 0.296268899395311092 0.151004225190859293)
(-0.439214145375887488 0.8670959227589774 0.441111441817912175)
(0.101300108747767514 1.71256464486802384 0.878990270245751937)
(-0.170009991344003103 0.124277626273975816 -0.911670216405537026)
(-0.451262757967004713 0.0485765165005378266 -0.330833252427309432)
(-0.416710344314258074 0.0153198308593537197 -0.208246781098697487)
(-0.438766228782432433 -0.00686456463132289682 -0.144528048177584079)
(-0.435955788355605223 -0.00304617947130148697 -0.0929906314653636684)
(-0.428931567357370369 0.009237353369674281 -0.0496298606530084785)
(-0.412768043592227685 0.0246734634658854722 -0.0199797084967000271)
(-0.393601739071507473 0.0381407907567774818 -0.000194331228541861495)
(-0.373678907439710994 0.0496200987411419894 0.0130018397993887994)
(-0.354289395448936006 0.0592378774618655679 0.0213990675797895435)
(-0.3360442225097931 0.0659107470693906655 0.02780062004741711)
(-0.31960624641937635 0.0698965556236788438 0.033173164089086743)
(-0.305002161665782034 0.0732551783424935099 0.0388627891610582171)
(-0.291476689946455758 0.0773089047310929756 0.0450527050826743936)
(-0.278415163018981227 0.0833253178156381641 0.0507861256776000955)
(-0.265115735318911805 0.0914277794293692214 0.055224864760235963)
(-0.251423629084197742 0.0998494579217629047 0.0573815525463446663)
(-0.237660526436835995 0.107205470379760012 0.0573250290775208018)
(-0.224468272329524571 0.113084991326424814 0.0557382114367294471)
(-0.213220040607694894 0.118341411249487244 0.0531211166931551404)
(-0.204192483906382144 0.124303618730051052 0.049610321675811718)
(-0.196914608191960938 0.130825606355938845 0.0454618985120907593)
(-0.190870757746587932 0.136270325917827589 0.0410483585610172258)
(-0.18614847816180502 0.139034152458184873 0.0370316022778495457)
(-0.183574514631959895 0.139314876150370553 0.0337207993670743528)
(-0.183979433356490113 0.1389768991168506 0.031181310202168553)
(-0.186995870211217191 0.140095137981310125 0.0294882220127611512)
(-0.191579109347307236 0.14281332045991002 0.0288258570561279182)
(-0.197141267562889133 0.144058148320511725 0.0287269596530093062)
(-0.206928824137864509 0.142705155850010146 0.0286773541908832072)
(-0.221881740406939504 0.142302450280541282 0.0296073773943793597)
(-0.24002150460950214 0.145329182539831236 0.0327399746957574983)
(-0.260440982207372551 0.148895388761939695 0.0378469736651067534)
(-0.282596147453276603 0.149982859197532681 0.0446362433884954918)
(-0.301567147953944126 0.161283659417204683 0.0610620739388502837)
(-0.341558881248403279 0.316153856706207548 0.15832642798946403)
(-0.4603437340843895 0.848809515294660755 0.427219282071744033)
(0.00147553078194485182 1.577132457407598 0.781038665233778184)
(-0.179480362407296701 0.100918602272254423 -0.862214021379658302)
(-0.474483451501302222 0.0502306917846695247 -0.321131297405969462)
(-0.425625387788207576 0.0278175146607138983 -0.194332091027445808)
(-0.444344269374856882 0.00801205515062192175 -0.124273948085638991)
(-0.433714714173194626 0.00732607858762719319 -0.0747631073929831969)
(-0.423566714129177513 0.0149312502463174145 -0.0382890370687312617)
(-0.40674227602077484 0.0262408960425294657 -0.0140520318146606683)
(-0.38843125803673112 0.0368923719465175798 0.00300535244112096547)
(-0.369525561510304856 0.0463939277570984757 0.0143795588955962193)
(-0.35136450658213314 0.0544930989180927583 0.0219572905407490193)
(-0.334230642268724953 0.0609562670912967772 0.0284488896027772359)
(-0.318265306176833518 0.065932987472456267 0.0343157318204293099)
(-0.303655859065122213 0.0707866979087102277 0.0400100991566500891)
(-0.289910355445240742 0.0764393724437754385 0.0454763490801999154)
(-0.276475766912185339 0.0835305773317733119 0.0501417754898260681)
(-0.262830815049488187 0.0919022427810674558 0.0534076897468950956)
(-0.24905750923935116 0.100461519302670499 0.0547063037082529333)
(-0.235783011588706515 0.108271578345607827 0.053986172316295003)
(-0.223771703723982335 0.114994882836694234 0.0517202850243825771)
(-0.213714970379156349 0.12111350637088536 0.0484347252397051564)
(-0.205539844041447511 0.127375910210467125 0.044533678741487677)
(-0.19881314977265338 0.133629320088091558 0.0403945152768685062)
(-0.188802282711514363 0.0976869927659309856 -0.841733457258959317)
(-0.491877119929207851 0.0592427821301067456 -0.311522604115627155)
(-0.434858585528300479 0.0402413455005068976 -0.18282512282097127)
(-0.450460316303621433 0.0218065849941553903 -0.106806069649742152)
(-0.433312850293209761 0.0167880387951080609 -0.0611896401706018903)
(-0.419658419687743311 0.0199735682329599817 -0.0296402092688915209)
(-0.401634467503110049 0.0270328424943093032 -0.00861424884034307434)
(-0.383387539218893847 0.0351881564300125099 0.00628280346646587287)
(-0.364958294115398207 0.0429470326818815751 0.0166417694647207348)
(-0.347437694815059983 0.0499918888643396328 0.0242862818158717381)
(-0.330857585072968585 0.0563560255684525807 0.0307583321107962465)
(-0.315264486512267628 0.0621402720970553393 0.0366071065948492744)
(-0.300598384241321959 0.0680862787829457222 0.0420736820502123215)
(-0.286520678621423108 0.0747842592661604744 0.0470262294103083595)
(-0.272613854541829181 0.0825744696843246362 0.0509731002470606639)
(-0.258652609526371258 0.0912866535578383959 0.053401933600152128)
(-0.24487205095207823 0.100156413635269864 0.0539298622397571745)
(-0.231933296324694505 0.108452072550897838 0.0525907154053891143)
(-0.220517364621897638 0.115858097418220798 0.0498350367623755439)
(-0.211008745432410771 0.122617918306514057 0.0461949474027707335)
(-0.203279034514257578 0.129157280375087058 0.0421364660726844253)
(-0.196936901854285223 0.135387475207115582 0.0380493971869668712)
(-0.193094532114133854 0.107527743881454349 -0.800839553774893576)
(-0.498501822914010018 0.0715169198651695731 -0.299038839727934436)
(-0.444406921414309153 0.0517306287252416036 -0.172301435271397074)
(-0.456416983310835744 0.0326379631813963622 -0.0950543211922898895)
(-0.434463712917063538 0.0239345341869187447 -0.052061380047478692)
(-0.417539223958758032 0.0232593829709650535 -0.0232062729102765763)
(-0.397897780363188736 0.0271473243741685924 -0.00414044278985787467)
(-0.379076871092718537 0.0332593594391444175 0.00943011698277317761)
(-0.360661822118407083 0.0398577667163273475 0.0192395297096316746)
(-0.343376592726337748 0.0463864646798181762 0.0267266499197770027)
(-0.327041802413277904 0.0527083319065022593 0.0331363836150376442)
(-0.31152234546425206 0.0589434529660925188 0.0389695192621706543)
(-0.296630003417988619 0.0655734611278215029 0.0442968410351492481)
(-0.282116085872224087 0.0730043993201246189 0.0488806054402172036)
(-0.267785083246985689 0.0813907666855592515 0.0522473293165195418)
(-0.253653876648107957 0.0905012056610127041 0.0539457680674689036)
(-0.240021578210632636 0.0997138420440172868 0.0537736364248833018)
(-0.227457924060133571 0.108425292391948105 0.0518971678920811183)
(-0.21649210636183297 0.116352928425139154 0.0487803495996149833)
(-0.207358250711834308 0.1236029686324598 0.0449401149096592192)
(-0.199940317328646755 0.130429406801729486 0.0408251369681314619)
(-0.193942681679092455 0.136802723655146286 0.0367924177037360287)
(-0.211610857641714944 0.123916587590261418 -0.741569696616109608)
(-0.50461239569511962 0.0866764108560546531 -0.284265749115115041)
(-0.454777173497000253 0.0615573638828336156 -0.160534536080275847)
(-0.463501016356066164 0.0391872882656708055 -0.0852604265437139908)
(-0.437023694276719055 0.0277299138962515644 -0.0443032729623292834)
(-0.416863039228181964 0.0241403888306527849 -0.0174071802747983832)
(-0.395299020967167181 0.0261698755137886527 -0.000118899705667568217)
(-0.375591772675807511 0.0309614563102208612 0.0123589061332965156)
(-0.356954576760504239 0.0368550388289365441 0.0215546455827014642)
(-0.339618862005825417 0.0430362262695806463 0.0288617587501798674)
(-0.323292843218458525 0.0493622298187966144 0.0353075142413262766)
(-0.307631590633406171 0.0559620225937465937 0.0411966813134828219)
(-0.292362906880082374 0.0631785895233809847 0.0464400748082893083)
(-0.277368033609793008 0.0712663134388991232 0.0507118260616311878)
(-0.262650613818787682 0.0802293801133204393 0.0535400027661081801)
(-0.248400840795728106 0.0897647890604997695 0.054572437582689412)
(-0.234950167413414346 0.0993200828438890598 0.0537771517061493634)
(-0.222759650570583917 0.108392332715333176 0.0514322869284029038)
(-0.212210168743831612 0.116731338471625687 0.0480239463731736288)
(-0.203429759802466942 0.124377631689170889 0.0440451515805208027)
(-0.196309464149983487 0.131490319224412705 0.0399065813910959577)
(-0.190642702701034783 0.138083973599717497 0.0359273699179862224)
(-0.336028479538098612 0.0395125684417623885 0.0307527777849752569)
(-0.319526185194348 0.0460233443026051986 0.0372849291979389097)
(-0.303561589496899875 0.0530766542533294694 0.0432776437290823823)
(-0.287877717607129657 0.0609153303706910718 0.048477203818121109)
(-0.272442588139018615 0.0696608432166944125 0.0524426888453417978)