/*--------------------------------*- C++ -*----------------------------------*\
| =========                 |                                                 |
| \\      /  F ield         | OpenFOAM: The Open Source CFD Toolbox           |
|  \\    /   O peration     | Version:  2206                                  |
|   \\  /    A nd           | Website:  www.openfoam.com                      |
|    \\/     M anipulation  |                                                 |
\*---------------------------------------------------------------------------*/
FoamFile
{
    version     2.0;
    format      ascii;
    arch        "LSB;label=32;scalar=64";
    class       volScalarField;
    location    "0.900000000000000577";
    object      alpha.water;
}
// * * * * * * * * * * * * * * * * * * * * * * * * * * * * * * * * * * * * * //

dimensions      [0 0 0 0 0 0 0];

internalField   nonuniform List<scalar> 
7236
(
0.957200539208892476
0.994165652054746829
0.99296396484934113
0.991441779105597387
0.989714220646288112
0.987632114017398255
0.987719127014951015
0.989516925689212012
0.991712162719483481
0.993898530006955605
0.99548981070831899
0.995981839827934534
0.996477974399117672
0.995942586612551528
0.995226024824599431
0.994117669916899205
0.992812831543707919
0.991263781624241669
0.989499034887361573
0.987495060423524418
0.985328412915413843
0.983106515541785742
0.980773155463174118
0.977834364223351127
0.974613051098510041
0.971346300413699959
0.968529921391922621
0.965900476121838047
0.962712758941313584
0.959027401374442867
0.95560633593303268
0.953622676597164265
0.95713314216002976
0.960540033077098565
0.964201938524743563
0.968079425180748077
0.970213683124894755
0.970762416696936747
0.373390551507906954
0.690104802590059241
0.954737724516691477
0.896473531510632915
0.7532306072268522
0.912845391045832844
0.842725960259647078
0.786423012078617756
0.773509463466572234
0.777599824831334718
0.83042767643626858
0.86574650015644572
0.904053119440242137
0.97050921924962652
0.993029939813645623
0.99250828102472588
0.991232830117901642
0.989466407852022223
0.983552937431329655
0.968805825548369137
0.956313331114537091
0.948112077472797798
0.943791791074811925
0.952299853153336429
0.89228780926498874
0.842560776693661473
0.875317764737872595
0.9174385244878831
0.825305379055249144
0.782265646134484127
0.791807446274135684
0.811788322009473706
0.778822700124091494
0.729205189624519079
0.947251501501741977
0.965629731912395206
0.96835349969342599
0.970213933878184998
0.28241464668631433
0.267937211349560556
0.473537295499925515
0.413022086733277893
0.0985085262358726121
0.0564013105795655861
0.0560577646968879739
0.052533261056338626
0.049265393792419343
0.0470105962842577718
0.0481666795598742065
0.11222264275396196
0.194153749070953702
0.138116913721166329
0.370203157966524476
0.522250588456923737
0.665674668984652884
0.664658760685694405
0.550352225127772932
0.419685310387243604
0.31354687027520628
0.293930119990763739
0.295816978182956936
0.294642631994129545
0.124144350444501297
0.0370172360614093518
0.0833807250963795321
0.0861547442112369638
0.157745930930486916
0.0155104782475883919
0.0135292107627906898
0.0277681206861473753
0.0282983803000551419
0.0394683431868723678
0.0424128292342295932
0.397010129303782322
0.949082060564827135
0.962254343008179247
0.16316704097211554
0.1268542767555835
0.0526748769583824245
0.050670924492819798
0.0803896168474711736
0.0654065292439055951
0.0638113725997733472
0.0721241205905529259
0.0719416732519719826
0.0606341263266605007
0.0416266273569436129
0.0309200839061322084
0.0327420440977299124
0.037270259827838173
0.0464902189795390886
0.044358976015358903
0.0456701931489641999
0.0424449012514186153
0.0300743148224471221
0.0242980016330749046
0.0191808512770414927
0.0161313020307055979
0.0161216973395448757
0.0157888868102767227
0.0155726740401877107
0.0151939195431195356
0.0144809714570089954
0.0137719276389920656
0.0130245971497587217
0.012304675636351646
0.0117275312480544184
0.0112468946487109811
0.0114116927963844525
0.0152211932874349413
0.0208240931514607451
0.0400261924686890549
0.854662498555591732
0.923704089375591675
0.0820587554557420801
0.0298530213741913554
0.0356793917828294727
0.0450933506055270009
0.0690521536086917131
0.0489008573824294759
0.0247245491167888617
0.0196727542297187655
0.0195055069812915816
0.0267936219459388933
0.044006759243166868
0.034515052192634961
0.025314777675324765
0.0300913974385772394
0.0451206784183114315
0.0573899228133150918
0.0573894883100222603
0.0545283108150960011
0.022123961332208876
0.0168251138115558599
0.0156155600528810855
0.0154558881659898097
0.0151330666893271966
0.0146806959508869635
0.0147423165791218148
0.0149075113660560674
0.0145875464495536303
0.0139776003625006803
0.0136694787694464984
0.0132859061458396668
0.0125975570085610031
0.0120205937924863313
0.0122627129741934848
0.0132359716203924466
0.0203581175846730168
0.0390915810947215642
0.567849244276699583
0.869815730171630053
0.0193350578162995376
0.0215060513414770879
0.0276503839256801373
0.0512579629912430779
0.0603663191040287664
0.0422393477061205613
0.0177930204856110094
0.00847192121187574296
0.00638875594498867702
0.0063891121916960416
0.00776741762482348851
0.0127640590384387725
0.0289075747732106536
0.0420166461239322372
0.0458332890832716944
0.051374152487016371
0.0422518278450767226
0.0129379577708566042
0.015726573695572215
0.0149565184891201006
0.0135906541328337065
0.012520196416522647
0.0120038224206253756
0.0127482099456780202
0.0141332983740640374
0.015063993758252299
0.0157920218654707574
0.016152544897133473
0.0171624875092048455
0.0169013710810158729
0.0167216252386211128
0.0139347583803787079
0.010994428250523023
0.0154930134569230878
0.0218493681455426483
0.0466222501388866978
0.145861886153478282
0.82536063544253202
0.0178858489381221314
0.0175459338633499849
0.0229536580608478702
0.0627647578149102131
0.0542030989855587508
0.021608254520735018
0.00688098231484602762
0.00455059195965533923
0.00364016828681124321
0.00370786768498875896
0.00327161334554507566
0.00363947647632575141
0.00530443054482707729
0.00651108815186975977
0.00951868859030943065
0.0382375046534707136
0.0345851033654768353
0.0123829945930494616
0.0132870921496049989
0.0117542802878368973
0.00966871912463074246
0.00833239298716875222
0.00879966405370414748
0.0100378726782743566
0.011433359248868874
0.012758180598681345
0.017402331151450609
0.0190225039774595539
0.0206630648593528685
0.0206339171745536544
0.020327667094792494
0.0183458592456877956
0.0133326834306893623
0.0109408388593352744
0.0171560402595240559
0.0607296123513433872
0.373489603011539884
0.83720552751475763
0.016560920391779671
0.016118000572962414
0.0433876445198473487
0.0592486558442610611
0.0232189676626294791
0.00645741846886396624
0.00373609481161693699
0.00262894643629965749
0.00226197732250918307
0.00320925083625646802
0.00321795775420479283
0.00314341325148207503
0.00362909707278203774
0.0043083570749617656
0.00827911558865527565
0.0160072407818002971
0.0106188387084691187
0.0111562618489720253
0.0101733331650737321
0.00787765000858804687
0.00594781694340990388
0.00574327728433871032
0.00646745556204640637
0.00679961463113879904
0.00826065376684839356
0.0159816808216397613
0.0183666451679467199
0.0148769203159436324
0.0171544773191404723
0.0204422107892089852
0.021254276665980263
0.0155198603710386008
0.0131820707774251353
0.00889631416730213981
0.00542427729025352079
0.129537823490512488
0.758843666766600977
0.83533191452197364
0.0160502123355610177
0.0159928939527986605
0.0577254510533120879
0.059248849106216514
0.0161335022006568567
0.00355659557118335502
0.00198879489495909414
0.00146986586810331742
0.00184722128359072818
0.00232373886234173675
0.00199252019036693685
0.00257701912884545064
0.003207706547941655
0.00391613581898164666
0.00573592621658173402
0.00844189938608629065
0.00866022543017725029
0.00857197754461412262
0.00812757844878754174
0.00479533200718222034
0.0038851879353129829
0.00426573932190331059
0.0060596860998980151
0.0072487311126260218
0.00828775929865036877
0.00693192708602144523
0.0079305309159740725
0.00734078131510563538
0.0095901349791909854
0.00294304752936593202
0.00542388118848211899
0.00771572560291207323
0.00991989619771557057
0.0102207293513678892
-0.00708054080768712266
0.0862897828418432572
0.534299698587862415
0.792712193040578605
0.0158216949231301807
0.0158202298550158792
0.0599125991916702599
0.0595967739364787474
0.00726108355456404637
0.00192552200050600565
0.00106164567148642154
0.000812221522135704154
0.000913379604476426132
0.00104779762003301196
0.00137337515569152828
0.00196614754534272466
0.00276058412046339529
0.00372792912948852542
0.00948653666353932272
0.00732376780107507272
0.00692710537963906609
0.00651651428127658985
0.00473524110479967703
0.00344288940010280828
0.00301922173424245838
0.00303585289432813012
0.0158031853792304847
0.0183071946410186918
0.0606650019471992388
0.0576597458520034245
0.00238650392234268476
0.00105335756570949964
0.000488769561193198691
0.000424726049338368351
0.000597229652414958657
0.000681127809872920801
0.00109096296484268666
0.00166830467545363336
0.0023720980201682321
0.00670223294590754394
0.012639527739231167
0.00658480386439871251
0.00593456229255906118
0.0048295865208462796
0.00390047037640077953
0.00283016373665431493
0.00242026699755610621
0.00184651657295048835
0.0154776715616151798
0.0586423988323605122
0.0627857582376750573
0.00881559284832948362
0.000431255514799790975
0.000480172407353912059
0.00018863160777692539
0.000211751184153030863
0.000376258723976454824
0.000551261951350768718
0.000936334949904116341
0.00135554898688813419
0.00277865557595169182
0.0101361807336616573
0.0107837667105346521
0.00595131634579026177
0.00491084246651418959
0.00354662450233959696
0.00282267733544305267
0.00234386132855642255
0.00189200914719957897
0.00149955453526623862
0.0156363041580346099
0.0672940866037281121
0.0645923155236218932
0.00530293913581742458
0.000475589543530364491
0.000187454965992723893
6.26797682089474918e-05
0.000102037498674233037
0.000209108988227852256
0.000348627146387263756
0.000638458754253823195
0.00119583421018565751
0.00267910532611137075
0.00910299651106250343
0.00622371506063827858
0.00644899709079972162
0.00483407767355479006
0.00354042963846919927
0.0023912908076005328
0.00235229856767800319
0.00225695591254412246
0.0018970791282946313
0.00023293504787930575
0.000473905003234594826
0.00123121829684205231
0.00519130888234123691
0.00915236623913181363
0.00616989442150057271
0.00634302388565539943
0.0110627557088442338
0.00658435526535524826
0.0030291699289721986
0.00165734030255839954
0.00740864661442315608
0.00865659921170506413
0.0060491391770578929
0.00733133608719932842
0.0152146790952070732
0.00674408399575777799
0.00495272108319871288
0.00898842574043890938
0.00618856397467364323
0.0120295187337196088
0.0155409229356131724
0.625494954232065803
0.722917227467572698
0.948538633768484463
0.958261750224332243
0.960789886501635992
0.961905445240160972
0.964757954353410607
0.96924429669836254
0.971624700819409437
0.978050721965083802
0.985034322858924449
0.989326393287281114
0.991528179427825451
0.993107765899271966
0.993383114366464648
0.992523651583460342
0.991212250294787323
0.989439622473622826
0.987446162627171664
0.985291990852730448
0.983055457062868898
0.980553642461589936
0.977746250091743319
0.974614143142446876
0.971346176504479075
0.968529284789569678
0.965955074205370523
0.963035734765069651
0.959742398363163107
0.957084104191960328
0.955934580236422415
0.953419628453859525
0.95584280703034219
0.960226174892940154
0.964332906654563837
0.96850352361045744
0.970762416697193986
0.971061249955012862
0.0395149797419693666
0.304784156334709566
0.303198730389531601
0.705461461153562785
0.791959830202843218
0.646266881999474796
0.579627216481624741
0.523578677705712869
0.493411069822569548
0.532076355168350279
0.530496908676224788
0.657601186708431706
0.769113349534390922
0.859987345137628534
0.900528105122114342
0.930352685824577641
0.978779180991926956
0.985530385317451962
0.971636807243862144
0.954601059761870374
0.931944085127071054
0.947783835871922387
0.952808165887211067
0.906341002627729653
0.854616529635645383
0.857544579097756055
0.906760842857027738
0.845966775471177934
0.783277929811089901
0.791938888839948119
0.801758043068177439
0.776741132435442516
0.719003738988944985
0.729494745347176843
0.950587792770173357
0.965962494423194373
0.968609503819836681
0.970762739440473865
0.0361938809309603204
0.0387022304955083607
0.0663036474998514452
0.0612586516955583166
0.0584325744288918536
0.0565002740851622276
0.049416512358962883
0.047764260275628273
0.0464241999457683796
0.0428885819053288139
0.04256033659607808
0.0420697205144643788
0.0419378002147345608
0.0601708401422279826
0.123218181509493957
0.187468603174941295
0.191798767793076613
0.464657244594279928
0.517788686793659747
0.341780583348586797
0.311959574104369253
0.24727819645294713
0.223065396155668005
0.133959172023659118
0.0360827746754873377
0.0801587818374819433
0.0832943730454381442
0.140235280139904939
0.016774709712877027
0.0166742453921414763
0.0255032012312859276
0.022668118157785435
0.0255123996187033505
0.0429571591767744093
0.109625419086894021
0.590746046964520932
0.950310339413756644
0.96357424940850056
0.0297951587983786188
0.0338195357284500203
0.0490629342107689465
0.0632697055111505202
0.0816992561781339638
0.0710647396824216765
0.0476799238335322492
0.0613379676739723434
0.0563732248388645399
0.0385929525770156295
0.0405673621248005753
0.0421634422935457595
0.0407026491717185704
0.0370384204361512356
0.0380362922200540715
0.0397300681531390573
0.048685574089801939
0.0427479986943811521
0.0252964301324846916
0.0198844968473050054
0.0174120889406115704
0.0164574174512986254
0.0162957163239930078
0.0163700027401395207
0.0153527768956822665
0.0146859491078216095
0.0147283871524131749
0.0144485367679966711
0.0134920777544008559
0.0131947795784382108
0.0128879706995559985
0.0130602755235021198
0.0153760395322026962
0.0217078825354623181
0.029541695015892086
0.0592702066317621484
0.885600011866652714
0.931159013414109227
0.0197393265650843662
0.0267928343899422328
0.0477669324972594539
0.0619101441492798943
0.0684582616690662671
0.0466534131265936985
0.0262908418150713252
0.0250376736827273225
0.0176604964726445324
0.0268610105642094546
0.0440201587961295271
0.0436876071102379956
0.0431242305974454884
0.0348300177293554558
0.034352788965564901
0.0355019508650122953
0.0565605149112791417
0.0388478534981395798
0.0173891976385710453
0.0173010361877113453
0.0164530224016700491
0.0155979055355193186
0.0155895558929812668
0.0148760572985704321
0.0134787804743907932
0.0150612128550954259
0.0156939708812253061
0.0155266772134920808
0.0152077184522898361
0.0154492906487509671
0.015378313764228508
0.0152554597557957583
0.0165998377633793728
0.0202471200000893248
0.0338644949557244807
0.0611999507635565335
0.620425562380823026
0.882384659904076329
0.0186714222651382863
0.0210698175239206961
0.0322145106827317826
0.0678486198788772754
0.0647425150632673641
0.0367343599006781929
0.0133374103708553647
0.0085367377684477698
0.00635823250445241833
0.00551279462266907223
0.00821112142234510858
0.015997675567206885
0.0389883501573406038
0.0410457598473886742
0.0433340373663183703
0.0438795808088545541
0.0475363726983122348
0.0242342499749695385
0.017899567337722605
0.0164811060412477298
0.0149654725331597079
0.0147437473679726937
0.0139530155747066009
0.0194893094792025871
0.0169816148222113605
0.012804598990078804
0.0134925320774733452
0.0144880424153349188
0.0177685634642429403
0.0183967054587206823
0.0174526485396011011
0.0128693556878814383
0.0165056105323585257
0.0222113980683657057
0.0347878221441254853
0.0706442817615922508
0.148681366162734335
0.858853905396792849
0.0176887805300332858
0.0177975152647871365
0.0217469873443390319
0.0654076590647392486
0.0605588507190600728
0.0230358813155309775
0.00738324771409380309
0.00477774731598746508
0.00377078898932968042
0.00399597264023443619
0.00448205270378101116
0.00561505122979853288
0.00515102725989228898
0.00665808386281066186
0.028782842289678208
0.0397960350476037339
0.0398988638212154287
0.0163915716713489944
0.0151983025489418368
0.0201064352304468827
0.013438017789846466
0.0110084006149170563
0.00849550197844433329
0.00760729005299250628
0.00694064166889614594
0.00750225303919446578
0.00955906151966899424
0.0114510513137608006
0.0193899458189517523
0.0198027188195662486
0.0211059526790512465
0.0158479234338648294
0.0143165914286807958
0.0358038846165668334
0.0336729052346589341
0.118114121806126515
0.401061845378748616
0.849567667728793552
0.0174649155669071299
0.0160011723538898004
0.0231641348810254569
0.0628723726756339474
0.025442178096444612
0.00702079897394303296
0.00406585004877658539
0.00275652661700547365
0.00254801210654943041
0.00402038407285518727
0.00391872118056867461
0.00327462807387393336
0.00411429801079618053
0.00548830104604787657
0.0208256324189169534
0.0257602276053018261
0.0157537214300462747
0.0233641586341039043
0.0298613454978806266
0.0254393392944554167
0.0106845294822953806
0.00658858007312712948
0.00443767276893457414
0.00349199853422022801
0.00364919708221488667
0.00392689073800774838
0.00777450382546812559
0.0107115607055845406
0.0146279320233365876
0.0197110362948151596
0.0225233476147717049
0.0192035708708711769
0.0124398184153999784
0.0448276081618943292
0.165716067945094359
0.20859783875334359
0.813023408973433614
0.850132604678706549
0.0160315308639352068
0.0155640718945531699
0.0569955759040102899
0.0635926246666607548
0.0131442370193375936
0.00395983381191570595
0.00222650600393405149
0.00158362263050442192
0.00186250169510728978
0.00319140827883450601
0.00420813054086806131
0.00303270364806718529
0.0036937587862428279
0.00502095238425987259
0.00720557422808180015
0.0138023252016275001
0.0308816321292554458
0.0353943240521013419
0.0377330679332269908
0.0120791100179930694
0.00603684347051151524
0.00347017558324822254
0.0025580434443203898
0.00231978703420429068
0.00209186125275829995
0.00312707958668969471
0.00523298206941217887
0.00751490130574444457
0.00488819351107352973
0.00485506250782974901
0.0102215839006159596
0.0106466752146243473
0.0119643125050017569
0.0397991831148894748
0.169171937197685723
0.199969148609497493
0.821428546511950297
0.727221147091335229
0.0156991551398269723
0.0156987692639365822
0.061968656936663917
0.0709280524202859086
0.0087805834527491626
0.00220411801483622483
0.00120318342063994868
0.00123979631949552643
0.0013313609232250374
0.00215888602984236865
0.00270380693218958247
0.00288908695038880489
0.00367091997637688247
0.00498486210600321972
0.00726587292142622833
0.0188448853453455356
0.0340672997407994171
0.0395730374797883949
0.0194628036630938479
0.00566679410399330806
0.00332471113848490599
0.00191727416837418141
0.00178306213036735078
0.0161917576456409723
0.0166828403742470752
0.0627399037408884475
0.0652713761169461115
0.00365287554162650394
0.00121631774880732774
0.000570589182523423711
0.000590188038680696187
0.000922282450925562261
0.00127768871594094707
0.00203156559278699347
0.00256533190081666097
0.0035260448562132252
0.00494368831649181877
0.00752296711285251052
0.00898314237350282714
0.0292581446522694535
0.0290117431064700546
0.00646629105121026594
0.00384596089085431246
0.0019073088742791555
0.00150601868955799038
0.0158031853792304847
0.039679763169762225
0.0660047599262731932
0.0135263558040793347
0.00135054256653215077
0.000555435789442986958
0.000222901816807191368
0.000374701741668883226
0.000573684073388163905
0.000916742613159789448
0.00206076999487139626
0.00258386693094664419
0.00542545608871901168
0.00533768771787345667
0.00731643355550915236
0.00636011556012659393
0.0212498253602459754
0.0118010725453526755
0.00416893822813760567
0.00259309170642876754
0.00147910501037675402
0.0013753202229665959
0.0154816695771187521
0.0704883982735518694
0.0684767756515791415
0.00782404986478172498
0.000563813048507943028
0.000210248894182051628
9.47090748420014155e-05
0.000185566877069447605
0.000370883365808624677
0.000836093597711168529
0.00228495749905477169
0.00571518649640520397
0.00871112875715681495
0.00566909734310035423
0.0068771759556848916
0.011667247591034699
0.0225127566691086835
0.0131480361998363819
0.0067468892732041718
0.00433911441659635966
0.00231931324299332591
0.00151215280120229126
0.00075513370845044594
0.00368199303827001188
0.00705725864870031423
0.0087082107248575534
0.00532110416175798125
0.00805263971873580037
0.017495724561470808
0.0211530829159574073
0.0239727932985372913
0.0197304212927636169
0.00404800672769767278
0.00783342319182159415
0.0069441482792076438
0.0145035876311664473
0.0185853447324876783
0.0202259574259156805
0.0217787445044573189
0.0241777494540992496
0.00934746597696079623
0.0143480419609860032
0.0158606466635645947
0.0188161771656817044
0.427760403637289621
0.659437264855999183
0.762172939614743639
0.8898677506556949
0.905618565908238859
0.915322928878288922
0.923376777326771259
0.917579727557223723
0.917568948254349648
0.928687889467072147
0.943863383558903535
0.96215349320750021
0.978173146336042132
0.983738063463643675
0.986871429549705415
0.988978605460797633
0.988621322547159842
0.987053013559150649
0.984775293065711432
0.982283988029487132
0.97972981829453154
0.977031723710219069
0.974156542956998828
0.971054397715166773
0.968333070229049797
0.966591473622687491
0.964793465940113171
0.963833974699992213
0.963515762738091031
0.961873531774367629
0.959556120069506635
0.961050174958881898
0.96233651608125137
0.964522909873566259
0.965380671075864338
0.969274916706387768
0.971061249955012862
0.971077112084717919
0.0408865591964419212
0.0478378053816818569
0.0874952140968827119
0.458211135868135444
0.446226948840560078
0.438255084036507481
0.394248725214540741
0.347605053191820557
0.293335211359015413
0.288529949931640828
0.31358728389606455
0.362677790864291583
0.430520286300858646
0.602360457155051821
0.750056619857404794
0.873178325446575476
0.898827979838823565
0.917304318781881012
0.9400769906545412
0.941929097691751593
0.963443231773248199
0.94109820589689841
0.866559222933537265
0.818006054758081635
0.849230313241100765
0.888668762793252132
0.85599380806228087
0.781296484233269029
0.794923382547940705
0.750560078142612608
0.821018130501966703
0.692668397739894859
0.736350179985242992
0.748576965654608184
0.969817045199055316
0.967677514850662446
0.969285320278310492
0.97106125116367803
0.035973289459642406
0.0466077066079420704
0.0652478010816864296
0.0609956800871095939
0.0575221352862601634
0.0498274076270728283
0.0407498323016414477
0.0437146037328868392
0.0409348603355611795
0.0409785837966350069
0.0413198777604854017
0.0412178583704880808
0.0413711147735902063
0.0411749878055727297
0.0410423008268096523
0.0417537815973422211
0.0951935896658436809
0.116602087886362671
0.109582815646995485
0.268654902279692687
0.311525400943845843
0.194162721297810592
0.0933573064254600987
0.024432302208043391
0.0646453917414918783
0.0686119997858514741
0.107576057144636819
0.0174483623835427828
0.0215155804593918122
0.0288463636179320387
0.0251085464912916279
0.0293027422117505126
0.0365826546442104134
0.0793810387946116275
0.182455123965741373
0.646624452734537059
0.953072394279966373
0.965172208690850741
0.0310124620095153548
0.0398854228110873954
0.0860874694012048192
0.0951754809330317142
0.0694784026764044271
0.0542313463390153988
0.0394463075568376731
0.0355298920253622752
0.0333531696503333863
0.0353389419956895295
0.0416607857780084412
0.0422632086861455883
0.0431035095423238576
0.0410823389836634661
0.0404472661231708372
0.0357000290529032177
0.0394606915923070845
0.0509745421278671451
0.0562771759146534073
0.022569238795389801
0.0193802423192775269
0.0185733279120577528
0.0170848826774553132
0.0161438547406716829
0.0154985990541356838
0.0150607472561419369
0.0153090738096417212
0.0150012288514021139
0.0159822975082733743
0.0153634181793893005
0.0159370157016134363
0.0175678787951560472
0.0212998900937788477
0.031082185576847908
0.0486834600278860663
0.430705591019651668
0.911897697305089405
0.93853999232140306
0.0235279530315438065
0.0364053665496359355
0.0728711124610314231
0.0837528254236489383
0.0696320885563217473
0.0652218392131308222
0.0477359643831651026
0.0345343716316355159
0.0186438432942145488
0.0152525467096183524
0.034672534663993497
0.0431190417053412822
0.0428653080661340266
0.0429700210518815587
0.04151097794053836
0.0297491736869179013
0.0461135951139174383
0.0541439171711853018
0.0220085688041916777
0.0195915543702925923
0.0176932088940712808
0.0153362121018905742
0.0154654099562968154
0.0166349430343680424
0.0152649401730199849
0.012079088458195688
0.0148641198113510474
0.0167985840275373041
0.017829670257506685
0.0183351398387897775
0.0199910027050431045
0.0208205705234707564
0.024103433562171192
0.0327928490904577583
0.0554789540098601097
0.0984754049864026149
0.754561273732986981
0.901817561157480796
0.0205843561188154139
0.0248293125330183197
0.0411272848634064297
0.0693727924644880756
0.0679958120071715022
0.0516445678996720337
0.0191659800552128438
0.00897294194519074675
0.00713324670739954366
0.00657583679662370954
0.0061168768587113705
0.0157101554846353422
0.0342176085572824529
0.0329539842908288874
0.0157991963359819625
0.0217581278420805983
0.0396964116888431362
0.0235339621862023715
0.0187912854472874445
0.0178024649747807427
0.016020547913811134
0.0151380527381016587
0.0164609943444017325
0.0150995263224635405
0.012682032523845338
0.0165859398367551349
0.0116557648422703896
0.0134491763399140086
0.0174464983896086175
0.0194108401174094836
0.0199614018681677496
0.0205831796847612547
0.0248013425525055904
0.0344500742739040147
0.0569378997593521785
0.111218083764057341
0.210653615572321484
0.877247932816669351
0.0157470352291847193
0.0200449426965171283
0.0260051857754770438
0.0624053244667876622
0.0646218217013417029
0.0203536679294849324
0.00763337482415495788
0.00496831394375268215
0.00455579583272076004
0.00523399867283156402
0.0063906288572081818
0.00609584429084358143
0.00889868758530571596
0.00765236501861893317
0.00937178312639275722
0.0286768572988017056
0.0237391213851874949
0.0173575967037409226
0.018163506734102712
0.0304135380750026399
0.0280561117537083751
0.0143400503327529537
0.014125401032795545
0.0135885604777061554
0.00914006365001237588
0.00626398264889105241
0.00577971687299376567
0.00716123266752450791
0.0121813633211736837
0.0198490205418672544
0.0244559181528404279
0.0245841293167907496
0.0232892779100164898
0.0689303347821244583
0.0608478915115997984
0.133765092034305255
0.424806472649683242
0.848733209805516253
0.0161164526312866478
0.0173965356772697796
0.0226807289033678881
0.0572182906585872453
0.061287890476093676
0.00937615691542333443
0.00449566319798441229
0.00304737417857698246
0.00408084518152906396
0.00716196256107382891
0.00547700508213395595
0.00410951257267199235
0.00496979372135172154
0.00577622744536526213
0.0086975916521848072
0.0265001812880534468
0.0359879048731301943
0.0372212617253353528
0.0409327706126645721
0.0427874919079913596
0.0436579797942679981
0.0107856974615134875
0.00865161680324548835
0.00650479159364711519
0.00329604569495424264
0.00231906866647002292
0.00251188634937536941
0.00345806387269912124
0.0103722075976041724
0.0155889551720855071
0.0225278070701662447
0.0159752709448404417
0.0132975084600321942
0.0453120063268676043
0.332409974421344512
0.215634810367316243
0.852888564347941136
0.835555295730919578
0.0168928954594071215
0.0158903856246825105
0.0255881688652775247
0.073629311390960156
0.0142778850928043256
0.00379090419235429037
0.00258379985009499387
0.0018260621318963886
0.00312744922364617626
0.00653477964201481555
0.00709738691915733598
0.00833327509265930841
0.00498660050633478649
0.00635404388886449088
0.0212300363974171832
0.0355074087221409901
0.039616014641761288
0.0416259578714512496
0.0451883977522031938
0.0506005007228501197
0.0499778846755995279
0.00887845453729203815
0.00419657307912000427
0.00273099804734495922
0.00147609927720786303
0.00142556221961136708
0.00188543971580651349
0.00302025196470205592
0.00535803288846922309
0.0122101794982613955
0.0068829263945998807
0.00729932384939840917
0.0103661971460086173
0.0640594677296833781
0.377883148043292261
0.184977076988705191
0.863986487181187868
0.877869231762224311
0.0166858992675224665
0.0155752287573332725
0.0683311882139105709
0.0815244827674470318
0.00606179121836568011
0.00224477759117502895
0.00143617739714847195
0.00112687002227558532
0.00213696049949597434
0.00463909477514623352
0.00727709390247923728
0.00863991033629165142
0.00518638268710808984
0.00699484137325260928
0.0232061161327976433
0.0367848013097357221
0.0409188246964992397
0.0452439953095476396
0.0504958149519057556
0.0550475926671916069
0.0287197320826125951
0.00225711026725542363
0.00188549405655721544
0.0175727160039650422
0.0168103367154214568
0.0675577145622130448
0.0723669971851673699
0.00343489522607685633
0.00142738954860775692
0.000714414364171902508
0.000712018690825610501
0.00161891398885384737
0.00549132384590325217
0.00726787411258696028
0.00960651200569867525
0.00644121736846051465
0.0070020895387280669
0.0129757585031981815
0.0362154468864363671
0.0404648294184101892
0.0459668231038862923
0.052125452281207893
0.0560104151636243025
0.0142407732684733911
0.000613889304491932594
0.0172603933639018103
0.0257906019111794407
0.0708933804118539596
0.0213117705939828983
0.000240296406608272528
0.000710322389591524399
0.000300802555878144809
0.000473389272995789444
0.000837241545838501204
0.00483017179151976062
0.00678801405227908231
0.00827903561650451814
0.00578844188352803553
0.00660519851621607819
0.0146643523494983576
0.025357891426301897
0.03833028866661152
0.0434759978001093145
0.051127761907980164
0.0587239143217962931
0.0146686787023108042
0.00126239070063545065
0.0163035610249827045
0.0743181736236911972
0.0729623933958584436
0.0106048986843757659
0.00057656524234592926
0.000288504672262419155
0.000119892498131007536
0.000275780477794081364
0.000476800659497484335