/*--------------------------------*- C++ -*----------------------------------*\
| =========                 |                                                 |
| \\      /  F ield         | OpenFOAM: The Open Source CFD Toolbox           |
|  \\    /   O peration     | Version:  2206                                  |
|   \\  /    A nd           | Website:  www.openfoam.com                      |
|    \\/     M anipulation  |                                                 |
\*---------------------------------------------------------------------------*/
FoamFile
{
    version     2.0;
    format      ascii;
    arch        "LSB;label=32;scalar=64";
    class       volVectorField;
    location    "0.900000000000000577";
    object      faceTraction;
}
// * * * * * * * * * * * * * * * * * * * * * * * * * * * * * * * * * * * * * //

dimensions      [1 -1 -2 0 0 0 0];

internalField   uniform (0 0 0);

boundaryField
{
    inlet
    {
        type            calculated;
        value           nonuniform List<vector> 0();
    }
    outlet
    {
        type            calculated;
        value           uniform (0 0 0);
    }
    top
    {
        type            calculated;
        value           nonuniform List<vector> 0();
    }
    bottom
    {
        type            calculated;
        value           uniform (0 0 0);
    }
    left
    {
        type            calculated;
        value           uniform (0 0 0);
    }
    symmetry
    {
        type            symmetryPlane;
    }
    interface
    {
        type            calculated;
        value           nonuniform List<vector> 
104
(
(-141.004549666681584 0.0277399995693791389 0.0150103837959511977)
(-66.16225968213557 -0.0105242113240855799 0.00407089681401736226)
(-32.1652765127927083 -0.010729365068696697 0.00387182123744588555)
(-18.1737798925816598 -0.0063663462070219206 0.000771250355158847986)
(-7.37009582530648455 -0.00909016334770024192 -0.0010511910034271914)
(-5.70245420503019318 -0.000606946182822745901 -0.00082143202512089601)
(-8.17117230325522392 2.1547245887802143e-05 -0.00116685641777029771)
(-7.98882463221383965 0.000515975938505843141 -0.00110250319440672478)
(-8.22369721345641835 0.000786569222144251437 -0.00125363154927857668)
(-9.70411678577990955 0.000833818965482808453 -0.0013032458459581401)
(-12.333245655109824 0.000686122983862001473 -0.0012420281012299637)
(-15.3326395232908315 0.000536491770284971059 -0.00120261521013770257)
(-16.8600714961825169 0.000443288876229021539 -0.00140245334766604928)
(-85.4583321053667362 -0.013651153044860068 0.0106234679046787028)
(-45.9950568375238689 0.000128360716027211207 -0.00157039089341136796)
(-36.8118639985393585 0.000322202558471110126 -0.00276642124182181455)
(-28.127479480754296 0.000511197872645785946 -0.00246110344594797957)
(-21.5094217839694259 0.000905086048987244858 -0.00210818808077028064)
(-15.1576737559279202 0.000899673221751857467 -0.00131248861603566725)
(-11.5958695869198323 0.000784856598412326427 -0.000838030673272288315)
(-9.57118985114115262 0.00127958691031493355 -0.00120805994467082295)
(-9.3642320812631219 0.0013530576972441144 -0.00127901696175353728)
(-11.0931327669507578 0.00129013717964928331 -0.00131240476622134774)
(-14.0239052734008123 0.00116153712981120674 -0.00135338142221650966)
(-17.6814161619283254 0.000859273965777830238 -0.00129178745539346293)
(-21.7062020937262936 0.000557807701033470756 -0.0013716219585805222)
(-84.8095868967344586 -0.0121236063849517964 0.00721246120816372831)
(-52.5164467632416745 -0.000122435293421973868 -0.00268492062827182815)
(-48.1841135279371997 -0.000820162366197380944 -0.00157333427963716587)
(-43.7478480044254781 9.40133743412451857e-05 -0.000784294324339959671)
(-37.5785766385193085 0.00084586479384614235 -0.000836410138680721742)
(-30.1863007539984274 0.00113108914166952425 -0.000747545713887404011)
(-24.0140906297992949 0.00104815218164685197 -0.000581071837006719421)
(-19.525269322579792 0.00109989808568596893 -0.000578932603084574894)
(-16.7923065774731306 0.00193409325981636895 -0.00106819775744434694)
(-16.5921876237132118 0.002047747797941828 -0.00125377208637255017)
(-18.3584817665941173 0.00163160089318779345 -0.00120442351277301376)
(-20.8762202923889859 0.00126714529547521364 -0.00116697569164708097)
(-25.4551666018209346 0.000909789857299669446 -0.000978197263770667078)
(-101.341772667993979 -0.00570961089474366235 0.00801439110467657909)
(-71.9360324108948532 -0.000640717023954928276 -0.00171620630266147863)
(-72.4947591239437088 -0.00060541920897517012 -0.00146097329554163127)
(-70.0564647103719835 0.001070768530414438 -0.00187720087346824639)
(-60.9061015854196199 0.00171407939419916601 -0.00114614463449229354)
(-50.7330138292251149 0.00217804883128646905 -0.000955000417424035778)
(-40.763782692163133 0.00165280903148443408 -0.000631949728144757085)
(-32.1783171692169461 0.00129013500280254073 -0.000457655351327200738)
(-26.1960916463279609 0.00136559269011923032 -0.000443299161792282939)
(-23.463840319726831 0.00239998030203671889 -0.000867120092955263474)
(-23.4748298051853013 0.00203561958354521368 -0.000886357976437492871)
(-24.6720178282778271 0.00160901158558286912 -0.000829864395713342663)
(-28.0765032651266857 0.00113153196772547795 -0.000635927904280655129)
(-127.196333314895085 -0.0108787807835827293 0.0107726005788093895)
(-94.5685874463771086 -0.00163485555279628807 -0.0023087162203787974)
(-86.8307883609177793 0.00127526063115338917 -0.00229394861289471336)
(-78.4531344995622248 0.00211974461776612668 -0.00103461791058157937)
(-67.9325016993396389 0.00257242468320024575 -0.000685595703503141915)
(-56.1471260835200781 0.00294353123029722713 -0.000532077266678359999)
(-45.4790890899481042 0.00279691170242872458 -0.000437969964549228324)
(-36.7495698480355841 0.00462905120484970872 -0.000813804538956543785)
(-29.5520109343361952 0.00583829588040549619 -0.00166949320427605893)
(-25.2282230058546908 0.00234819380595021514 -0.000773395202593873065)
(-24.1080090094398045 0.00143282064658731495 -0.000576073631976086234)
(-23.632578447977231 0.00104649356738453227 -0.000468519816184663886)
(-24.1505866267876179 0.0007701921123382361 -0.000198953951594536002)
(-139.917292556090018 -0.00873827874923398945 0.0119092795315552131)
(-110.414784934653525 0.000411836116955712481 -0.000579684914392828506)
(-87.2604763154384244 0.00449554505048015054 -0.00363854204573632947)
(-72.5304394053653425 0.00303084514732012908 -0.00150482552144943593)
(-59.913090351691153 0.00315243060569893188 -0.00113957491209225803)
(-49.0749564426913594 0.00306006063252744868 -0.000902732819159518919)
(-41.1048152788349697 0.0048744096766330184 -0.0015686452804062449)
(-34.7820375291594956 0.00709606551303552328 -0.00291642168396181144)
(-28.431353796144883 0.00444974357100228965 -0.00242927232699392771)
(-24.2841184765893772 0.00113892886789757194 -0.000858118206301696266)
(-22.2943720195473496 0.000666261018170576395 -0.000542186530650972764)
(-20.368932030162842 0.000630704397416443231 -0.000411083700795509806)
(-18.9447522109977733 0.000580829904631505385 -4.35437568901617721e-05)
(-140.339955711297108 -0.000266183265820109166 -0.00079343032861325252)
(-115.120756048277343 0.00186994378504359328 -0.00491317679443921147)
(-94.8565986754929042 0.00413798850595777871 -0.00686815061390272982)
(-72.752700837977585 0.00755834380698940274 -0.00635870941451671667)
(-51.671620216555894 0.00733352097612361385 -0.00420884245049331536)
(-40.6876124912476484 0.00320006884541004051 -0.00157294675061655999)
(-34.5578334371811948 0.00756001361799841544 -0.00359136975822930277)
(-29.0504613532445504 0.00649010252175637181 -0.00307562830016441021)
(-24.9772039302163691 0.00319327799473782033 -0.00155665835909281109)
(-23.0938267341736001 0.00129268960444114739 -0.000592127370456541329)
(-22.5716190190405683 0.000927718837342724032 -0.000475541957295008081)
(-21.4093968097923373 0.000855147093815780994 -0.000592435875110443842)
(-17.774375156333253 0.00113751591337097821 0.000770420908227289992)
(-170.009215659049858 -0.00867630946040065694 -0.00260220618343546617)
(-161.182944937224647 0.00113911697659412948 -0.00070012237597273457)
(-140.095715440103504 0.0081287175664560736 -0.000398087770386950615)
(-100.294733005503247 0.0111016596920209855 -0.000370049507994243845)
(-64.041832352602782 0.0120978302074679078 -0.000661081323728749748)
(-43.145123020726956 0.0100294774894472763 -0.000677720556580662888)
(-35.1219306779559659 0.00987434511822188506 -0.000452264559353803637)
(-30.5898548819798499 0.00836475194508884759 -0.000130968759605546917)
(-27.4387250739266939 0.00371492339803472949 -1.72780455900078321e-06)
(-27.3304475651201457 0.00238628922824548608 3.84649815578918877e-05)
(-29.5082283856533536 0.00174142188975847387 -5.97255936125134956e-05)
(-29.1064053086400847 0.00115988959328246904 -6.76737240868184185e-05)
(-23.5103709807460994 -0.00111227786505584082 0.000443500744221317757)
)
;
    }
    procBoundary3to0
    {
        type            processor;
        value           uniform (0 0 0);
    }
    procBoundary3to1
    {
        type            processor;
        value           uniform (0 0 0);
    }
    procBoundary3to2
    {
        type            processor;
        value           uniform (0 0 0);
    }
}


// ************************************************************************* //
