/*--------------------------------*- C++ -*----------------------------------*\
| =========                 |                                                 |
| \\      /  F ield         | OpenFOAM: The Open Source CFD Toolbox           |
|  \\    /   O peration     | Version:  2206                                  |
|   \\  /    A nd           | Website:  www.openfoam.com                      |
|    \\/     M anipulation  |                                                 |
\*---------------------------------------------------------------------------*/
FoamFile
{
    version     2.0;
    format      ascii;
    arch        "LSB;label=32;scalar=64";
    class       surfaceVectorField;
    location    "0.900000000000000577";
    object      Uf;
}
// * * * * * * * * * * * * * * * * * * * * * * * * * * * * * * * * * * * * * //

dimensions      [0 1 -1 0 0 0 0];

internalField   nonuniform List<vector> 
20390
(
(0.609936950377012788 -0.18135708813679563 0.512050310167389888)
(0.501520706786857895 -0.282802407814240264 0.394075895255425357)
(0.282413155975836827 -0.19061545518635617 0.324670473155870609)
(0.730318148069898587 -0.119161975265635101 0.369002607880634326)
(0.900290563698052271 -0.150565317091786915 0.633341102830127567)
(0.85719173126864856 -0.251339974860148474 0.61874934749700039)
(0.684789957471762079 -0.18594837738713807 0.693825091795015947)
(0.948340095302458552 -0.116570806511493222 0.481498837084133657)
(1.0547959805022511 -0.0986190954352444415 0.629298650800061199)
(1.00455241359241598 -0.199980728962956433 0.664207923933951339)
(0.900972418113879958 -0.134225975923609214 0.750075417682154688)
(1.05710921546053371 -0.0774561948666234318 0.504619415590099929)
(1.17041230920158812 -0.0658147635797478869 0.615959548993390227)
(1.11663486097689302 -0.159288989363955275 0.672337510454054876)
(1.04856827769321526 -0.0921270289725784203 0.729073972399534753)
(1.16193130589704374 -0.0525047477528592099 0.526112350509681082)
(1.26856930160084325 -0.0507249404783887622 0.613370767263095029)
(1.19984188878053843 -0.123520526236022804 0.664616242636974719)
(1.17007117354406009 -0.0703570360588390842 0.698993246232414656)
(1.25741063444203238 -0.0420344083699279863 0.550109220128760401)
(1.35964267959139429 -0.0419694020820325642 0.617875999021599065)
(1.28601441184062582 -0.106112219195857047 0.651033388353608578)
(1.276452683690255 -0.0591529091094651835 0.687145052781610643)
(1.34540294828835028 -0.0371747150043663099 0.565994005372460696)
(1.42415130153505531 -0.0313684787748179858 0.624069396858670133)
(1.37351250696440874 -0.0830280898943045048 0.633785358988728342)
(1.36287638905748199 -0.0468736797277636216 0.679208235679293892)
(1.4164530611204722 -0.027558664122020668 0.577660660305052587)
(1.4678950473575223 -0.0216571303036310094 0.634630803739390292)
(1.4467048899764432 -0.0648899972854615203 0.62706607359834976)
(1.42503197788496139 -0.0345435129699447757 0.678026556603355979)
(1.46461040734698322 -0.0181919520288938291 0.591990305582388743)
(1.49874530376028869 -0.0144627320153999667 0.649995868512948771)
(1.50081037311437693 -0.0521637488082483947 0.632853069741496466)
(1.46833749757930176 -0.0243900577683601946 0.684026377800080132)
(1.49467439024096027 -0.0116744275622218049 0.610549178246428625)
(1.51984347932619146 -0.0100356194252509585 0.668971896408127153)
(1.54073861398548351 -0.0412399770197078852 0.647783092989855702)
(1.49948588903692426 -0.0169333369093495507 0.694433848101282614)
(1.51437789408316137 -0.00831842363617903147 0.63305211231630576)
(1.53384915471658734 -0.00823983169373132367 0.689251820955065653)
(1.56174910670207256 -0.033646873754819881 0.668783008128511325)
(1.52067426248950777 -0.0117330492648114459 0.709579249377950472)
(1.52754690976179619 -0.00783610237493051129 0.656291155547213179)
(1.54382460442209779 -0.00879197720859630459 0.708874482443269338)
(1.57144612808703354 -0.0286916760610515242 0.691271985853202597)
(1.53502167298495107 -0.00977241068221458564 0.725375770979296397)
(1.53691308092582979 -0.00917558895504634944 0.677967781111078804)
(1.55376589734087678 -0.0105981262436798812 0.72729234708549928)
(1.57598083703255143 -0.0270045853503282293 0.714176593769030421)
(1.54652475354766095 -0.0104088111193076354 0.741681125853563716)
(1.54504631473162135 -0.0124541904373210912 0.697613171834884249)
(1.5616636308587406 -0.0132012328803606839 0.742921161431618793)
(1.57754538771380881 -0.0244616347022744741 0.736363566715338314)
(1.55650987108606298 -0.0113330307670997388 0.756642852540869049)
(1.55416231256082549 -0.0162957344777707909 0.715617332432363917)
(1.57151914313604513 -0.0172553620749831167 0.753167931225335874)
(1.57873202604768914 -0.0267192630391965696 0.753866984944916441)
(1.5657426096818523 -0.0136233745253430405 0.769921302296442067)
(1.56595419104896294 -0.019891880209675257 0.726338376953267528)
(1.58638727489580966 -0.0221861340340854737 0.755797846286926367)
(1.58554985704627294 -0.0342250524497670974 0.761406193214477334)
(1.57671216237593792 -0.0169429387269984383 0.780483085857611392)
(1.5820564040756615 -0.0228189133507825312 0.726901175982515357)
(1.60953934572423529 -0.0262577224939425924 0.749419797054774794)
(1.60180724028687038 -0.0446462765133687559 0.759151956657890925)
(1.59230409643597648 -0.0210505430531944607 0.784494759433866595)
(1.60393737435052253 -0.0252895493679137287 0.718354271052478621)
(1.64082545344758057 -0.0276519139486734386 0.735949331866790901)
(1.62810143254766126 -0.0522388182456259703 0.745075040286645063)
(1.61589287693871175 -0.0258706347166417182 0.77763846963297234)
(1.63189337182104044 -0.0262277562153998486 0.704446943756305122)
(1.67513221022931202 -0.026495986486042393 0.720612464560827171)
(1.66294134856733966 -0.0538951468255933278 0.724903679795887657)
(1.64783772215731106 -0.0285876934360280339 0.763764748005354877)
(1.66384837987751677 -0.0255296076105944597 0.690281256761045792)
(1.70843908178400539 -0.024220369125919898 0.707013157719519114)
(1.70141926505109087 -0.0522307964874651337 0.706353414182594896)
(1.68340345007806169 -0.0278226418779535523 0.749477583671031344)
(1.69682735321353007 -0.0240515113141183991 0.678322859218012941)
(1.73976483639100077 -0.0221107038284022034 0.695538834009351903)
(1.7396380910746565 -0.049998709031771657 0.691200100124270689)
(1.71812860883185969 -0.0256461223490254027 0.736374263831034437)
(1.72905441474019894 -0.022143400666921078 0.667702493581666334)
(1.76937440342847441 -0.020648085610558399 0.685925284501809451)
(1.77559526581173377 -0.0487121748755366957 0.678558673865186424)
(1.75050567281269531 -0.0236230792508815013 0.72509910170368197)
(1.75947934661371019 -0.0202485998143825119 0.657284158566415755)
(1.79829748280870794 -0.0198307330031675388 0.67828111309260708)
(1.80937638068907125 -0.0483353069476375186 0.668505576035693716)
(1.78089103352909772 -0.0221464471161014025 0.716009690524033626)
(1.78793429935951487 -0.0191095003906023159 0.648262074401102395)
(1.82835983395258062 -0.0183601994551956041 0.67187524715190472)
(1.84337338217642133 -0.048780869223009185 0.661492326307296929)
(1.81042028167692148 -0.020585031042399636 0.708876789544162222)
(1.81616782517279995 -0.0189500722596493906 0.641377410139509108)
(1.85445681594326772 -0.0155125688871170161 0.664323780751196469)
(1.87636887249800943 -0.0449569591996690082 0.65461906685378124)
(1.83764591947244549 -0.0171658868656978658 0.700243683137206308)
(1.84433388422583411 -0.0178220458483955985 0.636426752316725186)
(1.87508394677917445 -0.0140107721630331594 0.654877568896096385)
(1.90283131099163971 -0.0397916628500461986 0.644127472892597308)
(1.86094797311646398 -0.014660229964981392 0.688294921596029119)
(1.86936552172880432 -0.0153395695442423013 0.629338693072043043)
(1.89781192303311874 -0.0147634921657796587 0.645876950491206969)
(1.92727217736521084 -0.0413640483301524545 0.632206464453312522)
(1.88308476822236526 -0.0146436199428979126 0.67890155472349123)
(1.89110662485177361 -0.0146007343711985222 0.618901247447912417)
(1.92274132448091395 -0.0155710012765570179 0.638670942961627408)
(1.95342901543769298 -0.0430592459813008699 0.621971398001526454)
(1.90705718739390906 -0.0150416092172504252 0.67169586476937293)
(1.9133716967112524 -0.0157850204746907662 0.61050659629296955)
(1.94731356067025141 -0.0148566867111193934 0.631559872640956366)
(1.98082085082504356 -0.0427461948096120384 0.614267712534424803)
(1.93123113184390305 -0.0139830563655046532 0.664841185515950617)
(1.93765607590830058 -0.0168008255108911785 0.603920906513828237)
(1.96751160371514167 -0.0132756639874807552 0.622234628163982562)
(2.00654763029841066 -0.0385253577042267148 0.606254701625440484)
(1.95267829019836192 -0.0123707391045179138 0.65436061452831229)
(1.96150955772744728 -0.0162932117973663693 0.597507762229939177)
(1.98411212926990221 -0.0113795600018164102 0.610818333307180161)
(2.02709153298117606 -0.0359760296814077979 0.594792054731891673)
(1.97080325957626568 -0.0110053770355591374 0.642635680585570634)
(1.98187628217418821 -0.0145127643135369404 0.587284075175154907)
(1.99282615802517982 -0.00699651686407545131 0.597778464978353741)
(2.04244271928481291 -0.0317372196875776932 0.582352646128795781)
(1.98319487159316354 -0.00803168979723944097 0.630547951394217598)
(1.99607870802842102 -0.0118202033742559158 0.575787492044744331)
(1.9742022768015266 0.0102237551365825276 0.579761712675107677)
(2.05016604667626501 -0.016163070503841602 0.570744899518368043)
(1.97867123233095255 0.000540985933665751929 0.614460856168696612)
(1.9963119068321391 -0.00622078452297813653 0.563510831598553419)
(1.86629262311559341 0.0583126654569804601 0.546202030442651476)
(2.02203213221597666 0.0330772372612795698 0.556936065874553687)
(1.92021304909331425 0.0314832776136554568 0.587306167536034152)
(1.95240577660020165 0.0190015903051657491 0.545551027312793035)
(1.5572251310516172 0.155033492474054402 0.480385182720415083)
(1.89812824980630723 0.141156525482828143 0.527307715900485863)
(1.7357339548148718 0.105332359073400689 0.532945006875614191)
(1.79386620362242111 0.0830826384688259922 0.506190554086861311)
(0.912203056508173571 0.223063394180866181 0.350552515994626945)
(1.57444731875824262 0.323822492056361821 0.46991233544705685)
(1.32033147237064941 0.224671773426915772 0.428386334082205333)
(1.41470098801535293 0.211921675481313188 0.431009354591765925)
(0.190129877974818284 0.130028216538608354 0.185761544490630287)
(0.886769170276963115 0.38080834726481555 0.340470452468031037)
(0.538311255304002922 0.221898148132323281 0.236467251701732356)
(0.646806220916810282 0.230239127589004194 0.276011143939128512)
(0.0407920869369286301 0.114118343152672039 0.202666158207472025)
(-0.199669622636691135 0.0202166981082007174 0.0823470227168389274)
(-0.148759799850973345 0.0374365026332595385 0.12045362024847453)
(0.689365152723553809 -0.367438538792942748 0.500774932585035248)
(0.548395900772162381 -0.360727232850278967 0.362352151262705091)
(0.121819935535424806 -0.13003633829778366 -0.158311337337436242)
(0.7451464794862388 -0.283213005240151194 0.375204372530267782)
(0.947344720444249666 -0.349723693307698591 0.649616168600824051)
(0.88427382066285698 -0.431384779784309114 0.611116101687585123)
(0.742900512984194239 -0.349872278197883191 0.61218941531822102)
(0.981750908540508171 -0.29298722478058975 0.510079525161226233)
(1.07669631299655855 -0.300346659600358168 0.707246783587944905)
(0.93381192321625961 -0.377180093293946916 0.734961226636917431)
(0.902370482341664171 -0.320364618064579387 0.802164872030176057)
(1.09756059109243576 -0.250888903688265996 0.577117808043741354)
(1.14896597635638353 -0.242583813509911289 0.720994204097639368)
(0.895777832245682526 -0.295319049112617471 0.76555156388681711)
(0.982909392592314024 -0.278108912524996144 0.819619201635548578)
(1.17907432772281662 -0.213193972605057819 0.619828829724139774)
(1.21683567312209551 -0.194337596813953212 0.702278863727488267)
(0.902336383636616945 -0.224353706908526046 0.647137574100886126)
(1.05629470421782101 -0.227725286013117006 0.775109643510065505)
(1.24199728979330803 -0.182667189148094766 0.64131303488278113)
(1.30845279054576857 -0.161257513106723344 0.666942748320738188)
(1.07631072745210954 -0.194715323465212725 0.46058981610569566)
(1.17104540410074209 -0.188299498105119728 0.714173677930319384)
(1.31140108114697829 -0.158951582071869268 0.628584575115687438)
(1.39836713843411475 -0.133098564645494355 0.636782035728407969)
(1.30976331573836902 -0.154873221694784652 0.291631903726934372)
(1.30349417903072951 -0.154295579770991287 0.658171396225983862)
(1.39444342886424533 -0.130281768109718338 0.604395472378421172)
(1.47773015304691469 -0.110230451961494488 0.625288339600455934)
(1.50973467273025364 -0.121839624947187725 0.179495122170171995)
(1.41976474257660601 -0.127518030024230705 0.630900053418760765)
(1.46788673303205952 -0.105021596303137413 0.596363904402704259)
(1.54166037926483002 -0.0916374658509455098 0.630640294218403397)
(1.64620963455134306 -0.0958396554678214579 0.144043335458103883)
(1.50957583005160623 -0.107545039113212115 0.628451954930616008)
(1.52231827886536664 -0.0850786974334044738 0.605030488639904385)
(1.58214117163454882 -0.0758110621294660475 0.647594204710239985)
(1.7337120647685853 -0.0689477096246181032 0.154949837493646436)
(1.57022444295240016 -0.0917134416586631723 0.640208254914747754)
(1.56011269618272852 -0.0695395067362025721 0.625273535572930972)
(1.59848006178390789 -0.0625710025502463629 0.670803173026648158)
(1.75960734714648215 -0.0491717635828743602 0.215108104364629571)
(1.60118766483217989 -0.07741230537572244 0.663120928037288282)
(1.57772903542703458 -0.0569359997600588086 0.648409768215909343)
(1.60201757825655888 -0.0518840721578746403 0.696574097178963902)
(1.72809532370369201 -0.0379449150997404894 0.388730531219017517)
(1.61648442766208045 -0.0663126569204525174 0.687861308644272307)
(1.58224043590013541 -0.0470842430912786283 0.672892068556885437)
(1.60251324274719886 -0.0427179265483669662 0.723247813398869344)
(1.69352634957601977 -0.0365643373983987677 0.541956791439389796)
(1.62358222825062737 -0.0572798381775999274 0.714612856491453674)
(1.58021365233730293 -0.0418946219850773113 0.695988997143144106)
(1.59387837016852485 -0.0383577223681706506 0.747309390228636183)
(1.6713543076525692 -0.027866219340779156 0.62864379488801192)
(1.6213814791420591 -0.0478501955497984063 0.73776349414454323)
(1.57816389463950157 -0.0432343257913834905 0.722319663214276875)
(1.59149706696119875 -0.0435621591349597409 0.762105246934057901)
(1.66170725148824849 -0.0377777556095423017 0.673622876696060469)
(1.61311400256401338 -0.0436872902342553687 0.761524295905733561)
(1.58023514525247588 -0.0499393295165972972 0.737026158372359741)
(1.59884638920948974 -0.0569236925332593791 0.764760303585441892)
(1.66310681352787704 -0.0605956026314833224 0.685260400725944407)
(1.6084664767812813 -0.0461111999841579551 0.781677057911175366)
(1.58900921998364208 -0.0586634757466232767 0.736285252604979679)
(1.61914795634946018 -0.071456527972783998 0.754807199889760971)
(1.67787388471988419 -0.0885863972894640056 0.676629526017143768)
(1.61317978073616919 -0.0555668305427295534 0.792134985975681438)
(1.60775191651416161 -0.0692064868154123186 0.724556298237604701)
(1.65134878780072913 -0.0796110743935568438 0.734029388215741929)
(1.70692359980927133 -0.106579947113471435 0.645690374388871891)
(1.63182352904948358 -0.0703646639345304609 0.782058867201462227)
(1.63647893498331065 -0.076391316217880173 0.705577536092735547)
(1.6910563867881101 -0.0813125748372354185 0.710644629417655493)
(1.75145340411064843 -0.111497754489206388 0.60078008442608033)
(1.66547911067491961 -0.0810304527924898821 0.760379564588332779)
(1.6735830022517435 -0.0793097417320430265 0.684881942688324141)
(1.73360989213766303 -0.0799851902784137758 0.69054035658734636)
(1.80286548470275565 -0.109584961133507616 0.557759672112230098)
(1.70843474784143612 -0.0832482163439099143 0.738280632118338276)
(1.71559768194655171 -0.0804075254810272533 0.666125539386487442)
(1.77532083830801191 -0.0784155580258035362 0.674219939980105099)
(1.85452415665093517 -0.104329244515945427 0.522480093474383067)
(1.75440060787444674 -0.0817614547271699049 0.716481578645451811)
(1.75898165596120104 -0.0798782023117655671 0.649531157984337693)
(1.81518581181374072 -0.0782491404861975076 0.661138965399070688)
(1.90028797047577491 -0.101355177545399563 0.49349036219059339)
(1.79827195836819898 -0.0800404920289230354 0.699359204654861233)
(1.80011657133600522 -0.0781331603233719196 0.633938052908813221)
(1.85337768573547468 -0.0795516267713134856 0.651716789250383566)
(1.94375856279411874 -0.100103400692218097 0.465096707040322577)
(1.8375204253894597 -0.0794758530089494097 0.68732903317282279)
(1.83730293237019415 -0.0780002212956983076 0.621984759998902237)
(1.89332235532700621 -0.0790714988439286948 0.644236146009173449)
(1.9799642388575327 -0.102376827539103862 0.423906565656468282)
(1.87506366414746584 -0.0788291046197387574 0.680499596572879617)
(1.87556436719751041 -0.0799403674419037202 0.613252450002338301)
(1.92668098593056092 -0.074637990724177955 0.634422758995182079)
(2.02396629286759655 -0.0932563576596743132 0.391458761388263188)
(1.90866609743967608 -0.0740967876592114189 0.67124835134117089)
(1.91222529950736342 -0.0792124868506579871 0.608008033154792571)
(1.95166339582071746 -0.071532766618219501 0.621456368449813445)
(2.05049236107710531 -0.0798525565319656155 0.364191692233475972)
(1.93690787421194499 -0.0702749926095263266 0.655152260734994885)
(1.94434377445833695 -0.0746638295072981906 0.600012661499028654)
(1.98297742222369844 -0.0722165304628673427 0.608300911963631785)
(2.09204870538383725 -0.0859752553317122276 0.359807219731677452)
(1.96400060061537318 -0.0703974272892186614 0.643912649194859799)
(1.97265491297092033 -0.0723290585969735417 0.586003825895051955)
(2.01119327746168608 -0.0735410585981566556 0.597568167574323961)
(2.1052888771003766 -0.0846639755922376502 0.323282432487638327)
(1.99252558210302966 -0.0717209088168296177 0.631468093923337581)
(2.0017696604491042 -0.0732341356795485343 0.576474163866692813)
(2.04279988352769504 -0.07208294801680179 0.588962541518908811)
(2.11913751940698258 -0.0877181085097681612 0.27852997856613948)
(2.02118197888630569 -0.070328423670472609 0.623937240610577759)
(2.03184710261889823 -0.074566795339564812 0.565599842246866991)
(2.06602490183858301 -0.0683736890684205068 0.578812128193349595)
(2.14206491717446923 -0.0750785111129145671 0.259689015956138913)
(2.04680733407377691 -0.0672208762193140102 0.610034634851659208)
(2.06059368943828281 -0.0731478166320163325 0.560152938016641233)
(2.08523886201470487 -0.0646664424646900271 0.566326367553507293)
(2.13865613266811261 -0.0696003461988632249 0.23061509000901062)
(2.06786942413278663 -0.0642402036967011925 0.595810464668164674)
(2.08481383142697219 -0.0691391200902443381 0.547775487278207684)
(2.10488820116456754 -0.0570542433405392818 0.555319080668809861)
(2.13515780362738283 -0.066067889957241166 0.232271799078773433)
(2.08572162717300502 -0.0591565205435294686 0.584101524854555798)
(2.10319080706176509 -0.0645532952253250469 0.535089568649821601)
(2.11774969545011826 -0.0329100277592747764 0.547919252717813721)
(2.09982539136188739 -0.0465131695197023159 0.174547692089088324)
(2.10047710229381135 -0.046512647397651756 0.574395681556499227)
(2.11866109589278961 -0.0537556804194162102 0.526556898550701535)
(2.08451269713692078 0.0356231835983692041 0.538041751332388629)
(2.03967060313494875 0.0281143336019160708 0.19637387712029894)
(2.09116944690233453 -0.00449201861020865831 0.56520664505884477)
(2.11388862953730605 -0.020918022098953562 0.52204390968893799)
(1.89484914726883891 0.215567179135020104 0.516834868627128241)
(1.93988715180532267 0.219245705058238594 0.371888126361324511)
(2.0012044944198788 0.105813375011414967 0.545437786428742077)
(2.04196989724673106 0.0742623058234037764 0.511952979584097578)
(1.41638787729504756 0.44273552613492323 0.459830271920460498)
(1.72117850756066337 0.553821069130995047 0.456252453656361412)
(1.73416327661866698 0.3734576863931931 0.507549696054681143)
(1.80042814255153782 0.324955302267813828 0.489085837907971666)
(0.680687716916190899 0.42298787682983896 0.357375066184870582)
(1.21082314336422692 0.755343231666359971 0.415574077614015769)
(1.10765646123757233 0.54297210281686259 0.398886676835410736)
(1.22406700242643973 0.532511872071840142 0.412256023484898704)
(0.331486374478133228 0.463810122004289727 0.323177470373279652)
(0.216021312343145644 0.292107449200679714 0.277467215078356699)
(0.29037066500876807 0.314420809348521235 0.296162427327369526)
(0.732189044393396382 -0.433026392633598822 0.472693320365252467)
(0.542063031204643275 -0.38672050463897345 0.290714751038428809)
(0.153743282323686115 -0.0900044942909974943 -0.306520038207978907)
(0.770471842528167361 -0.351840985520537164 0.373682843331540004)
(0.857849406201223741 -0.463616986425872346 0.696461159723678391)
(0.816617049241849191 -0.510958817442548674 0.627496107209431053)
(0.660912549115967973 -0.460114516788185379 0.590857135609665018)
(0.973399283255661274 -0.430353391388642981 0.557369622115818752)
(0.749171065351522336 -0.381304755024426179 0.793266006935789525)
(0.549557164819969746 -0.407280191617442333 0.835482068599457617)
(0.524019723952757088 -0.366023230689377477 0.843463044433195197)
(0.971324207001931561 -0.380207755401180403 0.674584654568083364)
(0.611944414718103125 -0.253084894742674538 0.691694933890063868)
(0.133489825012073404 -0.249492312112255477 0.662511299332807502)
(0.295442122119121686 -0.261316775177433847 0.766850845497785816)
(0.88360434633034346 -0.302559506126799937 0.721277817339932348)
(0.78508595985019336 -0.150368806288097651 0.405448526479093685)
(0.517772387530180733 -0.201719349957107635 0.174273473146215524)
(0.416213094661623151 -0.189552294537029903 0.357830545120106092)
(0.838754327945229416 -0.214426248390423707 0.576240911250639587)
(1.11583611398399007 -0.0981600147799214923 0.0852789715118937031)
(1.03088502438324769 -0.198346093523517397 -0.111897936552522226)
(0.893530846521888522 -0.164810049486452309 0.00703355929285511515)
(1.02099483355794107 -0.159431518361232261 0.330522028059208939)
(1.4285762193858087 -0.0606677972590380504 -0.165655009831302102)
(1.46091805060080326 -0.157480616369081478 -0.283051296957747334)
(1.38158325229103851 -0.119736822358813222 -0.198409815098280651)
(1.30143874915977786 -0.0991015634665258494 0.10911518720928122)
(1.66862020987305648 -0.0254470715322240755 -0.301749881972180167)
(1.74492802800517066 -0.0954350037694610132 -0.383396549240299533)
(1.72626058489477208 -0.0802416337132798863 -0.307650208010248838)
(1.52923455231573047 -0.0494912292237360552 -0.0147969308316188066)
(1.83008480075096824 0.0125623461875552251 -0.331647121266653744)
(1.90424536025802382 -0.0287961087037393038 -0.413618328868848528)
(1.93115977616758361 -0.0376100555893368049 -0.335912244142653305)
(1.67193454613924053 -0.0131173079680898842 -0.0403601755482354135)
(1.90710712022728623 0.0445116828536646358 -0.27753626285196481)
(1.9888919225602768 0.053039494993575298 -0.409811238252535237)
(2.02344251493630445 0.00359661528641625492 -0.319114153169961889)
(1.75586899397473317 0.00668396787425944681 0.00188254471355988034)
(1.88447512559710906 0.0453871944655410905 -0.066964537443000266)
(2.01905196771165008 0.133600911836979058 -0.378962423195907894)
(2.04170798690230537 0.0328922467450226477 -0.253115618041314772)
(1.78208962910364832 0.012448053383852414 0.0897968784318163432)
(1.81481846819850645 0.0142709714073717062 0.234113225479444576)
(1.99596562932309984 0.174118114034907595 -0.209587748265510965)
(2.00122774950784077 0.0338306867362231159 -0.0724866953186946439)
(1.75430836072234375 -0.00947200257297264175 0.281982087110943636)
(1.77175695392013899 -0.0151483197852296039 0.447352772928532816)
(1.95251341197446138 0.161590647039289409 -0.0270990374388014356)
(1.94283055197928078 0.022068255097598688 0.103363050454338454)
(1.72285760536310173 -0.0404649246188441142 0.456611778762385345)
(1.73937047562898472 -0.0401471538254656937 0.554957281355436316)
(1.92170768307825135 0.130418711204522614 0.095490523728443133)
(1.8629326077534003 0.00896990956243012144 0.27269236569193428)
(1.70783887635303655 -0.060296886560954284 0.556876162969517585)
(1.72993811875232062 -0.0699944974375770329 0.596778030487946864)
(1.90866808365880747 0.0363987770631413951 0.140029025916810268)
(1.79479588758659769 -0.0235127429765377427 0.462026539759000709)
(1.70748658783290774 -0.0843460832674310657 0.600947321807685841)
(1.73851688259158976 -0.0987574730862993688 0.597129623157646283)
(1.88924252127880465 -0.0482022196730257091 0.125790012536952378)
(1.7611770030802294 -0.055347365230812004 0.567589880953495607)
(1.71924239210058305 -0.104690314641312218 0.600955354640596906)
(1.76380134922185872 -0.122427584244875418 0.567512700516254354)
(1.87619796070710465 -0.11687491491178971 0.0636489864396660998)
(1.75673059750370752 -0.0862908334077759492 0.606688214606016074)
(1.74483153233155575 -0.124552364426545326 0.575395714283249982)
(1.80862579231437648 -0.134252613557059891 0.512441070599209847)
(1.89186071573036818 -0.144754061009276042 -0.035035469001181152)
(1.7777746948815587 -0.114962586991440421 0.563908678102265304)
(1.78410611308126454 -0.136623070991958556 0.532384986515528902)
(1.86545216001082692 -0.136350682643111537 0.447895127120655157)
(1.93217957103843063 -0.147102667910997326 -0.159144667574327214)
(1.82815451107211913 -0.136133180093584938 0.49287309713057631)
(1.83576391992326315 -0.14052820315565237 0.478489572982052636)
(1.92546767958000653 -0.13340185353961867 0.389699408999266528)
(1.96386662262111633 -0.140726489541896954 -0.274100482850604843)
(1.89129619702637819 -0.142459401768614519 0.42379358014700752)
(1.89404937855532229 -0.140451211183396513 0.421525773002878801)
(1.97924527986298848 -0.128852442927490124 0.341750515684871137)
(1.97542210746488545 -0.126760059183072954 -0.360239797555757413)
(1.9541133168946998 -0.139813287530688696 0.359579622567412716)
(1.95387549771114588 -0.136642302691175499 0.368495330560887402)
(2.02856643911114665 -0.12505098400822065 0.297448103831845667)
(1.97846335967041465 -0.120506657655626098 -0.415792519273879391)
(2.01141385791382765 -0.13297306090668079 0.310777236948529545)
(2.00726458037066147 -0.130010493643356678 0.321795453581742164)
(2.06824096571012017 -0.123642754670771071 0.237286483446407848)
(1.9635570427689768 -0.107666902729183236 -0.448480265775186293)
(2.05544325147116158 -0.126533805832329899 0.255517523113673206)
(2.05682004292871801 -0.125354280380225613 0.280065262271115722)
(2.11556299215922339 -0.119590519183279009 0.171129181035558103)
(1.94020983389945756 -0.113763577469643051 -0.482727394350927597)
(2.09802655162728424 -0.120387581469895422 0.195567462629477939)
(2.09667259255848748 -0.123711356439582768 0.220116098665021631)
(2.15190765056915234 -0.106420144808605843 0.121227694626557012)
(1.9587863106603618 -0.101399446424523698 -0.499161134139184171)
(2.1399256378434921 -0.104195719545104482 0.144671519209093796)
(2.13560496131823596 -0.119378176468790592 0.164729586753237567)
(2.18273065911919462 -0.100357196562146894 0.102542543515340617)
(1.99460249981682392 -0.0903089409348344224 -0.501229173543087381)
(2.1761044364572002 -0.0966860201685127152 0.116371683570464235)
(2.17169119997057569 -0.105107860635871381 0.126281310667757052)
(2.21661019129062664 -0.0992080869171788476 0.0747887402556839942)
(2.05353025038876824 -0.091640167816366358 -0.477154843504614901)
(2.21232705636514293 -0.0953240630309889203 0.0888854444263728061)
(2.21254787374724549 -0.101760802306765999 0.111434044517238331)
(2.20721875097131992 -0.0973373264687894812 0.00424424347945367986)
(2.08618638041718718 -0.0408722316426284385 -0.468623633513539306)
(2.21992564361329547 -0.0937466350554807398 0.00908734194067707841)
(2.23525714212802784 -0.100675598589921825 0.0872786553590949726)
(2.23156147492439461 -0.0890270149993274557 -0.0507435469966312294)
(2.0976405526317734 -0.0753406059517631455 -0.471388568403612762)
(2.23639022634128848 -0.0865948409252302598 -0.0358964056366790282)
(2.23191397752040954 -0.0991217354395260153 0.0132004853813626824)
(2.21383729879955427 -0.0751951228693249901 -0.0885080222282008666)
(2.08904072605676294 -0.0323348198915691248 -0.452075378546238804)
(2.24215121249807048 -0.0748887466816897662 -0.0890667826595477885)
(2.23424638544887877 -0.0914472045794449823 -0.0213049712568776292)
(2.18300206213327508 -0.0701672833212338282 -0.103439478465722823)
(2.02464224764244083 -0.032437060319640984 -0.460972256880368803)
(2.21451678378692574 -0.0690693527299759275 -0.116095179375566002)
(2.22341711276703524 -0.0779013279041727152 -0.072603439266052186)
(2.13560847295186917 -0.0527136855549024605 -0.148499589500949464)
(1.9262274237248469 -0.00993901276047169831 -0.481138550665340115)
(2.15793959203386931 -0.0554507590421431246 -0.153813103857677907)
(2.19515681473384205 -0.0722479674718078391 -0.0889477165828901767)
(2.06037615634064375 0.000929989186197688333 -0.176997683508427012)
(1.81556619569302558 0.0559998952326421356 -0.591235120261467295)
(2.03705013135949509 -0.0222378228085716896 -0.269208236020966551)
(2.14282177132289586 -0.0500855297255817095 -0.139413635924108936)
(1.9607524915991219 0.140612224916126322 0.0302202521492345444)
(1.65796501414111996 0.0765106208019577377 -0.71440426929574008)
(1.90822996814216905 0.0577966615430172276 -0.137399084441065467)
(2.0444722727678446 0.0159056542722244079 -0.140229543906355475)
(1.75789044021922436 0.422451707571298352 0.311305711390556905)
(1.52818154966148811 0.295766338935601336 -0.315020552390455233)
(1.80385522221481209 0.27429610163484508 0.234158148888852335)
(1.90690906493420709 0.214187124029479814 0.184338000435217447)
(1.36983201004530808 0.743324714243232654 0.411996259349917904)