/*--------------------------------*- C++ -*----------------------------------*\
| =========                 |                                                 |
| \\      /  F ield         | OpenFOAM: The Open Source CFD Toolbox           |
|  \\    /   O peration     | Version:  2206                                  |
|   \\  /    A nd           | Website:  www.openfoam.com                      |
|    \\/     M anipulation  |                                                 |
\*---------------------------------------------------------------------------*/
FoamFile
{
    version     2.0;
    format      ascii;
    arch        "LSB;label=32;scalar=64";
    class       volScalarField;
    location    "0.0899999999999999967";
    object      alpha.water;
}
// * * * * * * * * * * * * * * * * * * * * * * * * * * * * * * * * * * * * * //

dimensions      [0 0 0 0 0 0 0];

internalField   nonuniform List<scalar> 
7360
(
0.999999999998651079
0.999999999998476774
0.999999999997902234
0.999999999997099875
0.999999999995921596
0.999999999993417599
0.999999999987630339
0.999999999972716269
0.999999999928114391
0.99999999978273868
0.99999999923447358
0.984733171195999235
0.981281398588369602
0.732171303394521966
0.24353398708161092
0.220134889796550132
0.999999999998057443
0.999999999998019806
0.999999999997385869
0.999999999996643019
0.999999999995192401
0.999999999995706434
0.999999999981723064
0.999999999929739758
0.999999999782864912
0.99999999923449534
0.999999997678841401
0.967727369662092718
0.940837908445008364
0.727900496793544738
0.215743409982944251
0.187555529731732257
0.999999999982777332
0.999999999978260279
0.999999999972466025
0.999999999962091435
0.999999999939328754
0.999999999902467129
0.999999999779328741
0.999999999269524098
0.999999997670718122
0.999999992195164999
0.999999978538936629
0.956098800211941158
0.867549636394268298
0.532549335434224336
0.188027859294740141
0.159150808989473591
0.999999999837485665
0.999999999785857963
0.99999999972413911
0.999999999618863322
0.999999999386875116
0.999999998943127522
0.999999997806677365
0.999999994049105223
0.999999982600602744
0.999999946149174868
0.999999859035128225
0.947121517379982514
0.859848872998943525
0.369266484779301074
0.162738554512343175
0.125025883324323628
0.999999998864448125
0.999999998549918168
0.999999998119295075
0.999999997434370735
0.999999995930528129
0.999999993078921845
0.999999986119225248
0.999999965998247475
0.999999907556896606
0.999999737614029272
0.999999348108761676
0.952311227677461236
0.788936366736786132
0.250697453026799022
0.139287238925644541
0.105586815847721727
0.999999993784154384
0.999999992285455663
0.99999998999621631
0.999999986604486524
0.999999979145355766
0.999999965594611018
0.999999932882667864
0.999999846851994834
0.999999613171368429
0.999998985379998429
0.999997609441629853
0.953039369126764679
0.63300425452924991
0.152623550468511032
0.118875550709660882
0.0946637841180026363
0.999999971559233147
0.999999965553950876
0.999999955493121595
0.999999941682269022
0.999999911047133594
0.999999858514912243
0.999999731728598018
0.999999419704870274
0.999998638287823427
0.999996696138603758
0.999992585713329607
0.943520435552108738
0.469851318858854006
0.12684423887192614
0.0988461667105954289
0.0802830828798634932
0.999999886782539038
0.99999986576879607
0.999999827517657147
0.999999779293393898
0.999999670344329905
0.999999495791624948
0.999999071049214039
0.999998082508948505
0.999995793135607269
0.999990566677152248
0.999979817754623634
0.928355878656346611
0.348086030231300247
0.103429576800794176
0.0827718124673385292
0.0764002588160513918
0.99999959720929299
0.999999531323865654
0.999999401712965419
0.999999253348770489
0.999998907691707295
0.999998395144186869
0.99999712629869042
0.999994328538729826
0.999988318749974403
0.999975744068320571
0.999950504550049746
0.896977416864309651
0.284588153042764858
0.0839816441536772873
0.0699909988302100661
0.0589436382772909467
0.999998693591526155
0.999998504885681982
0.999998105243588786
0.999997695835425526
0.99999669751916731
0.999995347844806259
0.99999185730652651
0.999984658257702219
0.999970218833472035
0.999942404349148606
0.999888365841516968
0.871044773929806615
0.268460704492082147
0.0684628614397062574
0.0572184440842930173
0.0592462694221815994
0.999996078177150638
0.999995577689904547
0.999994439706708205
0.999993415381684514
0.99999074943356614
0.999987524465730249
0.999978724253202778
0.999961165151296294
0.999929243532887035
0.999872378957801566
0.999762486376151505
0.867591008773610284
0.244502277178452548
0.0559656482887585516
0.0458438425444204212
0.0606319598364627732
0.999988978258113503
0.999987735526524757
0.999984709871838406
0.999982373191491303
0.999975720592667594
0.999968648651980319
0.999947861795828619
0.99990927957612552
0.999839856123778681
0.999733159522961046
0.999524352325910304
0.695349537523315853
0.182680371459352731
0.0453677907879022763
0.0356176882054018359
0.0536151419435157012
0.999970745277459994
0.999967826524821968
0.999960251986452109
0.99995539086115981
0.999939749051475313
0.999925568778615714
0.99987854928932185
0.999799464241064806
0.999665529327653735
0.999463843773384486
0.999091368925340673
0.743771676879140031
0.0778650065837342698
0.0355947125047210156
0.0263679917792168268
0.0449977828578649458
0.99992614429954052
0.999919592100544485
0.999901629698514482
0.999892472635254159
0.999857619851501678
0.999831798877435007
0.999730145358917244
0.999573925356377679
0.999333278004744252
0.998994871045299382
0.998331145731471192
0.664516741342839334
0.0579546085576712472
0.0271047510190087632
0.0195801553964911265
0.0245820755110876046
0.999821658518970313
0.999807449622182376
0.999766975771750777
0.999751696256758637
0.999677937016903884
0.999636196703314939
0.999425247021743512
0.999132515792359843
0.998710960356734012
0.998188088594865075
0.997041336844025072
0.69658826085817549
0.0318322155955529165
0.0180802949327013955
0.0121957679796062656
0.0190448515065753769
0.999586151128479372
0.99955594882658827
0.999469101445451091
0.999447512304518337
0.999298823202956488
0.999241657720722376
0.998818362181822739
0.998294630095446944
0.997591746419564829
0.996812700067370105
0.994906193875575329
0.559075234818127043
0.0215761207224343665
0.00673417413401197935
0.00453747911672194772
0.0303694014125252022
0.999999999998669509
0.999999999998651079
0.999999999998195221
0.99999999999739031
0.999999999996259215
0.9999999999938739
0.999999999988219535
0.999999999973751219
0.999999999932406181
0.999999999804363937
0.999999999329382661
0.984837459351519895
0.979941703068764713
0.762601332564325052
0.231455321063055885
0.209718897424247708
0.99999999999830913
0.999999999998302025
0.999999999997647548
0.999999999996937339
0.999999999995528022
0.999999999996036282
0.999999999982158716
0.999999999933974593
0.999999999804486284
0.999999999329403089
0.999999997940568264
0.966235967276074748
0.940716646886805674
0.729831938597753416
0.206252928517621226
0.175956395601358062
0.99999999998637934
0.999999999980235255
0.999999999975281995
0.999999999964486075
0.999999999943456563
0.999999999905629378
0.999999999786118643
0.999999999317079058
0.999999997932436102
0.999999993154653044
0.999999980750671646
0.953577708984252759
0.860581818525656073
0.511559471040959113
0.176961357996515412
0.143946972911593973
0.999999999870807121
0.999999999804125572
0.99999999975259346
0.99999999964067865
0.999999999428140107
0.999999998968684745
0.999999997879710945
0.999999994452605012
0.999999984595944635
0.999999952568919048
0.999999872799904765
0.948661226934282231
0.849821071502656844
0.331351854138447532
0.151653283675989792
0.10349853299221648
0.999999999096924386
0.999999998666757706
0.999999998314957228
0.999999997566584753
0.999999996206260677
0.99999999319796018
0.99999998659056899
0.999999968386647509
0.9999999184676307
0.999999767950993879
0.99999940772448892
0.95387420971040715
0.776243226261217223
0.222154698410546469
0.124403020154743735
0.0991122975266643391
0.999999995055129487
0.999999992867536713
0.999999991047665682
0.999999987214284181
0.999999980583424652
0.999999965934780355
0.999999935238400695
0.999999857965513161
0.999999660144640479
0.999999099052288565
0.99999781269128174
0.95641202322824892
0.614593211270791251
0.14198931918407276
0.110366428380947484
0.068835517125017176
0.99999997736641566
0.999999967977699633
0.999999960229337903
0.999999943966145777
0.999999917338423638
0.999999858754733628
0.999999741737542136
0.999999463290444313
0.999998808248872773
0.999997053531061386
0.999993170884271199
0.946364519226632561
0.441893705422800043
0.124087920500110083
0.0930388985244448852
0.0694118900429693403
0.99999990984821141
0.999999874522920162
0.99999984613272197
0.999999786445512906
0.999999694468223788
0.99999949156776502
0.999999108916161061
0.999998233510936085
0.999996336155412502
0.999991552897235181
0.999981286945622716
0.919081917524779413
0.302674601826493861
0.10240468168168973
0.0801034063367748739
0.0591117746075968536
0.999999678980804885
0.999999559480769795
0.999999467301265099
0.999999272218675017
0.999998991312421759
0.999998366583247922
0.999997242484718774
0.999994784974419071
0.999989855058846966
0.999978056447197394
0.999953792952615883
0.831013081308257018
0.299352680469395449
0.0864643414578514791
0.0666405009465298459
0.0505300918993647555
0.999998957566492819
0.999998587106519121
0.999998316428462708
0.999997736863193154
0.999996962620306462
0.999995213706719399
0.999992279312886923
0.999985776507211765
0.999974201567648713
0.999947461174319097
0.999894510299445205
0.863738404111921043
0.200664162082318187
0.0720207917116805624
0.0591698057938785035
0.0529183539264832248
0.999996865574980687
0.99999579874265232
0.999995069689327942
0.999993481836405129
0.999991533980594038
0.999986981739481084
0.999979998486730803
0.999964664909907652
0.999938223474001631
0.99988238914375227
0.999775399170940382
0.89421127492008845
0.250926750320798919
0.0600942747089815571
0.0512424207159829503
0.0643832659752381908
0.999991171511328769
0.999988288818915327
0.999986468401703466
0.999982413517525925
0.999977901925378054
0.999966817844900713
0.999951218396516239
0.999917686677057937
0.9998645329931235
0.999749376128536982
0.999556560159260088
0.878882848601689526
0.29646271783032746
0.0501430013578666178
0.0418922649935013908
0.0605190035478765515
0.999976495873079241
0.999969128537438579
0.999964878759326825
0.999955151168124057
0.999945484821073149
0.999919977102504909
0.999887502105401671
0.99981729649448392
0.999718559233279014
0.999514047970032404
0.999142049233511242
0.971350885686073307
0.219682292674795249
0.0411070456989809929
0.0323454467991391506
0.0521271580968862419
0.99994042077862777
0.999922501093569394
0.999913160252823507
0.999891123266669402
0.999871932732775415
0.999816196321742456
0.999752351183456511
0.999610715894502788
0.999445582056187387
0.99905427390965218
0.99851225204583749
0.444702988939533639
0.149721518541430898
0.0324408371663188755
0.0240634854204081067
0.0334246282128959071
0.999855349166338003
0.999813693077228116
0.999794263596934574
0.999747044377828797
0.999711868259255287
0.999595717421252861
0.99947911312415294
0.999198361366996357
0.998922515056461569
0.998320810285376448
0.997165928978777538
0.593819861194916809
0.036560787212470941
0.0232690730517106613
0.0146308860154671354
0.0238356426572708668
0.999661898049707842
0.999569028837169471
0.999530451615199156
0.999434641084834929
0.999375244438971855
0.999143043664156183
0.998943468424533076
0.998420709667757533
0.997953049825704985
0.996921069275134686
0.995089621480892084
0.511916189767642749
0.0236844327549864744
0.00937515599161812922
0.00615142941489271039
0.0255950287092028689
0.999999999998687938
0.999999999998592792
0.999999999998148703
0.999999999997476685
0.999999999996416089
0.999999999993984034
0.999999999988218535
0.999999999973638865
0.999999999932729366
0.99999999980660037
0.999999999343085921
0.986497654790935097
0.980296659556162631
0.790396249466497558
0.224006045826504574
0.203182780573345351
0.999999999998193223
0.999999999998249733
0.999999999997722933
0.999999999997070121
0.99999999999563316
0.999999999995935474
0.999999999982123633
0.999999999934204742
0.999999999806725937
0.999999999343106349
0.999999998091205322
0.971351656510627715
0.958049373691185924
0.730018276470598471
0.273742228001600862
0.170448122787140222
0.999999999984663268
0.999999999980738408
0.999999999976187826
0.9999999999660103
0.999999999943224527
0.99999999990458821
0.999999999782715254
0.999999999322278343
0.99999999794996608
0.999999993278595456
0.999999982420207489
0.964303036918333523
0.84751269476336244
0.538085557371281276
0.172049371061650608
0.142004480823324147
0.999999999855518462
0.999999999810432527
0.999999999761678415
0.999999999655991734
0.999999999422040542
0.999999998962302961
0.999999997848758371
0.99999999447934329
0.999999984669059039
0.999999953317945334
0.999999882566309894
0.955392342865294397
0.851638177384380635
0.354081346626031301
0.149152432019130199
0.0901461741400916838
0.999999998989280381
0.999999998716327942
0.999999998375942001
0.999999997670297791
0.999999996138252412
0.99999999315834931
0.999999986405631036
0.99999996853315487
0.999999918455094727
0.999999771183633812
0.999999445351382854
0.954572844775308682
0.770878794234242104
0.248437348091617327
0.119629849308884373
0.0813891447285336883
0.999999994461293173
0.999999993163398049
0.999999991364120655
0.999999987758177777
0.999999980084748108
0.99999996574445682
0.999999934219921283
0.999999858869945801
0.999999658248693635
0.999999109762117699
0.999997924308271169
0.952094921941786132
0.603858382409374617
0.139933656382929317
0.105057450216578363
0.0852804804391644328
0.999999974628817068
0.999999969440138692
0.999999961593951658
0.999999946348940627
0.99999991454144066
0.999999858130284358
0.999999736750917245
0.999999467383824614
0.999998795326999312
0.999997083985957325
0.99999344677911095
0.932409069733615592
0.420252405563754372
0.120960798953876569
0.0938347211067193099
0.0681061300732246355
0.999999898887397265
0.999999880771660132
0.999999851215941593
0.999999795547874326
0.999999681461348988
0.999999490505721678
0.999999087462670744
0.999998247092686032
0.999996277957241775
0.999991637164737712
0.999981872365415914
0.897517032242795887
0.33193977084071441
0.105372334113747898
0.0789192697291485473
0.0543439650933516261
0.999999639868092149
0.999999583207985432
0.999999484128841765
0.999999303400811446
0.999998939062235803
0.999998369468781068
0.999997167133700682
0.999994809783715244
0.999989618406809999
0.999978269665630526
0.99995491174264961
0.824240132414043036
0.307003175643427939
0.0894120988606025846
0.0633562625900317422
0.0463887555507076985
0.999998830655221549
0.999998668782342115
0.999998367010110467
0.999997834610549141
0.999996775453176667
0.999995244794171123
0.999992047685106078
0.999985910856622473
0.999973255843221498
0.999947958351786736
0.999896429197318359
0.846809671954813048
0.230365050865497301
0.0758075373864942614
0.0574685791415537328
0.0458208205715025588
0.999996485662322021
0.999996057339781474
0.999995210119094535
0.999993766248506666
0.999990925788908136
0.999987136988512271
0.999979304542468972
0.99996522017343703
0.999935789914631723
0.999883120518455626
0.99977905118832977
0.902024678198901531
0.22220303282882492
0.0645630676682610871
0.0538207152387147891
0.064217272702640868
0.999990111595143505
0.999989050136042001
0.999986834279006143
0.999983189255047256
0.999976082806008026
0.99996742557082019
0.999949212705923407
0.999919335587285074
0.999858772983768018
0.999752645267447559
0.999561959552695112
0.858090405598977868
0.268164465535958185
0.05427562023318383
0.044170893919205631
0.0630355997349859032
0.999973719755335333
0.999971230050145765
0.99996578844289119
0.999957147265371438
0.99994042331315125
0.999922012768230895
0.999882048415309699
0.999821810411758771
0.999704443396407516
0.999523433832445463
0.999148713532611588
0.923889476405407417
0.230572134302362175
0.0444730655171052744
0.0367198890196700212
0.0568783943556562532
0.999933560807991673
0.999927973692584793
0.999915359197306453
0.99989598333617602
0.999858730193366574
0.999822257565647687
0.999738265785652502
0.999622600271523831
0.999413303440649381
0.999078235349980082
0.998516213243185735
0.460123213086197136
0.14210956116054993
0.036880734180091114
0.0278120533965148728
0.0332458377114085851
0.999839315630727477
0.999827191377412938
0.999799537749921918
0.999758232008356784
0.999679435712275133
0.999612057263920439
0.999444856183734021
0.999228105472006689
0.998849952500229787
0.998373779274723816
0.997168905986168586
0.60521874082741367
0.0403451057952854825
0.0278221835237687579
0.0172564932040973409
0.0191315473045734312
0.999626447353537229
0.999600645068241977
0.999543234394867586
0.999458812181288403
0.999299914154409219
0.999183380567181034
0.998864556508721746
0.998491205138586357
0.99779283934704055
0.997046469487753884
0.995076931182465652
0.525013135156544575
0.0282442006912277666
0.0160166070554397591
0.00698036724648853045
0.0134032253702272286
0.999999999998687938
0.999999999998687938
0.999999999998229416
0.999999999997444933
0.999999999996325717
0.999999999993844924
0.999999999987732702
0.999999999972004061
0.999999999929760408
0.999999999807650308
0.999999999363504033
0.980196895652173827
0.979179061374175985
0.756023540982420639
0.219108768571638746
0.199204451242291997
0.999999999998338662
0.999999999998333
0.999999999997696176
0.999999999997007727
0.999999999995526578
0.999999999995841327
0.999999999980695442
0.999999999931050709
0.999999999807750894
0.999999999363523573
0.999999998174966986
0.973582694876653498
0.968446768678766445
0.731102868665698624
0.274767666492078177
0.168994051177291577
0.999999999986729726
0.999999999980440979
0.999999999975819343
0.999999999964679143
0.999999999942161488
0.999999999898928849
0.999999999765456504
0.999999999295396735
0.999999997997987666
0.999999993515824581
0.999999983239285184
0.97002686585171416
0.883473298215352143
0.555667426654997687
0.169409069957594971
0.13894583825587889
0.999999999873953827
0.999999999805824658
0.999999999758093727
0.999999999641529969
0.999999999411851581
0.999999998893566167
0.999999997681448871
0.999999994277961046
0.99999998510567345
0.999999954987226047
0.999999887620880434
0.962725517129844888
0.839039569044909506
0.394554314513277382
0.145840539284836979
0.0815343468555518175
0.999999999117895277
0.999999998675296875
0.999999998351624897
0.999999997564334997
0.999999996077754805
0.999999992656473324
0.999999985325151663
0.999999967494937581
0.999999921235368294
0.999999779201015682
0.99999946585469579
0.960676036036593906
0.771185168956195266
0.268992059791913374
0.117510664621248678
0.0795293463119608052
0.999999995164415845
0.999999992898070955
0.999999991236887875
0.999999987152854652
0.999999979811027728
0.999999962943693532
0.99999992895200096
0.999999854762028129
0.999999671876476426
0.999999138861543013
0.999997984938302276
0.947310785161155522
0.606522351855759867
0.141369027772556222
0.10739556961362326
0.081300767906926974
0.999999977841572241
0.999999968047152299
0.999999961048301911
0.999999943462871688
0.999999913567596099
0.99999984515455087
0.999999715344366713
0.999999455103260049
0.999998850238472237
0.999997167553089428
0.999993586751513952
0.934348657496718138
0.463679569169187511
0.124864632309416745
0.093975568609361626
0.0696626668312252395
0.999999911637032501
0.999999874527770727
0.999999849226200888
0.999999783608904513
0.999999678731038788
0.999999438978728117
0.999999013109119095
0.999998215092513076
0.999996469488875439
0.99999181923831082
0.999982130065953045
0.918858299532770983
0.432833093911299149
0.108432341946145538
0.0777325173662287705
0.0532201071045014656
0.999999684959969382
0.999999558548282264
0.999999477780596835
0.999999259284860442
0.999998933301636028
0.999998183673717511
0.999996950489747349
0.999994766134554514
0.999990223287683611
0.9999786655397227
0.999955240831252534
0.912473244839866138
0.39288036712645974
0.0934454857475020551
0.0648062967952152402
0.0458331687948129313
0.999998975649596389
0.999998581010792753
0.99999834890143946
0.999997686125105867
0.999996770998362816
0.999994633014900547
0.999991419002400628
0.999986018740460336
0.999975175396511373
0.999948788894039264
0.99989706196929784
0.900078143627875082
0.296209638757846172
0.0790927481737720706
0.057981131141490061
0.04540722395071628
0.999996915707066614
0.999995771147933588
0.999995163055354075
0.999993304538668859
0.99999095458310916
0.999985313461976943
0.999977612016065054
0.999965379607942628
0.999941398929678815
0.99988451662003186
0.999778829975679573
0.823667263887746137
0.253349039008026744
0.0679695653026672481
0.0557834621862255409
0.065721748424216242
0.999991299934554378
0.999988184753684228
0.999986720246291094
0.999981848973513943
0.999976277181212958
0.999962343393541842
0.999945479403310022
0.999919090197049609
0.999869619191491088
0.999754396658007138
0.999545786036905914
0.741243476793383538
0.167537867790922557
0.057181794794224354
0.0466830668515000463
0.0654014112547275928
0.99997680106335296
0.999968780588831319
0.999965521927162815
0.999953486890832632
0.999941221888056564
0.999908634310506583
0.999874605886599044
0.999822865277304018
0.999721580595215764
0.999501753923979219
0.999118115005873553
0.744895894744451059
0.103515040850906154
0.047381950602749176
0.0372429802832789231
0.0601412895776225892
0.999941093888598975
0.999921437895214704
0.999914727719505736
0.999886526059892256
0.999861392679010086
0.999788844031897495
0.999724824083827457
0.999630367399835906
0.999443123662872024
0.999020742053561506
0.998359854723152029
0.655334066816568139
0.084097780848067738
0.0396385078770155191
0.0299895036541953063
0.0409141544336273782
0.999856720323305082
0.999810672881073614
0.999797934088122675
0.999735039672407177
0.999687193674733576
0.999532765101600607
0.999422228922698941
0.99925587599808996
0.99893100156005088
0.998188285064175673
0.997064408052572348
0.712698206229636533
0.0494893864311219539
0.0308169103776254338
0.0202413069254443155
0.0246655756510617274
0.999664460754176698
0.999560975110381666
0.999538778116887183
0.999404703273593431
0.999320244816361392
0.999004113902821622
0.998831195202636746
0.998552910426205198
0.997994034777483607
0.996760777143868681
0.99491105862572804
0.614330038178669158
0.0482269577051307186
0.0160343566374788436
0.00878305695630760344
0.0286167420478912263
0.999999999998793854
0.999999999998459788
0.999999999998011369
0.999999999997492894
0.999999999996497024
0.999999999994174438
0.999999999988503419
0.999999999973936848
0.999999999933029238
0.99999999980652321
0.999999999340336787
0.978735749772671526
0.975835830863243547
0.735389080888610991
0.211811986053605961
0.198417181205145232
0.999999999998013367
0.999999999998025579
0.999999999997731925
0.999999999997129407
0.999999999995768052
0.999999999996155853
0.999999999981930565
0.9999999999339102
0.999999999806586604
0.999999999340354218
0.999999998061636419
0.967934793138140237
0.943728729951544998
0.725917988476414644
0.212364781274445469
0.169705627563440764
0.999999999981771248
0.999999999980445198
0.999999999976488585
0.999999999966902031
0.999999999944997553
0.99999999990631161
0.999999999782494764
0.999999999317184751
0.99999999793497496
0.999999993245128893
0.999999982165957979
0.96162404734482998
0.865398121783809593
0.533986937728293198
0.169891286410732034
0.140926830359547645
0.999999999829484842
0.999999999811243434
0.999999999764664249
0.999999999665025618
0.999999999439170395
0.99999999897416425
0.999999997842389021
0.999999994438762307
0.999999984502257799
0.999999953000503483
0.999999881640194044
0.942943015631576342
0.849410345466619199
0.38683173551126987
0.147317759479311861
0.0802717758500932216
0.999999998805822687
0.999999998728702821
0.99999999839447562
0.99999999773064796
0.999999996246824452
0.999999993204992776
0.999999986302834043
0.99999996822854631
0.999999917270639527
0.999999769022291596
0.999999443596366611
0.946014990738047401
0.760097534385278717
0.241857578180235289
0.119058480417496101
0.0893239386988617795
0.999999993448378977
0.999999993266955656
0.999999991449060488
0.99999998806955559
0.999999980610771444
0.999999965818261449
0.999999933464883473
0.999999857027616956
0.999999652017438123
0.999999098076006732
0.999997921358264152
0.957937598870496565
0.662485723290342499
0.142920590128605168
0.110152774391486366
0.0850952870317033261
0.999999969956142154
0.999999970070553301
0.999999961896686829
0.999999947691596169
0.999999916637902331
0.999999857721256546
0.999999732807212771
0.999999458914428985
0.999998768294118268
0.999997032406420017
0.999993432203586829
0.953927772398181606
0.547917002925219387
0.127104520383893471
0.0953493799641683126
0.0715501422677609633
0.999999880144876396
0.999999883870574813
0.999999852032795844
0.99999980059609439
0.999999688657975838
0.99999948663222249
0.999999071050357458
0.999998214716932621
0.999996173114142684
0.999991437832925545
0.999981778529481224
0.945784980796787966
0.433040148735615527
0.110332698409841376
0.0801514848885517828
0.0583864001461171858
0.999999572726923636
0.999999596221893494
0.999999485524546761
0.999999320443531792
0.99999896065388072
0.999998344954636353
0.999997116992380919
0.999994730607817184
0.999989305148404783
0.999977749178473152
0.999954424374177697
0.911530878836695257
0.310608096495683161
0.0952756934149051188
0.0679588996699460879
0.0491282650523530567
0.999998611455745534
0.999998717039641605
0.999998366343833656
0.999997887359492466
0.999996835264532757
0.999995139209378436
0.999991810841871942
0.999985780412989911
0.999972551646457042
0.999946618093330297
0.999895095990281368
0.854501289811881226
0.297316064703850191
0.0809560514117862451
0.059538307086485269
0.0449371046861298529
0.999995823549607143
0.999996218807426729
0.9999951919480774
0.999993918138305515
0.999991075580709765
0.999986788873439836
0.999978574314510538
0.999964096229113197
0.999934311832928913
0.99988048647210559
0.999772557889893942
0.855526063341617737
0.258924901342346914
0.0699756270490288074
0.0576190208222517042
0.0729565793247001909
0.999988240170563758
0.999989545333014318
0.999986736792691233
0.999983600671346062
0.999976428874505441
0.999966336264301203
0.999947482682109756
0.999916332564273813
0.999850121156101501
0.999747441744668341
0.999536425595898725
0.837041008527090069
0.232481831348046453
0.05842408876135715
0.0468966293906264153
0.0692666415011333192
0.999968724149194466
0.999972638074422493
0.99996540686969948
0.999958204177245236
0.999941162930364946
0.999918925790526769
0.999877784819564353
0.999815532701088916
0.99968400047151329
0.999487367758819634
0.99910027501589771
0.773841350867817135
0.165138879875926348
0.0482171186502616742
0.0385766598453293474
0.0630444452871062599
0.999920868418817443
0.999931715366636387
0.99991409668016662
0.999898573579921068
0.999860199506480862
0.999814053816248438
0.999729037519478059
0.999609205378337418
0.9993637914526462
0.999028546501703918
0.998323680896515797
0.599341880428931661
0.0959153582886071998
0.0410508552129835308
0.0300760320812523754
0.0437425919873863991
0.999808419047709007
0.999836532345256934
0.99979581975610321
0.999764308014663872
0.999682156913138664
0.99959162149441938
0.999424776639550427
0.9992067771687968
0.998756857754206528
0.998232579205602155
0.996988186272454335
0.691295353803946577
0.0467357781741846862
0.0313732517277724998
0.0212804125877070864
0.027689692919488175
0.999553939432815897
0.999622634508994912
0.999533267419114191
0.999472498202377269
0.999304578480234351
0.999135292967076816
0.998822690436780292
0.998445467681756238
0.997651723719178651
0.996866504869576175
0.994747519036119132
0.62892074700508549
0.0433953295376480058
0.0146367272806150837
0.00968922340370794236
0.0244574475447850853
0.99999999999889988
0.999999999998770317
0.999999999998278377
0.999999999997464917
0.999999999996278088
0.999999999993887445
0.999999999987877697
0.999999999972228659
0.999999999929388927
0.999999999800970762
0.999999999330332789
0.979176123832715017
0.976989484135313613
0.74270036586203525
0.214789387040836305
0.200868146924147062
0.999999999998308686
0.99999999999825484
0.999999999997719491
0.999999999996948663
0.999999999995546451
0.999999999996039057
0.99999999998037592
0.999999999930020866
0.999999999801001849
0.999999999330348888
0.999999997988052947
0.963909389933554683
0.929056771464931597
0.722195669331944012
0.221169613296223644
0.175871482369380328
0.99999999998586464
0.999999999979166221
0.99999999997488942
0.999999999964776953
0.999999999942709827
0.999999999900767267
0.999999999766765235
0.999999999281266927
0.999999997896011905
0.999999993166200363
0.999999981324152354
0.95473478899501929
0.865657651578640053
0.536385202621226354
0.175184128081550761
0.141590784119027063
0.999999999869013889
0.99999999979424814
0.999999999748935497
0.999999999643546911
0.999999999416585572
0.999999998906750731
0.999999997686712661
0.999999994175552187
0.999999984266694786
0.999999952462824915
0.999999876561982415
0.936546401948676444
0.847782328294548693
0.384215987341850362
0.14876001617975626
0.0779938939613608329
0.999999999082356705
0.999999998596336925
0.999999998290251657
0.99999999758476843
0.999999996101546884
0.999999992723184405
0.99999998528721934
0.999999966828705955
0.999999916385206244
0.99999976646508415
0.999999422930220927
0.944381687973063877
0.768623533364942491
0.242018927968920161
0.121574174230831028
0.0981774187509078244
0.999999994964277272
0.999999992465647747
0.999999990918454484
0.999999987294664217
0.999999979892170709
0.999999963220450372
0.999999928419220696
0.999999851166869846
0.999999649915560118
0.999999088368812905
0.999997853785212554
0.952264733537480201
0.630511070741978985
0.143980960557779758
0.11143781915878026
0.0862323278402578608
0.999999976898690579
0.999999966072210755
0.999999959668488092
0.99999994424424421
0.999999913697131593
0.999999846122468283
0.99999971232917062
0.999999438549343922