/*--------------------------------*- C++ -*----------------------------------*\
| =========                 |                                                 |
| \\      /  F ield         | OpenFOAM: The Open Source CFD Toolbox           |
|  \\    /   O peration     | Version:  2206                                  |
|   \\  /    A nd           | Website:  www.openfoam.com                      |
|    \\/     M anipulation  |                                                 |
\*---------------------------------------------------------------------------*/
FoamFile
{
    version     2.0;
    format      ascii;
    arch        "LSB;label=32;scalar=64";
    class       surfaceVectorField;
    location    "0.0899999999999999967";
    object      Uf;
}
// * * * * * * * * * * * * * * * * * * * * * * * * * * * * * * * * * * * * * //

dimensions      [0 1 -1 0 0 0 0];

internalField   nonuniform List<vector> 
20789
(
(0.0544023650932422068 -0.0124483808112420616 -0.00215899856358729627)
(0.0270564802174900407 -0.0242075479061385525 -0.00206739756093733337)
(0.0269881628303472038 -0.0118626056485884018 -0.00200218909061882291)
(0.0270525704683435841 -0.0118709400202796633 -0.00205962696785585379)
(0.113326466131714584 -0.013150808668172637 -0.00247023947727305045)
(0.0830818074251693794 -0.0262231003280208839 -0.00230775999968865168)
(0.0830523543514913865 -0.0130232449305366059 -0.00224444512776885525)
(0.0832550939021498154 -0.0130347910199249597 -0.00231353924120617773)
(0.173205356587151971 -0.0136157547392858624 -0.00294160222927790718)
(0.141781178132968061 -0.0266524727967862758 -0.00267522569270057468)
(0.142296206829911426 -0.0132646851335479123 -0.00260869674648166704)
(0.142663199849899003 -0.0132790419197662476 -0.00268784187959334592)
(0.236090975109257056 -0.0144314596087853908 -0.0036350527315404447)
(0.202812575751217028 -0.0279930776133064697 -0.0032414501300517839)
(0.204352774176395635 -0.0139501406712161449 -0.00317244606139773736)
(0.204929913557822696 -0.0139690944723895507 -0.00326014064235176024)
(0.30325448545576239 -0.0155884274202060524 -0.0046149271726656756)
(0.26683441036518335 -0.0298974362891334805 -0.00405318987282611825)
(0.268615891833759335 -0.0148910003613832755 -0.00398116972884657826)
(0.269455766241077144 -0.0149166836226417576 -0.00407499709440880924)
(0.376661497647653276 -0.0172382169287876412 -0.00599299922618250908)
(0.336552196890793187 -0.0326735781559791549 -0.00519237897995277614)
(0.338699772662273468 -0.0162550490244875064 -0.00511778882663624281)
(0.339901419911602665 -0.0162911344119056264 -0.00521411518056163776)
(0.458671133458318558 -0.0193691911876708381 -0.00791010841117712957)
(0.412745663857277623 -0.036486418808194622 -0.00679106360519217758)
(0.415131149273577527 -0.0181747636773017182 -0.00672710660416164872)
(0.416827843946878052 -0.0182291555259336824 -0.00680235480802571929)
(0.551253583732559282 -0.0221500064103758616 -0.0106261577035178731)
(0.500772248325122016 -0.0411725393600201259 -0.00900426247071074368)
(0.504393884380922697 -0.0204906682898321098 -0.00894300810529023715)
(0.506858606142912227 -0.020571011607831334 -0.00899249010025342417)
(0.658486975206860503 -0.0263204544544916978 -0.0145000375455556947)
(0.592679530491643791 -0.0475538788575525992 -0.0121722772567207024)
(0.595217828947697036 -0.0236992331231296455 -0.0122383434993599167)
(0.598667705381397353 -0.0238408671091397059 -0.012027502620056172)
(0.787348932783000111 -0.0292653902989801623 -0.0198653497581431568)
(0.721057001186084845 -0.0571260445284997795 -0.0165982883139934624)
(0.728270121895148614 -0.0286740263481926119 -0.0167137420926461375)
(0.733638933769548363 -0.0289315197797006644 -0.0164218294660017361)
(0.927044250107830869 -0.0374462219435860721 -0.0294500125653089015)
(0.818698902286970176 -0.0611739686558081808 -0.0229158465234453913)
(0.820104505664374317 -0.0296366565479422688 -0.0236861102979245806)
(0.82722411939428242 -0.0302730831868324793 -0.0218602752508013712)
(1.12373984650557013 -0.0532325972710838355 -0.0444448318728801264)
(0.97450378207103372 -0.0857469641948669786 -0.0344192029473244093)
(0.975714982394059072 -0.0442325715341397308 -0.0372475471089794979)
(0.988331814393254238 -0.0446882767524807503 -0.0339006679094518981)
(1.37280477528221634 -0.0542068601768446873 -0.0834751471783809068)
(1.20710938769778475 -0.103674702181688977 -0.0531019669385664403)
(1.21388072375214451 -0.0589295532204369768 -0.0598190866896757961)
(1.23029023011288974 -0.0630117517918218767 -0.0457771940650802539)
(1.54854757278126698 -0.0123422094989966927 -0.181459690942558538)
(1.46163209083918377 -0.0692056970515251002 -0.118826892817196689)
(1.4518418338204746 -0.0449899112793968256 -0.124366515358822552)
(1.48799206924896388 -0.0523999357366092544 -0.106561968134054955)
(1.34496378388345095 0.0811650998109392507 -0.576712429681448091)
(1.60013542995865476 0.0838293877675092558 -0.306179885157091158)
(1.52876135797925383 0.0266588463603241697 -0.258778202997164697)
(1.71560072341347247 -0.00917803443913889523 -0.272082973675268791)
(1.34445937506987567 0.333537082138448793 -1.0751255376528801)
(1.23083699313500405 0.154650223434122103 -0.651733836683612844)
(1.59046919866040759 0.0977949108811469459 -1.18018315694995946)
(0.0546053246202855488 -0.0375823151598253594 -0.00221615899703868878)
(0.0270991450624856745 -0.0485103773287938467 -0.00212068167035165452)
(0.0270602359530216635 -0.036026990001401013 -0.00206268067050074857)
(0.0271261869709791305 -0.0360529396571508329 -0.00212995964799295558)
(0.112361504536585069 -0.0393443847563695395 -0.0025127462151161759)
(0.0827633754169853908 -0.0519311967262750113 -0.00234680078691864268)
(0.0829086318606779421 -0.0391055603112923297 -0.00228514633557053192)
(0.0831144822193288918 -0.0391410162374468962 -0.00236211814506084037)
(0.170728471164739382 -0.0405727132448936156 -0.00297507359347445183)
(0.140472262737493636 -0.052636745036494556 -0.00270539935355107713)
(0.140899355425693651 -0.0395429610647848734 -0.00264157920335004234)
(0.141270966495984529 -0.0395848216984218959 -0.00272795431806456285)
(0.232180097803151797 -0.0430673863986652458 -0.00365958727133745701)
(0.200163475183940925 -0.055353052122190459 -0.0032621590666036095)
(0.200699287689709349 -0.0415532163235052057 -0.00319562943497544083)
(0.201271823258606569 -0.0416068117017221878 -0.00329144941480119177)
(0.298400978600785072 -0.0466254709651920674 -0.00463064168011322053)
(0.26355355535121594 -0.0593815698350555685 -0.00406455215412307707)
(0.264216720739707034 -0.0445169390421406366 -0.00399481894095731014)
(0.265048787263705066 -0.0445895241156061412 -0.00409960906397922008)
(0.370759246514480501 -0.0514764889182830823 -0.00599044335896244725)
(0.332368619771265639 -0.0648881023463660223 -0.00519119976563259082)
(0.333206129352347169 -0.0486434092595245393 -0.00511961104023424263)
(0.334389901109886256 -0.0487465521365480978 -0.00522978321956723505)
(0.450888316795751587 -0.0578208422262507724 -0.0078852176647257969)
(0.407620718455063591 -0.0721491789528349442 -0.00676194332020764802)
(0.408656958857063379 -0.0541754921147512628 -0.0066974077721624857)
(0.410327281295217505 -0.0543297499313726978 -0.0067968090151230608)
(0.541947307910605858 -0.0659222769282897247 -0.0105503820239135696)
(0.493468893226317595 -0.0816676606787762605 -0.00893999585506372735)
(0.494663519990541922 -0.0612578930833063973 -0.00890385538212930781)
(0.497038141295769342 -0.0614931011117599222 -0.00895262825529998321)
(0.645197719308165607 -0.0778236656050240727 -0.014270528025158458)
(0.585090482135771972 -0.0933746478277253794 -0.0120077766026722727)
(0.586572962482423521 -0.0702668131582180749 -0.012083665463584763)
(0.589942654764880281 -0.0706561059494508759 -0.0119468654205076644)
(0.770365253520792215 -0.0885180201936647815 -0.0196487850792957039)
(0.706792983557951393 -0.112510945021571759 -0.0162177187135741988)
(0.708335034883016523 -0.0847100798039565617 -0.0165000291572833524)
(0.713249980646148418 -0.0854447790217182646 -0.0160093073301849353)
(0.911775027504320379 -0.109796204863084085 -0.0278850369054608992)
(0.806808603397054513 -0.123175082360468022 -0.0224271995453392756)
(0.809213533415612862 -0.0916290950421419365 -0.0235269457882181059)
(0.815862137797093823 -0.0930221985973800625 -0.0218308443769935842)
(1.09698673097778099 -0.145053371132932402 -0.0430763380130107301)
(0.960393742275742035 -0.165660796598718602 -0.0316335761775052085)
(0.962513850235641066 -0.124829308839804254 -0.0351756479126170141)
(0.972002409551775637 -0.127631430460430378 -0.0303700750704878862)
(1.33900687181255917 -0.141814034899241381 -0.0884537125773821042)
(1.18654714155074448 -0.207914074255467818 -0.0533492459572630501)
(1.17924241779660788 -0.157418261494552209 -0.056337041024742969)
(1.19867486122206657 -0.166707566029743515 -0.0496865172134810518)
(1.54366898559909904 -0.0174403873913258484 -0.24354708703172967)
(1.4446935428542842 -0.156634329792177035 -0.133286835801960601)
(1.42823374837300232 -0.110656442121345955 -0.12813713537178989)
(1.46214315635179237 -0.137292287796137086 -0.121072831321485067)
(1.47136468370992679 0.29570194506053421 -0.804592993128521172)
(1.56636863727139941 0.088070221669900528 -0.395128009743905606)
(1.52720449958652771 0.102479749875368356 -0.343554644592131198)
(1.74191280972817708 0.00161614129779325054 -0.399343233654470886)
(1.37847770170687656 0.711917208367455978 -1.30775240140987981)
(1.38124053693678839 0.537814483643859198 -0.933380027207273311)
(1.73704630858013309 0.380070769761607308 -1.48449803571993688)
(0.0546284847154957162 -0.0625613338123187368 -0.00225132346023160842)
(0.0270255716729873342 -0.0728283218881153743 -0.00214814501559327815)
(0.0270720036188328017 -0.0605145274281859158 -0.00209515344902025044)
(0.0271391393832478359 -0.0605590968149334261 -0.0021721537144159162)
(0.111309231204057751 -0.0650365154092037295 -0.00253945392535354433)
(0.0820942934862605722 -0.0771655398907896695 -0.00236582780789823359)
(0.0824128571504345181 -0.064553977018920003 -0.00231072048220125033)
(0.0826204122616471665 -0.0646127091740294202 -0.00239621118176935139)
(0.169338134637430082 -0.0671782619192404784 -0.0029924848266802348)
(0.139001374008377032 -0.0784749497919219052 -0.00271450540971960273)
(0.139675583053469832 -0.0654524715758067338 -0.00265814021732604412)
(0.140047659344427922 -0.0655214955604609961 -0.00275296894075880913)
(0.230382208596471183 -0.0713992664258977228 -0.00366712394938922999)
(0.198124756816482672 -0.0825368641224395044 -0.00325997304205383458)
(0.1990578517794859 -0.0688224298204863499 -0.00320222231599324048)
(0.199629871467773695 -0.0689103304437355957 -0.00330807958619798665)
(0.295981049239019911 -0.0773616117740271586 -0.0046251102396424491)
(0.260849049673514577 -0.0885957444982573145 -0.00404826239221266464)
(0.262061947208536761 -0.0738684677535077355 -0.00398918774491083521)
(0.262890961347993224 -0.073987423719585943 -0.00410708011887349431)
(0.367563464739232681 -0.0852840778219015327 -0.00596269972687779332)
(0.328796187529420192 -0.0967664330195722594 -0.00515356541372418223)
(0.330350466929268227 -0.080704538141596685 -0.00509553520401470096)
(0.331524480034637914 -0.0808727776344529137 -0.00522305910514403882)
(0.446821459688673428 -0.0957054016185996809 -0.00781672151054557847)
(0.402929026372561505 -0.107436265917294008 -0.00668648487468246396)
(0.404912038834246202 -0.0896447795644798595 -0.0066411555300666435)
(0.406557933826571127 -0.0898929988838106653 -0.00676357594672439243)
(0.536389297478676363 -0.10883208981223734 -0.0103973904338224288)
(0.487494467143747778 -0.121520377172622915 -0.0087999091326651218)
(0.489867466983209821 -0.101430505996147849 -0.00878472904317339001)
(0.492188874982431912 -0.10180864357622553 -0.00887420448753188131)
(0.638250990419535036 -0.127730078982010054 -0.01395496729108801)
(0.576883702679857002 -0.13859320313686499 -0.0117267092589088424)
(0.580145029138070756 -0.115722494937624057 -0.0118614811298337168)
(0.583386249701215664 -0.116323468548284473 -0.011754687766956113)
(0.758809020629098496 -0.146944488287696545 -0.0189961331796177635)
(0.697057637347644254 -0.165921994712122961 -0.0157285743675069888)
(0.7000987451375702 -0.138768338962835219 -0.0159900090355435814)
(0.704751045567854173 -0.139898873874249458 -0.0156489860028970786)
(0.897880997375078982 -0.180484454579595333 -0.0261757388173835641)
(0.792312942170206203 -0.184035257139153585 -0.0212874446097301093)
(0.796740432435660062 -0.153957478125386099 -0.0228418136497893776)
(0.803017759976840662 -0.155622072417559876 -0.0209420506289152847)
(1.0860212268950018 -0.233279874112469449 -0.0419064841217576256)
(0.941695103265185018 -0.247097970935617389 -0.0291817303248926088)
(0.949080809078445053 -0.20241297089672336 -0.0324931083782142513)
(0.956382788045282872 -0.207967529539183155 -0.0281312662866415666)
(1.32876959677044471 -0.227153205288684101 -0.0981823691818415056)
(1.17445318188254166 -0.311935321103647578 -0.0541266965662833763)
(1.17481380323333262 -0.252783078831448793 -0.0573734065696056492)
(1.19072426258135944 -0.266030879239551155 -0.0496393323828429253)
(1.48801240838364879 -0.055275606934874856 -0.284867758514137259)
(1.43820437200339302 -0.22685321559211985 -0.158079550682274111)
(1.41563805978088819 -0.174921163481874919 -0.145975066602087394)
(1.46476896990070782 -0.233596563996068207 -0.144863769584658159)
(1.35677997651911131 0.477502994746557996 -0.898287418025264239)
(1.4888290820678205 0.0910007859766132216 -0.452499397128935721)
(1.45037964197416769 0.126201836841167259 -0.388167393566797858)
(1.73217857766566885 -0.0183053997722767009 -0.498956867865045228)
(1.21523580601772774 1.02671839777739327 -1.39238260428336869)
(1.2339589679989138 0.914608662752950829 -1.03454480649761837)
(1.58527778178911238 0.677893777060278313 -1.61096752285877787)
(0.0542924140987898832 -0.0871708438535112873 -0.00226264936325990375)
(0.0267852971019900063 -0.0970020851988555866 -0.00215369838965965297)
(0.0269121054866171237 -0.0848075086922320531 -0.00210468138338787978)
(0.0269798083497414069 -0.0848706638807578823 -0.00219207298653916827)
(0.109910566809208465 -0.0903556361681816939 -0.00254087929226429242)
(0.0810867016083093861 -0.101932314077121042 -0.00236150229069676497)
(0.0815695788104506686 -0.0894575728272069132 -0.00231169085726601938)
(0.0817771516427957396 -0.0895380371883965909 -0.00240659610705348456)
(0.167289292494842007 -0.093576687213284937 -0.00298199362509320295)
(0.137055559696948215 -0.104029202001596308 -0.00269902655029859119)
(0.137958922774719689 -0.0911607256300181468 -0.00264848251655717482)
(0.138328465440796411 -0.0912560743574523936 -0.00275336523965396835)
(0.227618671827614194 -0.0994664143553420088 -0.00364111148487727097)
(0.195336087428749777 -0.109408720479824501 -0.00322953871560176372)
(0.19662635311880447 -0.0958782278707868418 -0.00317867236405465622)
(0.197192373653668651 -0.0960000750424846172 -0.0032959281417163323)
(0.292292596871528088 -0.107730578320896428 -0.0045767175662943969)
(0.257104898760308509 -0.117405895891015938 -0.00399707035284708155)
(0.258817817795116922 -0.102903848893923094 -0.00394625656883057421)
(0.259634880549984459 -0.103068547565046395 -0.00407828335821655737)
(0.362714986767664171 -0.118650293415126951 -0.0058773505615288546)
(0.323867820614276714 -0.128138318775690957 -0.00507068802156622044)
(0.326081868623049553 -0.112348542822764672 -0.00502305678096633991)
(0.327231973373072305 -0.112579644870181447 -0.00516886825610738277)
(0.440579301272253587 -0.132974349548525883 -0.00766967249680200816)
(0.396477279689467721 -0.142117221355132967 -0.00654941286311689491)
(0.399315532929081562 -0.124650469038437905 -0.00651735262485615176)
(0.40091608508664478 -0.124989317350841289 -0.00666637314178656661)
(0.528035805959258253 -0.151029378422896987 -0.0101292279577515389)
(0.479285302985382633 -0.160457115172525921 -0.00858021202812358358)
(0.482786736994064103 -0.140845705344727401 -0.00857610454825977545)
(0.485022160266667945 -0.141344565633048341 -0.0087103609740393946)
(0.627840399970492125 -0.176584748294563776 -0.0135003163353278194)
(0.56559589840542468 -0.182926788104213145 -0.0113155068718434702)
(0.570340362777330023 -0.160518868124104486 -0.0114824442044600527)
(0.573385234281083345 -0.161335339081112139 -0.0114342114146397909)
(0.744574723194833976 -0.203052957240494381 -0.0180198857976193241)
(0.684679159880497989 -0.217698198596657816 -0.0151340857503331622)
(0.689098201964917112 -0.191424119861920261 -0.0153798038351114601)
(0.693467650010542336 -0.192781867555184283 -0.0151679670688193591)
(0.878359906089506315 -0.251099570313072784 -0.0242934361172391054)
(0.772642717505700349 -0.242637524230103124 -0.019706886344029402)
(0.780689393991981562 -0.213088670009030923 -0.0213828645076327845)
(0.786143680013354218 -0.21529054063860964 -0.0196667695313878892)
(1.06830115609435916 -0.327372722901582702 -0.0414019427694184428)
(0.915885821957127311 -0.329510990372728241 -0.027022211653256141)
(0.926304484665729122 -0.284329414904419819 -0.0298896085018642323)
(0.933295815861181044 -0.290268189707671598 -0.0258786005603631325)
(1.31209200581327745 -0.315942125964719489 -0.114023878066716045)
(1.15469550566474366 -0.414766120630087609 -0.0566348853368661004)
(1.15805514744365912 -0.356494181606058558 -0.0602616722453793857)
(1.17089199084056683 -0.376807116254387398 -0.0492199715822386613)
(1.43784752229314727 -0.0908060453255556677 -0.325711189297072823)
(1.39662225243433813 -0.284454750140054002 -0.192945943335769143)
(1.39887296487972446 -0.23574783690250195 -0.172436905167599491)
(1.44766524885744219 -0.326998620592392653 -0.175856760308334359)
(1.25798331722431112 0.624234850969020871 -0.946594583387041055)
(1.42032158028738276 0.0976814754169725297 -0.508747480110111283)
(1.38367448556683614 0.148150213989376278 -0.439546561297823435)
(1.64049517336430961 -0.0142083772547326181 -0.586062926788079364)
(1.08393888089347712 1.28375922950418531 -1.44286336408226523)
(1.10335514417738745 1.23368662142030772 -1.10141098377849689)
(1.42381864262336677 0.97751784258738339 -1.70553489051127061)
(0.0536230276673288209 -0.111483429581065371 -0.00225255131709651418)
(0.026402921986284307 -0.120884222039259942 -0.00213954997960254332)
(0.0265910612346928962 -0.108854984033723304 -0.00209288573790042398)
(0.0266586134522889436 -0.108936177266969303 -0.00219204731008326844)
(0.108186721250383713 -0.115333404675367415 -0.0025196495487310633)
(0.079765798819961431 -0.126235722646391518 -0.00233641602509477566)
(0.0803986171333249539 -0.114012083951057469 -0.00229038172603214952)
(0.08060443822600874 -0.114113390105955823 -0.00239586595973787777)
(0.164649551947589845 -0.119617388950450154 -0.00294657164080715239)
(0.134654543239629804 -0.129182298487479447 -0.00266164884243729393)
(0.135788471847783837 -0.116534976287709202 -0.00261496130014700606)
(0.136152598880362685 -0.116655490656836128 -0.00273167201403898535)
(0.223990293556697334 -0.127105097884461532 -0.00358549758357157604)
(0.191852693185578654 -0.135847595914233871 -0.00317405418993945343)
(0.193490405679189403 -0.122552542094017003 -0.00312805322920758303)
(0.19404560839631968 -0.122706810934313001 -0.00325814959636888191)
(0.287454454202005216 -0.13756748564876406 -0.00449104080811890422)
(0.252397916913110976 -0.145686270150458513 -0.00391523569965185683)
(0.254592173773366848 -0.131464772398896729 -0.00387016333733998866)
(0.255389701465557339 -0.131672569256538113 -0.00401800802280088097)
(0.356376741814556086 -0.151360834706792846 -0.00574275032315426249)
(0.317677585733932455 -0.158853426892202415 -0.0049483706123267723)
(0.320527764984894326 -0.14340600513269941 -0.00490838844804880083)
(0.321641936664563199 -0.14369588192538682 -0.00507410901195290594)
(0.432369420045237929 -0.16935663974502832 -0.00745995239443846686)
(0.388415764624832072 -0.175982157779836806 -0.00636108201438191547)
(0.392069723375121582 -0.15893817457297682 -0.00633535394624087488)
(0.393612036837340362 -0.159358057002801812 -0.00651604016446731635)
(0.517256563257030955 -0.192223856181963526 -0.00976649094221551661)
(0.468920149454629731 -0.198277145561986057 -0.00829758776842902217)
(0.473556732512310508 -0.179222315300335999 -0.00829885308526812256)
(0.475665012173759283 -0.179821208430923724 -0.00848354709429136565)
(0.614629574970597781 -0.223956666450315395 -0.0129492762868488112)
(0.55193701292195918 -0.226232181819590178 -0.0108108603298328245)
(0.557807198787886538 -0.204369007515071727 -0.0109558090551698396)
(0.560669161074817235 -0.205371408173262021 -0.0110125548511099923)
(0.726037491163095461 -0.257082884382224652 -0.0168210862967432435)
(0.667718559346370588 -0.26718228057686938 -0.0144838348164692283)
(0.67554500898080716 -0.242137199259010255 -0.0146975355641322733)
(0.679554962189690137 -0.243593558647509228 -0.0146360806856722751)
(0.853312365123266359 -0.32137992763703066 -0.0224356618800463994)
(0.747206679881689539 -0.298555988317443344 -0.0179159528095573922)
(0.758217453956853471 -0.270251583046736688 -0.0193664067812271239)
(0.762868898376477755 -0.272669748739546247 -0.0180697521361855087)
(1.04472530818477627 -0.417946866695190045 -0.0422551542207038472)
(0.885614189548696529 -0.412437957765189711 -0.0255880459064882736)
(0.897831149847545862 -0.36770271215105782 -0.0280847186328604705)
(0.903505298369128074 -0.373951899146669708 -0.0237934544886021816)
(1.25877042942157291 -0.390187121096655043 -0.135556950605919269)
(1.12514397952956124 -0.504069867276103367 -0.0615395407324663274)
(1.131667597467231 -0.452850360146026643 -0.0643313569497203641)
(1.14405502735852305 -0.480954684827437695 -0.052676036667919042)
(1.36487199850811125 -0.108706624599342522 -0.375982234148806882)
(1.31987108323365998 -0.334819841089306125 -0.230065930749577541)
(1.33297281777438426 -0.279713276127375843 -0.207209110822725723)
(1.37940749038834731 -0.386034687528554576 -0.213625450695447333)
(1.17984178242420312 0.75307456401467443 -1.00501626080533724)
(1.33905394690106139 0.109512770068309936 -0.566883099435338544)
(1.31102537250212725 0.179185447152288069 -0.499182030408366839)
(1.54341638870219389 -0.00688979975526721883 -0.639987529056497917)
(0.985002344947488062 1.52338284405123647 -1.49485597189388075)
(1.00375400173242646 1.49691572622768576 -1.1701488462251961)
(1.29945865175367925 1.21882080160173434 -1.73965091787144566)
(0.0527021102455627541 -0.135376849630146789 -0.00222341468760080437)
(0.0259076350270201206 -0.14436422482650077 -0.00210787300759603764)
(0.0261472870076383083 -0.132553320261427132 -0.0020612242424729193)
(0.0262140304477764159 -0.132651744997832444 -0.00217472107746503841)
(0.106115582437142281 -0.1398373299432637 -0.00247841531880100586)
(0.0781579110056205978 -0.15003403471584062 -0.00229305790365239058)
(0.0789303601473529959 -0.138076752584026324 -0.00224900521666978725)
(0.0791328096519842011 -0.138197715794653259 -0.00236672598794154896)
(0.16143851938428716 -0.145182924790732276 -0.0028891313915695954)
(0.131805826901916973 -0.153835891157098781 -0.00260506298884629782)
(0.133164274057255061 -0.14145138788736536 -0.0025598072283210347)
(0.133520265339771793 -0.14159538732936347 -0.00269075648704682332)
(0.219537234562093564 -0.15420103704665955 -0.00350379230601973466)
(0.187703842120639119 -0.161741657170412528 -0.00309648656088337953)
(0.189674118607564945 -0.148734983562689826 -0.00305322892219980248)
(0.190214012281610945 -0.148919800137758435 -0.00319773177701354952)
(0.281520873699640461 -0.16674251855992997 -0.00437256550385972491)
(0.246777835738591189 -0.173317741564082972 -0.00380652297699830095)
(0.249429421363560472 -0.15943409744841186 -0.00376442886453466239)
(0.250200451625570475 -0.159682001659967654 -0.0039305149125865935)
(0.348625173520305032 -0.183245872534290283 -0.00556670230355442702)
(0.310294373099930187 -0.188771446936667503 -0.00479143687291059064)
(0.313746492644808472 -0.173735547235637666 -0.00475644221552681649)
(0.314815519343286832 -0.174080215627929136 -0.00494401897134923683)
(0.422319487135602523 -0.204686461223109961 -0.00719871738837247078)
(0.378834877073270959 -0.208844212956449421 -0.00613132178224370591)
(0.383266874117290879 -0.192311675353753597 -0.00610566930342889072)
(0.384740710835704602 -0.192800168157584689 -0.00632360526587137303)
(0.504296434886593925 -0.232030434282765458 -0.00934195715604633353)
(0.456577495214284756 -0.234833802760200022 -0.00795935034119905037)
(0.462200723242121359 -0.216420356118771556 -0.00796057024149905527)
(0.464156089186947785 -0.217114813320520517 -0.00820531921681898029)
(0.597013575281838182 -0.269216808015281528 -0.012345418859453226)
(0.535995947136781226 -0.26753426454279966 -0.0102812255009417305)
(0.543237003489443482 -0.246671092888434307 -0.0103557927153932854)
(0.546012642650169466 -0.247745780771402246 -0.0105444212652026515)
(0.702043067567004409 -0.308742275120097831 -0.0155787013292833839)
(0.646723522767231662 -0.31390511969213275 -0.0137805103235481737)
(0.655581300353823448 -0.290300079848078263 -0.0139655907402761823)
(0.658597905740292866 -0.2917437113761156 -0.0140514142938089684)
(0.824727190486532424 -0.390060758130913288 -0.0210683368359992525)
(0.718121013340590975 -0.352743417757341471 -0.0163814394319054119)
(0.730735794216611834 -0.32544261025070359 -0.0172083185268046661)
(0.735154253373649147 -0.327645050186632758 -0.0165303527228093244)
(1.01282286038246339 -0.499631465455944501 -0.0448724324182508821)
(0.849855391582084563 -0.494009414296808502 -0.0250994093480705477)
(0.864719245399016345 -0.449313512827289097 -0.0269936799180500522)
(0.870176599687542573 -0.456937330413907661 -0.0229401515675311703)
(1.1934976319848738 -0.451089089625495154 -0.15604852087612478)
(1.08004107053952758 -0.579332284695574629 -0.0677636162431907441)
(1.0935376157002239 -0.533359994881208999 -0.0702213178661045545)
(1.10454227257797921 -0.569616899258233111 -0.0601458380513129678)
(1.28024583861315921 -0.121344722628959692 -0.420966796036108981)
(1.23056656021448396 -0.379746925296358118 -0.252326486694388619)
(1.25342489557611958 -0.316687320716636689 -0.240231634219209483)
(1.29794114509540326 -0.427719623260626236 -0.252973993736049174)
(1.09389748404163001 0.874819717608022795 -1.05672281052388306)
(1.24106297890784312 0.12222759811195899 -0.610483876538655656)
(1.22202548643289899 0.208898131641969631 -0.552014591125211007)
(1.42900805714643675 0.0130377250649486211 -0.692225733316597647)
(0.904081901908244889 1.74216895123625526 -1.53204031481042446)
(0.921134448700800523 1.73955870523252187 -1.23225629403049219)
(1.19321717534950866 1.45242361745646598 -1.76703856939367698)
(0.0515721598886946866 -0.158777668364587454 -0.00217751622364762386)
(0.0253166901889529533 -0.167351516525472699 -0.00206089583351680428)
(0.0256001033900609964 -0.155799856678827925 -0.00201085961840609352)
(0.0256653914508973326 -0.155914364384763221 -0.00214334413094959247)
(0.103699010046747961 -0.163801577975889706 -0.0024197055736976821)
(0.0762849084690703227 -0.173267826596689795 -0.00223369443739746334)
(0.0771867761578727829 -0.161607008655035189 -0.00218961531288899575)
(0.0773844297744211984 -0.16174650139398708 -0.00232196938923963326)
(0.157683113184420354 -0.170176421666220323 -0.00281241815816008194)
(0.128527823146547149 -0.177903506893644398 -0.00253185690530188584)
(0.130100862905589781 -0.165822636581204275 -0.00248482389707859082)
(0.130446245505001612 -0.165988163244986026 -0.00263390000271111844)
(0.21430769792633414 -0.180643025396985818 -0.00339921723186194583)
(0.18292584825925659 -0.186988793804295561 -0.00299965583210599126)
(0.185211187384929699 -0.17431914945138377 -0.00295667898795860633)
(0.185731658322074944 -0.174532422659423675 -0.00311768250072491215)
(0.274559792842677675 -0.195129590747741444 -0.00422539434604916799)
(0.240302534455411027 -0.200190604391056848 -0.003674561391344657)
(0.243383459037880112 -0.186695966823113318 -0.00363191850139703547)
(0.244121720565546041 -0.18698045130059443 -0.00381996894894192284)
(0.339548880663443187 -0.214154576887731318 -0.00535605635159987128)
(0.301799883989357587 -0.217760966423638153 -0.00460452002677185813)
(0.305815062139571325 -0.203201116746338672 -0.00457203909009193735)
(0.306832377905228548 -0.203595892920772958 -0.00478284868956188776)
(0.410601209538370981 -0.238781117694215506 -0.00689195473507028551)
(0.367844967387597088 -0.24055367747834544 -0.00586712599858164006)
(0.372993612816482245 -0.224604296425581634 -0.00583667183824395069)
(0.374386469888801754 -0.22515264224361492 -0.00609787328979563385)
(0.489142065397195736 -0.270165549082538925 -0.00889861868609444565)
(0.442472886845426849 -0.269897965685625074 -0.00757177263153281654)
(0.449029297753960721 -0.25223661382210788 -0.00756433075057966892)
(0.450861512483420102 -0.253022851976214658 -0.00787834784721868318)
(0.577423225141039942 -0.312105109518731993 -0.0117163169650366591)
(0.517802326377888367 -0.306947620195899995 -0.00977081099301835634)
(0.526109723936822982 -0.28704813240167748 -0.00974857387272232319)
(0.528722084420907734 -0.288102358257960933 -0.0101027997044656342)
(0.676282614463551202 -0.357923260949009836 -0.0145832484261702085)
(0.623424740387872989 -0.357984557811406201 -0.0129765483571345833)
(0.63404475444731101 -0.335689209681410472 -0.0131728681791136795)
(0.636665044998217522 -0.337129984411220995 -0.0134564791288525141)
(0.791899158352083798 -0.456456750559383229 -0.0204125119439767383)
(0.686813079465573684 -0.404208544064110498 -0.0154204391199002713)
(0.700320983199485325 -0.378324477393855607 -0.0154084631379714093)
(0.705512110094730138 -0.380422690191690838 -0.0155682528192398646)
(0.966074407397628288 -0.57314557348975459 -0.0479905931730106178)
(0.805555149768117595 -0.569859725188600397 -0.0250463531909457769)
(0.824851207996662117 -0.528514351109743652 -0.0262908108957225113)
(0.829131966940569676 -0.536146789852843364 -0.0231687938666311523)