/*--------------------------------*- C++ -*----------------------------------*\
| =========                 |                                                 |
| \\      /  F ield         | OpenFOAM: The Open Source CFD Toolbox           |
|  \\    /   O peration     | Version:  2206                                  |
|   \\  /    A nd           | Website:  www.openfoam.com                      |
|    \\/     M anipulation  |                                                 |
\*---------------------------------------------------------------------------*/
FoamFile
{
    version     2.0;
    format      ascii;
    arch        "LSB;label=32;scalar=64";
    class       volScalarField;
    location    "0.119999999999999996";
    object      p_rgh;
}
// * * * * * * * * * * * * * * * * * * * * * * * * * * * * * * * * * * * * * //

dimensions      [1 -1 -2 0 0 0 0];

internalField   nonuniform List<scalar> 
29184
(
2968.70553612455387
2958.97562701560355
2936.30124182778627
2901.95006232658125
2855.29281225694649
2794.40908827017256
2717.51699577097588
2623.09181712610098
2507.9434688873107
2370.98392742933038
2212.24929772686801
2020.38850781904785
1816.08669843649068
1632.36159193387698
1492.16042580813246
1452.88062210189696
2969.4566715534138
2959.47986238625572
2936.97684216274865
2902.69346699465177
2855.96700428081385
2795.08137791762829
2718.16296308742722
2623.52155514592823
2508.00849399493609
2370.16359729882515
2209.27822851993915
2013.63140847046657
1799.23200899439848
1597.54327883401243
1433.75051447882538
1388.8388226524753
2970.82003596159666
2960.48897095995289
2938.18368504041064
2904.02750172884453
2857.28318618852109
2796.37078403079113
2719.30886211018742
2624.2660399669835
2507.87157455497982
2368.26072820047057
2203.79555666199803
2000.22034453426113
1766.32075442220366
1527.37234589802347
1337.03832651665948
1243.93060117797199
2972.73138120289468
2962.15275746037059
2940.02330156645303
2906.01890209357089
2859.29491453325181
2798.34086189722939
2721.06989832172167
2625.48782625878039
2507.8341597645358
2365.8000282259045
2196.43742823538878
1982.63392107319373
1729.45745506088338
1440.60388346596415
1217.31322215940213
1088.66767632372967
2975.24157009821784
2964.53634743843259
2942.5445888236095
2908.70136237565566
2862.04057125031477
2801.0588593781149
2723.55126495674222
2627.34094923619159
2508.17971550779703
2363.2078987977502
2188.15435748849768
1962.43322718845275
1676.22512300327912
1334.47828547878453
1044.53942420813905
933.511886680963585
2978.40707974553879
2967.64926008379643
2945.79217078757983
2912.12971277137285
2865.58316870762565
2804.61518931404362
2726.89127816723885
2630.03395117520768
2509.23562104159737
2361.10249688545809
2179.97470721928084
1938.75485102001153
1610.63500042802139
1183.82414871786295
849.474981353359908
805.266563074500823
2982.28075893351161
2971.52185717130396
2949.81728488885892
2916.36621844688261
2869.99690869317101
2809.11363143560311
2731.24722050984019
2633.81323793811043
2511.42329370403559
2360.09432719324877
2172.9117215711085
1913.35783154725937
1513.55917158972693
1015.93826211047178
743.120235240948205
696.411486822930897
2986.91543657883449
2976.19410914115042
2954.67325403864925
2921.47806953060808
2875.36488383117194
2814.66708861407824
2736.78941449556942
2638.93651652985909
2515.16582979970508
2360.89299937955866
2167.90692985645455
1905.15851848378384
1434.79394978118421
820.555616391602712
651.909264196133108
662.600972151348628
2992.36405637834287
2981.71128839019548
2960.41340648654568
2927.53150687379184
2881.77046567326988
2821.38734796977224
2743.6842185120795
2645.65997511270052
2520.86816659838632
2364.1505983359275
2166.1452260122237
1891.49659536203785
1395.9205374316698
669.528237861475304
559.01910367775065
571.455752222418937
2998.67297475422492
2988.11684365071005
2967.08726504741662
2934.58785905777177
2889.29140650521867
2829.37803118922966
2752.08488276215894
2654.21386556338348
2528.88730190170736
2370.46573268606426
2168.7573299149235
1877.47412537494233
1327.66925463094094
545.677919465266768
472.624266974329771
504.401977808671177
3005.87496859140583
2995.45358974807141
2974.74852082518009
2942.71268728377936
2898.00580310907071
2838.74207018057041
2762.13675622748224
2664.80249728280933
2539.52448689208177
2380.31616710406934
2176.20702351861655
1884.56087207046335
946.185111861641758
428.198861501828787
390.447213528665316
442.731612091445186
3014.01282920411859
3003.76640739446475
2983.44578980660572
2951.96269439074376
2907.97522550598751
2849.55840270643603
2773.94968987557013
2677.57781246959348
2553.00435257054778
2394.02439743363084
2189.26609384052244
1807.14067182484087
710.795851889660639
346.126424857069878
309.945994029217445
383.070851394428644
3023.18225168843992
3013.06657514995368
2993.13946395889025
2962.29472868410676
2919.15659940880505
2861.77601215872801
2787.48040922410155
2692.51481223589963
2569.35134474835468
2411.92555500085746
2208.89474308165654
1855.50208438476989
529.741386342023361
271.722911010061409
237.440003761342012
301.563372251207056
3033.39211393171445
3023.28969153933804
3003.65254896223405
2973.5441396881256
2931.36481255104854
2875.21407641110136
2802.49094242042247
2709.29908320815957
2588.15254377849487
2434.17246630436193
2233.6002510876715
1712.09078286829367
520.636433475790113
203.695592113879911
171.470094984566288
186.389650643490711
3044.07510953712108
3034.31291140210033
3014.82321538705992
2985.66021844882653
2944.39949056090154
2889.84970310002973
2818.70906334630217
2727.38495017900277
2608.42399615377599
2459.98932703790933
2261.4219043983062
1809.46685273205571
359.712609071360021
139.592563095310254
111.696988159689795
146.210074541901349
3054.00650272871962
3045.75890055009177
3026.43951638582666
2998.59737803467578
2957.9390701116431
2905.6460551078294
2835.63805140412524
2745.95381975614237
2629.11467818441952
2486.72612666916348
2286.83337689832251
1328.52534118626841
297.262959028249952
78.2914433787219508
63.1651339259548763
147.166385913175276
2970.55457497673387
2960.98278751939461
2938.6671433301658
2904.90790099300557
2859.15000120065588
2799.60693527643616
2724.70185103867971
2633.22314166162369
2522.53153295676748
2392.39912191966687
2244.44350341178279
2070.29272711447811
1895.49376696601735
1761.25304085855578
1687.337774964765
1771.52126942146697
2971.29878414495124
2961.48085032992685
2939.3324681611698
2905.6354623989464
2859.80169537030497
2800.24498270197864
2725.29348716061668
2633.56969252303452
2522.45825167666499
2391.35583226498193
2241.07533856847294
2062.76098096689475
1876.59537472143029
1722.67321722656698
1636.08630053476895
1682.56125384761231
2972.64889584564389
2962.47715374244899
2940.52025314628872
2906.94073171294713
2861.07533358286537
2801.46983964926085
2726.33982811093256
2634.16109783331603
2522.07874301237007
2389.07969063495284
2234.9743289035232
2048.16040206189655
1840.16404098133944
1644.02617779486059
1521.42969685131652
1520.31505297913372
2974.54135088823659
2964.12110218814178
2942.33164247473542
2908.89031776816091
2863.02465093045157
2803.34575687094639
2727.95632338784344
2635.16026382934842
2521.69863714488974
2386.08478568375313
2226.76636240226526
2029.33745798070436
1801.68293543903587
1555.07032694373106
1351.50477987132558
1341.9847518461313
2977.02708683302671
2966.47792928935269
2944.81557282574158
2911.51850604685114
2865.68895442860321
2805.94169364283425
2730.25016900287301
2636.72591566548863
2521.60333492662494
2382.80002863616028
2217.41901185374491
2007.2164071561383
1748.47792869700561
1452.42719702133468
1139.75092877412089
1190.76324603157877
2980.16247021833306
2969.55760766913636
2948.01667659675786
2914.88075861578818
2869.13214777416988
2809.35016596396827
2733.36234819560605
2639.07257553427326
2522.12637105128442
2379.85208344171951
2207.93162551857495
1981.47779955632291
1674.72098205556586
1254.73365574452282
990.653788260178203
1034.8868032908008
2984.00030120160045
2973.39097562140978
2951.98600501444116
2919.04023736495174
2873.42944441152122
2813.67785457952277
2737.454008590586
2642.45333320716736
2523.68662746508971
2377.8999046949757
2199.26655675736174
1956.45421565379479
1556.90270081803374
1083.14828081056953
866.533376779209107
914.309579399469271
2988.59362772554732
2978.01873133026356
2956.77655782671081
2924.06553768987669
2878.6649715763765
2819.0414962581649
2742.70056987192493
2647.13434831650284
2526.73164868579943
2377.69997451999734
2192.39045624178152
1946.59157993795156
1472.29924896956118
860.930699204522284
751.480499914703046
778.707534297456846
2993.99640028954991
2983.48721652190625
2962.44121370280982
2930.02482294692209
2884.92293756462368
2825.5576739074213
2749.27337705910622
2653.37946081813925
2531.71225004493044
2379.9157830467816
2188.81864549734291
1905.2193106867478
1374.72052918354188
699.404070413925183
648.915151348653922
672.223509982498285
3000.25741662833707
2989.84093406072407
2969.02923672368752
2936.98155187022394
2892.2822575714913
2833.3354195752504
2757.32847529333958
2661.43435995119034
2539.02433695025502
2385.1099858706998
2190.11275885592386
1921.4117045604421
1387.51194730014345
590.299647284895627
558.213960929861514
601.938668168962863
3007.41379377247631
2997.12317618891029
2976.59603117638153
2945.004596061744
2900.82467673111114
2842.48234159456115
2767.01417927251441
2671.52620754883856
2548.95555381585882
2393.77268572829053
2196.4907270352669
1919.63891039874466
1435.12885506538646
506.253951771951847
466.589292570116868
528.864140924128606
3015.51744430566032
3005.38041481763275
2985.19643153344259
2954.15742581161339
2910.6166556915432
2853.08061729046813
2778.44394316965872
2683.82734422252179
2561.70358829075303
2406.26303398322398
2207.7522306426672
1918.45090448125461
948.661954310372266
404.741410764338809
372.518444704657497
460.670924372228455
3024.68464428118114
3014.6319124136412
2994.79735725072896
2964.39965177010345
2921.6110291501891
2865.0793142872817
2791.57003665059256
2698.3312954915823
2577.37330294355615
2422.95597227904773
2223.06438155909245
1931.75365989104989
580.538398779535328
320.287989911839077
290.072746846597397
392.794905812548109
3034.95623801427382
3024.81423913167373
3005.23654773617136
2975.53678526462136
2933.63532537218452
2878.25984184890285
2806.16408239111843
2714.7538364243951
2595.72745772145936
2444.03712526381332
2243.94228412883149
1506.79406177712917
453.63490545010751
244.210724559262417
217.612029086852573
298.253621384473774
3045.79479920991525
3035.74664396436719
3016.45822738171864
2987.45142744710029
2946.65575139374505
2892.42763578030144
2822.10209689678913
2732.56373241265283
2615.95558823607644
2468.5225643426661
2272.55801263306648
1809.54347215860071
292.920614996887025
166.498445441450656
143.772854074844361
201.708082347321607
3055.98292168495072
3046.96008726135096
3028.47065810640379
3000.09819216215692
2960.63311150396112
2907.31044071587667
2839.17516188450008
2750.93199241971979
2637.12252498804128
2493.51272831210417
2298.47920342716088
1616.98293822653977
329.202282353919998
93.1315928690478785
78.7421519776337817
148.037103309271458
2972.30615181106123
2962.88739754782591
2940.91345827240093
2907.71760590542272
2862.81466885479631
2804.54262127923175
2731.50936004466439
2642.78727076928908
2536.16736260296375
2412.25330456066058
2273.20404054494475
2113.78662920119496
1961.53346546359307
1857.5146310041373
1824.29616694447918
1924.66101373167862
2973.04383319974886
2963.3798988837766
2941.56934202164848
2908.43046496440047
2863.44564649586664
2805.14906716901169
2732.05190221805515
2643.05461696130396
2535.97599357186346
2410.97844002719285
2269.41185546209863
2105.53977510744471
1941.85404923571173
1813.12407252365551
1784.06507900596102
1833.41715565615618
2974.38179379976282
2964.36454813987075
2942.73980103266058
2909.70920706806464
2864.68014707509883
2806.3145332867407
2733.00793135609501
2643.50493931935171
2535.38728682557166
2408.32838067663852
2262.75309169499815
2090.64212242259146
1900.76491310814981
1736.06817491205356
1664.82703516585343
1675.20011826814766
2976.25740230862039
2965.99040146595053
2944.52585985176256
2911.62025900592835
2866.5720128334824
2808.10391154630315
2734.49282860136009
2644.3028075667421
2534.70535720044245
2404.8391228459036
2253.90746054937881
2070.21765699697062
1858.78168342140134
1639.84596876997512
1488.90499684196766
1481.31972568645051
2978.72202605258235
2968.32279809418696
2946.97689424334794
2914.19829104695509
2869.1615511255477
2810.58777590005138
2736.61595516859825
2645.61560798841174
2534.21135853904707
2400.96306160978429
2243.79120424109078
2045.9809710387151
1800.81964828960804
1535.09844092085791
1245.53499058685134
1342.68347477535622
2981.83235945714614
2971.37216077448829
2950.13829104533488
2917.49904320614451
2872.51398032383804
2813.86026369345427
2739.52310329018974
2647.6606450567806
2534.27116668821282
2397.32258826179122
2233.35385964891702
2018.14970679156613
1725.72798315381829
1325.04966665767915
1088.69507504228022
1188.71839624322956
2985.64166735891149
2975.16958721472702
2954.06219996700975
2921.5859318675557
2876.70631340285126
2818.03042364076873
2743.38064648449608
2650.69187512579128
2535.28180839302013
2394.60423811663577
2223.51657686167982
1988.83969990908849
1615.55886693362481
1151.73807262393143
959.655217692844531
1032.55511146216941
2990.20348067063242
2979.75586344129078
2958.80317328228466
2926.52757303935869
2881.82506297996679
2823.21783167866761
2748.36932636056326
2654.98555077403898
2537.72624633770556
2393.52809808251823
2215.33183138378081
1967.44075173461033
1547.68381946594536
964.759343093078655
827.195878911093359
882.692353209243151
2995.57220466532544
2985.17728553978304
2964.41591877341125
2932.39140569712981
2887.95730269452224
2829.54197204474121
2754.66765948572629
2660.81064872048182
2542.0673905683052
2394.78364734601064
2210.42499121453329
1926.88825176436512
1450.0231786059785
796.257654866615553
709.504984170443436
757.123023489371121
3001.79596012942102
2991.47817952186142
2970.95161475177656
2939.23936570852402
2895.18478755950309
2837.11562593354756
2762.43882076241925
2668.42168002801691
2548.69680857242292
2398.95768531662543
2210.26590025789892
1938.17723143872468
1412.74166302509821
640.295263145378158
611.117202423791582
655.564903283934086
3008.90595755465938
2998.70080667348429
2978.468076049513
2947.13957856401294
2903.59221682545694
2846.05125620039416
2771.83655730847704
2678.04978204653662
2557.91075351631434
2406.59374642014154
2215.15071151848042
1947.34279951399253
1409.17777090826598
543.409825539914209
517.463801940253575
598.429910035837565
3016.94451993478287
3006.88987817397447
2987.02319711792416
2956.15594623728748
2913.25070528350398
2856.4350049652262
2782.97721147504762
2689.87027892310334
2569.93048565792651
2418.08897491086327
2224.91840682530164
1950.00670452242684
992.793591897228339
444.771396954413376
419.310585309847966
522.757341481801063
3026.03269265024664
3016.0647130361358
2996.58427878419252
2966.24432072817126
2924.11689884059479
2868.21874218537869
2795.82639757848347
2703.88127964009982
2584.8510903767492
2433.82787670420112
2239.24074681318734
1938.0255743148673
631.187764441799345
356.822659531193153
327.68055084204525
442.860902675872524
3036.21538456719236
3026.1685044346973
3006.97337208150202
2977.21459998547834
2935.98992380226127
2881.2183760444691
2810.15451174176951
2719.80529818685682
2602.37439022152512
2453.9938830087076
2259.41676703321127
1546.08910583605825
483.170122286012429
272.728209033933183
249.422135916803711
340.974417844817992
3046.88841521400855
3037.06313508054745
3018.10185805928268
2989.02072785111386
2948.71037393004417
2895.37847545409204
2825.68539208472293
2737.15907865640111
2621.65797902275381
2477.79142636112238
2287.0981308983969
1847.91025199296018
335.236482670769476
187.090252525872074
162.716478813065152
233.009325460569983
3056.7244665159028
3048.37527490667389
3030.01494390300559
3001.70791694868512
2962.10052044605527
2910.57304105058574
2841.94736250936649
2755.30274123079107
2641.82606300541693
2502.7468115969682
2312.75986508135657
1666.13580602649495
360.875343388166584
109.956812049631168
89.5405799873293944
180.50011661173329
2973.89088590259826
2964.61041629684678
2942.94576225542778
2910.25865391891557
2866.12462032460326
2808.98936829628747
2737.61771317432522
2651.30613410500291
2548.20316092360963
2429.44065766903623
2297.72541392153016
2149.44896024338823
2014.49803711182312
1928.5723780091821
1905.97095566331632
2002.60545261286597
2974.62263522081594
2965.09778328784159
2943.59299859715793
2910.95828196362754
2866.73695057560872
2809.56737895109427
2738.11546423471918
2651.50679634485732
2547.90440043110539
2428.02335404637779
2293.69562047390082
2141.11547276860711
1993.95632477978506
1882.26168002574582
1867.10163474230626
1915.45511844690623
2975.94931249385672
2966.07170666819047
2944.74768258230188
2912.21324595148053
2867.93597045561182
2810.67869454543234
2738.98894949064334
2651.83111431412226
2547.13002253641707
2425.09082128899627
2286.58746757333438
2125.77950414654651
1953.99343423634014
1803.01049977939692
1750.69261360084397
1754.91527912280958
2977.80906284283355
2967.68100805515405
2946.51057364944836
2914.08979788128727
2869.77550237367541
2812.3887566682115
2740.35345900144057
2652.44645911020734
2546.18055751750398
2421.19061172941383
2277.20246477701903
2104.76877703377249
1902.99582330761518
1710.65767342721347
1575.89876027038895
1560.09615721415048
2980.25341769660417
2969.99126356749775
2948.9312453062571
2916.6232435938964
2872.2966570559197
2814.76965707497766
2742.32054360240681
2653.52588885165551
2545.33940743756011
2416.82266958222635
2266.43895257104214
2079.78839983771013
1844.92015352296016
1596.71904982444289
1325.28132560348422
1403.99454528637307
2983.3390844359842
2973.01369706127934
2952.05542727877855
2919.87021452977979
2875.56548897977018
2817.91732935818072
2745.03886509680933
2655.28962544813294
2544.99199203271655
2412.60488425667882
2255.22778404851351
2050.54287327713928
1770.37247987376804
1406.21009599370791
1152.43240016196819
1265.95365755175453
2987.11949865600855
2976.7803954447636
2955.93559932302151
2923.89543095600629
2879.65978960655821
2821.94299663420543
2748.67680257038683
2657.99591691529031
2545.539041672861
2409.19483592929419
2244.58773679693422
2019.64062464770404
1691.075903394335
1253.22195176904188
1022.56543793620733
1097.75070246632504
2991.64855827519568
2981.33350189381326
2960.6265581392754
2928.76925653441685
2884.66657881145375
2826.96855627371906
2753.41634212651343
2661.93048114193698
2547.46243067000478
2407.28757140010521
2235.67341290614195
1988.34210279799231
1626.98670084633341
1132.57015864461255
881.299252723282621
940.6773160868471
2996.98144331763979
2986.72131226430793
2966.1833999930609
2934.56159335491748
2890.67303421032966
2833.11570606545956
2759.43791811027131
2667.37022451216717
2551.20771849547418
2407.63623208094259
2229.77984640178556
1973.01124801256128
1550.94591571283217
970.185691917877989
756.064752069657743
811.605295152996973
3003.16886733759793
2992.99085062863924
2972.65820173529164
2941.33771320325923
2897.76087070009498
2840.49816352788821
2766.90710885648105
2674.57308459810974
2557.17319502198416
2410.85951455987333
2227.88958435031827
1969.73210967200248
1404.42175527430163
760.043788230022187
653.607371882947632
707.215554002498607
3010.24923213178363
3000.18664632920672
2980.10864716328251
2949.16838381319576
2906.0155770312972
2849.22518004017138
2775.97878763186554
2683.77835560212588
2565.71825987750799
2417.434589129708
2230.49672391199692
1940.49478137042024
1109.69130201310372
569.660371931238956
553.627536583901929
644.966625013414841
3018.27280608675255
3008.35597963259124
2988.59011848475666
2958.11763388601594
2915.50849878131203
2859.37786016559176
2786.76826919511495
2695.18091286517347
2577.10799667152514
2427.7756192791644
2238.47758927324276
1913.31973787698007
872.331291507892956
471.646493760505507
448.863541230870226
565.224963019830739
3027.35485526934463
3017.52665912126531
2998.07268076098399
2968.14239848547186
2926.18938632862137
2870.91174689476566
2799.23725437216399
2708.78106111169518
2591.40475056455307
2442.30006449411485
2252.35687431183123
1926.84539124206731
643.878735743019547
382.146542709029291
356.685020881912749
479.586274071091736
3037.55217697888247
3027.6335742619035
3008.4004163429463
2979.0451613773962
2937.86496549050662
2883.61146176781585
2813.15421214311618
2724.29896783431059
2608.26959563034325
2461.06111654862525
2272.23648636330699
1767.87333780951576
636.410422914435003
302.767262364216208
280.380416113196873
389.259236800534325
3048.29071125222754
3038.4373834703888
3019.49770591355264
2990.70660380932941
2950.49000507901928
2897.18248092789827
2828.3004976921975
2741.43715986804727
2627.09128321748858
2483.03509389690134
2296.3697444572249
1915.41866686399908
476.198188191573365
211.017068697198596
188.16709114901056
298.675478205910338
3058.29493941304781
3049.44502695392339
3031.33032476418384
3003.03812196992612
2964.02598363188508
2911.11004685080343
2844.41839902795891
2759.87497727299024
2647.32177885766896
2505.79945400177849
2319.13846768227495
1591.79051575076528
442.387186034439083
118.819784027315279
103.692031587974768
216.079612755033878
2975.24774544277352
2966.08100406916719
2944.67903799619171
2912.42315698032462
2868.93799778715265
2812.75566130470997
2742.76411250690444
2658.42525709548863
2558.16085720632691
2443.38786229787002
2317.48037658162411
2176.4576317493952
2049.27251158744002
1976.42707935823455
1960.11647309344357
2058.57717616126456
2975.97455641461784
2966.56388969727004
2945.31926587330872
2913.11201911729313
2869.53467855522422
2813.3095272495284
2743.22375269796203
2658.57345160255863
2557.77978107789568
2441.8634296787136
2313.41355620924514
2167.90209171568313
2028.19669687157534
1933.60967709016154
1915.46411236540348
1969.93806316326572
2977.29168915264154
2967.52856650751619
2946.46081723167708
2914.34682933514114
2870.703181204065
2814.37384173674627
2744.02407641592981
2658.79009667148694
2556.83056054898452
2438.70843478906772
2305.94038888605064
2151.69727311352153
1987.02222304870565
1849.96224735193232
1805.26030255407613
1810.85325981116375
2979.13791304623828
2969.12358794344573
2948.20449654944423
2916.1939626296089
2872.49786362755731
2816.01485299951764
2745.28226617430209
2659.24466444728796
2555.62655791559746
2434.47211527660102
2295.88781870424145
2129.23207720021219
1940.57897585480396
1750.19019580395116
1630.84535802874802
1616.70940054341168
2981.56470878390701
2971.41453287855757
2950.60041269210706
2918.68937338947353
2874.96101772469001
2818.30623421991049
2747.11354714482331
2660.11029305471629
2554.47608565958399
2429.62325567500784
2284.37348978032605
2104.67621661369003
1880.14500090301249
1639.61036211916894
1372.38683242341699
1457.09189145392452
2984.62846080567624
2974.41284426022094
2953.69514101282948
2921.89035818490993
2878.16003193797224
2821.34624098426002
2749.66876808807137
2661.61539839505576
2553.75287994549308
2424.79307056986181
2272.38413997701946
2077.44927586366703
1819.17769888398698
1482.22902794920014
1199.792073212594
1313.73134289561744
2988.381999799185
2978.15073607252043
2957.54233513545751
2925.8622765443547
2882.17438182200203
2825.24847998016048
2753.11975599791413
2664.02938087555231
2553.87383159677029
2420.67249657988259
2260.85764577898772
2047.25717189525517
1739.33635684766955
1309.98072008652025
1066.44264477900811
1145.37410381557061
2992.87799607456827
2982.67043111973589
2962.19846190912767
2930.67605102674679
2887.09325822696974
2830.13736488495215
2757.65399754793725
2667.63979627530398
2555.31175954450964
2418.0225808388218
2250.84067037915565
2020.92022494964158
1610.85069752164327
1168.06840650484924
917.683605155891769
980.034518688797334
2998.16884573012703
2988.02045118086562
2967.72131415302601
2936.40249169632307
2893.00691002302847
2836.13787056759111
2763.45758040674946
2672.72509248611914
2558.52594835302352
2417.57131528423997
2243.5902458622495
2005.81200760714364
1542.96171711219654
940.56449062074455
785.084620612348431
845.668256332500391
3004.30054207610146
2994.24954424552789
2974.16670611119434
2943.10845713956587
2900.00053674113815
2843.36831040109337
2770.70256695564058
2679.54064024943182
2563.91674649288871
2419.91151189981747
2240.56724652486491
1971.13596278716432
1494.94346745146413
774.246720590184623
684.285279394407439
741.931852761114897
3011.30738706889269
3001.40681250785565
2981.59367243662064
2950.86503909194289
2908.16042876342772
2851.94531425716968
2779.5509785916438
2688.32325059105005
2571.81066324791573
2425.52577731697784
2242.21299328912392
1967.30995689123802
1336.52757575444343
624.526003595760244
581.65151998437068
685.540984880805354
3019.23429229053136
3009.54362777302686
2990.05609307939085
2959.73529051133028
2917.55785656316766
2861.96010861290188
2790.12611345140749
2699.25900938497034
2582.46952573659973
2434.86842906611355
2248.32349465342077
1969.33065549811568
957.457358134375454
493.664412331145684
468.32948619247253
597.184942649187747
3028.1631424977204
3018.68998640752898
2999.54075255047974
2969.68782011010308
2928.15626942973677
2873.37616981139172
2802.39798737788396
2712.33139846253152
2595.96199376463665
2448.38528455727419
2259.67840980869141
1916.21438799234716
674.748779027640694
399.420545851530733
372.664965172772781
509.37335906760751
3038.08244991538595
3028.81487269552827
3009.92544107833646
2980.56699887590412
2939.76598994808137
2886.00455093901883
2816.13789970619155
2727.24446479373455
2611.90712736165597
2466.15822994373093
2277.42739584315541
1728.86461163235663
588.955113552614421
324.238087875541112
301.523535051327372
412.481403044048193
3048.44282888811131
3039.7835021002652
3021.05020971412978
2992.3102696790952
2952.20818040562972
2899.71805889369534
2831.07934019797722
2743.64249620111377
2629.51180034738536
2487.51714466699605
2299.78156785024248
1926.44177669503756
483.753292650288813
225.222509729328948
212.76909448920145
283.726245500777168
3058.13495081413976
3051.16607360375656
3032.66537547376629
3004.88404302793333
2965.25785922597288
2914.3503182759232
2846.80440055439612
2761.05092410254292
2647.9866065394267
2510.39363129136837
2319.67531026250617
1676.85596628660551
440.235669389963959
126.578064690622654
122.324888327460584
208.596738280528001
2976.32347516771461
2967.24048337026852
2946.04376048532868
2914.12405787690886
2871.14168946908012
2815.69369021985312
2746.75516336681358
2663.909498202745
2565.7426706812621
2453.89162349313574
2332.12093560212088
2196.01137265508714
2073.90020617216396
2008.32349500365603
1999.3073829904672
2100.93915836014367
2977.04661033848561
2967.71999616211951
2946.67828150679998
2914.80419542883192
2871.72572345822664
2816.22750405469151
2747.1831314111605
2664.00882042004832
2565.2876093993732
2452.2461667878988
2327.88046771181234
2187.02006999488185
2051.07149017718166
1963.90034313675073
1953.21878042104277
2015.87670293652491
2978.35699116835985
2968.678083039782
2947.80937483418029
2916.02272982750628
2872.86918213241779
2817.25217262903107
2747.92053883909875
2664.12749795605532
2564.18157581960941
2448.84788955324484
2320.01928033657077
2169.89362898333366
2010.39028603036718
1876.01093460287552
1846.28337514998861
1853.08054373842288
2980.1940523105809
2970.26316361943918
2949.53769838493054
2917.84617660308459
2874.62689222085328
2818.8345479456666
2749.08600101621323
2664.43539366244613
2562.74069485603286
2444.2319799018419
2309.33648918272957
2146.4569147663301
1961.82798090309279
1772.27478059191617
1669.99153884075008
1643.3752888566014
2982.60957544722532
2972.54099904688428
2951.91348877905466
2920.31111015028227
2877.04192762435423
2821.04933282330785
2750.79670413740678
2665.10883310841473
2561.28441356859094
2438.87852038945175
2296.97982026131467
2120.7323504096089
1900.39216878216348
1657.44958207671789
1396.64625534249899
1486.92813378905248
2985.66030323181712
2975.52349270025297
2954.98347686250372
2923.47561350947672
2880.18245022246538
2823.99607971045134
2753.20539469425785
2666.38155050376236
2560.19214313549037
2433.45901454730347
2283.99908002919938
2091.07931601801511
1828.06522755347419
1480.92267217930885
1227.40163377185695
1347.93909675804639
2989.39979541433877
2979.24338771442262
2958.80153418527971
2927.40625158081912
2884.12880733377415
2827.78988595961482
2756.48615997783236
2668.53044677973821
2559.90866393950819
2428.67751782233154
2271.46529335161813
2058.24629283122385
1737.28810302984584
1315.80868457769088
1093.81862474146624
1173.7034572544419
2993.88227268150331
2983.74357891731142
2963.42432999220227
2932.17566447250465
2888.97101879262073
2832.55671729026153
2760.82835188175659
2671.84910884281044
2560.90711957041958
2425.33315442749245
2260.44043216593536
2031.38020265486398
1636.51961065529645
1168.68061599344242
935.901484677211329
997.894550458326989
2999.16303035246347
2989.07335886974442
2968.90992789869597
2937.8572275389165
2894.80032689591553
2838.42281152050464
2766.4186384483819
2676.62477854941471
2563.65079486952436
2424.18687460930005
2252.07955694140401
2012.83041220743416
1563.96883736979476
972.017342484295682
795.541013913284587
852.203167567218316
3005.29215803734542
2995.28196961781805
2975.31562041450934
2944.52116804040406
2901.70337241672041
2845.50698075382752
2773.4292557441272
2683.12107379151303
2568.55686722599285
2425.85257194067844
2247.77290953275678
1971.61785848349427
1501.47502756567906
797.321917256297525
698.331975459646628
768.935351619958738
3012.30888324116086
3002.41668902627725
2982.70308009664177
2952.23954497144359
2909.76573166336857
2853.92366888731522
2782.02147312460193
2691.58747030652557
2575.97451478864787
2430.76711013498152
2248.20495101854158
1973.72519030404237
1348.35483652081962
633.533799488410978
591.945951481043721
700.101895000488753
3020.26871030222628
3010.52341675426442
2991.12519691851867
2961.07315966721171
2919.05437494695889