/*--------------------------------*- C++ -*----------------------------------*\
| =========                 |                                                 |
| \\      /  F ield         | OpenFOAM: The Open Source CFD Toolbox           |
|  \\    /   O peration     | Version:  2206                                  |
|   \\  /    A nd           | Website:  www.openfoam.com                      |
|    \\/     M anipulation  |                                                 |
\*---------------------------------------------------------------------------*/
FoamFile
{
    version     2.0;
    format      ascii;
    arch        "LSB;label=32;scalar=64";
    class       volVectorField;
    location    "0.480000000000000204";
    object      faceTraction;
}
// * * * * * * * * * * * * * * * * * * * * * * * * * * * * * * * * * * * * * //

dimensions      [1 -1 -2 0 0 0 0];

internalField   uniform (0 0 0);

boundaryField
{
    inlet
    {
        type            calculated;
        value           nonuniform List<vector> 0();
    }
    outlet
    {
        type            calculated;
        value           uniform (0 0 0);
    }
    top
    {
        type            calculated;
        value           nonuniform List<vector> 0();
    }
    bottom
    {
        type            calculated;
        value           uniform (0 0 0);
    }
    left
    {
        type            calculated;
        value           uniform (0 0 0);
    }
    symmetry
    {
        type            symmetryPlane;
    }
    interface
    {
        type            calculated;
        value           nonuniform List<vector> 
104
(
(-27.1628357948843728 0.0144989300938867388 0.00335636065433514517)
(1.94917096877142182 -0.00368839843211474575 0.00374722057431206438)
(-0.0419489108724609913 -2.19258407463979746e-05 4.56233462693761249e-06)
(-0.743060176376824089 -9.41125529885787184e-06 2.25878332774968774e-06)
(-0.971047494917822385 -5.92013389587666311e-05 -8.35474679934016998e-06)
(-1.12341779129818575 -3.61277305780841894e-05 -4.68358557404382014e-05)
(-1.11216947214895079 -2.02530995277455565e-05 -3.49364789830383237e-05)
(-1.05461797174880534 -2.01167887354760661e-05 -3.34313077882929051e-05)
(-0.98221659677477402 -1.90996971874437067e-05 -3.39231647179130089e-05)
(-0.907257783636867043 -1.90724228599843697e-05 -3.43846261464526815e-05)
(-0.83267548618108933 -1.96822607472691663e-05 -3.36919421080735809e-05)
(-0.758999260487966398 -2.03743659372415294e-05 -3.21823942712102078e-05)
(-0.687042925271767024 -2.04291836178608999e-05 -3.06192580866264714e-05)
(-9.92175920845262205 -0.000887187170920461813 0.00352547788086816135)
(-1.2517719206904383 -4.02060428674735828e-05 -2.57067506792593213e-05)
(-1.20043131676356407 -2.63866672223711013e-05 -8.80293437834987866e-05)
(-1.29356577881903512 -2.56857812947568492e-05 -6.54471511265097155e-05)
(-1.29370317974855276 -1.47980182186517235e-05 -5.27657158763818423e-05)
(-1.22192709143650324 -1.5636769667022272e-05 -3.06800416689512935e-05)
(-1.14505189366104898 -1.69899084718545331e-05 -2.97934246506381982e-05)
(-1.06359738739438781 -1.60282607063854007e-05 -2.78238831835770304e-05)
(-0.979755463027859319 -1.58396076141086911e-05 -2.57790522990067781e-05)
(-0.896124562924793255 -1.58955263007220717e-05 -2.42559548054400622e-05)
(-0.813953448059668516 -1.60792081091155859e-05 -2.30666029249177072e-05)
(-0.733468532319375033 -1.62968432174337782e-05 -2.19868841623391336e-05)
(-0.65255661421496669 -1.69323097736116555e-05 -2.08025955818778544e-05)
(-2.32096985984773951 -4.10079005304389782e-05 0.000197355969052417029)
(-1.72973458074256214 1.53989001427908721e-05 -3.20950772958556124e-05)
(-1.52359308094437917 1.95921050505855805e-06 -3.04438320188826063e-05)
(-1.43793853092920809 -1.2027933968213864e-05 -2.79360412901429744e-05)
(-1.34960390045974621 -1.41145215581476097e-05 -2.80757335755586808e-05)
(-1.25871549803107396 -1.27338176588603748e-05 -2.87758649685309008e-05)
(-1.16642546181250806 -1.2313737818734935e-05 -2.67951445785958098e-05)
(-1.07471011046356524 -1.24764389823057626e-05 -2.5332583164386346e-05)
(-0.984082706446188671 -1.26913707621941439e-05 -2.40182742826122809e-05)
(-0.894758109370840105 -1.29492403976919882e-05 -2.27895813874735556e-05)
(-0.807331657806048208 -1.31916215036388295e-05 -2.16174438579903332e-05)
(-0.721944610822497612 -1.30524889529916169e-05 -2.04659285682923681e-05)
(-0.637350806491871147 -1.19128965202603906e-05 -1.93230768455699849e-05)
(-2.07279820847376728 -6.58575111244998377e-05 0.000430167953217064434)
(-1.66049154083241524 1.48982205510483974e-05 -1.46360624231704756e-05)
(-1.5947404581157647 -1.79038405722843348e-06 -2.88858551193052489e-05)
(-1.47869043791711663 -4.88488659712675509e-06 -2.87364246289413304e-05)
(-1.3771723166335581 -8.03385466531206774e-06 -2.58374604407467587e-05)
(-1.27824440404769302 -8.74305043017356907e-06 -2.30378512248608855e-05)
(-1.18093729555191884 -9.11014021493685889e-06 -2.13748862475560541e-05)
(-1.08486049002672624 -9.55103338356582329e-06 -1.97958331604616349e-05)
(-0.990408784909826645 -1.0038281696222905e-05 -1.84671164232549592e-05)
(-0.897998791916091554 -1.0601428047338618e-05 -1.73075792388473154e-05)
(-0.808068971216720389 -1.1118823330903535e-05 -1.6425976639886838e-05)
(-0.72121889312185139 -1.12401559975186212e-05 -1.57661060515340582e-05)
(-0.637504909219081983 -1.03847591986167921e-05 -1.51799660104995348e-05)
(-2.42361692225586456 -8.86193821099043186e-05 0.00054544111789720331)
(-1.66760351977150401 3.07770238268742575e-05 3.5415484937418352e-05)
(-1.54222625316212403 3.7476206019373796e-06 -1.53064347290128611e-05)
(-1.46165884948211433 -2.71942541336150088e-06 -2.34706014573150716e-05)
(-1.3778490687550986 -5.35896560248361792e-06 -2.33103522868165012e-05)
(-1.28592420728634482 -5.9651265060718793e-06 -2.17807082759865479e-05)
(-1.19167143877052006 -6.33381130129238862e-06 -2.00160990626334552e-05)
(-1.09651096573404017 -6.957111924396067e-06 -1.85521113910754047e-05)
(-1.00189187268240421 -7.77745415124349136e-06 -1.72647185566673561e-05)
(-0.909034090449170828 -8.66866547143007792e-06 -1.62200996370266131e-05)
(-0.818915118676238007 -9.63387666765863202e-06 -1.54102645359750038e-05)
(-0.732640743398211503 -1.02422975744666e-05 -1.48420049302689934e-05)
(-0.650816373027849226 -1.00716122555680156e-05 -1.4692509694905303e-05)
(-2.32890410810856574 -1.9126198592929461e-05 0.00019333536437557094)
(-1.77954532066662829 4.84609880698923845e-05 7.73062709831653585e-05)
(-1.56302149270027768 2.09515677244427675e-05 -9.39055068139321944e-06)
(-1.48165131690819241 6.42739789598641239e-06 -2.41052739506395243e-05)
(-1.40323932280795138 2.15765262050532734e-06 -2.30569876597544411e-05)
(-1.31210172045539042 -8.51204746226318372e-07 -1.97040216525261395e-05)
(-1.21542408323403328 -2.38360659741914243e-06 -1.68111800360838115e-05)
(-1.1179329067860091 -3.83025062091562865e-06 -1.48445294591799277e-05)
(-1.02184674554203814 -5.32543360175478608e-06 -1.34467258571999849e-05)
(-0.92859443279511289 -6.883895558343153e-06 -1.25223771526396241e-05)
(-0.839197006103504894 -8.55455332449907678e-06 -1.20526354707317989e-05)
(-0.754603528410853541 -1.02229236041698577e-05 -1.19919763328042263e-05)
(-0.675900777344983661 -1.18713459837654262e-05 -1.24509841171137563e-05)
(-2.33591883631034092 2.32602128116433991e-06 5.86604210692128264e-05)
(-1.97060825278366725 4.50338880334307063e-05 3.33186870508469078e-05)
(-1.70007093841828016 3.36014544444882107e-05 -1.30870041745632984e-05)
(-1.56410106597337384 2.0448418016887189e-05 -2.25569985959722925e-05)
(-1.46610366753517463 1.28053533856248639e-05 -2.03984486664617002e-05)
(-1.36194486572313789 6.97976760098570226e-06 -1.63176928678530267e-05)
(-1.25469524795161314 2.83062574840801478e-06 -1.3250618533724441e-05)
(-1.1500090821597988 -1.32462787326605377e-07 -1.1024941822582239e-05)
(-1.05021732230828313 -2.79431376744374335e-06 -9.63109249271272092e-06)
(-0.956404259307758631 -5.365116355089859e-06 -8.92238386353424477e-06)
(-0.869600922273070065 -8.15751977251487446e-06 -8.90082538193873446e-06)
(-0.790843498734899786 -1.15626350421686077e-05 -9.60879459347486995e-06)
(-0.722822216772442405 -1.59521692601641484e-05 -1.08392600154269114e-05)
(-2.46207626924074319 2.07953084526079481e-06 8.24408987397809645e-06)
(-2.17317605222538512 3.16791056021057269e-05 1.81129468062112407e-06)
(-1.89336968719130727 4.18503090670729877e-05 -8.44882296131435433e-06)
(-1.68850015609714776 3.62587745764153749e-05 -1.05578526848340624e-05)
(-1.53942631913577799 2.62469290078256226e-05 -9.10208982123743168e-06)
(-1.41285915210154744 1.6331485692845341e-05 -6.97864991611775854e-06)
(-1.29209546942945108 8.46408140500177049e-06 -5.27370781100135405e-06)
(-1.17750998490567182 3.33514324106227354e-06 -4.20380440112340811e-06)
(-1.07253330677030556 -5.76408704500166942e-07 -3.5911898226923272e-06)
(-0.977981003797920079 -4.19875864845805791e-06 -3.31250773146432507e-06)
(-0.895312471301196622 -8.19483272479922767e-06 -3.35478053888286834e-06)
(-0.827933892484602696 -1.31068520356199159e-05 -3.82950077026137697e-06)
(-0.78076614685681589 -2.08495517212446552e-05 -4.78229181206022011e-06)
)
;
    }
    procBoundary3to0
    {
        type            processor;
        value           uniform (0 0 0);
    }
    procBoundary3to1
    {
        type            processor;
        value           uniform (0 0 0);
    }
    procBoundary3to2
    {
        type            processor;
        value           uniform (0 0 0);
    }
}


// ************************************************************************* //
