/*--------------------------------*- C++ -*----------------------------------*\
| =========                 |                                                 |
| \\      /  F ield         | OpenFOAM: The Open Source CFD Toolbox           |
|  \\    /   O peration     | Version:  2206                                  |
|   \\  /    A nd           | Website:  www.openfoam.com                      |
|    \\/     M anipulation  |                                                 |
\*---------------------------------------------------------------------------*/
FoamFile
{
    version     2.0;
    format      ascii;
    arch        "LSB;label=32;scalar=64";
    class       volVectorField;
    location    "0.810000000000000497";
    object      faceTraction;
}
// * * * * * * * * * * * * * * * * * * * * * * * * * * * * * * * * * * * * * //

dimensions      [1 -1 -2 0 0 0 0];

internalField   uniform (0 0 0);

boundaryField
{
    inlet
    {
        type            calculated;
        value           nonuniform List<vector> 0();
    }
    outlet
    {
        type            calculated;
        value           uniform (0 0 0);
    }
    top
    {
        type            calculated;
        value           nonuniform List<vector> 0();
    }
    bottom
    {
        type            calculated;
        value           uniform (0 0 0);
    }
    left
    {
        type            calculated;
        value           uniform (0 0 0);
    }
    symmetry
    {
        type            symmetryPlane;
    }
    interface
    {
        type            calculated;
        value           nonuniform List<vector> 
104
(
(-159.244605890885509 0.0359595345535851513 0.0165079391666121157)
(-70.2610355857677433 -0.0104789264173797553 0.0123948082063568173)
(-71.9551353706276444 -0.0140781968478420651 0.0130108216152288667)
(-71.6380432497831947 -0.0097628119984160544 0.0109105272417973648)
(-67.6432360901849421 -0.00902725868715234699 0.0119989646079226853)
(-62.6365890400040684 -0.000235698028438295263 0.00026241046356703055)
(-62.9612111084728383 -0.000202951839700654403 -2.69203691346354956e-06)
(-63.1357193546660298 -7.23051403350424891e-05 -0.000567594974727340875)
(-63.5208597582659777 0.000181948860396869555 -0.000694120746520202211)
(-63.3701096873395286 0.000262476878886468634 -0.000594699191348847757)
(-63.8410607029517152 0.000216151393969506145 -0.000510759854014177363)
(-64.1767888990106172 0.000242217950161179691 -0.000461762514076308433)
(-62.8306613104784617 0.000375754570726705866 -0.000588610491336720811)
(-121.720255178874325 -0.00386304141480412486 0.00987949112752784138)
(-76.4876400505818168 -0.000218079045194923362 -0.000164926549162912626)
(-74.736079706087466 4.85364415047493021e-05 -0.000699945292588003733)
(-73.081044170894927 3.58365716424297832e-05 -0.000839427221135627616)
(-70.9033153378407377 -0.000106192503993130896 -0.000956064119114397883)
(-68.6470822160477496 -2.18017111723048263e-05 -0.000962297374527644662)
(-66.7416187241069849 0.000140006182508087176 -0.000867643230400484146)
(-64.9093701229854503 0.000303201903992153879 -0.000741937805850213512)
(-64.4429667533975845 0.000376457560752656458 -0.000684829597548917762)
(-64.5333021716186721 0.000420854375388170058 -0.000691430111884824036)
(-64.8878477022853986 0.00034941223045366858 -0.000643624551405634127)
(-65.8897935673125517 0.000265127822278702252 -0.000600432224657061644)
(-66.6958705525744051 0.00024011376027338404 -0.000661429100969198659)
(-104.931900233519329 -0.0133568185374685743 0.00931532084659771747)
(-78.4926494563156325 6.45867620379220978e-05 -0.000409175513477929242)
(-75.7615874567804184 1.58374455592356903e-05 -0.000726497466547489004)
(-72.8334612482930908 -0.000204970585138290073 -0.000721913049224736291)
(-71.210460364732711 -0.000241314481990740628 -0.000664550367840834044)
(-71.1076766033294518 -1.8211552208279031e-05 -0.000560023010696949716)
(-71.2686848314103116 0.000178268781928623827 -0.000553156946837478716)
(-70.4677777785054076 0.000420656591256104832 -0.000592079103204866874)
(-69.1740228773321775 0.000577916538032995477 -0.000677949828982878826)
(-68.082075854900026 0.000628795556372609469 -0.000684729646303339104)
(-67.28382754491507 0.000479834102271806421 -0.000651623095521740954)
(-67.6257701387653753 0.000368531429184425154 -0.000605305887361233422)
(-68.2291706271847431 0.000302434353849267458 -0.000569642336434322003)
(-101.498844375678374 -0.00354598880951668971 0.013235215615053109)
(-79.5442729602654026 0.000108945951360692273 -0.000563776876965793594)
(-78.6163730101842617 -0.000138330363964468494 -0.000875616633749760204)
(-78.4386795714912068 -0.00036368594237373307 -0.000699745771721387846)
(-79.162597711969994 -0.000212921866854637906 -0.000631484325691562668)
(-80.6690066584961016 0.000119712445169008436 -0.000641826536785986283)
(-80.3583292452886155 0.000420448367747150735 -0.000562249448183914694)
(-77.9477655167667649 0.000618451962452195962 -0.000509341624114652931)
(-74.6336638692456376 0.000762286681505325628 -0.00056382567795374794)
(-72.0089134169927689 0.000795699845457845741 -0.000649137603431900194)
(-70.4550065616846553 0.000576359350023380318 -0.00063060222716024674)
(-70.7040043383927639 0.000441830005225397524 -0.000554423383499923726)
(-71.6026894540063097 0.000375110824862292191 -0.000497991135140126774)
(-109.550506762004161 -0.00407550820555595186 0.0122159308396588302)
(-85.7350838999945921 0.000137514136682270467 0.000381258999668766157)
(-85.0158751634369594 0.000117235828672292378 -0.000917468228813992769)
(-87.4320655805157685 -9.55910760056864452e-05 -0.000890753160398446574)
(-88.1672815426038881 0.000152812172840368184 -0.000822770381890653661)
(-86.731542647826231 0.000476160510046920926 -0.000695244306991279104)
(-83.5705500750974437 0.000623181674290678627 -0.000525038723341121833)
(-79.8069833821871413 0.000718438569414452501 -0.000459582070419025475)
(-76.3358526379690261 0.000750900675450120515 -0.000468004289349440675)
(-74.101746521906847 0.000716145803758549255 -0.000506678463338603152)
(-72.6991430871960205 0.000583224297813508472 -0.000547936640975428069)
(-72.6452952142910533 0.000503727455135874014 -0.000477931168622322555)
(-73.3516555655222078 0.000483046469008201142 -0.000388998085631137155)
(-128.174262655693468 -0.00300339051177223818 0.0089720216137681788)
(-103.670545684802974 0.00167685469302758733 0.00194210111260683109)
(-96.1963439238262055 0.000620121124174271079 -0.000998542452774465322)
(-95.5785683895600613 0.000456409113350830526 -0.00107749145262059473)
(-94.4127128707139605 0.000669056124826766124 -0.000973706036312202775)
(-90.7776372316559303 0.00118092874628644554 -0.00118489514951906948)
(-84.8585945568079012 0.00283415362991675576 -0.00217101081130109674)
(-78.9615324832329009 0.00159476088713712458 -0.00100436523765252495)
(-76.0039419977744473 0.000744192310780596861 -0.000472616841217331554)
(-74.2546837793555881 0.000732892051437554048 -0.000537962512242527811)
(-72.9034680614154524 0.000639320459030323055 -0.000521170582729308328)
(-72.3461316642378165 0.000562259502089095193 -0.00051197298309302113)
(-71.6889391146845441 0.000611309344553301022 -0.000262508863859628417)
(-144.750438457838897 -0.000221366849962324232 -0.000391490626571876828)
(-127.275300184572444 0.00134768210851501512 -0.00213656749584654982)
(-113.190880184894198 0.00234632606419623094 -0.00437830022169310301)
(-105.273870856764589 0.00309923082477322163 -0.00358006835204408187)
(-100.635136708548018 0.00225405623264387719 -0.00177423647454536242)
(-93.8353120258900475 0.00489411719102816802 -0.00301631147668596916)
(-84.2729064439655673 0.00484278280620069768 -0.00236248649419068622)
(-77.9815793149172549 0.0023940018375816865 -0.00105827115895020213)
(-75.4785101257821509 0.00099321361614297882 -0.000435885219647345998)
(-74.0380260057355883 0.000870066630585883925 -0.000434112350045516397)
(-73.8640642080575986 0.000754265371768863147 -0.000365262137791857176)
(-74.5413478723863392 0.000772728140269069016 -0.00043259950034229438)
(-73.4410229023296068 0.00100760419262630992 -3.72791178640985199e-05)
(-171.946784734957276 -0.00296186597205862255 -0.00191618364438609625)
(-165.778083227199744 0.000422622544523979773 -0.000902573402346725645)
(-154.014154912437306 0.00369800933773755704 -0.00057560842201662024)
(-138.304500100680741 0.00589800503530882141 -2.41715195134725272e-05)
(-121.398558534788592 0.00673768107771143595 0.000253304070788208072)
(-103.69882677515443 0.00656156141818906198 0.000521049342087689764)
(-90.0842649303416323 0.00621623236902438519 0.000494543735850861755)
(-82.4785068889247412 0.00268448090690480293 0.000176457909563537506)
(-78.1443275214460868 0.00171288113861776839 3.44214302210351153e-05)
(-76.6513573726177668 0.00143422845172127352 -4.65317268222596339e-06)
(-79.0955205011382532 0.0011558819291332058 -7.48761410110929316e-05)
(-82.6780967985295234 0.000733585318634094618 -0.000149780923165334967)
(-78.3373139188585554 0.00242048610823648435 0.000337679346185426913)
)
;
    }
    procBoundary3to0
    {
        type            processor;
        value           uniform (0 0 0);
    }
    procBoundary3to1
    {
        type            processor;
        value           uniform (0 0 0);
    }
    procBoundary3to2
    {
        type            processor;
        value           uniform (0 0 0);
    }
}


// ************************************************************************* //
