/*--------------------------------*- C++ -*----------------------------------*\
| =========                 |                                                 |
| \\      /  F ield         | OpenFOAM: The Open Source CFD Toolbox           |
|  \\    /   O peration     | Version:  2206                                  |
|   \\  /    A nd           | Website:  www.openfoam.com                      |
|    \\/     M anipulation  |                                                 |
\*---------------------------------------------------------------------------*/
FoamFile
{
    version     2.0;
    format      ascii;
    arch        "LSB;label=32;scalar=64";
    class       volScalarField;
    location    "0.990000000000000657";
    object      rAU;
}
// * * * * * * * * * * * * * * * * * * * * * * * * * * * * * * * * * * * * * //

dimensions      [-1 3 1 0 0 0 0];

internalField   nonuniform List<scalar> 
7236
(
1.86545626065949188e-05
1.19696156304785803e-05
1.06295640636608386e-05
1.0033602670999513e-05
9.6464681918158632e-06
9.35885458573475723e-06
9.14004178526271321e-06
8.95284980521141117e-06
8.79865375163480183e-06
8.66850880753073599e-06
8.56822526221717409e-06
8.48891761924721823e-06
8.43053261744918925e-06
8.39050502900527691e-06
8.3619363143235731e-06
8.32203731253305048e-06
8.27413588943101713e-06
8.22248463916487954e-06
8.19374982135099118e-06
8.18074729073772472e-06
8.18315676866746254e-06
8.18564830463827058e-06
8.16845817597027478e-06
8.15416641304180428e-06
8.14494935694864009e-06
8.13003528402048525e-06
8.11023459410661074e-06
8.09079503983849571e-06
8.07364790394489479e-06
8.07030036829338437e-06
8.07295099835609345e-06
8.09508757779974473e-06
8.19425426353898003e-06
8.31220864034922386e-06
8.83070381824779449e-06
1.04834984095834712e-05
1.59516874316909577e-05
2.7829813774525878e-05
3.08669903632404304e-05
1.85475211790010729e-05
1.11637444613775452e-05
1.02947726554543897e-05
1.06494594228793674e-05
1.02677370368879913e-05
1.0054501724777937e-05
9.7695116389493633e-06
9.6814005649453109e-06
9.52327237007623242e-06
9.3145621290031483e-06
9.05650238266808536e-06
8.78079242953622376e-06
8.59939618715010867e-06
8.43264021354471125e-06
8.29113110031730941e-06
8.20180323801920739e-06
8.14811863934257604e-06
8.19654705488340032e-06
8.32956012613509946e-06
8.50014479422944747e-06
8.62329525082788112e-06
8.76986635304967076e-06
9.01054617744200007e-06
9.37370862751059293e-06
9.41464597466865686e-06
9.40645227487461652e-06
9.69587846860053029e-06
1.0332365331802203e-05
1.06775099862029528e-05
1.07198698878646506e-05
1.0608171871332366e-05
1.11509691976839516e-05
1.0583973499532934e-05
8.78815037520910201e-06
7.80635666237795038e-06
8.99631212453514111e-06
1.62529914274592159e-05
4.69611268530853478e-05
2.78217521789479554e-05
2.25221412611346752e-05
2.259910187093591e-05
2.87993102949873634e-05
4.08792700856485273e-05
5.3398187252788246e-05
6.2546107022389737e-05
6.80023658826462059e-05
6.62995007816394603e-05
5.9316722447868123e-05
4.34191016777406142e-05
3.71139008762865622e-05
2.90206527973149086e-05
2.27007796169591549e-05
1.81889269211918904e-05
1.68120594097880913e-05
1.71633230191813644e-05
2.13764567668064663e-05
2.56169940496894692e-05
3.05943147197306625e-05
3.37520759568337502e-05
4.15518180396927094e-05
6.31704495944589048e-05
6.55956437659944086e-05
6.66474494001904422e-05
8.47730404193490841e-05
9.50493279739329149e-05
9.88842835464911611e-05
9.90927678971028307e-05
9.7011928579959097e-05
9.3855717379996649e-05
8.97605140363769486e-05
6.58144471743310559e-05
3.56126719761128938e-05
1.31929389499414086e-05
8.1223694121378283e-06
1.16526362758047876e-05
0.000110588541482765573
8.42294899163750831e-05
8.1571723713616686e-05
0.000123301982942101686
0.000189318587006268062
0.000258998048615962035
0.000273124886338601224
0.000274038782823292674
0.000268867323310298888
0.000231507450920417668
0.000212276531531805561
0.000205051235149260888
0.000190724781722490151
0.000196729013132233317
0.000217010210773190443
0.000216416076608870895
0.000258182495516750166
0.000216697904304507567
0.000153637499632006889
0.000139481957282045464
0.000137456204020208246
0.000148446416499848765
0.000129084211188064391
0.000136902739336112051
0.000144628333877136467
0.000161533973657423756
0.000178215927072828485
0.000192839095003598129
0.000211276425302436946
0.000222590944373440337
0.000218539798843908004
0.000193161117402002822
0.000142817858017182557
9.59333540224830051e-05
5.34054072721005873e-05
2.85308979009581377e-05
9.12994849169002381e-06
9.88389402107638771e-06
0.000427116866125280608
0.000215908850264437071
0.0002034623625120299
0.000139688516061591174
0.000221785474905360864
0.000478174323648660219
0.000654070246352140053
0.00073685633597568188
0.000814511019393274823
0.000816519887784099524
0.000779373483354511994
0.000604274502138463319
0.000449850340022944491
0.00036556624603672111
0.000387986470318824517
0.000208156721713699766
0.000147561274048933414
0.000132486388681726905
0.000126959819867852538
0.000134335844127362621
0.000161165762164803227
0.000224307876660240853
0.000293319812258438137
0.000375085230121207942
0.000416818289602179104
0.000462215403891801384
0.000465563380506654398
0.000468982527596810373
0.000472023979550516347
0.000475622924265702149
0.000477273711578169607
0.000449553865975480232
0.00030740403685327938
0.000148669579814919746
6.87767168768617669e-05
3.23809112962941616e-05
1.01301010757869084e-05
9.08950181196852359e-06
0.000596068690133999481
0.000384388350365868852
0.000251010111115256723
0.000156225997835532425
0.000306647953875675448
0.000779461986196171991
0.00131596265093761582
0.00116401654658943293
0.000894155714269882817
0.000655349333463102566
0.000664611564466487505
0.00067960817462081526
0.000470415121086861635
0.0002651784857181722
0.000152724744255960596
0.000116353320815592708
0.000120070183183130822
0.000118657877268283014
0.00012861019008249673
0.000174790335291986584
0.000266072443985890434
0.000411564632691016554
0.000556220558479276995
0.000707823639740167636
0.000878348183270696837
0.00105281695972452992
0.00103631814513850261
0.000931334521836008023
0.000919334062101139827
0.000864680126235797147
0.00080471883424509266
0.000783349184538551348
0.000637667700748348961
0.000250882506596823858
8.95202879452352521e-05
3.52652591435308752e-05
1.20346085245648464e-05
8.77937323581997508e-06
0.000598289056049450133
0.000509597314316386591
0.000246739830348981085
0.000175271524491636736
0.00047759525959898319
0.00159157730884165239
0.00146001436409670129
0.000867664436189875647
0.000598387667922662628
0.000377166889781779195
0.000293109409848127877
0.000240271632765164719
0.000176562029229943235
0.000134072769328723692
0.000113014517126405159
0.00011578534747063655
0.000151546035989574645
0.000229645743347632418
0.000300992886170444026
0.0003978381691484334
0.000527319995454679676
0.000684657957700301524
0.000829715313288399204
0.00107076023774629338
0.00156284290989072206
0.00221896287192633202
0.00212442549835383052
0.00161263522183581151
0.00131578327410017968
0.000902817336873878171
0.000703772334652770309
0.000597575412975099684
0.000503960386657153472
0.000226400990146165986
7.24997292471762342e-05
3.18987355148001598e-05
1.66168212878644188e-05
8.87734269543144818e-06
0.00054110145844330187
0.000622605771937129919
0.000190376911716642742
0.00018574604377145912
0.000706402236910179913
0.00202266149054169692
0.00131965814769098317
0.000933632859346126805
0.000704319450336255608
0.000412689149202723139
0.000293333733413648936
0.000204034249492727983
0.000151942311462439
0.000129182228764504421
0.000135848646259462277
0.000196506499364281092
0.000398487726705880959
0.000587071690967641818
0.000656416938750134103
0.000652020887790947753
0.000657755715953536142
0.000647769386021820924
0.000665979475514141437
0.000774218379194478896
0.00110638173507978223
0.00206880245868676415
0.00353874837611100864
0.00208683644643255228
0.0011200434928788697
0.000734893087931287495
0.00052047538892499275
0.000500826158907929355
0.000371365339276784855
0.000127021215597613115
3.03664180729943013e-05
2.35600727028790578e-05
1.64884707455000102e-05
8.96555121349280983e-06
0.000455744172321695005
0.000856414256027314045
0.000163296001417353759
0.000244693775879286637
0.00136777073252890811
0.00173933131846463898
0.00137999183237650009
0.00118977269622302343
0.000750715828577742982
0.000428055268417515693
0.000296019602003631203
0.000213261611189873902
0.000176813014542327848
0.000190370889175845456
0.000265498694018420829
0.000410110921687689266
0.000501099182757078535
0.000542955334181452931
0.000577319547361495504
0.00057046910139111999
0.00054297057399966544
0.000512644112197720224
0.000502880800148736585
0.000544083668859985628
0.000679986754540263323
0.00102771684628648872
0.0019980805624690086
0.00271601484983089716
0.00193411187583602856
0.00112133490453864113
0.00069555139378328374
0.00051190584785324757
0.000381667436108920871
9.45535579174020435e-05
1.96960366254311077e-05
1.82447991988955731e-05
1.31904317418811334e-05
8.89283579341850748e-06
0.000401357751472341737
0.000511395009357861374
0.000152155363043883621
0.000349473542903256252
0.00278772750370815661
0.00152014328742300603
0.00139382316759134465
0.00137026204380474056
0.000926534612956370356
0.000557204827937401092
0.00035764493249047151
0.000278831388638045791
0.000289003152168517286
0.000337504469087037524
0.000379592383166040285
0.000420889428430063699
0.00044448792248695789
0.000454963620461203101
0.00047498295917001315
0.000506493671165237323
0.000484831267323996944
0.000449829196504217689
0.000402021180238748966
0.000281110014141083863
0.000154598018802969828
0.000522900541289704544
0.00242263593217686025
0.00143268195639426965
0.0014109952128613728
0.00133714278028177597
0.00109810060503917704
0.00068408724787998238
0.000470961539550740829
0.000411911415890058713
0.000391987992064573123
0.000396883392761075184
0.000386280921389086361
0.000383721323616547792
0.000370805902755974289
0.000360692632241991096
0.000369281663507250557
0.000416846265636506565
0.00041795701161106123
0.000405581074293320429
0.000405704064256715404
0.000194806130965267336
0.00016756522143704253
0.000887307939804837299
0.00176341649994643914
0.00140815741386205568
0.00140479174168991854
0.00130127576004447263
0.00111383402785429392
0.000905403631831917127
0.000705918964744535926
0.000542051276974972246
0.000441043064232994587
0.000408011170292765411
0.000374712315454257306
0.000351415912234043129
0.000321137599591325631
0.000307827020929922121
0.000333486439165229544
0.000310249158881614208
0.000239990848303227452
0.000195426002413831676
0.000462128454485551858
0.000177027868904220938
0.000255930862352006993
0.00228025341092962528
0.00163798733507301451
0.0014997735914696721
0.00141882486638085872
0.00123711131522166772
0.00105938978281136065
0.000908565928008796286
0.000705073674049248454
0.000548171412005402417
0.000454954644634165961
0.000418851638581105128
0.000368764829030157235
0.000325107909012466037
0.000291518938446372583
0.00029517441948559008
0.00030548994838426732
0.000226012211249939271
0.000150918623201917664
0.000105361559539675765
0.000866897987409716861
0.00073508535743158944
0.000580822332688318778
0.000498574306206009117
0.000456439835331117968
0.000404839248728765548
0.000351600917619576605
0.000354525514611491832
0.000343643071872842235
0.000328049225217822327
0.00069549982157499936
0.000579780224478773686
0.000515790196675475405
0.00041776389525879546
0.000381706905586347224
0.000334761177910865716
0.000383399954320758302
0.000403830246820710179
0.000464155589818571158
0.000417392948515775517
0.000417795168529283946
0.000420298541124349803
3.73201023614195133e-05
1.83507307501691553e-05
1.20017738710045882e-05
1.06515902398651693e-05
9.97176390239853122e-06
9.56158380761290487e-06
9.27638925777622705e-06
9.05418114775543477e-06
8.86859551118296548e-06
8.70536084952919599e-06
8.57397225158740276e-06
8.47350297284886809e-06
8.39938162078966703e-06
8.33957322007424371e-06
8.29463124994945482e-06
8.25126792280169761e-06
8.20874767858166707e-06
8.1712786908928731e-06
8.14382747305798267e-06
8.12672871129795328e-06
8.12531503451117428e-06
8.12031094781649317e-06
8.11146982917490458e-06
8.10700359906559898e-06
8.10046315513045923e-06
8.08163890718062093e-06
8.06024453993339497e-06
8.04002317328323955e-06
8.03103086478121341e-06
8.02344877543908465e-06
8.01931161947929564e-06
8.0742064587377666e-06
8.13465209525332107e-06
8.34844995901770981e-06
9.10704277085570756e-06
1.14482872252631789e-05
1.790806770486595e-05
2.71097981850123384e-05
0.000196151448851545138
6.44779065457225904e-05
2.39259630609229563e-05
1.60011055078840269e-05
1.41574788472493957e-05
1.38525819832102121e-05
1.37537201122258311e-05
1.35375836758031812e-05
1.31749175574006694e-05
1.27362142696987921e-05
1.21078172135995028e-05
1.12041736210780551e-05
1.03239679200254824e-05
9.51443639400796847e-06
8.97941919547085992e-06
8.68067347924573675e-06
8.5610715514151426e-06
8.49427365057112642e-06
8.47915420217741926e-06
8.53143171499071326e-06
8.64590516296981839e-06
8.84220218784403722e-06
9.29485004842842058e-06
9.68807818827865744e-06
9.65427790314069645e-06
9.56007937368567888e-06
9.70966414310160459e-06
1.02880927462157405e-05
1.05979544331160454e-05
1.06881622935575263e-05
1.04517588891328028e-05
1.0843345238599042e-05
1.10345855973708297e-05
1.03240268809030835e-05
8.34386672477999945e-06
7.80525039580446551e-06
9.86387428497190171e-06
1.90452863592412796e-05
0.000221358189834917185
0.000145340509706450645
7.66129588233692167e-05
8.53802380631973147e-05
0.000105438336798715262
0.000122621434249433454
0.000144099767007053076
0.000171404341702950956
0.000185034124192604081
0.000192473394424473143
0.000206933746799100552
0.000209121513523695239
0.000197543593193857481
0.000168715609158839717
0.000117846682917633382
7.10993214095275241e-05
5.41855809592344182e-05
4.34521408172299707e-05
3.95004300920749149e-05
4.17824126815428902e-05
4.50164227543252098e-05
5.4049503324617523e-05
7.84422266949515938e-05
8.12589315770934339e-05
8.85035052783994324e-05
8.67025502044106483e-05
8.20721657469827853e-05
7.87124293912607218e-05
7.7050666300337037e-05
7.58949605618932798e-05
7.29459172722218564e-05
6.9186394275229054e-05
6.0993164847168546e-05
4.36959344271175046e-05
2.33954313891375589e-05
1.04505086477054284e-05
8.28531944037654797e-06
1.30493600933966409e-05
0.000236180557161455134
0.000205865595005837849
0.000161947345092339863
0.000141734280686079517
0.000239424031313911415
0.000336296130933009803
0.000423392102220965499
0.000481671068510653182
0.00042523902424752353
0.000351868447876122013
0.000368392640843506996
0.000355164490027564848
0.000316560619352484519
0.00030083858966879404
0.000328290014728017162
0.000410082211831170912
0.000425805952106644413
0.000247373606734223414
0.000144939030371062642
0.000133614235697170845
0.000131326120942221565
0.000138911218633869905
0.000132372397870209285
0.000143256683538764461
0.000149600977840890512
0.000158056051324984497
0.00015933314412642591
0.000160312716444385012
0.000167539322958163057
0.000164157474519200416
0.000151015870311854407
0.000121331475361998565
8.7405432083425538e-05
6.26977024332626244e-05
3.70592044058997436e-05
1.70290268698209628e-05
8.67287303354642722e-06
1.07174841615212022e-05
0.000280923548178509184
0.000308223452889698827
0.000265788466219707734
0.00015261424286552481
0.000299548672739917659
0.000570980758469729526
0.000793296493527645484
0.00123226924094369601
0.0010723152043273117
0.00077614876793045723
0.000891651591469516842
0.000803628199547795847
0.000580957409098051335
0.000458692573298002785
0.000424393746993573728
0.000299777866397863866
0.000151350821933519611
0.000110071498468998795
9.39222001731548797e-05
9.18754791651173441e-05
0.000134268263673110956
0.000212985525118735368
0.000271777115376782791
0.000317342376259594253
0.000351887524993793664
0.000366728170519580528
0.000356205309556816441
0.000337538969036494621
0.000341330186282746756
0.000336980463063521409
0.000314678906603360349
0.00026531070455916274
0.000174836646438445814
8.94435111885951605e-05
4.46429333054122466e-05
2.30043941483635871e-05
9.31975783712946936e-06
9.65578182247206276e-06
0.00033886714120098994
0.000461349739102391706
0.000420168979660083476
0.000173748429334166218
0.000365636906891156973
0.00101088257179671463
0.00134494538307030134
0.000893724939947231414
0.00054715228387306337
0.00033523569076515929
0.000281577112758378892
0.00028640822528990976
0.000236108040846676475
0.000168191345957011048
0.000137445352643087267
0.000112529516781508082
9.26829188467151769e-05
8.3067592399062987e-05
8.00412383447147074e-05
9.11721204183061999e-05
0.000161219936759335943
0.000311003196624602685
0.000427253726728511133
0.000513716343988671314
0.000601599844375567809
0.000711501773926605978
0.000746403415935033569
0.000693763647734066489
0.000710228690893347772
0.000711140113467435505
0.00068327021482895837
0.000725987658172266566
0.000467845866985906831
0.000164212106146051075
5.62111662432935802e-05
2.4681381043989706e-05
1.01200066906839291e-05
9.17535109924492722e-06
0.000375787598331270962
0.000511631127600771659
0.000424864469556420659
0.000191446441541837418
0.000482292709775659467
0.00154112857579683437
0.000995047733957084551
0.000650448827173769452
0.000342342694239395988
0.000214049321223022475
0.000153759878453373983
0.000129352122220252369
0.000122868312940474956
0.000114946787618041215
0.000110414500767213914
9.97829575419787194e-05
9.14883898643359666e-05
9.1723914544481028e-05
0.00011045809844295487
0.000167489631182904115
0.000308611101331637285
0.000531731118784201898
0.000691041272017795319
0.000828097159132063182
0.00104324575227586307
0.00141382832494182042
0.00175472922132588493
0.00157221842911395488
0.0014762464571175006
0.00138669809628498629
0.000951432744859118931
0.000777517372911969238
0.000567197187151173544
0.000196391887073701465
4.87143284101180577e-05
2.31418425866716965e-05
1.32780793374208448e-05
9.02702037619730652e-06
0.000356615279453607133
0.000537935996402114157
0.000260353505445154053
0.000172635078174212712
0.000682477968335645411
0.00160448035848823794
0.00106509041896422105
0.000695351125420805879
0.000372103240979510203
0.000218409395882667199
0.000164212681804167302
0.000136738717521571012
0.000125267437358396358
0.000118464672529450623
0.000112318981743240269
0.000113166644013481656
0.000132453326226149353
0.000179141204631224032
0.000264860157905127296
0.000380203263282826332
0.0005432424201067018
0.00064424762283111104
0.000642862070865060143
0.000668168213645785867
0.000827536595571522898
0.00139004522460551899
0.00329611550300414535
0.00326124114504576686
0.0023810855485946825
0.00148398241154792791
0.000890040114204708227
0.000750040328866141779
0.000485203070028027887
0.000175676314431441567
2.33482242933947032e-05
1.77625501777768961e-05
1.33701377074757689e-05
8.75758489711229155e-06
0.000345316451093558962
0.000749010791891185153
0.00018684871843884128
0.000167444147092754878
0.000993125449387452898
0.00121276814487600239
0.00100937431313633777
0.00106186357931623509
0.000657668255331903765
0.000340123359615546064
0.000248566490919739137
0.000205294500515848755
0.00016508559181541797
0.000156391123039358542
0.000179724192062890171
0.000235586278038841954
0.00030586111244418953
0.00037207887756555058
0.000429502362897002496
0.000487540066759715605
0.000563270449913260991
0.000532163419301700451
0.00049330571371686532
0.000477784847197810093
0.000542439058490882522
0.000766796946799092505
0.00165806694526690027
0.00386269565431075464
0.00312931716306274988
0.00220688374900884646
0.00131784205016578608
0.000781183180566076703
0.000482934768790788376
0.00020223068014462269
1.98374759348410643e-05
1.43109945994330493e-05
1.13832530592300118e-05
8.5897650252214559e-06
0.000329001627724088627
0.000800194332183553725
0.000160455393429070431
0.000218465128886684707
0.0018471494492121902
0.00110638830140813416
0.00109191840990948861
0.00114492574098852377
0.0010185239244416939
0.000626118792007801734
0.000520181902698822903
0.000503007600176583647
0.000479731280466144942
0.000447198981980367405
0.000427847005819098972
0.000411024120550096015
0.000378199695136113183
0.000364792109084090136
0.000381596114925068428
0.000421461348310900937
0.000479120083603302375
0.000430292259538401763
0.000387882412302988013
0.000333101926650663626
0.000488274817647924432
0.000157240744157520983
0.000364061036003517655
0.00201750660238998042
0.00112293918429483687
0.00116913529666760234
0.00103479137806080247
0.00103700710775180829
0.000859070871401682447
0.000680473243983727876
0.000557243429962554185
0.000497638088377149357
0.000450070995137943301
0.000392434675493830132
0.000342844675767735199
0.000315023523675178737
0.000305569222125446889
0.000321332984563837054
0.000379411720984204701
0.000402069390071377775
0.00032983995124793563
0.000327195075959557343
0.000245394046795363444
0.00016071089922180479
0.000588966434878066079
0.00162615061925799539
0.0011552434202859365
0.00114915811825664206
0.000864346706915618376
0.000835598893496934756
0.000822339241411312871
0.000676080508872539719
0.000550024089398144572
0.000466451660512212792
0.000390832502963432162
0.000346270740387085222
0.000316897540694070692
0.000287092293038306858
0.000276961528742702609
0.000299352988224072956
0.000352960626450854334
0.000300142573720440717
0.000186315901830139938
0.000382114027284767999
0.000189089340300384556
0.000195569543000510127
0.00128555147790755881
0.0014704151820312426
0.00125684411181756195
0.00112086885586516792
0.000721528366407822846
0.000639898350231712411
0.000637198288024147454
0.000606082419125168357
0.000501224090190413173
0.00041726435263708412
0.000353736586240954764
0.00031473072668467152
0.000292219116356494456
0.000265924957645838019
0.00026513497365009581
0.000316795420603219332
0.000297584508819559446
0.00018815244556256663
0.000128748039092453404
0.000567145831382925196
0.000587020511101237668
0.000494066447265498654
0.000408285615636667823
0.00034993192589828924
0.000315575578827571499
0.00029777510979426175
0.00029185233004358019
0.000314305167537723082
0.000459427355028998812
0.000496593677669355995
0.000400834709302334456
0.000328711719735427321
0.000279924254910816331
0.000286600100230772223
0.00031697037858448838
0.000390206739075029513
0.000509158528238832131
0.000293750398320975932
0.000271534219788875718
0.000271389376918650777
0.000298723799131066041
6.28968966460347122e-05
2.85372703931234203e-05
1.58632363764968575e-05
1.2113766641478757e-05
1.087817004206112e-05
1.02305773021804205e-05
9.81933340444832331e-06
9.51168910907617379e-06
9.25820168091991324e-06
9.03333417083306585e-06
8.82678473467646065e-06
8.6383911584502273e-06
8.47254214319228227e-06
8.36276110250456348e-06
8.27554107101723905e-06
8.20723885365550543e-06
8.16453332867230034e-06
8.14122870506137974e-06
8.12004904339112032e-06
8.10900192097151965e-06
8.10400230329878603e-06
8.09752956572688764e-06
8.09510621340168186e-06
8.08831376161507421e-06
8.06893573099226157e-06
8.04683095121550881e-06
8.02238405288649516e-06
8.01163699121058734e-06
7.99757810012434704e-06
7.98837253692800839e-06
8.00982342191498711e-06
8.04168657171248865e-06
8.13791772611956693e-06
8.54929452975745285e-06
9.62300830150634736e-06
1.2902232325951252e-05
1.96104752917996854e-05
2.36592047169867995e-05
0.000177865594938911482
0.00014855443441289784
7.99146096007655719e-05
3.4516107562436808e-05
2.97600767447642501e-05
2.71458389272564177e-05
2.63086709108113118e-05
2.49845516287472312e-05
2.36085156800028887e-05
2.22943887926446111e-05
2.08601055853338688e-05
1.85240247807150785e-05
1.57994736787949308e-05
1.34005275219284634e-05
1.11458886399454093e-05
9.76424143752563382e-06
9.17481167944391168e-06
8.92908868242392136e-06
8.88748478738192463e-06
9.01345234036287282e-06
9.21682981678813721e-06
9.52384775217849841e-06
9.9551038689046632e-06
9.96360744817517796e-06
9.88948200917246712e-06
1.02122713616262608e-05
1.07118774420867955e-05
1.09317224343903718e-05
1.07051938182346805e-05
1.03647734388392985e-05
1.07655017333500888e-05
1.09624559223614515e-05
1.06068007091560664e-05
9.16522049275164194e-06
8.07394999117466124e-06
8.13686899784954446e-06
1.1392948028820918e-05
2.22455821255694564e-05
0.000195835919097789085
0.000149791797613869025
0.000135240069395858322
0.000152090864010734475
0.000204551115373515538
0.000249125436287616329
0.000275272972198057589
0.000293476847290772408
0.000310807913252913418
0.000331939815165139011
0.00030664759215393646
0.000255706277900598171
0.000243114544222491213
0.000220858123404211104
0.00025389127044422497
0.000255746461406876086
0.000213707376078489956
0.000177658506176641426
0.000166404556520882046
0.000157601703945214834
0.000132825090410287455
0.00010685907877397034
0.000104311217655410132
9.23194547885769099e-05
7.83742252146155306e-05
7.12842761919341139e-05
6.6641824108300469e-05
6.42302425146589352e-05
6.19254242220337365e-05
5.89027045410165235e-05
5.57772167524875793e-05
4.98451731312323472e-05
4.12301302153366924e-05
2.99620677716614301e-05
1.68787006972429411e-05
8.5645808795135636e-06
8.96343883550916757e-06
1.57724468156725256e-05
0.00017306431791861958
0.000139619065558427372
0.0001483738098617459
0.000168359333814386295
0.000252124852477295677
0.000378720399225380055
0.00047642622202794568
0.000532756985654531958
0.000551386172275377187
0.000604459322795072255
0.000679270303425660296
0.000613599340048498845
0.000596283711607071957
0.000471014741389727673
0.000406325570210694386
0.000418886131996607371
0.000490332217527987275
0.000452538430610034551
0.000231660840050480391
0.000160662552228139926
0.000133298546291218056
0.00013695310773284466
0.000137124563160276845
0.000129216657275722406
0.000116750394466118887
0.000110066467051740517
0.000104632466714882165
0.000102297464790861763
0.000107492629886175465
0.000101002036914739311
8.83112531785184489e-05
6.87126058337670395e-05
5.32304025935882786e-05
3.9373469741984992e-05
2.48142696009061885e-05
1.1155400956651894e-05
8.60485237864264329e-06
1.23715039652958567e-05
0.000127137675954923721
0.000203692668839945072
0.000223673440542573637
0.00025919876458854865
0.000281742945721027559
0.000518058540834881714
0.000883633025616754257
0.00122647045668023758
0.000934217081784996517
0.000788248284593831214
0.000966406480562566794
0.00122171436976179892
0.00129873671467850083
0.00119779000062588238
0.000581931233306171632
0.000401055477056301026
0.000225497253184523408
0.000124506387379504454
9.31402182273098725e-05
8.50031435309515953e-05
0.000110888955398148547
0.000146043551646543818
0.000163770862602291692
0.000174758219242187782
0.000189329909886334615
0.000192423840418213453
0.000191945159440847494
0.00018960937356838229
0.000189344452929085332
0.000182145603425789844
0.000164552694811947363
0.000125297841746073468
8.15618155519698163e-05
5.15419767207167363e-05
2.84578879948726059e-05
1.65468593563779964e-05
8.94930306499844614e-06
1.08342300517902718e-05
0.00014030870957258801
0.000337497740672938534
0.000446578547629244787
0.00027481023365012188
0.000380077626573344519
0.00100503482219650633
0.0013797693651001993
0.000877620194970576647
0.000494867180585415942
0.000295741723760742717
0.000230888028257332376
0.000221509085647086181
0.000232388521133337775
0.000194048737503801135
0.000145921250738478185
0.000116158764710496947
8.79495429076314973e-05
7.30747182488376693e-05
6.62672172365921667e-05
6.61162681136830312e-05
9.55632933631335289e-05
0.000173349086996346809
0.000233389117570767681
0.000272542330283832477
0.000301040405470553269
0.000326264608825899355
0.000348985913460717664
0.000365313079671682368
0.000384509549133916183
0.00041042354161382967
0.000440587144207198363
0.000385635036229814725
0.000220917032194915705
8.74850375503447036e-05
3.23350340503605075e-05
1.75191855050304645e-05
9.22634673366780679e-06
9.86293265359522426e-06
0.000212813300547590786
0.000402507827857579174
0.000622803795450443043
0.000215363533015970274
0.00045370545082254487
0.00141759938133852463
0.000904649168221911869
0.000660928158584473541
0.000312139630343976845
0.000187385290479403751
0.000133203978434923582
0.000115451286662386296
0.000109008241159404943
0.000102468246045176321
9.32009141801216196e-05
8.24712531396206648e-05
7.24858570486995146e-05
6.58165620491733784e-05
6.32482737635872271e-05
7.06531299374982909e-05
0.00012310347932956671
0.000271730251486161406
0.00041551497920281499
0.000536207073354391054
0.00063353305584698072
0.000747598002287279341
0.000857495922425594134
0.000897331971218186621
0.000944863635582746152
0.00100439101951999617
0.0011452533681746192
0.00139498544464241648
0.000840586757159635166
0.000164350035798956664
2.43624621992730206e-05
1.66857473953125029e-05
1.172890428865503e-05
9.24941271298664543e-06
0.00028211292724057951
0.000449958285881310843
0.000744723047522099406
0.000170105887057357051
0.000424996963714326678
0.00154039387176414344
0.000853758328247599492
0.000702921377582738961
0.000338301560483368863
0.000189186504657324353
0.00013368513757720205
0.000110864593541199765
9.82398885855862076e-05
8.95867246473497001e-05
8.38845409526369992e-05
7.82731702842586185e-05
7.20138424293489797e-05
6.84243378458608732e-05
7.19835441833463529e-05
0.000103849370394936335
0.000215585409795360369
0.000391069589851024814
0.000543692913364554587
0.0006187571256087189
0.000697875135765627617
0.00097571422422788141
0.00159984284115857983
0.00217830111391320884
0.00221283160346403066
0.00211500534496188424
0.00202019818545032823
0.00184975852253224399
0.000901889337028073971
0.000293777923062131182
1.92341492693601195e-05
1.27078369332436598e-05
1.14228416609292045e-05
8.9141402268213195e-06
0.000276551844754484885
0.000519529228654540091
0.000313547028521194207
0.000153460052769482995
0.00050862004012601535
0.00105016019393444236
0.000791270240474093822
0.000850266019191297444
0.000621789476507708379
0.000283394915007397451
0.000187413977405419529
0.000144620783624591927
0.000119691406850827879