/*--------------------------------*- C++ -*----------------------------------*\
| =========                 |                                                 |
| \\      /  F ield         | OpenFOAM: The Open Source CFD Toolbox           |
|  \\    /   O peration     | Version:  2206                                  |
|   \\  /    A nd           | Website:  www.openfoam.com                      |
|    \\/     M anipulation  |                                                 |
\*---------------------------------------------------------------------------*/
FoamFile
{
    version     2.0;
    format      ascii;
    arch        "LSB;label=32;scalar=64";
    class       surfaceVectorField;
    location    "0.990000000000000657";
    object      Uf;
}
// * * * * * * * * * * * * * * * * * * * * * * * * * * * * * * * * * * * * * //

dimensions      [0 1 -1 0 0 0 0];

internalField   nonuniform List<vector> 
20390
(
(0.567244013067972674 -0.136355783129149033 0.45680620992687393)
(0.433187363735573094 -0.216978891945435098 0.306091208246384139)
(0.241852744617696597 -0.158681101544915382 0.204148912665673893)
(0.690254257890748679 -0.0866314440285115422 0.337435141427951557)
(0.816370665725469569 -0.114393706550597885 0.593090780663932615)
(0.751291410644187363 -0.178425740569551017 0.536049222980348739)
(0.603895772138794751 -0.14561694118826457 0.586459426766336223)
(0.882059488048196672 -0.0882967367249553187 0.478734546410151451)
(0.946837853123809192 -0.0815239184230300701 0.59316532453022397)
(0.898302259112782497 -0.150405466036479751 0.591891949842517584)
(0.797855079452909899 -0.111321224160331689 0.677902079213180353)
(0.970230749499709111 -0.0617555456265448527 0.507558317107542512)
(1.07365138577738617 -0.059162597909233991 0.589954442761714937)
(1.00200883974777866 -0.138591964463396028 0.608721966761818001)
(0.937181971157669769 -0.0899571758293621904 0.673871211275186788)
(1.06351316445588262 -0.0477290089798395531 0.523500821506467484)
(1.16789278978615885 -0.0403040745237268211 0.595885998104914494)
(1.10607994493853101 -0.104871906978295043 0.614754857004609079)
(1.06488383187944602 -0.0668266350741251597 0.661501048986512852)
(1.15708701780833434 -0.0356665259985357794 0.545998649551153292)
(1.23774752232008534 -0.0275537582750355857 0.607359643802005245)
(1.19370247772817395 -0.0785027384818265256 0.623395070050144273)
(1.16298635061777178 -0.0483601953337519444 0.655844466660725378)
(1.23252295749178487 -0.0265035388021299285 0.568693736298719887)
(1.29229453063847455 -0.0195441112423785125 0.619346315863194774)
(1.25882588950908425 -0.0609185123699441736 0.636057350357898343)
(1.23413051361997939 -0.0357790882751779643 0.654538812895054445)
(1.28881998557910382 -0.0199501866724855308 0.587248817071775453)
(1.33826387434200256 -0.0142911011758551348 0.630865919480315895)
(1.31052343918196046 -0.0505246970139296703 0.642763561986978482)
(1.29004778971413869 -0.027013863068005739 0.657931604735982778)
(1.33344184985842351 -0.0153991923994191478 0.602851568518173564)
(1.37579975606960159 -0.0105085297779637151 0.642559450509770813)
(1.35487193570678421 -0.0418802753119631374 0.647879716469118794)
(1.33683665932991413 -0.0203582678246889935 0.663151008335092107)
(1.37009811584882724 -0.0116526447869375587 0.616926331863258404)
(1.40518508420610488 -0.00742725626712828404 0.656045696059618266)
(1.39358834303899659 -0.0344976748884699355 0.655371129605195391)
(1.37557825196045957 -0.0152780332792528829 0.671218359460018843)
(1.39878962904780857 -0.00932453141352196542 0.631608309013247493)
(1.42363951771526298 -0.00522305641362029449 0.670983945721508324)
(1.42332577018848427 -0.0262141364693465155 0.667753342753748202)
(1.40486383801769166 -0.0104982555855911742 0.682289125114353912)
(1.41923300992780588 -0.00811446721367490437 0.648315243159685028)
(1.43466866605021393 -0.00460998152532142609 0.685147525625228182)
(1.44174287144659785 -0.0214915445122530746 0.68254722375985577)
(1.4232802159185356 -0.00709902150134989092 0.695454193030565548)
(1.43225697523064577 -0.00822933610757200021 0.663500194341458793)
(1.44094194469423664 -0.00557447657025663713 0.696302580078218991)
(1.45088752579933966 -0.0194459762839323431 0.696943083396339813)
(1.43339556293694614 -0.00536768699238749161 0.707907610244961294)
(1.44048784541673625 -0.00930399145827944668 0.675288864435219072)
(1.44521311339458691 -0.00795863769839918501 0.703076510430032275)
(1.45390080902519903 -0.0198378166173749926 0.708485505441134089)
(1.43926082653377851 -0.0058948912635559108 0.71765375998326153)
(1.44655624245161984 -0.0112292796153423968 0.682249238692547832)
(1.44997075201762216 -0.01211940162174939 0.705219271609347831)
(1.45554570047732978 -0.0229630049636883257 0.715719870019956739)
(1.4436488051484675 -0.00805178505054550409 0.724351062496076281)
(1.45253675332256682 -0.0135028854572912683 0.683182653469886159)
(1.46329888261627561 -0.0173593372636467076 0.702832610925760215)
(1.46218587822654755 -0.0320577082616445158 0.716914707443165655)
(1.45150314373285783 -0.0123388502923776414 0.728564010344503021)
(1.46278259257842813 -0.0174442666262924206 0.677776701739410514)
(1.48579123608728936 -0.0215458435240673679 0.69576173217896975)
(1.47966756173936331 -0.0418641829759924256 0.710881428081405198)
(1.46694833700528027 -0.0167391880921925473 0.728466120458514665)
(1.4813427260185954 -0.0206206875649935159 0.667230120219338474)
(1.51871097706699887 -0.0223919675343579629 0.683465681773861577)
(1.51026043026573675 -0.0503424585068513175 0.697569380734579636)
(1.49145528983221376 -0.0199206524135261999 0.721921830459646086)
(1.50935341970160031 -0.0225557871597395557 0.654156688319416535)
(1.55411448085274206 -0.0196130690197507326 0.666721068180075482)
(1.5496020612586483 -0.0508074302129381955 0.676857851466381222)
(1.5236485115065852 -0.0199805095912567107 0.706332891620019665)
(1.54366080755070989 -0.0207061943948518602 0.640121582024658964)
(1.5884027765265345 -0.0152530167220201705 0.648056886359438256)
(1.58986298405435389 -0.0470769692295491121 0.651864530682322196)
(1.55901109767086665 -0.0178230339756527446 0.685671682115102876)
(1.57850392028073117 -0.017438783735925209 0.625806037250879132)
(1.61807550095388653 -0.0117682216945038803 0.629672352531505664)
(1.6258487225614302 -0.0415260612211184599 0.627597832464325878)
(1.59320829246258566 -0.0142485763539306788 0.664469423548623483)
(1.61042723201417037 -0.0134215824800436225 0.611089903678585289)
(1.64565935636731409 -0.0111478385885274353 0.613754904674552182)
(1.65636627584297424 -0.0384362179791335468 0.604899896415050931)
(1.62506686375210307 -0.0122070982504364246 0.645273727946239273)
(1.63875394115745676 -0.0106840028524175911 0.595984939301783756)
(1.67644997731924117 -0.0112059079774430373 0.601572527130934565)
(1.68721797125988937 -0.0401447118742894321 0.584650615874577895)
(1.65635209878258771 -0.0116331214900353367 0.631610344514742739)
(1.66623712059612794 -0.0104632711595354071 0.582111354938988135)
(1.70443718403534583 -0.00968371741364914759 0.592361244093388972)
(1.71930125653375621 -0.0377361159168388 0.56762640547889065)
(1.68664939659324564 -0.00965280622152650536 0.620000497031761966)
(1.69396718853094352 -0.00980216924889589815 0.572515494998473651)
(1.72956851472597695 -0.00796613230069556817 0.58465427513586754)
(1.7511096537045987 -0.0344840515494423197 0.552668995122007845)
(1.71383166683663291 -0.00711895553521590257 0.609548907012540275)
(1.72016905913868712 -0.00887061198462332778 0.56571212077239641)
(1.75464510791223693 -0.00691715073655075827 0.578238795989384213)
(1.77841178090424457 -0.0337119169092616466 0.537997008485772699)
(1.73950346304363102 -0.00576386554818720392 0.601022183635042784)
(1.7449208685260913 -0.00778770477453778406 0.558674834025770006)
(1.77895905099358798 -0.00604977866727215638 0.573956018059067818)
(1.80400382489267508 -0.0327876280412918372 0.525187323574125342)
(1.76476720186922065 -0.00461663638314710554 0.594793873423210884)
(1.76852851377962339 -0.00720667707675373952 0.553532486941524349)
(1.80217791868441002 -0.00526251524016600573 0.571680512792675066)
(1.82805094381762157 -0.0311594737255641296 0.516448488361052949)
(1.78926492928135494 -0.00357104658098627431 0.590352219646280374)
(1.79155574817854424 -0.00716390109066367478 0.551252064330890579)
(1.82483636464536292 -0.00396315446786908374 0.57010796211168846)
(1.85047847817166344 -0.0304335377512026731 0.508580009333054472)
(1.81216568961006597 -0.00215422775767979075 0.587885065144037711)
(1.81426702009577046 -0.00708066407591170267 0.549676419063485189)
(1.84252660359169274 -0.00245004321107817648 0.567460547095039347)
(1.87258295521167595 -0.0260814091820097092 0.503567705841784341)
(1.83185872223990232 -0.00016589860273397844 0.58388094831787829)
(1.83545399654596597 -0.00636873706302081878 0.549408329628971792)
(1.85667280270459512 -0.000552609654461348201 0.562627700211712156)
(1.89005249824557353 -0.0239339677902576931 0.498073453683689493)
(1.8472759116945201 0.00148062234225838397 0.579538800892119399)
(1.85332401832434446 -0.00498100474866912304 0.545816990070770114)
(1.85963136303444454 0.00574947692027644956 0.554101454406134231)
(1.90497304103717924 -0.0176464321998860141 0.493898403970644218)
(1.854448215218931 0.00523158916565478679 0.572820873041327894)
(1.86467357132875011 -0.00218002900457904287 0.540486533861022633)
(1.82593994316968544 0.0272809199617981141 0.535275024108600728)
(1.90421260960408301 0.0030536645222969741 0.491651286999436499)
(1.83740206970163267 0.01832713959160015 0.559133249066105176)
(1.85821718873263997 0.00547883201777675608 0.53154917321189521)
(1.68046704825757054 0.0830927358826675649 0.489872733343855282)
(1.85336155914616829 0.0657489683454867413 0.483159810899595255)
(1.74937578055867404 0.0561617149913728325 0.524671538993418118)
(1.79665862524467745 0.0352681345260488568 0.510696607154180193)
(1.3142326057418221 0.176902975759486575 0.391183104074476595)
(1.70884199696861061 0.188023033270918433 0.44338480021341492)
(1.52006561660170236 0.143003441273781562 0.445429844897318239)
(1.61105142035704629 0.107835436317113106 0.455241469967259227)
(0.648771753303369891 0.212386640766383417 0.220315724732588758)
(1.3521486517575374 0.359163407496466636 0.361774636380105874)
(1.02078964282677398 0.235380491888519505 0.285993061888137889)
(1.18306192009527789 0.228159300767452694 0.338858992947967896)
(0.0361130872316783452 0.0681058824197287443 0.0567884489419203664)
(0.612499747250565774 0.343096847439441577 0.192469100368045543)
(0.227470958580221927 0.170827695576623639 0.0673406180856501585)
(0.40220670201898201 0.204937368930629332 0.140875623367419323)
(-0.0897695350773087819 0.0457057367677067006 0.0776851687538282765)
(-0.325772579523748385 -0.0824768163480204264 -0.0362985738959996709)
(-0.281601073481199893 -0.0387806484120974335 0.0189997784672343052)
(0.57548835236507101 -0.252283559635318233 0.385334221299858448)
(0.406949421668991451 -0.209928418113564164 0.22983399341107752)
(0.0672888096623635024 -0.070754473392989542 -0.27249785309886132)
(0.671754291664786285 -0.193453311923012711 0.317091307948701329)
(0.817831860514765974 -0.248569588838543021 0.534850392158933485)
(0.751875312849814237 -0.288312539145158864 0.464037125057842337)
(0.562010203451477564 -0.206290293229812849 0.417326746849690733)
(0.874402515964742055 -0.207131745700048636 0.43989658298277684)
(0.939849203162676838 -0.238008271706764279 0.607448592074111504)
(0.827345621628339356 -0.291877447034504578 0.630450622639900371)
(0.748048740198679729 -0.243208040587905044 0.682102288920689692)
(0.994580798604362437 -0.193333115957709245 0.521175681667526924)
(1.05376073729301423 -0.206838564581298373 0.633522381004712143)
(0.835343609897522321 -0.273444674753140882 0.639055906489472414)
(0.838350380412807961 -0.229157432443960446 0.714742396908192856)
(1.07338436104654078 -0.176328005097311169 0.558948541096178642)
(1.14052094561286554 -0.162778659303025569 0.642263928949838858)
(0.971547095458001997 -0.201806450760115025 0.585678480851031358)
(0.968796081364780459 -0.19227975799128541 0.693106708431051821)
(1.15511044177306843 -0.148028263028159662 0.585997866137699663)
(1.21364385957074128 -0.128120984424063472 0.652092776606037261)
(1.12504978232159969 -0.146027665368367532 0.554743034951572178)
(1.09559385943118781 -0.154851558784748267 0.666143309622891033)
(1.226593347066534 -0.121441400469604249 0.604216433341835391)
(1.27418004145810038 -0.104887581554414897 0.659474596481682052)
(1.22102730890687239 -0.108658631699261529 0.555266439919282817)
(1.19409763758536891 -0.126760609698169185 0.654600300391695922)
(1.28088405761288415 -0.101071889220424496 0.619656286090919828)
(1.32612085521463019 -0.0882500974345537953 0.65977735897578127)
(1.28609439380903701 -0.0874589282901405141 0.551353012851210411)
(1.26937316428191171 -0.106835590637170436 0.649031916552686661)
(1.3261884653342928 -0.0857918612739565073 0.627104261940974017)
(1.37246550185433391 -0.0739443711468585063 0.660691395564543371)
(1.34455285244083189 -0.0712650225969226059 0.539074070424928498)
(1.33238629889458604 -0.0911324965099313544 0.645933638503679464)
(1.3668786206490211 -0.0710931489748127809 0.633508708349383109)
(1.41424581173968722 -0.0605309645157711684 0.667078776299325438)
(1.40475238024918436 -0.0577771577680818299 0.52924010664582688)
(1.38875130645507161 -0.0776567202367261372 0.648472554041440663)
(1.40307923926862954 -0.0582745154902733764 0.643693742838068572)
(1.4413072089270258 -0.0494850583621805132 0.679316620792095538)
(1.44792824062835002 -0.0383638461029821992 0.537794791839913078)
(1.43478888020564055 -0.0640513868870153658 0.657514824727846503)
(1.43101285096766162 -0.0480845549129473998 0.66027659617611012)
(1.45786293798218036 -0.0418591368799078878 0.694342781530967512)
(1.47113278039451156 -0.0282964707706961846 0.544100658755861666)
(1.46105442256761497 -0.0535254889494444566 0.674112905103777416)
(1.44855624566136187 -0.0421007475906162304 0.677058565135402524)
(1.46300953721211013 -0.0373641550808607587 0.709126008759255022)
(1.47399333160745027 -0.0223160666345637998 0.565955845046229755)
(1.47240909788679963 -0.0460035627528153149 0.692453625341009849)
(1.45719617314252958 -0.0391983750407347009 0.691859888911986132)
(1.46388072035731187 -0.0373430645378232395 0.721128865031058552)
(1.47397557208660146 -0.0250495861720965683 0.580301498994504339)
(1.47555848052511562 -0.0422354337558637008 0.70984266443834676)
(1.46056103762634426 -0.0401128886923433348 0.700290198527547814)
(1.46437120136845134 -0.0448741697061131525 0.727415305853774452)
(1.47748164009715732 -0.0345799912699367024 0.588730453830944356)
(1.47349711583793619 -0.0418176057218893754 0.724621062465248933)
(1.4646358525097305 -0.044584015076221381 0.701877494480952491)
(1.47738347915490453 -0.0592518391781653789 0.724963524598810638)
(1.48669698926364369 -0.0592628938917748524 0.5864033704057241)
(1.47446175059923279 -0.0480841300669083496 0.735434497975816948)
(1.47420451015400289 -0.0568546565569574211 0.694036352626751674)
(1.50348812171302959 -0.07535989190526797 0.712689076637014862)
(1.50617237308480045 -0.0859962131942633434 0.566269036169260831)
(1.48571771232025895 -0.0583574154936937067 0.73942995422503166)
(1.4946220362024385 -0.0692932970564443251 0.67727055932314606)
(1.54422876812622256 -0.0858701241308987007 0.690961550427099169)
(1.53804954016147777 -0.10866747499453952 0.523334315244849524)
(1.51162343170390168 -0.0709959339568324993 0.732640632954846716)
(1.52927937379148804 -0.081924121443001624 0.656731283622482009)
(1.58650547349069937 -0.0871973558381261143 0.662001313968628269)
(1.56684632752489161 -0.11044963997616157 0.444051136695097937)
(1.54940005544110493 -0.0786164039302648943 0.710326107570731002)
(1.5719894709495259 -0.0853062597016866486 0.633318334689471296)
(1.62973290546764127 -0.0823742965851706754 0.631405476787209596)
(1.60284852261304822 -0.103971181708588808 0.34162034343745673)
(1.59271769281842501 -0.0812506931988386943 0.679637067752853818)
(1.61544277407626624 -0.0839698114263254386 0.609075686702054475)
(1.66327077347354813 -0.0756106755273906611 0.602825376347871034)
(1.64061754759114553 -0.0865415629008517429 0.252601701390517797)
(1.63491228710989667 -0.0786096753040951834 0.64416164033054446)
(1.65517353031855086 -0.0785060105770260669 0.587667941901000801)
(1.69424421927647217 -0.0736808963559505981 0.575795607615076532)
(1.65707652091609825 -0.076143021099335878 0.146795716441332602)
(1.67152946625721022 -0.0761709852720983543 0.610186932562200468)
(1.68862227990473901 -0.0731503972448154377 0.56574633584011802)
(1.73257952699972639 -0.0749842246982840299 0.550704494222533869)
(1.66230617512714085 -0.0793076933319765143 -0.0104474517028606568)
(1.71102298124148766 -0.0762391955643444696 0.582858591711742258)
(1.7209731603485785 -0.0727253259344891184 0.542867596455236079)
(1.76627459139429277 -0.0746621168067077429 0.527934156507509411)
(1.64852176401214079 -0.0692465691983563947 -0.213887750042570435)
(1.74456496552986962 -0.0742854271478974038 0.553456242683497357)
(1.7538959653107391 -0.0722194054163244614 0.524130142975953062)
(1.79882140478531283 -0.0738931729728468656 0.506011728471913003)
(1.63367102797658803 -0.0633122387995033731 -0.344870903931634443)
(1.77852362849041312 -0.0717585009739232227 0.529372229028059249)
(1.78755851206475858 -0.0723339256357320298 0.504262287197315584)
(1.82826191320772047 -0.0727776257684916716 0.484945536070513938)
(1.62787269735566076 -0.06149874330330974 -0.426898531625267474)
(1.80756967374603184 -0.0705432007933507327 0.508311976664825638)
(1.81679634846156368 -0.0714505559386183903 0.48217845382846064)
(1.85335557438846799 -0.0706435728400918173 0.467679793876110472)
(1.57584240758419902 -0.0569410774976356268 -0.546871139247935734)
(1.83470824433875257 -0.0683144249582098712 0.487722721242003499)
(1.84425033559129892 -0.0705055573560696286 0.464509380643188308)
(1.87595131468903942 -0.0682019501272877054 0.45334798490143241)
(1.55741648941700395 -0.0514352480927581096 -0.58095309534363504)
(1.85866889876966601 -0.0654612711480033055 0.468235686142161656)
(1.87058337084268134 -0.0697788606736208794 0.450279911977181702)
(1.8997673071220964 -0.0645644800616336917 0.442039753063150298)
(1.57602429986051629 -0.0523713065532549205 -0.56443831234230224)
(1.8831373087233898 -0.0620453826031279604 0.455214459289989937)
(1.89289345178223112 -0.0679892850572400564 0.435154827386983134)
(1.91986306401147044 -0.0601685160207990483 0.434180612430434376)
(1.60542652255649188 -0.0452294189902020874 -0.535892378660585145)
(1.90651695162804713 -0.0571701471017533602 0.445051629503570467)
(1.91451920716860546 -0.0651588958261523632 0.426851150105931554)
(1.9397098671033528 -0.0557303039409491399 0.42934415744262161)
(1.63566844249993526 -0.0439715253090468342 -0.504743153761083696)
(1.92667700203157088 -0.0535784773160243102 0.439931365922791862)
(1.93479051425007009 -0.0614798468623506331 0.419702988137844124)
(1.95749375284434457 -0.0448759768545292717 0.431448236563946541)
(1.66835694096575704 -0.0383502271192443164 -0.464170096370945973)
(1.94471310162523259 -0.0464404838258136166 0.439671729879085427)
(1.95385602118795965 -0.0566407093138185588 0.416048091346830184)
(1.95777160576615916 -0.0107415679041533534 0.439536073790430581)
(1.67381866492177167 -0.0113911198258854467 -0.416430099224465389)
(1.94874074378704076 -0.0253819026338861845 0.449463300064454174)
(1.96567258150919 -0.0427838062975328115 0.420851630638941765)
(1.90061816432116504 0.0780359984285243641 0.436671877769155781)
(1.67626932191074829 0.0846799233206773222 -0.213892436136681408)
(1.9118802164281663 0.0387772468582573623 0.452712417602745554)
(1.94359864598852794 0.00107911314038912224 0.433420865398039645)
(1.69759440725163335 0.275913213303001004 0.413976332519045365)
(1.65973236900284626 0.288070552009903613 0.133241828270414697)
(1.80333949612794875 0.179244835704982203 0.427366012393780192)
(1.86976346164547147 0.114303706446633943 0.424437224410501635)
(1.18681674131784565 0.461158279887944278 0.333928012015561604)
(1.51669658653909845 0.623052865655984278 0.318330012781050109)
(1.52662499695887521 0.441354707769283094 0.382823520724830724)
(1.63345494785000733 0.377983643669019598 0.399824707695823456)
(0.509079850278018387 0.361703980526302538 0.213365820179951537)
(0.969552252291528749 0.711231783234431703 0.27629254688974525)
(0.795720640457692419 0.495199920185177223 0.228908644549830453)
(0.976076335251086613 0.51241488057514295 0.287441550676744539)
(0.221111872502716356 0.32504651797077494 0.193683742732591035)
(0.0999932391468321691 0.180499272942708594 0.12584771882238352)
(0.172385898519923614 0.230873986447718338 0.175449309233048578)
(0.584204871856756847 -0.265546730378329765 0.308536897169059077)
(0.305043519545940667 -0.181417250389551199 0.0882506455907901)
(-0.0195596622633978368 -0.0192631486325494372 -0.354761065008994403)
(0.641479299333777009 -0.207744103511226186 0.286465938032892109)
(0.750867013332532807 -0.336393121846412346 0.559637355538809)
(0.697529305769759578 -0.356730430577945956 0.445935361996951718)
(0.554356062104003344 -0.301504224033572077 0.417163276490940538)
(0.879543827717688909 -0.306890546627083205 0.446989501928822197)
(0.674402375527617837 -0.309769229857675077 0.662057937055261392)
(0.479326165304465479 -0.32730897538029613 0.74712478051181086)
(0.442613310994854015 -0.293625857785209332 0.744640647312647008)
(0.895894034879396894 -0.293316897748166272 0.597312920520690405)
(0.787575028967590018 -0.246275095404839051 0.59121200633579174)
(0.461836140948961305 -0.331318657709513575 0.446948872297502686)
(0.436635131781059893 -0.255531747480834404 0.590683773978619708)
(0.872136073514019117 -0.251224136896472106 0.588108479806346396)
(0.979240716718071447 -0.172202748837519515 0.498157586852764733)
(0.831319057660046212 -0.237482250786910265 0.186648723546813444)
(0.731296198763912164 -0.180214884358882665 0.425173375989643665)
(0.979526266201265594 -0.196635179846321756 0.545487529660384607)
(1.12737685064531346 -0.11492017912855429 0.457916698264817734)
(1.18455005815281256 -0.110115201932345114 0.0774536632770296274)
(1.02792098764465778 -0.119865560078754901 0.290666785535578953)
(1.11440575183030655 -0.149114866320582046 0.510627969373547375)
(1.22549713687266659 -0.0781542842310738867 0.447144856288811288)
(1.34803549398354616 -0.0227008471015519124 0.0446037674442534837)
(1.19665476653180081 -0.076289079991609679 0.226188241758881636)
(1.20841325957226609 -0.114822797216168088 0.496224153537979773)
(1.29978542911472061 -0.053091036217864207 0.430649724300357584)
(1.43062868516674735 0.0228064938882150785 0.013625250525158672)
(1.29354051302267514 -0.0479653942109186937 0.1909419004335694)
(1.2801491793470996 -0.0905289792222976342 0.485760995923827599)
(1.37607560681282393 -0.0327013390581916488 0.407622781506211784)
(1.50890623581846106 0.0490149301686257782 -0.0203525984423966154)
(1.40183769182060658 -0.0304351390362163701 0.15270437053879532)
(1.34597406909463602 -0.0688441534787796044 0.469554277725599323)
(1.44855301808415371 -0.0127116965408801477 0.399956122186414409)
(1.6182091491403241 0.0656172772844962338 -0.0351548678558645175)
(1.53065056298422242 -0.0126161345533390579 0.137499569980499781)
(1.41188652222008115 -0.0521790441206770872 0.456765625709935785)
(1.47690318967484702 0.00055980834060170479 0.402578829803679095)
(1.67403229151960486 0.107916192308264075 -0.0160178304902538378)
(1.62451892093379024 0.0202675750598086332 0.144187997519400396)
(1.45685885607677701 -0.0372216733899697269 0.465098033768865826)
(1.48795555248454092 0.000679358535289648242 0.415713722271124186)
(1.65718484061100546 0.119673400652727455 0.021108346762818201)
(1.64145047287281232 0.0391854300937462194 0.158058661965308822)
(1.48179457231930556 -0.0329427698661755516 0.465050635931860967)
(1.48158819443586309 -0.0078186271704854711 0.437131335281479239)
(1.58049488049901421 0.12178410330855402 0.0698199093384723746)
(1.57632328284004508 0.038237377676469668 0.196609426330323384)
(1.49015907181610796 -0.0369860458186611687 0.478442332949510052)
(1.48683222044264451 -0.0230652021323852797 0.447903087794390142)
(1.46713388124080146 0.0930756042348750701 0.0775247927461252262)
(1.4831033592440741 0.0217422771844540154 0.236897176010240629)
(1.4992946182255027 -0.0478541861759147549 0.478391538028455077)
(1.49278024335215997 -0.0477078196560059772 0.447718518382894115)
(1.30709985280279928 0.0540134554688432578 0.026993603248898157)
(1.42736825848714677 -0.00620867671668648077 0.286540502993297252)
(1.51158148462307018 -0.0622131337699689396 0.469675444339324066)
(1.51266442812308299 -0.0787090127120925742 0.427708881976174515)
(1.17710716170903695 -0.0273260024809982467 -0.0468235935180904006)
(1.44374902354208512 -0.0374930281070279953 0.362431195904193704)
(1.52300876408465213 -0.0863260190528445659 0.446189185512335607)
(1.54158185172375428 -0.109002676376543053 0.376914274777095104)
(0.906486219266770532 -0.0962545236108503094 -0.207089719176135389)
(1.47185794724610708 -0.0646908874217648061 0.395796106473152831)
(1.54104092063508458 -0.107515302312969074 0.404197025353297046)
(1.56551573262877497 -0.12521604643606235 0.276423901512847403)
(0.633243048797927921 -0.124877820670797293 -0.590986235879477628)
(1.50465432211247507 -0.0899449422546461236 0.348174551291002055)
(1.56910179842642927 -0.129690937188560063 0.339687838311730994)
(1.58448385524985169 -0.123363644808990217 0.123670166163926801)
(0.565596879790529639 -0.105658706528734936 -0.92475869570067859)
(1.52676404435451518 -0.0978294710846066978 0.207324778336385795)
(1.59217491459021199 -0.130881265629163857 0.235874777010636222)
(1.6231669079389317 -0.113588024620054143 -0.0371834319592357909)
(0.649087195991575605 -0.0861587300273844725 -1.14571067748788602)
(1.56598918381583552 -0.0946212723165373026 0.025396730303208017)
(1.61857020702129106 -0.12454485390465049 0.0997045203781504463)
(1.63078077319147052 -0.0969661823316104038 -0.203427958516020635)
(0.840192991699729053 -0.0114819258538977186 -1.23759255733519558)
(1.58200566491997296 -0.0725138493662066536 -0.192375899443636422)
(1.64865165702392291 -0.112310235845689624 -0.0346428999531375945)
(1.61072552615919351 -0.0704639069784375183 -0.439447342876601144)
(0.872724014037161933 0.0623588803718359841 -1.39756224637218551)
(1.55912829285429111 -0.0438948965717214576 -0.470524809486497442)
(1.65593720042691483 -0.0975817948661657358 -0.213576529914297153)
(1.58659888978238195 -0.0234587553687105529 -0.775039695967961739)
(0.903237336319181017 0.132698710833007966 -1.52868275976299239)
(1.45573395702554942 0.00546258038793087652 -0.835025382956580464)
(1.65781277432824004 -0.0794966633123764532 -0.435139105558718153)
(1.51474762639053329 0.0202886175629785059 -1.08669281048171396)
(0.916965968465978443 0.194100112936857999 -1.7043265402147656)
(1.3619007733176578 0.0406695521002759589 -1.1827685222065456)
(1.62410992288995915 -0.0379077685510336229 -0.727925524375165112)
(1.46084086825251469 0.0346251527699986961 -1.27778116402881503)
(0.922340456377890638 0.179325581130052925 -1.75992131824099651)
(1.27219844245081815 0.0544696736405219858 -1.40283759190456969)
(1.58644222875810703 -0.0134361042977251422 -0.97146837595672475)
(1.37903756964279922 0.0399190259531062991 -1.45871520694371526)
(0.937172803479256578 0.152533497573860893 -1.76768238288464397)
(1.24992634209450504 0.0464900410846540574 -1.49893982924038327)
(1.56029302881292153 0.00225961251156484586 -1.15267832161950889)
(1.28101573668044111 0.0371316186078644375 -1.59550402846768158)
(0.89019637120591566 0.122187516923360259 -1.80391052205531111)
(1.21114924497898002 0.0374633881477077352 -1.61427490832930842)
(1.46138700560131296 0.0175338849168461888 -1.35403924451773849)
(1.26041532977456372 0.016487892308235691 -1.5987393925873703)
(0.869056216061569353 0.0583882494115545297 -1.75141863411156917)
(1.20981421922509313 0.0187822387260607113 -1.63641460705759711)
(1.39806906604557657 0.0162598114655304396 -1.43736809329178827)
(1.27984096343268838 0.000349379440385171882 -1.54237044406603907)
(0.888522471936537439 -0.00188993632523127078 -1.648703853949125)
(1.24980383492036373 0.00290175887295511829 -1.59657696012367922)
(1.33510362454406573 0.0102956676297013411 -1.47618877028331541)
(1.32077168945098156 -0.00367173127285410359 -1.474816144852102)
(0.930997921720891908 -0.0182592693017173714 -1.53663662615196772)
(1.30092789803445186 0.0002784567224507455 -1.5318050923641835)
(1.32239282421374571 -0.00184406312113777316 -1.43693413899597755)
(1.36550368582659609 -0.00245071044784336573 -1.39825740757465011)
(0.991869048878839532 -0.0211531814901654951 -1.42398305821576354)
(1.35789959079331091 0.00012379643752231828 -1.45991520107518236)
(1.34258790829498853 -0.00870299128655845251 -1.36954651047967646)
(1.39549619587131279 0.0150561011292527688 -1.3120484321593564)
(1.05910618576304438 -0.0153617463397369078 -1.33278398625161243)
(1.41118267052505963 0.00698232734983262552 -1.37151218305904599)
(1.37251426855545189 -0.00448814756564692129 -1.29554276474770425)
(1.43686075320298179 0.0786277686515086394 -1.06985860915157982)
(1.08125410027035973 -0.0172529648566552458 -1.29611215506571931)
(1.42398197798217097 0.0442955456740583148 -1.24297969497041549)
(1.36497951143326257 0.0213538313438009011 -1.21333891382863501)
(1.4804539513730528 0.230871091941208639 -0.517322485635422602)
(1.11158935114908552 0.0226225226108242305 -1.18095223808481187)
(1.45198138453351322 0.165666889930249139 -0.796991432319777093)
(1.3833958534778803 0.0990881579184069716 -0.877513115321848058)
(1.45075790102390423 0.50901964615710471 0.0375955085324179983)
(1.12758558770530048 0.280496269496225803 -0.732103152878022079)
(1.47252439551264769 0.382903665524256698 -0.126038877410559191)
(1.46221306484996005 0.295363273905593693 -0.170883614275741474)