/*--------------------------------*- C++ -*----------------------------------*\
| =========                 |                                                 |
| \\      /  F ield         | OpenFOAM: The Open Source CFD Toolbox           |
|  \\    /   O peration     | Version:  2206                                  |
|   \\  /    A nd           | Website:  www.openfoam.com                      |
|    \\/     M anipulation  |                                                 |
\*---------------------------------------------------------------------------*/
FoamFile
{
    version     2.0;
    format      ascii;
    arch        "LSB;label=32;scalar=64";
    class       volVectorField;
    location    "0.480000000000000204";
    object      U;
}
// * * * * * * * * * * * * * * * * * * * * * * * * * * * * * * * * * * * * * //

dimensions      [0 1 -1 0 0 0 0];

internalField   nonuniform List<vector> 
7248
(
(0.136972068080732978 -0.196679071785537396 -0.499569016645409703)
(0.238997461765499103 0.25083492267485813 -0.553841456302179957)
(-0.164834091539543315 -0.875560315361364694 -0.102545271360287904)
(0.310371511921102683 -0.170450075684695501 -0.364248197349521019)
(-0.180580296608282898 -0.363881597976336624 -0.0361749056902284649)
(0.549394796505661365 -0.659726726992412082 -0.547330853319604183)
(0.22133021229060057 -0.262279068085449152 -0.090352330081602289)
(0.00734440410317974135 -0.205584689551062627 -0.285326735918701835)
(0.0558973726699717663 -0.663061801267452178 -0.389617195864708055)
(0.0852073673326967651 -0.185316320234985787 0.238177180292830054)
(0.145981643574204401 -0.13655103519743686 -0.0140585171330896361)
(-0.14364175071621138 0.09063483742586112 -0.0174453438965905261)
(0.198032485762770105 -0.693128926283445135 -0.0730706898987059372)
(0.0456647570373191619 -0.81205639708329902 -0.445498838129438801)
(0.383690966646877407 -0.0737504299248608886 0.376917494891980787)
(0.401737204602265807 -0.266469620735729107 0.287252701035519142)
(0.482454539709367414 -0.611279030203142559 0.187666527896557189)
(0.587917854345455959 -0.842369635262264937 0.0505454820756718465)
(0.498764694389771668 -0.506064351960507697 -0.0926259819934757561)
(0.35729171366772533 -0.11023285228867849 0.429553467417476131)
(0.474876466795932872 -0.203940187830948139 0.369214045246633704)
(0.551976196951375231 -0.315072930906436122 0.216591344157816307)
(0.556668333126043358 -0.43071111974069004 0.0479551000085286089)
(0.487638557745590229 -0.468956111141866361 -0.100583896238396336)
(0.303936722219178002 -0.215942186027823751 0.317759647480921947)
(0.440310548132359147 -0.257945672201983722 0.269240180739364343)
(0.523889290585890621 -0.352681919842005309 0.185431472475776016)
(0.575569944058509697 -0.427262490507305415 0.128369812170973041)
(0.614005961390629129 -0.43766214028594419 0.0834341249670913637)
(0.294668912633132385 -0.281029020669670448 0.172635794454390923)
(0.381497537803948461 -0.331343033767889372 0.164019667188603363)
(0.44673665664731077 -0.405044145009729184 0.139794215439679875)
(0.493989047184549057 -0.473864399886387122 0.11418659127376149)
(0.54058229588627249 -0.529143015627607127 0.0738446708403032864)
(0.25810308004833199 -0.333147910670900937 0.103709167662622948)
(0.314572387114979368 -0.37298005072606305 0.107416864242748655)
(0.363728404007251205 -0.43328392519993042 0.10444172092121555)
(0.406166573893459504 -0.505828222489733692 0.0986783203147676147)
(0.439334990719169316 -0.575990660593123094 0.0827307930615590603)
(0.216325862232312482 -0.376869176945662021 0.0749932936714270554)
(0.25574971430052279 -0.413599577901656246 0.0819547267757261277)
(0.289724480722180988 -0.464083593353698254 0.0864640898811718933)
(0.321565735923925566 -0.526738315497654264 0.0881245714546182446)
(0.326620538802714966 -0.599851748352630665 0.0800256116233479253)
(0.17808491196780693 -0.409096750566579737 0.0573140992306513872)
(0.205386724202870824 -0.440026771279840301 0.0636692193474560353)
(0.228399488326021693 -0.48014231073821001 0.0698223217842564442)
(0.246111422907895366 -0.528571512110159403 0.0748815307439686939)
(0.242787613842335659 -0.589336563476176911 0.07748208940110618)
(0.142432507692596522 -0.433361838511015174 0.0444989425098366656)
(0.161672077441166739 -0.45979875010319593 0.0501114162619054407)
(0.178654527825147402 -0.491185728826305679 0.0558587715498144038)
(0.190309553588449004 -0.527225835138846022 0.0616550426306317345)
(0.190547389112765225 -0.568306915304545135 0.0663465752093159167)
(0.081095435365434454 -0.411994383567570677 0.0255209255293510004)
(0.0947325247657284791 -0.429562081947467145 0.0295161302922208602)
(0.109011267694197195 -0.450525768104734103 0.0340153413559362711)
(0.123428030592216215 -0.474832756611511808 0.0389756107240242095)
(0.137269833176735911 -0.501918878412820124 0.0443320725514063929)
(0.149616126752262824 -0.530963423884598051 0.0498930627065093252)
(0.159237729817724272 -0.560776642671486414 0.0546382340461739335)
(0.0577302548553179362 -0.424175752944114914 0.0181264435598408186)
(0.067127403758225665 -0.442251911663304909 0.0209840439189487825)
(0.0771128145417081662 -0.463143879810756609 0.0243710500088701043)
(0.0876721354323635044 -0.486934033167901792 0.0284757278191578173)
(0.0988016877154151568 -0.513354937372988318 0.0334696261728767083)
(0.110908648913499344 -0.54178727634722923 0.0395714991700288829)
(0.12534233685943369 -0.571582885144032993 0.0474572662449488994)
(0.0345825466637180307 -0.432225892746050888 0.0106472082916803309)
(0.0400495079216895214 -0.45062955749841227 0.0124020850068623321)
(0.0459754171047338581 -0.47187598477737247 0.0145836092111774028)
(0.0524921733075544295 -0.496108160090086348 0.0173467432289855852)
(0.059803006803407957 -0.523457083099583054 0.0209295923195396451)
(0.0685339168211972077 -0.554041985009937954 0.0256993357596147741)
(0.0800851882327567044 -0.587860225666361425 0.0322026119858279045)
(0.0115085124080166572 -0.437542994267663854 0.00351331043168295366)
(0.013331832634651819 -0.456014433287296239 0.00410008437494975304)
(0.0153060121737109717 -0.477357740172059564 0.00484129171543397352)
(0.0174820734283059193 -0.501780350848125334 0.00579532106298370504)
(0.0199429371343153652 -0.529595630767387804 0.00705134019424116798)
(0.0229145701817318435 -0.561291546520153561 0.00874991393837518464)
(0.026749765754347371 -0.597819449854664065 0.0111744392609850422)
(0.17514025378213538 -0.00812792793082253717 -0.422465432634209381)
(0.228267936866418275 0.341915705007009296 -0.447812419508872461)
(-0.237286609620406985 -0.765004174701639617 -0.246659964826139527)
(0.32098640526319322 -0.0688266312175042499 -0.351343206535205177)
(0.401448290651008233 -0.860674453490989921 -0.164720717600458255)
(0.595626994380213604 -1.01652779790609515 -0.341896825873867216)
(-0.237205408844661236 -0.242123538381544184 -0.229276711611955897)
(-0.139503263224855678 -0.250390732848169761 -0.249338853432560181)
(0.145906835011175462 -0.415678294890550637 -0.383696905491032025)
(0.121803604387233602 -0.671641193295681393 0.114835188376331457)
(-0.0017930305333068719 -0.548825489689633517 -0.0255198000396821938)
(0.0520333759116160671 0.0472313828086605506 0.100296878054013341)
(0.577917009419658179 -0.864477334792264185 0.134554972004962192)
(0.0861224314601705399 -0.755421097907937322 -0.394017889221072615)
(0.385802146970970983 -0.273556123521704553 0.336324793199179739)
(0.39813572071103559 -0.314082756622538206 0.266345483753094969)
(0.496041876787763958 -0.433317430132599879 0.103772886828089356)
(0.665093615139502603 -0.659604020244782818 0.0145292281954815215)
(0.614886730848498653 -0.406992439078841917 -0.0858261484289916804)
(0.330003815794703614 -0.348074275261396393 0.324244953337618713)
(0.453474766791942707 -0.375298963897212179 0.244014112232728064)
(0.501980104909203861 -0.411149040142750055 0.133549697367254416)
(0.563040168696258836 -0.52610718898577491 0.0187017400798866126)
(0.40917297825627752 -0.546952732424723309 -0.133480450733508782)
(0.308632288286923906 -0.308783480979684999 0.232789430225448679)
(0.418398337525320962 -0.344657086629358234 0.201425002708705392)
(0.504542826269605893 -0.395776689931489678 0.145343577598219725)
(0.560951120727663066 -0.436574708973484327 0.101917352683112569)
(0.62267168605526857 -0.411589548838254493 0.0551986186040567262)
(0.291999868036093124 -0.313799145056826378 0.127709955642867939)
(0.367538562293932891 -0.359806343788847294 0.1245793899624692)
(0.429801501516715589 -0.416158233884896978 0.10772966601641272)
(0.476265125416666935 -0.483207160163266369 0.0899034835127367898)
(0.530974743715728281 -0.54149491388868809 0.0596068827281417205)
(0.265108647295017597 -0.355327078663734974 0.0837326203034378658)
(0.31573091743492987 -0.394914432443024987 0.0881337102949697609)
(0.362633391103639124 -0.446816385829548746 0.0862167126882694146)
(0.401965554993202911 -0.51326220809112888 0.0819957729503862781)
(0.435258484477332508 -0.57446751887874814 0.0647703520227995572)
(0.225360703697727621 -0.39041225286538922 0.0639913205898376553)
(0.260745465673085874 -0.425402033323018069 0.0702249691946738586)
(0.292794242213901768 -0.472762152523072132 0.0739727085659203781)
(0.323126100678716 -0.532749309078820121 0.0753232119669133143)
(0.330826292485742635 -0.599026080784977655 0.0666765561279005492)
(0.183491948570353891 -0.418236754794822918 0.0509948100871245036)
(0.21014306706705993 -0.449111184608613323 0.0563029919724676933)
(0.232995514089185674 -0.488589335692610927 0.0613729830545838989)
(0.251724468602725682 -0.536342240570763518 0.0660230548805279954)
(0.25167200640436127 -0.594745943594890414 0.0685130028476704095)
(0.146748637487390976 -0.440322894156810085 0.0401461540928840163)
(0.166156861673370237 -0.467356393076134191 0.0449357451404137007)
(0.183211098810801831 -0.498791314987921175 0.0499108690432023827)
(0.195452251834593776 -0.534960074237800676 0.0550880943034635154)
(0.197157655794718112 -0.577211445787444655 0.0598707710260528297)
(0.112900485680834162 -0.456818182251734706 0.0309083664543458488)
(0.127576964396258874 -0.48141658030038692 0.0352061692156054942)
(0.141710147362885619 -0.508597484123003984 0.0398793929251917839)
(0.15402290999360399 -0.537416547709277381 0.0448315769150382099)
(0.161809257142634833 -0.567401564761828348 0.0497144593312385946)
(0.0801608885738333554 -0.469062661335026054 0.0222381325872465611)
(0.0913947480796233752 -0.49349650653866789 0.0258687783890236521)
(0.103419027012169415 -0.520418045161512799 0.0302815351772314015)
(0.116646658610506701 -0.549015493384787945 0.0358061470087070663)
(0.132029927491349092 -0.578283689408074619 0.0429938780528744194)
(0.0480452736467751884 -0.477963057436091021 0.0133164430763031329)
(0.0551362172882569751 -0.503159666531456162 0.0157704646161159409)
(0.0633158039670000394 -0.531655014904382939 0.0189500205205127073)
(0.0733750280351291584 -0.563589697692724823 0.023294524375309586)
(0.087273455958401816 -0.598890902118309976 0.0293566112819719921)
(0.0160216049968878414 -0.48351142344543685 0.00441009936388535306)
(0.0184106305115833771 -0.509095062818607724 0.00524832272988210065)
(0.021201898851329691 -0.538396530331820555 0.00635756644376751605)
(0.0246630704899343176 -0.572081353730055975 0.00789607618939822641)
(0.029330094652468594 -0.611315766506906999 0.0101491316700783665)
(0.204319334883223125 0.106710740549987707 -0.365375767703165266)
(0.222897423676412132 0.405016968758069917 -0.379243131755681417)
(-0.207886050953746265 -1.10760867241033978 -0.205241245139677397)
(0.308551077150327924 0.00555353286956811187 -0.294785142157747704)
(0.876853962187306046 -1.03998311880111505 0.0520648774772137155)
(0.661175867436054943 -1.08106273321888668 0.0457022082913254926)
(-0.509516415757424013 -0.457951924826080825 -0.102499590754705425)
(-0.24417952650911684 -0.258082118237928371 -0.185323972188771197)
(0.245084457095422231 -0.13772219314406392 -0.224810617095622445)
(0.243487068467698298 -1.09512787565496761 -0.0891876066619374241)
(0.369571963968024553 -0.879285978156175263 -0.289423793484442915)
(0.662950454749012374 -0.0361181868288430186 -0.312076178992236553)
(1.08064216650630129 -1.41924235710225055 -0.173308733434820783)
(0.147562082091155733 -1.75441893147130745 0.247892926954682735)
(0.35256494445206854 -0.412541010387291296 0.184555783938797069)
(0.438504188023759456 -0.421966738825228505 0.0119796121765648605)
(0.633592025615177357 -0.481590732125050436 -0.122710852490951622)
(0.845667645249756905 -0.682658749088871142 -0.041781754060937773)
(0.957689355993400993 -0.447821216310156589 -0.186820681720267751)
(0.297043861254533692 -0.426805824445591342 0.175985444415293735)
(0.421310203481226941 -0.443267206874199515 0.142021555895339519)
(0.509947806110026769 -0.453593226594645071 0.0732024552190511657)
(0.529388918072572601 -0.509264502680322972 0.0209405207692551984)
(0.508340429546559447 -0.517004996028852526 -0.0948501968660166866)
(0.309375581122347587 -0.315442955664178182 0.108901039851624817)
(0.393544840233341464 -0.363946769915154289 0.107138062519797655)
(0.468616732376321732 -0.400968137616990128 0.0820122559963780695)
(0.541621030156266392 -0.444160460057177409 0.0648656424284556055)
(0.574519992313507144 -0.413187338242150815 0.0155588707481269083)
(0.302600657820740526 -0.327894706888742837 0.0683121897617377377)
(0.365142167623851432 -0.374352868765608804 0.078859128630852135)
(0.424161432447372366 -0.423851245774379271 0.0748297071910578177)
(0.466591112078474257 -0.486122592269334297 0.0669745668307503567)
(0.524806637399663156 -0.538935095286419474 0.0437248352915512867)
(0.27281903589880091 -0.367314166842773571 0.0649331359646630746)
(0.31740248279223976 -0.405879379725282818 0.0688580117568773492)
(0.361662403227813567 -0.452775662066434825 0.0684020805793562336)
(0.398336055781415455 -0.514110805444745744 0.0665930908945195354)
(0.42999923204424223 -0.572815484057590196 0.0519364869654459979)
(0.22998729137989371 -0.400220922194406914 0.0544324896990118143)
(0.263882925350926389 -0.433905183009015039 0.0582821917388505611)
(0.295601312266297045 -0.477908718522616072 0.0611583857730133157)
(0.323931323976140773 -0.53531549925121813 0.0639833772831795988)
(0.334130840984903366 -0.598252278276607319 0.0574908002727383891)
(0.187943814927382435 -0.425765101634590137 0.0433855123693297692)
(0.21418593489504939 -0.456442334117886706 0.0479205630338137567)
(0.237244593235212575 -0.494627798424244813 0.0524347333051998973)
(0.256476101558239189 -0.541702972989338671 0.057136744162737757)
(0.25967706078142494 -0.597341712899093435 0.0590888801977666953)
(0.150585517741067265 -0.446331140196999432 0.0348828771734426626)
(0.170049294308128013 -0.473571825843867422 0.039023974217625608)
(0.187288624030745227 -0.505022017491167263 0.0434324562658622015)
(0.200515906702428998 -0.54047785152155714 0.0481349549324128351)
(0.203476103921986312 -0.582226577616249519 0.0531583736165422288)
(0.116209002600775463 -0.46211479626625146 0.0271792848768239031)
(0.131238223304853574 -0.4869878945174822 0.0308658304150560801)
(0.145755237677268501 -0.514250743174665348 0.0349989997733406097)
(0.158521035712739983 -0.54295556005980361 0.039645389900923797)
(0.165784242298022577 -0.572706632636170831 0.0449599060464021608)
(0.0828982311026834062 -0.47428033543348791 0.019574721464697898)
(0.094745779050098608 -0.499198845727013285 0.0227589229245221229)
(0.107623790320859475 -0.526501427849136672 0.0266752883902246184)
(0.12203411754928524 -0.555275038781046781 0.0317138101074946541)
(0.139025119058675956 -0.584480397273597685 0.0385532131041110906)
(0.0498709090885094616 -0.483361669396201843 0.0117544816097675982)
(0.0574975482860962395 -0.509388312127419085 0.0138888069699495079)
(0.0664959613253619797 -0.538870395835947646 0.0166983459061052081)
(0.0778905974136321622 -0.571977622196677693 0.0206137427824382019)
(0.0940839726098195994 -0.608568589029676477 0.0262926476571143271)
(0.0166487428614163629 -0.489021960943294032 0.00387860316660673318)
(0.0192381492193538575 -0.515594785684699519 0.0046040972114979109)
(0.0223403290109837512 -0.546196829572887732 0.00557943722446902716)
(0.026303243835303098 -0.581647762470357321 0.0069730787906860537)
(0.0318587017064218131 -0.623369088963088513 0.00911228492528540213)
(0.224916818596341578 0.200183522756201049 -0.272054002338468659)
(0.228637057869343935 0.432775935840633508 -0.283593775510055934)
(0.123423409154051603 -1.23236738164333648 0.160376291812652089)
(0.310925414603166528 0.0956047636114290555 -0.227042343533617491)
(1.38115855771770546 -0.683406551085397496 -0.0527772136305685036)
(1.6198562603130704 -0.834921106072048058 -0.00310767343164870813)
(1.19954250546268604 -0.779620820368716494 0.167635164671374515)
(-0.499037159950900144 -0.121762410443319147 -0.0018350867997723383)
(0.283451736510023644 -0.0572248898216620172 -0.132213122160699498)
(0.358693609626385634 -0.655988948085635459 -0.337184159213045509)
(0.42214648485500339 0.0267456140015759555 -0.46867589615645161)
(0.446741519306155355 0.469121462643400489 -0.302790393445819483)
(0.311262088496860878 0.417731487583375471 -0.1262388390100605)
(0.498593144480595163 -1.19760034664532489 -0.114957471383622167)
(0.246407599605383304 -0.320867287851666516 -0.158032500527965164)
(0.352357761407108172 -0.366727223748483822 -0.279050689601501201)
(0.524064110579959053 -0.293296914323310287 -0.257926591918701376)
(0.553248371589689869 -0.368624407551294997 -0.0982753491442836802)
(1.16295009523655968 -0.655587925344439548 0.101686813454015104)
(0.288161254249883647 -0.308880648880307584 0.0133583306632452277)
(0.379573311563877136 -0.340330067418977922 0.0121660275149837443)
(0.483079206864608701 -0.335463707620987428 -0.00560086348191060276)
(0.471040693845993674 -0.411284254300296415 -0.0710948276803802515)
(0.546969507439606151 -0.404310780705731676 -0.0178258485729774138)
(0.328936024161921803 -0.270827441896672683 0.0235650305299580989)
(0.39872146826573801 -0.32825799195929739 0.0371215001384128385)
(0.477049879635255969 -0.356925641086608569 0.0383294890287730061)
(0.521274186551055063 -0.429490770941603095 0.0591150031600188169)
(0.655192364092180068 -0.369057796899872503 0.0466414186299402983)
(0.319381371655821866 -0.33319341135886521 0.0426880379953673145)
(0.370517973034123205 -0.373434600560663188 0.0481342697026066607)
(0.424484585120707247 -0.417639203001145265 0.0498686788219451435)
(0.464876851522160739 -0.483044959111568972 0.0484907462343827575)
(0.507406898988958632 -0.524770526833796325 0.0278455959346740854)
(0.276906845266570667 -0.374148187714607394 0.0492468181152344031)
(0.317664337416862619 -0.409288033209309843 0.0518148777295265456)
(0.361522943776994066 -0.452605206720551989 0.0522313947971634537)
(0.393509532189605826 -0.514066939427627378 0.0543303173038798964)
(0.42938877649897722 -0.560881139950608176 0.0448812547974747691)
(0.232517663237301941 -0.404637642132284092 0.0430263114375426733)
(0.266057512322666334 -0.438690423248909556 0.0462083807673751013)
(0.29863334454930418 -0.481061687858774956 0.0490355794241294982)
(0.324934818612047427 -0.536783314441128367 0.0543549481462658884)
(0.341774051331359741 -0.591546096542660105 0.0507012036838933935)
(0.191567505319038628 -0.430822580370883945 0.0354061781333048706)
(0.217995585040398926 -0.461685346843103972 0.0392400452849995321)
(0.241271999343222965 -0.499315370445486406 0.0433441245632627328)
(0.260699993586593459 -0.545961910438833464 0.048078156836233725)
(0.268864164673480899 -0.596535403237003603 0.0502467246717213795)
(0.153969487123973403 -0.451238940421145929 0.0290503525822062084)
(0.173501824634224644 -0.478402501749553233 0.0325259367667255425)
(0.191013403357382955 -0.50988647818794175 0.0363153587656313975)
(0.205302311386732356 -0.545534589538317127 0.0404053748420140635)
(0.210127555336815625 -0.58622195479420669 0.0454305680401005732)
(0.118887393425255866 -0.466361008584119385 0.0228985850057864086)
(0.134376971138375184 -0.491523617105458666 0.0259725165576367642)
(0.149432364116020178 -0.518881631808005062 0.0294648670352005426)
(0.163000167334145879 -0.547545877908858447 0.0335794239958777455)
(0.170935729927899432 -0.577183885294473842 0.0384280418356387765)
(0.0852561838210279116 -0.478712968256646276 0.016553859253273219)
(0.0976504983415551753 -0.503989976914768878 0.0192144508934186387)
(0.111365578880109173 -0.53158111157668797 0.0225580650892019431)
(0.127105025963702212 -0.560509287446245397 0.0269666377340579584)
(0.14571519780959441 -0.589536437777616218 0.0330644237094780483)
(0.0514220512561282261 -0.487978865071611423 0.00995477285825855859)
(0.059548639059067994 -0.514692596878490893 0.0117453863037048391)
(0.069333037679692372 -0.545001081872128701 0.0141577418149986377)
(0.0820236868256833535 -0.579079601364217766 0.0176344189115785997)
(0.100451211448641109 -0.616930889722212661 0.0228461912051968162)
(0.0171832988562170552 -0.493763945524729519 0.00327300248836406155)
(0.019955271191038227 -0.521175586931428181 0.0038805450409254128)
(0.0233505472089061174 -0.552905137260369273 0.00471000609621410535)
(0.0278334466645822447 -0.589910467231719582 0.00593781010455000056)
(0.0343868612498631002 -0.63375631687062417 0.0079298025234156664)
(0.222657654722855258 0.24057559638784784 -0.196518755361055758)
(0.22251024013559087 0.4530099861027852 -0.213762947696044175)
(0.135988725371437386 -0.630595629634079335 0.364142374734296337)
(0.288536100766848214 0.128406104066855348 -0.143536184478870149)
(0.617162618807414298 -0.093866099306142245 -0.108795132821040683)
(0.949698154181750853 -0.607072153092628963 -0.190307315258515797)
(1.2066088037927285 -0.858345397585747794 0.291851401651893383)
(-0.120162686560271528 0.121461149375659438 0.106072481186367265)
(0.286713562340176864 -0.0538642586802376561 -0.105963391096678974)
(0.40982557808141834 -0.108430653094227752 -0.367434804134703585)
(0.378045468901650084 -0.107381699253683877 -0.447994553579568799)
(-0.199490051872060814 0.381951142236984897 -0.26053290854989225)
(0.197764688596646532 0.441647341922770942 -0.170727690108415597)
(0.00944819307982863732 -1.26762183019380625 0.195399008489185511)
(0.282936302446424093 -0.115657795109585612 -0.206535898512492627)
(0.445205328881979778 -0.207307976789457227 -0.153319778579235066)
(0.163125718071853359 0.00587295317128224553 -0.321906129669982943)
(0.894047330504254556 -0.112393260986292057 -0.393325339433215015)
(1.09536436115137947 -0.862421191938598009 -0.15978735077428019)
(0.320833688219452462 -0.197915225296220743 -0.0404609030927041702)
(0.398107644638913016 -0.235224926228240205 -0.017925072226457197)
(0.466741957684189579 -0.365701334986680116 0.0391628273224145507)
(0.317919813952048269 -0.512569724107408975 -0.0324048009906284101)
(0.497850414223286797 -0.680236777033820572 -0.00300373691256144992)
(0.348354738886091142 -0.270857905592049975 0.016009188805044431)
(0.411559293177151453 -0.300624352745487378 0.0228721349413099524)
(0.498215606254796661 -0.317380062031619115 0.0405995682495622554)
(0.563175938567597845 -0.389302750089722815 0.0432678913624910677)
(0.694071631411003254 -0.361853476893733816 0.0594998797205062852)
(0.318876469885117697 -0.337751577420967231 0.0371055483102568431)
(0.366659461432792544 -0.36947353592746518 0.0357314938606217367)
(0.420325610681151485 -0.411405535288517865 0.0381888976234895025)
(0.459231150141096722 -0.486057159062325828 0.0453667142715432278)
(0.511310310693984804 -0.521598496425691449 0.0319745815534619934)
(0.277421071106631278 -0.375573337831331844 0.0366992564832286511)
(0.317239068932884283 -0.409998591294300385 0.0379707545099393015)
(0.363199267592518971 -0.452691215361323507 0.0399373396941042902)
(0.39178750797170292 -0.515589827482680452 0.0439307868514641972)
(0.434620606427724543 -0.547007580881072264 0.0401923214590986996)
(0.234982841411681492 -0.407605226367817541 0.0321026667325675988)
(0.268690275437561243 -0.44161484112813465 0.0352598743062315853)
(0.302708017940030438 -0.483018306564285627 0.0387007498012329892)
(0.325657113636077522 -0.539687092838516347 0.0451787961157602072)
(0.352926347419206254 -0.583269682323032557 0.0473786202502471734)
(0.19472390554630567 -0.434547889522054365 0.0275564414244049219)
(0.221238917751221342 -0.465432588039199624 0.03069209176295392)
(0.244807044244461702 -0.503031153017189259 0.0345922417209551525)
(0.263736005711378785 -0.550166775875923109 0.0397438863363967429)
(0.276253042667254034 -0.596614255557453621 0.0452515219070513189)
(0.156598222553034544 -0.454609693693371009 0.022914720958137208)
(0.176390036393122784 -0.481913650081750744 0.025721696536254994)
(0.193984038147312327 -0.513687166693453823 0.0289091844119792364)
(0.208476589914217608 -0.549834380635847109 0.0326263603164928875)
(0.213410593331561427 -0.592025854447985611 0.0375839437776921831)
(0.121107195671925044 -0.469742569668763987 0.0181438728667844412)
(0.136961112639149007 -0.495052187924708564 0.0205892599845261225)
(0.152434373886525726 -0.522433383012755881 0.0233487889435958114)
(0.166403410117176936 -0.551173702969305901 0.0265576451202259416)
(0.174189882950485819 -0.580842625020915548 0.029719243663177717)
(0.0871641360625782929 -0.482209066822856636 0.0132225432417597405)
(0.100049506949402262 -0.507799185869424741 0.015321089527556158)
(0.114545577919358654 -0.535624527237790526 0.017965864777013299)
(0.131394475780208492 -0.564486376211016938 0.0213858459040297544)
(0.150912343548402661 -0.592777668094322308 0.0259325293564672058)
(0.0526908745550314014 -0.4917452471900986 0.00794906187092428093)
(0.0612625406717186571 -0.519001684221083393 0.00937615523405821785)
(0.0717932338000792231 -0.549933209534550604 0.0113324018569377436)
(0.0856762824583775784 -0.584759177131853214 0.0142425239252469294)
(0.106477521062837727 -0.62361443589865817 0.0186409914482096942)
(0.0176180328832543295 -0.497643157333712505 0.00260721246686017923)
(0.0205478813698577803 -0.525750301454653068 0.00308848714663915221)
(0.0242170852601762132 -0.558425075662660864 0.00375155127830046698)
(0.029189579373793486 -0.596746814257619551 0.00475470412629051473)
(0.036766617267807708 -0.642274744979194678 0.0064482500360758541)
(0.24114493776299864 0.262736995823289965 -0.154534370934069298)
(0.223422683251572524 0.468105386044036398 -0.147071091444788249)
(-0.534530633110158693 -0.514558516942724697 0.52556742443401061)
(0.279744304920941322 0.164928111959957907 -0.0926869818757642544)
(0.169127407886461606 -0.133001114574941237 -0.223274518300324465)
(0.540070168284169427 -0.498834008624230552 -0.27280725644216125)
(-0.519516828446052181 0.140559650547544213 0.346186863614916462)
(-0.02293665798253108 -0.0728734584314965073 0.113189539698611619)
(0.248946368857153572 -0.13730455179398493 -0.047681196969280748)
(0.324634728894148905 -0.0503827291800614807 -0.262772875494131253)
(0.252481116706697761 0.000911248935316091857 -0.343599675114782455)
(-0.0911210521421174646 0.169028291740451475 -0.165321627032782387)
(-0.963316459392344226 0.108916876530371048 0.186808253945017516)
(-0.574774495683472275 -0.578314767770028437 0.465493844647003663)
(0.303712836999203428 -0.0926940956693603907 -0.135839659403023338)
(0.400179723765926587 -0.064623416880987633 -0.145665829193882462)
(0.530743282364186664 0.0238258256808005289 -0.222847305237662607)
(1.02757204645312994 -0.0381864426083639852 -0.087497489869849468)
(0.683921419375081108 -2.10943701703499453 -0.0356291171730808917)
(0.334335428433855664 -0.200989636561889701 -0.0296822797585910986)
(0.416893865802635155 -0.221833099781467508 -0.0217194969173208491)
(0.510651154292804721 -0.331024963960081686 0.0449804714276080542)
(0.67879910268590371 -0.451244440728523544 0.0666819612663287903)
(0.340687918202155826 -0.615225577351047437 0.0294779765654502035)
(0.341823338461935577 -0.282449536461664541 0.0120360668881585066)
(0.420295100388198506 -0.294377753432047806 0.00651646048491908055)
(0.493955573332390319 -0.354577379723804431 0.0164386244956631795)
(0.611098159770954052 -0.396406229686397049 -0.0262565940524263283)
(0.649646023691514363 -0.359730876582897041 -0.0239137302823753742)
(0.314741586402679463 -0.334241668753439858 0.0241437600730779155)
(0.364445147526432478 -0.364912833197423014 0.0222789640518993547)
(0.428708330825218642 -0.414331998186494854 0.023087192898416025)
(0.461100450567563436 -0.488232017929003392 0.0287358565522820228)
(0.565849427871229382 -0.530093962063994395 0.0215459634673487582)
(0.277856386838873148 -0.374407974506445973 0.0242013970219059384)
(0.319154469477454128 -0.409597832534158712 0.0255378678534979135)
(0.364755287310854659 -0.454483645593282692 0.0290674420859836982)
(0.399671304214779033 -0.516396281774118893 0.0323134025453186008)
(0.436919881963468371 -0.546960141465380856 0.0305648954435366674)
(0.237566959778105408 -0.410049312579827574 0.022378030101831245)
(0.271927343668017352 -0.443294843177819975 0.0248713488787001696)
(0.307468541595019795 -0.48503546087765903 0.028720528014175916)
(0.332235836766796466 -0.539423141119395488 0.0335863854056173139)
(0.366019359713776971 -0.582290771769183091 0.0420553813596454829)
(0.197142852869480079 -0.437036612057334906 0.0197653561813049376)
(0.224177955068015911 -0.468083757616255258 0.0222502973139781617)
(0.248694236500775545 -0.506116794802984549 0.0258322088430073815)
(0.27062180492131227 -0.55337680763764352 0.0303170125838914707)
(0.285472499989278927 -0.603328969668131099 0.0407681634345550895)
(0.158565386361299743 -0.45706018514909269 0.0165927480271556224)
(0.178726266727211841 -0.484619885953966656 0.0187342375643527528)
(0.196649883662469105 -0.517026982160323834 0.0211993392913702172)
(0.212162888900084445 -0.554390779291946023 0.0245685218567661678)
(0.216676948052637541 -0.600695497918400489 0.0291210468153615815)
(0.122819191746971285 -0.472220610549647368 0.0131635159986313675)
(0.138913080261376526 -0.497659062605373903 0.0149595715714761577)
(0.154541288404559995 -0.525174565076725886 0.0168946170715396707)