/*--------------------------------*- C++ -*----------------------------------*\
| =========                 |                                                 |
| \\      /  F ield         | OpenFOAM: The Open Source CFD Toolbox           |
|  \\    /   O peration     | Version:  2206                                  |
|   \\  /    A nd           | Website:  www.openfoam.com                      |
|    \\/     M anipulation  |                                                 |
\*---------------------------------------------------------------------------*/
FoamFile
{
    version     2.0;
    format      ascii;
    arch        "LSB;label=32;scalar=64";
    class       volVectorField;
    location    "0.540000000000000258";
    object      faceForces;
}
// * * * * * * * * * * * * * * * * * * * * * * * * * * * * * * * * * * * * * //

dimensions      [1 1 -2 0 0 0 0];

internalField   uniform (0 0 0);

boundaryField
{
    inlet
    {
        type            calculated;
        value           nonuniform List<vector> 0();
    }
    outlet
    {
        type            calculated;
        value           uniform (0 0 0);
    }
    top
    {
        type            calculated;
        value           nonuniform List<vector> 0();
    }
    bottom
    {
        type            calculated;
        value           uniform (0 0 0);
    }
    left
    {
        type            calculated;
        value           uniform (0 0 0);
    }
    symmetry
    {
        type            symmetryPlane;
    }
    interface
    {
        type            calculated;
        value           nonuniform List<vector> 
104
(
(-0.0104894228159280109 5.49324873036887664e-06 1.44672312493835864e-06)
(-0.000820475177495479124 -1.10966719140623725e-06 8.81449741303881072e-07)
(-0.000821263133844267077 -6.81922149410322421e-07 2.39145907162999681e-07)
(-0.000800230812112978835 6.34111151020447588e-09 -1.61720159117849064e-09)
(-0.000899556436847364087 6.05175001649857962e-09 -2.03092172483771211e-09)
(-0.00099356255839812258 -1.90620015594563009e-08 6.5179205414843513e-09)
(-0.00104417419969275228 -1.42669137642701157e-08 4.26003245598195531e-09)
(-0.00103163990054122405 -1.14556087181488417e-08 2.40536734846332954e-09)
(-0.000991177672816185781 -7.22800778061750499e-09 -3.3926727204194988e-10)
(-0.000932028635126782874 -3.00296258226873975e-09 -2.49246864892324882e-09)
(-0.000858344846129280715 -1.5543763891337986e-09 -3.21170264551974041e-09)
(-0.000776254833789314161 1.60588083796386898e-10 -3.26432734148244846e-09)
(-0.000699294721287886559 2.41695833023441606e-09 -2.99840868451715195e-09)
(-0.00592077400889641937 -1.98768085582552779e-06 1.77510652859621963e-06)
(-0.00108277553025872345 -1.3174324916363633e-08 -1.19719844611681497e-08)
(-0.00110396222643283711 -1.49468884992104468e-08 -3.28873555907321455e-08)
(-0.00109157674802249564 -1.37808642617208002e-08 -1.78482839726834389e-08)
(-0.00109145984533570825 -1.21117970268001416e-08 -9.03929975291446452e-09)
(-0.00108113706999643077 -1.05647282849778922e-08 -3.77867217907792723e-09)
(-0.00105558993387303728 -7.2054368831647819e-09 -5.1241484571501594e-09)
(-0.00101365584989584622 -4.6921042007106334e-09 -4.57013513764934208e-09)
(-0.000959013869561867161 -3.13225917623342953e-09 -3.38009775894868724e-09)
(-0.00089570871270597209 -1.99474819295879896e-09 -3.01360842283473875e-09)
(-0.000823932464169161859 -1.48340774249320013e-09 -3.1158647120265947e-09)
(-0.000744437230790472699 -1.92739287618152906e-09 -3.25845639470030182e-09)
(-0.000668246289125517959 -5.54879935902786648e-10 -3.39622900948448233e-09)
(-0.00180039530065833979 -9.52618324620849896e-08 2.19756242038925509e-07)
(-0.00112405470548086273 2.46493808347939742e-10 4.17118517207126925e-08)
(-0.00110502976770339282 -3.42313488876792276e-09 -9.86843690904282256e-09)
(-0.00110621393517804003 -7.10250933859187314e-09 -9.04895532406326087e-09)
(-0.00109446243257346732 -7.28798886610477414e-09 -7.42675536164162318e-09)
(-0.00106863385817256473 -5.57819981965885588e-09 -6.0482804874767137e-09)
(-0.00102828730158572418 -4.3848121320848848e-09 -4.48663370228491086e-09)
(-0.000980719299402368037 -3.7012438965316308e-09 -3.8042653317076294e-09)
(-0.000926129510216153 -2.81309455875434241e-09 -3.56935061779217859e-09)
(-0.000863417975332142311 -1.83384242116278575e-09 -3.44007409865067626e-09)
(-0.00079049588063606483 -1.08457160063879954e-09 -3.39526302509283722e-09)
(-0.000705478165093954943 -1.78868615412683051e-09 -3.45067050804089803e-09)
(-0.000616930285015603258 7.88548426746133136e-10 -3.04679971167663391e-09)
(-0.00168679074417586684 -1.35103675524383621e-07 3.52514113968626025e-07)
(-0.00126357927187851571 7.00803246878649532e-09 8.04272753868261971e-08)
(-0.00116584958464839572 2.99342570927311234e-09 -2.5300754696142467e-09)
(-0.00113286188460818399 -8.95768642193543439e-10 -8.33178788030397429e-09)
(-0.00109567379682624249 -3.00079481016793758e-09 -6.24264616763236449e-09)
(-0.00105528064357171482 -3.17196331572896269e-09 -4.90807831890125086e-09)
(-0.00101065947208124661 -3.03181218031396084e-09 -4.16735490495747208e-09)
(-0.00096119612038654816 -2.64283514153447319e-09 -3.56656724443837998e-09)
(-0.000905561568057032659 -1.93814892530973203e-09 -3.09165356859232032e-09)
(-0.000841332443231689498 -1.11647511472838543e-09 -2.71144252986637497e-09)
(-0.000765608343842390953 -2.08916169103825972e-10 -2.38639409376788822e-09)
(-0.000674797479976557506 -4.7194817422852519e-10 -2.21675612749279161e-09)
(-0.000574621416937002162 1.84707090977522446e-09 -9.72563884441654159e-10)
(-0.001824669112697831 -1.03779105110460868e-07 4.80937970538764424e-07)
(-0.00128658950562199402 1.09059419348977705e-08 5.44849165563994731e-08)
(-0.00117922373026705263 2.12669554768864927e-09 -7.84176074867551907e-10)
(-0.00113173755066964124 -1.12299782480722337e-09 -5.21138594089852271e-09)
(-0.00108873238630646145 -1.85106139735344809e-09 -5.76089550923044398e-09)
(-0.00104563056366366314 -2.08919758064898953e-09 -5.28554980453328699e-09)
(-0.00100020895777770701 -1.88019933735398791e-09 -4.67468465961453374e-09)
(-0.000950621896378384839 -1.48825223985385368e-09 -4.03859806222779895e-09)
(-0.000894983058276630395 -8.27589421426423991e-10 -3.44024743534128711e-09)
(-0.000831153209318857551 1.52129730654519799e-10 -2.81426331370538266e-09)
(-0.000756495906708566884 1.26198455882837194e-09 -2.13459949593514131e-09)
(-0.000668111155307914303 1.85291556438868524e-09 -1.63527208647756394e-09)
(-0.000569911988508272618 5.04596388160289294e-09 -4.58346251417542174e-10)
(-0.00166971891489562296 -5.43385822341342931e-08 3.1865213342514412e-07)
(-0.00124487359798979252 1.17592599736799068e-08 4.65758945197984165e-08)
(-0.0011537575909016252 3.56224212348550152e-09 -1.54560875739530463e-10)
(-0.00111233010672845455 9.46680258728831437e-10 -6.29033938361494941e-09)
(-0.00107620111205210473 5.83853668883875885e-11 -7.0691210209528224e-09)
(-0.00103889987144212053 -2.09178319055584767e-10 -6.64535047055985304e-09)
(-0.000997000641174372549 -2.08236005286445548e-10 -5.70224244567117185e-09)
(-0.00094935021446134458 9.56785468666941e-11 -4.70813653496577851e-09)
(-0.00089489006785688956 6.74925018359770132e-10 -3.83589760683965045e-09)
(-0.000832775505901697604 1.6227396100651552e-09 -3.07264744119764328e-09)
(-0.000762017394565669883 2.93426377162046523e-09 -2.46414843490660446e-09)
(-0.000681796910171953135 4.52123067308489068e-09 -2.01973551404212886e-09)
(-0.000597225542120855424 6.33077153775226312e-09 -7.47450711806918453e-10)
(-0.00162787879966981531 -5.58865992943680406e-09 9.0889320359042996e-08)
(-0.00130789231542279482 2.29671589814056027e-08 5.25881890758118359e-08)
(-0.00114938021980694302 1.51847558957812233e-08 1.59743002294714776e-09)
(-0.00109924580794141841 7.65348993219198489e-09 -7.13824963089726891e-09)
(-0.00107529592182948166 6.82461862373993047e-09 -9.18816431886936989e-09)
(-0.00104508359256352888 5.22429925144888337e-09 -8.3776176926387042e-09)
(-0.00100610311976783709 3.683955039907381e-09 -6.81656369192728531e-09)
(-0.000958990605709804421 2.73127223726213006e-09 -5.17588243154290648e-09)
(-0.000904158346556246115 2.612530334042707e-09 -3.97284615124929336e-09)
(-0.00084225532060408048 3.322325880691429e-09 -3.08964836715809812e-09)
(-0.000773853157456876875 4.86507048685181629e-09 -2.34393067411947823e-09)
(-0.000701147677034574834 5.82357399523210325e-09 -1.68449651969124091e-09)
(-0.000631833474940096738 5.73722056402331569e-09 -8.51747677352177576e-10)
(-0.00181263615846436865 1.27276386895449124e-08 3.49957638285020088e-08)
(-0.00153114265319759116 4.01227189158776122e-08 3.31670432488165823e-08)
(-0.00129424886134422187 3.70655369527994568e-08 9.3884890055020909e-09)
(-0.00118051395662620274 2.38611853886603238e-08 1.36919109393513144e-09)
(-0.00112222924072138117 1.80007118340716928e-08 -1.75841136651234084e-09)
(-0.00107613409071736794 1.38555391046762692e-08 -3.12987341981428637e-09)
(-0.00102858671861170156 9.88155896066202022e-09 -3.03489546939113077e-09)
(-0.000976075151687666735 6.53728277892381028e-09 -2.40826571456767037e-09)
(-0.000916903512019794347 4.640186520859071e-09 -1.79135754495828552e-09)
(-0.000852128487266584568 4.59252176569627151e-09 -1.35072114597695541e-09)
(-0.000782522877037026242 5.56716833782060363e-09 -8.85911625086271314e-10)
(-0.000713539706867513863 5.87834516158022063e-09 -5.16872757383006185e-10)
(-0.000648998508070670519 7.16901639268666771e-09 9.2807682838700686e-11)
)
;
    }
    procBoundary3to0
    {
        type            processor;
        value           uniform (0 0 0);
    }
    procBoundary3to1
    {
        type            processor;
        value           uniform (0 0 0);
    }
    procBoundary3to2
    {
        type            processor;
        value           uniform (0 0 0);
    }
}


// ************************************************************************* //
