/*--------------------------------*- C++ -*----------------------------------*\
| =========                 |                                                 |
| \\      /  F ield         | OpenFOAM: The Open Source CFD Toolbox           |
|  \\    /   O peration     | Version:  2206                                  |
|   \\  /    A nd           | Website:  www.openfoam.com                      |
|    \\/     M anipulation  |                                                 |
\*---------------------------------------------------------------------------*/
FoamFile
{
    version     2.0;
    format      ascii;
    arch        "LSB;label=32;scalar=64";
    class       surfaceScalarField;
    location    "0.540000000000000258";
    object      phi;
}
// * * * * * * * * * * * * * * * * * * * * * * * * * * * * * * * * * * * * * //

dimensions      [0 3 -1 0 0 0 0];

oriented        oriented;

internalField   nonuniform List<scalar> 
20390
(
0.000179719216929054315
-0.000175298882163045088
9.31853672778511406e-05
-9.76057085209406055e-05
0.000294012409000857884
-0.000166225221676614824
0.000205683060919317865
-0.000153751025191581364
0.00037012924282898166
-0.000123491435913083774
0.000236236535117254401
-0.000188861951518400821
0.000421873309647850076
-8.92764932986803503e-05
0.000247551288495293778
-0.000210018871141107974
0.000461532877993192593
-6.89771353004694913e-05
0.000254613015877132233
-0.000225295453516796034
0.000493959137542973842
-5.53270846613885978e-05
0.000260499515457792796
-0.000237598702696477989
0.000521840097394797391
-4.66634589284386443e-05
0.000266386603085727645
-0.000247604105847356063
0.000546189010014570646
-4.08156322408317993e-05
0.000272076959087599489
-0.000255610236818908153
0.000567748275777614476
-3.63355841890431114e-05
0.000276717749113362108
-0.000261941435761100724
0.000587360797564803901
-3.37034661141736246e-05
0.000280918525479764908
-0.000266827588132518949
0.000605632694168538235
-3.23085462781397175e-05
0.000284426762801547029
-0.000270390111274845476
0.000622832009240585974
-3.17208665304944684e-05
0.000287063912482650148
-0.000272542354128938163
0.000639205602582102925
-3.1853785135384341e-05
0.000288766537949320052
-0.000273286342002551359
0.000655078676628558431
-3.25666045938934564e-05
0.00028933579749488333
-0.000272642266845916264
0.000670499965163419203
-3.31863806142770448e-05
0.000288671110171511889
-0.000270906018036195758
0.000685167023193727844
-3.32134034218367508e-05
0.000286961000811544156
-0.000268414654076696256
0.000698989079431018199
-3.2697672939794304e-05
0.000284238422596145874
-0.000265362804555055389
0.000711699234937081715
-3.19166598631673529e-05
0.000281384273054215823
-0.000262177768315708954
0.00072416435010279963
-3.19131894942458537e-05
0.0002782756876175802
-0.000258827613626373828
0.000736007430511080672
-3.11808503705339137e-05
0.000274704186270747705
-0.000255366416673320177
0.000747441613971698083
-3.10160304281894506e-05
0.000270832114919852319
-0.000251250268185388456
0.00075815142056550038
-3.08058836998188475e-05
0.00026650067417150424
-0.000246404597618871417
0.000769672834034755755
-3.25435076022552691e-05
0.000261910341866146196
-0.000240888248506047041
0.000780317805868397394
-3.13369951119117833e-05
0.000257023506640312544
-0.000236331483858469754
0.000789813981457829933
-2.90554535522678411e-05
0.000251853855404357606
-0.000232294577405799818
0.000799041260331572064
-2.79920125255647281e-05
0.000246741553137378106
-0.00022797681918790001
0.000808489801452664776
-2.86018392340379353e-05
0.000241729629075437645
-0.000222576330689375939
0.000818329588878740711
-3.03061765512292781e-05
0.000236770062410984744
-0.000216303673129752424
0.000828031718223518867
-3.07804210501276724e-05
0.000231029342463075639
-0.000209951050740862327
0.000838031498408168293
-3.08964223957955227e-05
0.000224385779215568603
-0.000203489137113230793
0.000845369145652749088
-2.74519423892332136e-05
0.000218492996481182625
-0.000198378701518656076
0.000850788036153607126
-2.52161643065453833e-05
0.000213200407821311557
-0.000193403134176185033
0.000857934116534641504
-2.78369923470771502e-05
0.00020954420501450701
-0.000188853293078208677
0.000859521056087625131
-2.29051521566798254e-05
0.000205664794902324886
-0.000184346582142747229
0.000826380247810893373
1.31491342891414717e-05
0.000200888702617386559
-0.000180897028301213762
0.000689580573045026654
0.000116290409270451649
0.000199646517297027038
-0.000179137251210792243
0.000360312158807520088
0.000306860628380213965
0.000196303282847544019
-0.000173895495175256621
0.000341753369599402061
0.000139329605741289017
-0.00012077081201916706
0.000263759777429082285
-0.000296197329864400115
-4.39945731249579731e-06
-0.000138461823040426598
0.000355769050218043619
-0.000311728353748170833
0.000245651183053779867
-0.000192157359243669246
0.000408853985917435132
-0.000253779302499077854
0.000296836865029636329
-0.000219633969309929281
0.000445347600841924625
-0.0002008455446757238
0.000307072625222752182
-0.000231997215941740653
0.000475575184886225741
-0.000165684264418614914
0.000305875664631229767
-0.000239396148278257738
0.000502866276736643725
-0.000138849643016683355
0.000301127827093066066
-0.000244896373582630523
0.000528612574977589656
-0.000120252071824538016
0.000297598323229271303
-0.000249756011960118401
0.000553377299417984409
-0.00010733276214908349
0.000295280689279311232
-0.000253528296840334149
0.000576344808398877688
-9.5515866278015856e-05
0.000292861293268749834
-0.000256648532113685091
0.000597534140375767476
-8.67472852343417625e-05
0.000290848271211386646
-0.00025899377836362974
0.000617421910780690717
-8.12274595182722425e-05
0.000289381670938352361
-0.000260350512912784469
0.000635672886111223238
-7.74062295139737007e-05
0.000288089135869755062
-0.000260654738703370908
0.000652431030976030092
-7.54088673532677067e-05
0.000286576374117242694
-0.00025977943433448615
0.000667934064900693996
-7.49360924553425919e-05
0.000284294918442080892
-0.000257428462712180667
0.000682542386995811331
-7.48578323203843857e-05
0.000281070209140199154
-0.000254007075732127488
0.00069632325425275708
-7.3951282728212028e-05
0.000277040740260700601
-0.00025008372495487777
0.000709261821363951664
-7.23737766404272551e-05
0.000272513746115516102
-0.000245776208828665907
0.000720514975744542029
-6.95521352486998002e-05
0.000268291593200454886
-0.000241909273295454658
0.000731657097817914825
-6.89978193206763576e-05
0.00026430158177058249
-0.000238359075201384561
0.000741464285250716874
-6.58930359634596688e-05
0.0002602386069019505
-0.000235333609919309615
0.000750260272997166746
-6.43012452666618588e-05
0.000256363324840242174
-0.000231874099661653329
0.000757672671726980062
-6.3193310924560068e-05
0.000252306479694809583
-0.000227331453528630364
0.00076682296845518574
-6.76815248608699535e-05
0.00024862364576383613
-0.000222635926799398754
0.000773723476977331579
-6.22663189177760342e-05
0.000244175501652155321
-0.000220146686597858703
0.000779215063348638061
-5.6245765597636734e-05
0.000240283832625529792
-0.000218585106260250336
0.000783426263954081835
-5.22016988120680911e-05
0.000237853664632281314
-0.000217855178164008808
0.000788029033652117212
-5.35926995765898927e-05
0.000236701564690927505
-0.000216313473743377603
0.000792670497144974261
-5.61183096310482522e-05
0.0002359608727217887
-0.00021479020345261418
0.00079683692240402771
-5.6499514014858674e-05
0.000234524496597549276
-0.000212971829652418981
0.00080184113888584832
-5.73392022863361203e-05
0.000232445655111288664
-0.00021100709270053687
0.000804981402925352557
-5.04499243478367075e-05
0.000231106588519675748
-0.000211248871511778604
0.000806120638809185251
-4.46959774158810653e-05
0.000229360136597526624
-0.00021101955978274794
0.000810702329781758275
-5.11001973569201896e-05
0.000229965256068525729
-0.00021128374176889139
0.000819608250999302821
-5.16240077648958285e-05
0.000230897886995779406
-0.000211084951566575509
0.000811735331774660323
3.23251616759188953e-06
0.000227793451971126492
-0.000210003911473377407
0.000726647586680793434
0.000183664832269677379
0.000226899131671150461
-0.000209185802682441616
0.000462503146129292274
0.000552332645314756489
0.000235184910323957969
-0.000216512476596872892
0.000775850795444532962
0.000250977749360428032
-0.000222572018540483611
0.000291327478040817893
-0.000375750055375957182
-5.13522607139343338e-05
-0.000160422533601317933
0.00035368985728952303
-0.000411733595530945531
0.000248240190931952698
-0.000210597345826854515
0.000393690879544032475
-0.000359470092360149123
0.000301019035999286965
-0.00023532927320110491
0.000427389932298240965
-0.00029730118092372612
0.00031241932035218665
-0.000249662719850634934
0.000458559844433054824
-0.000251147090780792781
0.000314395416766772651
-0.000260102507875667314
0.000487735176676850875
-0.000218185667218901791
0.000316109870234263304
-0.00026594919447016466
0.000512490410903773132
-0.000193080517443442953
0.000315929932406795928
-0.000267856718308764593
0.000533203784031159979
-0.000174272817704183337
0.000312235332030663551
-0.000266008641241084786
0.000548900711182433968
-0.000154145082712819404
0.000306702733431403235
-0.000263770443947577353
0.000561562408206307232
-0.000139631537877537898
0.000302137804798589924
-0.000261915249895975158
0.000573259560867770746
-0.000134331611764146406
0.000301613586784432351
-0.000260206583664404265
0.000583114787337377398
-0.000130195518142814674
0.000301408770460167153
-0.000258474702108746921
0.000591589476402205341
-0.000127923064404892716
0.000301008409137266833
-0.000256968896065062099
0.000598732469963388341
-0.000126712984864778126
0.000299246482381194804
-0.000254612580812481966
0.000605255655804915762
-0.000126223606413127898
0.000297111379900563992
-0.00025226878982239243
0.000611642482365649292
-0.000125101437559506389
0.000295452266646537508
-0.000250688937421768786
0.00061928019089573579
-0.000125117127408357629
0.000293935432572773117
-0.000248829790432821029
0.00062674052909714997
-0.000122019426463278223
0.000292687461691103885
-0.000247680509304241535
0.00063440046435110295
-0.000122262213125247854
0.000293035259580490595
-0.000247430801922914772
0.000637766180652150579
-0.000113391568317783905
0.000293158478723413735
-0.000249025663790380404
0.000637227829162169998
-0.000104399673890100977
0.000292144259618470751
-0.000251507481479329269
0.000634968172970534674
-0.000101122437967033881
0.000292636365667713646
-0.000252447585175258717
0.00063982555742939345
-0.000116062219225905225
0.000298257626499577491
-0.000254734319299971558
0.000640789583917033656
-0.000101247963056174143
0.000300879888238140148
-0.000262862272449816497
0.000641438396038458139
-9.07605420634422606e-05
0.000308356144613086941
-0.000274490180969589096
0.000642313969320265372
-8.35755832725780621e-05
0.000319385062005800877
-0.000288886751664418884
0.000648765804843272364
-9.36179594069084598e-05
0.000331811071371479038
-0.00029823764902043963
0.000652055604321471571
-8.90664169867937041e-05
0.000339428423517101072
-0.000309770118121740861
0.000655166218397754195
-8.97393055033501321e-05
0.000345199744895087371
-0.000315070569769752731
0.000655918906419702768
-9.03982042988951814e-05
0.00034701174915908713
-0.000314705437219658186
0.000654494011959298933
-7.87196174576921837e-05
0.000344093833086695834
-0.000314399246811910844
0.000647193535925894708
-6.49030702127595144e-05
0.000339159437898273858
-0.000311651869429358994
0.000633776289125557437
-6.44211169524179771e-05
0.000331793744973669816
-0.000305055576568628655
0.000624570816616902536
-6.6570874379574829e-05
0.000318694915942086942
-0.000294542569449579789
0.000625943832638845249
-2.38462469077468913e-05
0.000317298903233221978
-0.000291593137092972376
0.000569792485236377726
0.000221936018651221786
0.000268649267950113577
-0.000250769086907009283
0.000372132135115638737
0.000732554866015081105
0.000258368723831328727
-0.000240930583903467392
0.00112193283885663906
0.000270845284871911514
-0.000244795188211792305
0.000234878138754038014
-0.000416028946262412918
-1.89787931180857808e-05
-0.000175620473424016734
0.000299862518376007995
-0.000517469715227137934
0.000251885515472415273
-0.000211133732829076433
0.000342653833465067579
-0.000470756810463736613
0.000309756428860948497
-0.000241260981959577213
0.000382701101977670063
-0.00039769134026180705
0.000316359925305076969
-0.000256016971797523769
0.000417445612353215022
-0.000334924194806004343
0.000312263537302461328
-0.000263230930395894536
0.000443151221372783629
-0.000281643518658923088
0.000303228067432007085
-0.000265475824610233438
0.000459128056947047608
-0.000239460726793724069
0.000293029221180208469
-0.000262625808357588441
0.000467432083588322997
-0.000206511065809440324
0.000284413467317416876
-0.000260479208091179363
0.000471996426828809139
-0.000179300897838382818
0.00028059084971409254
-0.000259999379651058382
0.000474554650393238856
-0.000160845101594564313
0.000280817270622299301
-0.000262161944304138098
0.000475203624663649905
-0.000152585075344655431
0.000286015580027412526
-0.000268411089729863055
0.000474576599458991063
-0.000149661034729926226
0.000295859146009224447
-0.000275766581060227212
0.000473739950488689802
-0.000150962841635374711
0.000306761515287963461
-0.000282885066780723285
0.00047393141384207961
-0.000153397272178624631
0.000315637108596769991
-0.000289144280587359033
0.000475338119554621907
-0.000154534989914225903
0.000321909651275941486
-0.000295004978708569995
0.000477960738500607764
-0.000153237706916019561
0.000326489828560551127
-0.000300976183052512709
0.000481165664571758279
-0.00015020458496210149
0.000327023884975536608
-0.000305141355502591379
0.000483699577206495035
-0.000142507266149215971
0.000325527252875640013
-0.000307573327943293999
0.000482429937299597839
-0.000133201959436042035
0.000324261001754784744
-0.000312051619439246571
0.000479385386003776826
-0.000119951625280587674
0.000327902473661342874
-0.000318297870011151655
0.000477486238776284879
-0.000108794260738903018
0.000335710230251435183
-0.000329416503158220728
0.000480942576902081273
-0.000104779952027490771
0.000350093657523421341
-0.000349892494145239515
0.000487956337570594634
-0.000118545858306506934
0.000371115188069765206
-0.000375645325305984325
0.00050548966099217313
-0.000119538668020893233
0.000397724282289226732
-0.00039696691163584809
0.000524493784947447001
-0.000114010249080493645
0.000414546255570865101
-0.000410300676829763187
0.000542438911650850852
-0.000109005753399740358
0.00041543500375318637
-0.000407949966822739117
0.000553628238329487241
-0.000109418277322812407
0.000412796642394837299
-0.000408185664411728959
0.000560312567673335623
-0.000105645332932048015
0.000412068945050223651
-0.000402174377025981116
0.000557146942400990044
-0.000101552635279680863
0.000399911658875305742
-0.000384932722871686548
0.000545636025193736479
-9.56340315191922172e-05
0.000374794503205242086
-0.000358047774290655852
0.000531355098611024684
-8.35272452295058118e-05
0.000341750810054972955
-0.00032266226727307491
0.000513668085004553529
-6.71101984883116153e-05
0.000308909645179889826
-0.000289015511295012402
0.000493999235083662997
-6.19982949742321722e-05
0.000276567091126720668
-0.000259321050887681296
0.000449774727346015943
-3.62391024902939378e-05
0.00024648043788351036
-0.000232587637709910378
0.000384475842340240047
3.8197346631904746e-05
0.000223187906167282286
-0.000219932453510243784
0.00035940615149001882
0.000229224728567679859
0.000268867665686533185
-0.000251086584528823593
0.000236629118120611735
0.000838710115308663657
0.000269812162280431251
-0.000253190367226025122
0.00133452634969563957
0.000278273836866308941
-0.000254238226197373008
0.000201244465489968267
-0.000501895568993584486
6.89647928740350622e-05
-0.000184342578031356657
0.00024675656969980306
-0.00059235093162124516
0.000265217502535392794
-0.00023584839650065987
0.000281339179140498846
-0.000544214370385485307
0.000307503531265269231
-0.000268628548942090762
0.000321542549289158448
-0.000473840400908177427
0.000306243713057834772
-0.000270297939300255812
0.000360371438790170386
-0.000400596461660966967
0.00028513616387460894
-0.000258292716871443202
0.000388457629179413903
-0.000321618127028767899
0.000259919692802863475
-0.000248031250356312623
0.000403231293880506074
-0.00025406746403867415
0.000244604923252881743
-0.000244771765134948582
0.000408399000791111362
-0.000206182451264675596
0.000242976345634749092
-0.000248472603621645684
0.000409213578675598284
-0.000175292005677670399
0.000253360424429655104
-0.000258183904807364982
0.000409133488595240277
-0.000158130326180670072
0.00027133235179378865
-0.000273967040819539549
0.000410082465129911456
-0.000152796273059587628
0.000292640729435250473
-0.00029337847067642238
0.000413001573153929074
-0.000154113507338390177
0.000312615568753652222
-0.00031108212934056605
0.000417858346744179223
-0.000159839146759982773
0.000326636087540638415
-0.000322616504942161992
0.000423279940987253108
-0.000163466946923003953
0.000333417213772736623
-0.00032876913101721766
0.000427912575361065397
-0.000160829702052004667
0.000334417280998718753
-0.000332755222009904284
0.000429892329991930344
-0.000153169333806551773
0.000331794468013441642
-0.000333842608479437727
0.00042871618367109032
-0.000142129342326206154
0.000326086519111490835
-0.000332985621380240608
0.000425084390883233602
-0.000126862423301327305
0.000320748292863534191
-0.000332761354742319173
0.000420465197517964299
-0.00010979842260829094
0.000315266993717544693
-0.000334051354863182002
0.000420075532721586142
-9.24784271726352005e-05
0.000313311249452294794
-0.000340394802080434941
0.000429279473147293339
-8.08591479078338954e-05
0.000322943804259296925
-0.000360082890008211511
0.000450198790291719613
-8.10933021740467617e-05
0.000346544106703467792
-0.00039115012349945393
0.000474011566257365147
-0.00010070326919005767
0.000375727848773750085
-0.000417383260708526177
0.000499895753210339677
-0.000115758754626883861
0.000399587499853709064
-0.000429251626461909272
0.000520300621398276384
-0.000117025130943416034
0.000411536034292857506
-0.000428926036626523259
0.00053056800051951502
-0.000113290042536746377
0.00040540417653297118
-0.000411387300664139348
0.000525590872550053627
-0.000107932021351050454
0.000380403685273715726
-0.00037691287669872883
0.000505502195025431473
-9.89106692920072055e-05
0.000339799130617484822
-0.000326445198407768916
0.000474565808890893212
-8.75450280465795067e-05
0.000286116055634027329
-0.000269187350028587328
0.000441875390040113373
-7.54221253511709686e-05
0.000231349522869366805
-0.000218871062789932229
0.000414500517765784612
-6.37316860651011092e-05
0.000184250686892533798
-0.000176671409360163053
0.000390704591654479876
-4.73151323899299143e-05
0.00015086451463355605
-0.000146863674841184974
0.000363022347706045767
-3.55312544116607879e-05
0.000126051106883038542
-0.000124835837549787994
0.000316093016608695089
1.24203059530003678e-05
0.000115560759136449447
-0.000117290605170378867
0.000224707923189439325
0.000144448660361006691
0.000110888771507923505
-0.000125754543868372053
0.000171911664485756689
0.000273025936371961396
0.00023327916235026645
-0.000224284034257952645
0.000122809675201268468
0.000871846614101313001
0.000268871772783164725
-0.000252906276735286061
0.00143404396034182394
0.000281244165457518556
-0.000257952100855783888
0.000154411014713640946
-0.000552934916581313929
0.000112472488088508903
-0.000215844164739986872
0.000181393998899982169
-0.000610997292609977865
0.000255121531292690749
-0.00026345826160456624
0.000207194574493379499
-0.000571803148340885433
0.000266213026637371298
-0.000264424808375314957
0.000261270340073439268
-0.000522222415447998189
0.000240201264638594621
-0.000245894887159494116
0.000326929736488356141
-0.000439410922902220679
0.000196679179605698185
-0.000223524003504988898
0.000376438697823987007
-0.000318558918321591332
0.000161642030293290806
-0.000214210144955904807
0.000400994847591020648
-0.000212609861283854861
0.000155255379023107879
-0.000221269004164726085
0.000407426323683073195
-0.000150594336408960491
0.000177583021676098156
-0.000239602520660092596
0.000406853029906639545
-0.000124880122684153537
0.00021388043120070148
-0.000263718979712680257
0.000407421830305961506
-0.000119137389736393367
0.000250116453943757789
-0.000289678105229035636
0.000412008074251130529
-0.000124820726197291389
0.000278270000379171633
-0.000310831668966145356
0.000417050632707256189
-0.000134011804612411815
0.00030113645198537591
-0.000326280565766104999
0.000419317898468372669
-0.000136839841086352403
0.000305233135554778146
-0.000330499622368750118
0.000415074709322822406
-0.000130866122400030531
0.000295952252824499388
-0.000324309888865342009
0.000404582006993439312
-0.000113692000886829789
0.000276036098895449241
-0.000312681131824925904
0.000389212131434112454
-8.95163524421651078e-05
0.000248047179000622259
-0.000296330312633139297
0.000372922030633439719
-6.44995527189775545e-05
0.000222799279486382042
-0.000284138999469902155
0.000359169486652953669
-4.40137509538826691e-05
0.000206364842783560149
-0.000275461027927565165
0.000353276699662295897
-3.23348089585982345e-05
0.000204338121956682418
-0.000275909013763257424
0.000361076362364356508
-2.82101238026275761e-05
0.000224562284901073933
-0.000296630305898689501
0.000384821300134916195
-3.51751783638463108e-05
0.000263393737036345425
-0.00033282271914451822
0.000418179875465271155
-5.13100035083828153e-05
0.000306377137611060497
-0.000369519104884063955
0.000445497551103372729
-7.70790730529335197e-05
0.000340483117607469159
-0.00039142505948755094
0.000457302225006865008
-9.30984831947532067e-05
0.000348471220621961826
-0.000382936198186928736
0.000449029457921459906
-9.34185473980115954e-05
0.000328952968578465131
-0.000344286825499062245
0.00041884391934972489
-8.4338049686162253e-05
0.000285560809483878498
-0.000284327364613132184
0.000372541429727713533
-7.18935124358737203e-05
0.000227091556853217628
-0.000216827745007078601
0.000322310531192936827
-6.00203749065370806e-05
0.000166424276125070919
-0.000155083855287435336
0.000279363001035318019
-5.28240198615971296e-05
0.000114567146429949833
-0.000106340748446433764
0.000251320764063402689
-4.95268671654248348e-05
7.4593028070946279e-05
-7.24461214134861618e-05
0.000235856296275237741
-4.45043758794034009e-05
4.60760173742713508e-05
-4.98389208225461899e-05
0.00022380042543014133
-2.78593327107920822e-05
3.16988493653534481e-05
-3.90988717325713115e-05
0.000203798032414745085
-6.99614672432867621e-06
2.59554040480402764e-05
-3.4488149160682489e-05
0.000179015186266259394
4.88149621833511391e-05
2.8567159850769048e-05
-4.01787873930259642e-05
0.00010778229340206796
0.000238985351964286779
4.63962132894436233e-05
-6.96997508019713328e-05
6.45202227168552924e-05
0.000322478574324023355
0.000186208555181795275
-0.000192399137955596462
5.14127158868958535e-05
0.000869743709678085799
0.000262371757591617707
-0.000247161337277690938
0.00146289252136136221
0.000280674934782268806
-0.000258110783337376064
0.000104191417264434382
-0.00053804433130831596
0.000119765866684058751
-0.000238847806616636859
0.000107755937802728907
-0.000557418417160786663
0.000190383617693981112
-0.000247526874464994585
0.000134342729336281766
-0.000541917952642915557
0.000180651905943598096
-0.000237123849635164768
0.000224112367787338126
-0.000551374985220861257
0.000138023378474150216
-0.000198640211182217014
0.000329975013157227733
-0.000470472081173330093
7.6736657564061231e-05
-0.000151537963180264695
0.000401253647152098364
-0.000286844347688262858
3.73957673331733778e-05
-0.000140388787425420872
0.000428026536730650618
-0.000113649081444722096
3.69657843182463928e-05
-0.000162699204756159356
0.000430714776752273731
-2.63606159900243677e-05
7.15538654499904651e-05
-0.000198475632116085102
0.000427473086335986854
-1.05946568389189087e-05
0.000125943072932392625
-0.000236986602641760805
0.000424535773172727421
-2.36889729452795532e-05
0.000175874151752922122
-0.000268384965103725056
0.000421218860214117227
-4.44703646164424526e-05
0.00021041499418737077
-0.000287448187363458071
0.000410925190219151438
-5.76157549907573544e-05
0.00021777769444088007
-0.000283879823247461098
0.000390145426921515012
-5.31697479965142068e-05
0.0001999804377004759
-0.000262870604356883015
0.000358615798711998024
-3.43584253593000815e-05
0.000165294342815025275
-0.000230272366299775051
0.000319650157471653058
-7.52727512481091789e-06
0.000122996451207942292
-0.000190195564794699173
0.000279466979038020709
2.04068779565376274e-05
8.11394643064625913e-05
-0.000150879578270137399
0.000249727893150206669
3.72759734219228181e-05
5.47576424085082023e-05
-0.000126794200275009202
0.000239908458780874694
4.15653811342034884e-05
5.65246611338997656e-05
-0.000132284566898949641
0.000253731203665369441
3.55430626670912445e-05
9.21957528977357952e-05
-0.00017389655377366049
0.000288262969820020473
2.0439447795709796e-05
0.000151766874582202107
-0.000234948311011100894
0.000333698961311814063
-5.57547467091992017e-06
0.000217533424077393108
-0.000292569214376381457
0.000367741052893003279
-3.07468127060972235e-05
0.000265221700019739712
-0.000319827081519064623
0.000375696144003353203
-5.5555167127038343e-05
0.000274712755342013581
-0.000304191826781921885
0.000353539040977284545
-6.10660800034837652e-05
0.000245470891682257727
-0.000255346250081795541
0.000309578029485656561
-5.34666461480466139e-05
0.000192345394520358943
-0.000188336405772878508
0.000255195187542671441
-4.08213581467626615e-05
0.000131478592052597978
-0.000120612669416838954
0.000202899601500991766
-2.98602734688391285e-05
7.49170475054958897e-05
-6.46550274333722752e-05
0.000160842689901629846
-2.18995915059596319e-05
2.92529364999658364e-05
-2.53170901655620979e-05
0.00013240578213527586
-2.10059260894937533e-05
-5.20896531848692048e-06
1.8276284547250968e-06
0.000118507644449416909
-2.47526320904176856e-05
-3.37202565592953428e-05
2.28440184424946155e-05
0.000117585445618774309
-2.65289801334479452e-05
-5.73403546391595541e-05
4.02870030636983656e-05
0.000113833345229923187
-4.92432970610085663e-06
-6.46802277076207144e-05
4.54970255979565089e-05
9.74230942965000573e-05
2.29606925894606533e-05
-5.4895197696234419e-05
4.13482636661870192e-05
9.14954258246610181e-05
6.14681391292627456e-05
-3.71100299267077612e-05
3.03845351895872944e-05
4.90229100696125644e-05
0.00030529605113972677
1.41614315899394991e-05
-3.79994506050486964e-05
1.72081564587988267e-05
0.000372421784555912916
0.000153616546141788587
-0.00017174502806221106
2.08357983869187236e-05
0.00085019252492439946
0.000256501968907880973
-0.000240578385438611176
0.00146236333154937123
0.000277466719280558755
-0.000256101734111691798
5.42617201617676709e-05
-0.000430071123479737472
7.38263284735726359e-05
-0.000236060687840122221
4.59949808998323e-05
-0.000447363944272333061
0.000110023969263819651
-0.00021181119314450192
0.000109741905340017315
-0.000529771957399770418
8.37456509652512453e-05
-0.000159638335465983041
0.00023888691236252215
-0.000623928768725699897
2.90416731601657476e-05
-8.56325359154001066e-05
0.000358053640329971008
-0.00053380819540900027
-1.92402439503313563e-05
-3.65899866068101161e-05
0.000422594249665450301
-0.000271061136397026769
-4.59874492656155056e-05
-3.43358988802622587e-05
0.000438569398340456034
-1.49588043975798919e-05
-4.42822585106604629e-05
-7.03826798306061752e-05
0.000435071630324971887
0.000117478877035089249
-1.45083465933281164e-05
-0.000125832828379891033
0.000426297026030196514
0.000139592203948506427
3.01585380227481573e-05
-0.000171570096280353684
0.000412358688148988948
0.000117704499703395033
6.95951820569471954e-05
-0.000197049699657924482
0.00038843499464567328
8.49291964414749975e-05
9.10035439462865685e-05
-0.00019647890579540259
0.000348632947171746558
6.60585576431420003e-05
8.55856714186464037e-05
-0.000169457425868648344
0.000292771972572671371
6.9593955139408113e-05
5.83163513587590859e-05
-0.000125218646394519283
0.000231398214283545155
8.17973426088767103e-05
2.18284655600230638e-05
-7.66102079435162337e-05
0.000177515070837519495
8.78995402372029206e-05
-9.34017296699737233e-06
-3.22034152618713471e-05
0.000141439705330015787
8.8858701059331039e-05
-2.83740139384903966e-05
-4.00252905777010802e-06
0.00012968940227983745
8.33220172708229955e-05
-3.04221157014736106e-05
-3.87393958173841007e-06
0.000147370266581251289
7.82699197167197806e-05
-8.25259987689794001e-06
-4.61332566606202068e-05
0.000189920398663429469
7.02036220787938237e-05
4.4029287775697506e-05
-0.000121240248332054435
0.000243074533940235691
4.98120059311100581e-05
0.000114007343894792344
-0.000196534112765583328
0.00028362231088340168
2.05574850389501527e-05
0.000169129138111730155
-0.000235809926315808609
0.00029221284619681512
-4.24472595789442044e-07
0.000185380159010081758
-0.00022429311636246326
0.000264733928315919863
-1.32115364164499138e-05
0.000158032891204381459
-0.000172897728589595782
0.000215713940229108112
-1.18120757697911589e-05
0.000105539526723928885
-0.000105773713266111761
0.00016234697769455095
-5.39568117619695567e-06
4.9183094770778051e-05
-4.38873742909591156e-05
0.000115063257992503831
2.56439022514317141e-06
1.97678655763848212e-06
1.92080716315124889e-06
7.62734284908603267e-05
1.07075945857005766e-05
-3.46974649100428398e-05
3.29189451717386717e-05
4.60721831732506716e-05
1.60899825400210351e-05
-6.21979283873564401e-05
5.44092331066699535e-05
2.55639601259544719e-05
1.05757392821253916e-05
-8.52372691320318025e-05
7.41635268281311429e-05
2.46848568063357223e-05
-1.35578007534570544e-05
-0.000104893515121310286
9.4577330650200646e-05
4.15177009324168607e-05
-3.36077973396489417e-05
-0.000118289237550685169
0.000108534825374671822
5.21126418938674846e-05
-2.93106091898858622e-06
-0.000115651462178088181
0.00010306265448679268
5.02277420279899616e-05
3.03135537665642162e-05
-9.30880581795033839e-05
8.76194917861068082e-05
3.75811431503322505e-05
6.6161245407339475e-05
-6.18755683886950645e-05