/*--------------------------------*- C++ -*----------------------------------*\
| =========                 |                                                 |
| \\      /  F ield         | OpenFOAM: The Open Source CFD Toolbox           |
|  \\    /   O peration     | Version:  2206                                  |
|   \\  /    A nd           | Website:  www.openfoam.com                      |
|    \\/     M anipulation  |                                                 |
\*---------------------------------------------------------------------------*/
FoamFile
{
    version     2.0;
    format      ascii;
    arch        "LSB;label=32;scalar=64";
    class       volScalarField;
    location    "0.540000000000000258";
    object      rAU;
}
// * * * * * * * * * * * * * * * * * * * * * * * * * * * * * * * * * * * * * //

dimensions      [-1 3 1 0 0 0 0];

internalField   nonuniform List<scalar> 
7236
(
2.28607397609134401e-05
1.42658515274467617e-05
1.0953371867229848e-05
9.5556076033224775e-06
8.74115728810403292e-06
8.19598855071387104e-06
7.79046174226723267e-06
7.4895744162025118e-06
7.25820949242790362e-06
7.07030455856427694e-06
6.91471395582234443e-06
6.78302737194540775e-06
6.67068334967670393e-06
6.57525759902624743e-06
6.49577575295294663e-06
6.43019330775993534e-06
6.37585982745311973e-06
6.33149934671956828e-06
6.29289214464022288e-06
6.26236877509166875e-06
6.23871122750646752e-06
6.22341335237041655e-06
6.20693575694510277e-06
6.20173653487356628e-06
6.20742581362895881e-06
6.21957783789255302e-06
6.23835417895920792e-06
6.26410321306339829e-06
6.30456387564103039e-06
6.36418948131563693e-06
6.43942817022474668e-06
6.52477444917408702e-06
6.60913870236101895e-06
6.74745073201468479e-06
6.99761779141089185e-06
7.30930275885657869e-06
8.37104385268189056e-06
1.31111942215034942e-05
3.83035744148592133e-05
2.25609217204765622e-05
1.79000594231399093e-05
1.55244544996028795e-05
1.31584491888732632e-05
1.12811785607468931e-05
9.93490621850847457e-06
9.07460591018450491e-06
8.40920061326404674e-06
7.88095577674889073e-06
7.52852198547743735e-06
7.24423631714795162e-06
7.02612275736221736e-06
6.87367415163700592e-06
6.7969084017452437e-06
6.73777361329261345e-06
6.71144575401821584e-06
6.69503841802347349e-06
6.65311807979480228e-06
6.66395274387096528e-06
6.66681037279616713e-06
6.63763936120900426e-06
6.74226181631406308e-06
7.02350871740105224e-06
7.21243417548461101e-06
7.18158155248188295e-06
7.24859523534730396e-06
7.36965916304155387e-06
7.82116645720912264e-06
9.0249456824431635e-06
9.94155027842856403e-06
9.55362212249745556e-06
9.85915479963561566e-06
1.2575806743714432e-05
1.61211211211761824e-05
1.31435690118855316e-05
8.32072472874346171e-06
8.68529233440423803e-06
7.10915970892161785e-05
5.68827028771209286e-05
5.0963655703524185e-05
4.96715807016118838e-05
4.49204942542754637e-05
3.73986179131663503e-05
3.14058615244342256e-05
2.70347916709769962e-05
2.38096290801320062e-05
2.06550191110120872e-05
1.82222707776926156e-05
1.64199369779138798e-05
1.54307786951584096e-05
1.45992518210251482e-05
1.44169588858819299e-05
1.52309583978376945e-05
1.60521546485947502e-05
1.76077467416935921e-05
1.94167076022210919e-05
2.17291637642226736e-05
2.24459538624840442e-05
2.37817554987627202e-05
2.84516696303889728e-05
4.16356636673055364e-05
4.95960946122950467e-05
5.46156012980855872e-05
5.45978466768746128e-05
7.02194896014600548e-05
8.6364464792315057e-05
0.000101999207964001973
0.000124735640087100433
0.000151950980943915215
0.000188361424354613875
0.000249743808167461308
0.000317578877978196765
7.5293487943553481e-05
1.67791732827158602e-05
8.03153390480762755e-06
0.000197472701040715275
0.000105512327883620864
8.87575321589221438e-05
8.98290341250185221e-05
9.2627869937714685e-05
9.42739887651320232e-05
9.73923900941916549e-05
9.97480808861825525e-05
9.88920777606295339e-05
9.63746003143914001e-05
9.40097455538800537e-05
9.25067642076504064e-05
9.36923144148479544e-05
9.72735137301798582e-05
0.0001040925703957723
0.000114685594877968422
0.000128557128429588452
0.00014574147365390295
0.000163978535168905781
0.000185261392660065853
0.000206026499822866847
0.000227983831006820854
0.00025598904023069576
0.000310759740306791967
0.000359978346311440843
0.000423085047650030588
0.000511946323844336432
0.000682713861444519607
0.000880399113056362474
0.00114824739070118519
0.00154696287631148977
0.00205836527158253504
0.00263011920518119256
0.00331911601649758107
0.0040688475536343853
0.000322394725880537308
4.1132770338180125e-05
8.31610520769857584e-06
0.000271377535744317562
0.00016844945423862218
0.000165217447705990418
0.000192349289579000696
0.000225285535851556712
0.000248836221875154209
0.000265689583211874841
0.000275866057266290063
0.000279744044852786263
0.000278789847768321842
0.000277593479043028793
0.000284359169932431549
0.000304935135908641431
0.000337193465348187022
0.00038215885494777193
0.000443758289531544291
0.000521186522086469848
0.000609229540768588956
0.00069628153497385578
0.000772462032010286909
0.000831721368200796351
0.000886975106961930874
0.00095475061106744879
0.00112085201772284455
0.00135940837584489589
0.00169944522891544579
0.00216973903049363362
0.00284491394042313793
0.00371322922506344506
0.00471703316697581667
0.00574611810729197623
0.00661220438881019324
0.00743328445539761292
0.00877834836122645505
0.00853064696051356389
0.00109586230980226042
6.80823596623642929e-05
8.66879403875458236e-06
0.000380684708181991513
0.000300990165063400397
0.000356332190845605001
0.000475345320381199228
0.00060817242652084992
0.000705404193074376444
0.000743005605744673746
0.000730907035355395627
0.000697082692327484314
0.000669942552121543665
0.000668429602177724467
0.000694692699494628895
0.000772494136878493112
0.000904873924312429054
0.00110424927164816888
0.0013889438617313587
0.00174079657209886868
0.00209199533860486998
0.0023211646764280643
0.00237370665030340114
0.00234127119210214346
0.00228326354642670272
0.00241458242681932399
0.00280297347184032966
0.00342412432420109106
0.00432336555762114633
0.00556140712391965577
0.00704122544497781232
0.00865199344281918602
0.0100456330079641883
0.011258366762819768
0.0116549098582748503
0.0123844710701573046
0.013883354676682693
0.0107457817922767141
0.00244607731027486576
9.85719336144417937e-05
8.53087741684893047e-06
0.000580015467187521656
0.000598211660902445586
0.000842194154500096087
0.00118935665154438282
0.00159613987741049593
0.0020191326136351326
0.00217757739258093042
0.00203833348736200777
0.00177849624415950128
0.00159884203963715213
0.00154966692962839889
0.00167015516431282224
0.00200739803843669792
0.00262265836393484313
0.0036547051530134711
0.00512683447478661392
0.00673656106400297248
0.00762400689840214089
0.0070584992488979233
0.00589213310679876506
0.00474804997581820213
0.00434071055220987007
0.00464252618796923058
0.00562634393738051415
0.00699223168210684736
0.00894108614396097248
0.0113248403156442131
0.0137492158618269921
0.0158044006705829361
0.0161663558656282152
0.016369043414113587
0.0169998590229224929
0.0177937589334344719
0.017199107789276729
0.0118184008918099676
0.00430260513041237028
0.000126410261374948924
8.9542896087426738e-06
0.00100790280639799848
0.00132199090584861519
0.00182817901618694489
0.00199202846017057901
0.00248616743091630401
0.00349312271265004876
0.00474807543332076473
0.00451512076204676864
0.00416427455450305972
0.00394590078457249336
0.00393569954628605889
0.00450707595862356782
0.00591792324522570981
0.00827243180311799595
0.01156958509691163
0.0141938508900802448
0.0152862368406950101
0.014753871146871201
0.0117690564743880826
0.00884405332130422731
0.00735032435529704622
0.00750369272395961986
0.00844687051488927573
0.0105078166194382556
0.0133289434036523557
0.0171535813971194669
0.0183220659938697177
0.0191991593517860069
0.0197419718040219953
0.0190772303807977377
0.0176099261620412291
0.0182053303832453751
0.0179122894298396479
0.017702659065937279
0.0121890047124901795
0.00570585148515719183
0.000152592283442442347
1.04389034931942822e-05
0.00217964262867539936
0.00301022788248487801
0.00223687381842599224
0.00179069934126529508
0.00222614688058425832
0.00352429000939196791
0.00550450390519480626
0.00502625387721266585
0.00513202124480236551
0.00578049340592750628
0.00674477180287588133
0.00816027545815649
0.010153969600421529
0.0113774841141443574
0.0127090447496892769
0.0140634081196569869
0.0154807478747332836
0.0163157937605287948
0.0143138320937072957
0.0118432992779199317
0.0114452245425124641
0.0127481029022245874
0.0153408346486688836
0.0181535824822774416
0.0189562792945084622
0.0196938689918505043
0.0199016225792243949
0.0192336960225911388
0.0186818418861267113
0.0176020441929150631
0.0164189307872842534
0.0178543345890914175
0.0175276379911840363
0.0182474254141059694
0.0124849445160041018
0.00594895727658088791
0.000151788939814984818
1.17209753649430307e-05
0.00497868719363456745
0.00505843769829695481
0.00172732919671309839
0.00135651550243344726
0.00186437591774607937
0.00363705571659959752
0.00561764016305232611
0.00526222304586277355
0.00564757719633959734
0.0064178344260888082
0.00749856572024626411
0.00870603977622127177
0.00997295076752008
0.0112709021024685035
0.012561788756965819
0.0138159796829505719
0.0150434194431961037
0.0160179433083257432
0.0160900653689215328
0.01586973510918099
0.0167796398330865987
0.0172505468638212735
0.0111955864817812629
0.00390757946619958198
0.00110548322021415831
0.000941001204939767317
0.00143928207337640896
0.00379865413067918779
0.00606074992218354289
0.00569618673380393407
0.00598656442698908969
0.00657951324544166216
0.00751841466241130393
0.0087503964304759263
0.0101091680324365205
0.0114152226710479907
0.0126283427602750381
0.0136960975425907232
0.0146341874480709743
0.0152655942136474647
0.0155353602587920241
0.0157443427520116454
0.0161538643499464438
0.0168350507100871426
0.0175178586678524754
0.00169305991202094424
0.000655225474467935375
0.000723961383904432728
0.0013364322078231836
0.00536358242805649952
0.00689973843815784842
0.00627695633511593
0.00641558134402531351
0.00694312512988763241
0.00784092683207098136
0.00905944678872664354
0.0103700449962209774
0.0116030943053697065
0.0126977317807652947
0.0136523811599148868
0.0144412535668908045
0.0149753982048368723
0.0153238982492796254
0.0157309236495319811
0.0163170214863927188
0.0169680967686021422
0.0163818352375063418
0.000951379550278158678
0.000448462716663359736
0.000640678709923018044
0.00171628200317533171
0.00802288432444443061
0.00798874026636143923
0.00714727733254334405
0.00712029583163452731
0.00754107988608425806
0.00836577270685440709
0.00947781617081732385
0.0106638828366361089
0.0117835073894766041
0.0127866092412308886
0.0136692767614354383
0.0144066032057694072
0.0149624459989642043
0.0154094813905447867
0.0158888151406198531
0.0164708579264961387
0.0168619480160490595
0.00825984736866750349
0.00896395446455712508
0.00992703023521030944
0.0109731929213980305
0.0119780980505883421
0.0128972848200257888
0.0137217436930183335
0.014429346544786871
0.0149969581426778482
0.0154862207660421535
0.0103916676085875261
0.0112936956842470664
0.0121864427071364627
0.0130245901199782816
0.0137915941445952237
0.0144668942451526648
0.0150362815007195096
0.0155445236663088251
0.012413182350948954
0.0131716182615652516
0.0138794328523216565
0.0145164675943931665
7.67128022927765458e-05
2.58684282973850934e-05
1.61056160636257548e-05
1.21719988994579636e-05
1.05547943897044646e-05
9.59526072809065974e-06
8.88612753988019469e-06
8.31163750201452159e-06
7.86355349036618762e-06
7.51257339979363476e-06
7.24647987370968755e-06
7.03231429310101679e-06
6.86461917369893716e-06
6.729856817844774e-06
6.619759089074925e-06
6.53321795402383221e-06
6.45687576211205814e-06
6.39719993500634576e-06
6.34800415312935905e-06
6.30969117349139682e-06
6.27938034353309535e-06
6.25779378299341986e-06
6.24048285342155915e-06
6.23687753517761591e-06
6.2421796428368302e-06
6.25839368036889982e-06
6.27624469060213312e-06
6.30855802734496723e-06
6.35913101735955192e-06
6.41145883877905296e-06
6.49274677252259937e-06
6.57989313866413205e-06
6.69732257649600467e-06
6.84370347435766889e-06
7.09360863390717866e-06
7.3735112805632668e-06
8.37152193307919765e-06
1.29903196547864924e-05
0.00460411589166661271
0.000106307096298086852
6.03040639530524593e-05
5.19773283153553039e-05
4.25045647281530262e-05
3.16112599412497785e-05
2.32144967779171816e-05
1.71774399842974918e-05
1.35939893950315693e-05
1.1201780518199167e-05
9.7024189644140291e-06
8.83925587972574117e-06
8.29259373604748568e-06
7.91730362393116333e-06
7.58455429597141983e-06
7.31997092822322347e-06
7.2481124948743124e-06
7.36699778796570699e-06
7.30359386449179963e-06
7.30327276237626316e-06
7.28311449263443132e-06
7.34314176832684878e-06
7.59427274994908814e-06
7.91278106379654247e-06
7.92991854262044042e-06
8.31956809290203484e-06
8.4287216280331736e-06
8.34511258501527048e-06
8.70004289141610618e-06
9.31758290694176425e-06
1.0862660695178245e-05
1.16513058168375679e-05
1.2033930409264789e-05
1.36255638124131531e-05
1.68084400385269439e-05
1.55944558678141059e-05
8.85548577527267592e-06
8.7866284516024715e-06
0.00483025700130592772
0.000194726078551350204
0.000122816410149479847
0.000110958084594651004
0.00010378934862613796
9.48089052031450704e-05
8.40645285888032078e-05
7.39632612173425391e-05
6.76970826316312729e-05
6.36453158449812231e-05
6.12559504945595469e-05
5.88119034258033677e-05
5.59652145402646941e-05
5.22951258411413742e-05
5.0986814216691556e-05
5.24245629491355952e-05
5.49154136652788485e-05
5.9248498409375565e-05
6.34848751301747246e-05
6.93113057652131851e-05
6.96407394713979643e-05
6.85162008372539787e-05
7.41442486011908758e-05
8.19571359605704674e-05
8.91547013422971252e-05
9.49468870598477448e-05
0.000101550693924332196
0.000111173214904316565
0.00012562076465587755
0.000143683781961469046
0.000174570194042560642
0.000212071686944144535
0.00026442953973687558
0.000348225751077453182
0.000457429704065570901
9.76212945611339134e-05
1.93441077392256727e-05
8.26996243839980117e-06
0.003088175075411345
0.000328043677976722916
0.000223404472896923759
0.000220133200590090478
0.000227358769311713929
0.000230629882739416276
0.000232406575005528567
0.000233905373093443338
0.000234045958493007429
0.00023361039541465109
0.000231766936719377632
0.000231105542429660275
0.000233106158403393498
0.000239311052360422286
0.000251606349743993996
0.000272659770302120449
0.000302854907777495776
0.000341703230466442972
0.000378093406720761589
0.000421329243922220168
0.000465290926508932603
0.00048708216785185726
0.00050096390455424617
0.000529557465679215186
0.000581569751367751967
0.000668132588704419082
0.000785157505665416092
0.000941657259367475238
0.0011576957164796725
0.00145530648142211177
0.00188398787684162117
0.00242293265124755419
0.00295499289067255658
0.0037446992777686078
0.00451719071799325678
0.000393256067075867515
4.77285010357955631e-05
8.71530917213733119e-06
0.00238449764233809695
0.000549713966928401998
0.00047094041002632229
0.000543901760731757599
0.000641425915885470159
0.000716070142765154482
0.000754214332199001285
0.000748447647265945118
0.000717051759146645844
0.00068040734358154381
0.00064926333608090385
0.00063372601497483738
0.000650246859846865849
0.000696689143422892388
0.000774178829595189677
0.000889021777443054742
0.0010385210606984681
0.00122084416960964166
0.00139807740375012335
0.00154256643325028264
0.00162464158360867096
0.0016479993073524133
0.00163650823319456897
0.00172668613382840285
0.00191338724025861781
0.00221858824997393095
0.00267504466844948816
0.00329167721897295892
0.00403354988593301704
0.00479534681012127456
0.00570723021694281851
0.00657883584375862016
0.00753437713925882678
0.00878865628007245887
0.00855215346730960231
0.00134909679209625397
8.22432439789628789e-05
9.02479592169850011e-06
0.00270325160939941574
0.00114130040007215123
0.00125524776760042194
0.00165447915661550175
0.00206957457734885083
0.00244102440048983875
0.00264066442843932311
0.00247308117141137101
0.00209700942028364984
0.00181162918037531704
0.00166316300678318258
0.0015793782622834404
0.0016179644759179092
0.00182994122856487999
0.00221228985250041064
0.00282271465243395889
0.00362232353000921988
0.00443789956300324074
0.00490146834530428167
0.00481663269969617117
0.00438498864817816764
0.00378830433821834844
0.00338420047523263316
0.00347918416492806097
0.00403085186825677053
0.00473687855534998727
0.00578013658634435063
0.00712568571362995687
0.00860162282487003139
0.00937806864436144944
0.0102651372855985749
0.0117076885205058771
0.0137794592068614351
0.0139941240500968764
0.0109886073500405964
0.0028851012564134965
0.000110952925236713448
8.84281005646270987e-06
0.00442738799139424065
0.00311329065835508605
0.00382446715922744743
0.00388233945701851662
0.00378009228889224702
0.00459486182214136844
0.00617402265680603354
0.00658441836745653208
0.00554851853997453352
0.00459784741328463347
0.00411495402094865913
0.00406112719445329926
0.00444149146582092404
0.00547317143295151382
0.00714012823312344062
0.00947625422479723978
0.0119796437424894812
0.0133765775869202058
0.0123351630439238139
0.0100199676041246282
0.00791770165531189771
0.00604730507781740985
0.00571673424809414528
0.00603825152649061295
0.00705089256879060794
0.00866927774405468199
0.0106708623669489258
0.0133929927515689853
0.016721330133989222
0.0172978809457516799
0.016501202016109405
0.0167670602160481901
0.0173586600087848597
0.0165642085730695436
0.0115326372018286459
0.00456625543781623636
0.000125510763961196668
9.06925342519946659e-06
0.00999653446339769831
0.00848312595701522856
0.00775181688610995095
0.00387974703232247175
0.00309360435693644764
0.00387536829381614385
0.00590311945787517795
0.00665600117064969916
0.00650821098368964748
0.00658174122525306826
0.00705937879181028644
0.0079908557871421846
0.00952629367928885078
0.0115068800098499999
0.0131768254526598745
0.0142074217463525176
0.0155154762218591633
0.0167992066911153114
0.0160417725545347403
0.0129628057811388506
0.0101240173680414245
0.00885428630761237942
0.00914136319447016697
0.0104972796124945672
0.0133511325434364225
0.017199851986049064
0.0185691151954511871
0.0194213282132351776
0.0204646629470822891
0.0202710975130443033
0.01739554939186784
0.0171520140924507625
0.016640860100906426
0.0166023229956131016
0.0115656861152941253
0.00573095990053790541
0.000136808766777076602
9.56962176169625292e-06
0.0174106216357375436
0.016599155982011643
0.00692093056701287724
0.00248576611716327294
0.00225944030418621759
0.00312217550056390633
0.00539495487765783831
0.00564717190131443919
0.00611735547906983208
0.00696866314205747597
0.00802146924171120296
0.00920645735148578961
0.010514357216510041
0.0117591845070353345
0.0128795186176978421
0.0139843215767142797
0.015189037935075882
0.0163913421684472801
0.0170996709351632532
0.0155996921822856727
0.0144118775081286937
0.0146101934768957074
0.0163464281145757478
0.0176785640534613091
0.0180654646999143208
0.0185124828413108719
0.0184161901438518946
0.017773352794290237
0.0179545791751202846
0.0168274344520337182
0.0143501786526196804
0.0145833643350071068
0.0149283932871808276
0.0151282881265827913
0.0114224142405372278
0.00639761529663392461
0.000142684859756645426
1.07595222535061575e-05
0.0137422259635910596
0.01531776840951222
0.00368511221047978068
0.00155913330800366043
0.00159363192236159691
0.00251690748506329691
0.00555764298011590142
0.00545395813399278482
0.00591082540290979643
0.00679092057665211558
0.00788661974581105971
0.00912848240197888967
0.0104266141882088902
0.0116793519373359668
0.0128378356344324811
0.0138964944577642784
0.0148512512436122686
0.0156833118926509515
0.0162028518497676563
0.0162889208600978941
0.0162428651688431049
0.0163698340458492651
0.0167339051139085704
0.0112598387046783897
0.0120687490133843667
0.00167216947361883842
0.000898556864400113994
0.00118444049186595393
0.00232550493126454589
0.00747795420931780721
0.00623835376776181103
0.00632723073841856293
0.00700491952244953163
0.00803401934237814828
0.00926657541922696303
0.0105419848201097812
0.0117410984956244514
0.0128257924640561242
0.0137893883577075611
0.0146201636431437677
0.0152360175635825341
0.0155663212625723052
0.0157333570318244388
0.0158984644697598883
0.0162929159142194864
0.0112954902178287134
0.00321086288361814663
0.0007241586573355892
0.000650208588802186362
0.00103809983299019376
0.00296179983113760903
0.00861807308539291189
0.00726614031977126928
0.00701582341350803947
0.00746373276032405008
0.00834989796548244421
0.00950613357356470262
0.0106971382849144359
0.0118122871671580091
0.012819720152315554
0.0137156656849013441
0.0144890274339728106
0.0150697226515092032
0.015440446963807971
0.0157495430129298529
0.0161039568643274941
0.0163546190692735911
0.0119656442982517749
0.00121847777937889425
0.000438873289544270664
0.000539407675398116335
0.00114557493033528896
0.00460222574453154811
0.00982806063290860357
0.0082999144307815062
0.00782604392185988484
0.00807301240433462575
0.00879374046172220168
0.00979958116433771523
0.0108805050479394635
0.0119083979746535135
0.0128465746825691899
0.0136908077237669935
0.0144312916075351773
0.0150222754214965441
0.0154599669593628291
0.0158515666430635443
0.0162803339694941596
0.0164741265359717448
0.00876886727468766114
0.00930914716754198228
0.0101499256558232592
0.0111019581862557507
0.0120361491934724927
0.0129061336310312934
0.0137014886782018189
0.0144115138661550617
0.0150086960706770807
0.0154957916879282145
0.0105384593199121142
0.0113567099386019041
0.012192779267505496
0.012992355297560234
0.0137362641725753774
0.0144114445665173754
0.0150018881195643876
0.0155145609315935438
0.0123801443347904289
0.0131067005796245244
0.0137961976407998815
0.0144326185715238139
0.000640591084003650315
0.000168203125989684548
4.84177952147055477e-05
2.45896080273522094e-05
1.57846199573904101e-05
1.23436460311767864e-05
1.06809686422999058e-05
9.69416186365803672e-06
8.97568678507992869e-06
8.44651689464910932e-06
8.03734033451236863e-06
7.63757137306872631e-06
7.31601770993567378e-06
7.10138840517482725e-06
6.92034185722253774e-06
6.76527155210837996e-06
6.64501773895288801e-06
6.55486341894942376e-06
6.48868833252446146e-06
6.42566406138099639e-06
6.38312366969078091e-06
6.34872641067347311e-06
6.33371838894084547e-06
6.32238471750736952e-06
6.32668909777396076e-06
6.3336095557085734e-06
6.36094414714592229e-06
6.39598664640298894e-06
6.43836826014868277e-06
6.51539955379223318e-06
6.58979853971335494e-06
6.70306716963451921e-06
6.8351581381547078e-06
7.00062756316721158e-06
7.26609576506280789e-06
7.51510540079933435e-06
8.47061356841811911e-06
1.30853140863763829e-05
0.00238826526582645035
0.000354483351713525546
0.000141355065137584092
0.00010269529236931015
8.65282536983094804e-05
7.46025172140055127e-05
6.62649696647441575e-05
5.66446036051290023e-05
4.57413649913196264e-05
3.35663557032696717e-05
2.39007358523539697e-05
1.87029022404605977e-05
1.51545925958939671e-05
1.24633900185602394e-05
1.06720391378628594e-05
9.76158452997238022e-06
9.65904483945294483e-06
9.37896719781341572e-06
8.9987048905223005e-06
8.86560333941374406e-06
9.05098342110464429e-06
9.05118564005396643e-06
9.16642794292750018e-06
9.00290743959626991e-06
9.46436152855233384e-06
9.89578956601992542e-06
1.02126471925649629e-05
1.01463704241606299e-05
1.01274718043440959e-05
1.11860582327553091e-05
1.25005598356531017e-05
1.49995345359552852e-05
1.49243241580991581e-05
1.552610483224479e-05
1.87896697086715951e-05
1.86328382016009086e-05
9.68079268829442809e-06
9.04386460359545607e-06
0.0091708088478394973
0.000682346189489366596
0.000308167037771973895
0.000246158839708242457
0.00022556520386662516
0.000208588564258691613
0.000192136507511915148
0.000174614912919611887
0.000157954644442779061
0.000140959500180671827
0.000124945099530734868
0.000113193009283195183
0.000104384985054220547
9.77927749652112945e-05
9.30993289472593623e-05
9.07175638574266572e-05
9.13942320381719064e-05
9.36959437672670443e-05
9.75824395655248229e-05
0.000101165250942744772
0.000105175013817799344
0.000109393771703483248
0.000116747781587754097
0.000125117501062167372
0.000135507446889055697
0.000144058725772784342
0.000157238360555710371
0.000169976643096135413
0.000186980392496021309
0.00021864213436356144
0.000252663451607037658
0.000310226718056659035
0.000378391434737285345
0.000480787203461966503
0.000633634330937620296
0.000125604699390629502
2.26759261907739733e-05
8.64287259037322788e-06
0.0131724177450643232
0.00124437749678924154
0.000650222206332208151
0.000579573782460664189
0.000586087750941675706
0.000593246130831618615
0.000598047263098943878
0.000589895736655031682
0.000566708271932890237
0.000537508115421720485
0.000504304264855082651
0.000472089271529773789
0.000449394602752691225
0.000438706804079914221
0.000443120132287541516
0.000461782145985435591
0.000498897903609992269
0.000553537247787179443
0.000620951118914828842
0.000684355775155616659
0.000739742325207217214
0.000785008290083818961
0.000822514149198192747
0.000850358260399216356
0.00089010432076818411
0.000963619169408204781
0.00110530911736310411
0.00128360051964191107
0.00151334813310338928
0.00185305197071904322
0.00225654055111759906
0.00270586865476046433
0.00322120760817896012
0.00409718411591671224
0.00482615113766693415
0.000478801713561306612
5.39481098112769462e-05
8.93983808123202764e-06
0.0161616141301262825
0.00246819821107682443
0.00177030649124082702
0.00184681342087093803
0.00206553043618141552
0.00228647337884948197
0.00245636954876777506
0.00239507010261935487
0.00211807416933453875
0.00183478381658847651
0.00162746226105984788
0.00143290936517486691
0.00133266429743171999
0.00132756632137756569
0.00141149236718939486
0.00157839985733515802
0.00183095807151785212
0.00215634268541414027
0.00250579820677052697
0.00276500480501589482
0.00287604331072643677
0.00284364926876091951
0.002756332735520786
0.00268340023668965167
0.00268373698895229499
0.00285198535844642534
0.00321301575448024223
0.0037200250204811069
0.00433969051691310455
0.00513547846762868552
0.00594325127416065434
0.00647946321532205747
0.0070797406121201386
0.00837431783528098245
0.00809177645350140501
0.00149558011243105388
8.88933502325782947e-05
9.59982605602177007e-06
0.0192137332436687069
0.00631929803739145635
0.00589155610688543978
0.00664386839420513624
0.00673808942641171069
0.00700095062829568255
0.00811004417472151878
0.00797213762981249796
0.00624828127153874511
0.00483188181616990044
0.00416068228306990581
0.00373284754239017105
0.00348941397971167227
0.00365126701758372672
0.00425461300313292965
0.00526995436883308417
0.0066027065768572606
0.00804681336631252013
0.00902975614730148167
0.00883629136898918602
0.00784115190629283178
0.00651794106447266004
0.00527265517583175997
0.0047547118266671887
0.00481249076124871077
0.00533433538858195562
0.00621489777652431147
0.00716205983790714137
0.00804666044928618006
0.00922980695915494656
0.0110883620363523092
0.0135590016347767236
0.014266260378785707
0.0127652165381323471
0.00898787044751764123
0.00283325993831657925
0.000121404972692892301
1.0689420621903302e-05
0.0188122476430024055
0.0167929265288771501
0.0157245396013665911
0.0105126869968870957
0.00683859720857060704
0.00660015362438138263
0.00825733867767329023
0.00865655799889450406
0.00792511771133267394
0.00725025803674180132
0.0069904665442686734
0.00719278147144518376
0.00777990336191664283
0.00876794002372014575
0.0107224870811650237
0.0134269102985274044
0.0151920535587529958
0.0161531362046202429
0.0162581951239914209
0.0145398091205856707
0.0120137323005769046
0.00951485811230508988
0.00768006320636441166
0.00706433529422411614
0.00754276078502250872
0.00886336743066394595
0.0112176840260253732
0.0144147963062421034
0.0181146617589132003
0.018751322552850249
0.0179381158930421031
0.017508711479270779
0.0150199447804768536
0.0120515743906404529
0.00772615111119184187
0.0038936726172218248
0.00011639578275110311
1.02578873425975577e-05
0.0153749008955661112
0.0167699718689060702
0.0173566719117206926
0.00734352790089336672
0.00426906718471072814
0.00451816012806800869
0.00612964981184985647
0.00693992828196451309
0.00706357590281566326
0.00768776557102909732
0.00853304139869513582
0.00948828032126572407
0.0109336183253994895
0.0123054991522097337
0.013399966482869629
0.0143241010940006429
0.0153507553417708362
0.0165485823228624686
0.0177035785092223737
0.0171210866625125004
0.0151132577594336737
0.0128482472885908302
0.0121025330159584658
0.013026586231797645
0.0151463267404042361
0.017904237676026228
0.0184728868021286873
0.0191790916080393017
0.0200382060957356445
0.0211129568664375801
0.018613591228469846
0.0164610366322659046
0.0126658065180694918
0.00920648017562473824
0.00677873303922248149
0.00472319706185247035
0.000109021316053317278
1.02034892680077989e-05
0.0135045481385240532
0.0143859821916300958
0.012196975303736016
0.00395725930213961831
0.00271970321781651089
0.00328277596768843929
0.00500037004451789335
0.00570036143876556829
0.00614401771392066118
0.00713128063187672915
0.00828901554853949014
0.00946486548388639388
0.0107158972957807751
0.0119330854155064274
0.013084620461004292
0.014143172937952855
0.015111946661940226
0.0160282828240600334
0.0168796698550468735
0.0174015308080576712
0.0170575267658898237
0.0166349774751448284
0.0170986720001283024
0.0172249984039987147
0.0175361950653314391
0.0177365240226775647
0.017319894018876604
0.0170411965763541881
0.0178274967370994526
0.017914568757693445
0.0133271662897057695
0.0104388237027733845
0.0073884339890072882
0.00597301853747637078
0.00617811140822589148
0.00557855418893943387
0.000111869182845291068
1.07664386863499854e-05
0.0128116561337370156
0.0147178716883245228
0.00586079219942489162
0.00204916356261447205
0.00161336670278946635
0.0021766815426533608
0.00440015245634174136
0.00542443934843308672
0.00582638883230606006
0.00687120528873128369
0.00814269617332291119
0.00944653551679124244
0.0107082648325487473
0.0119044256601155227
0.0130277027659004702