/*--------------------------------*- C++ -*----------------------------------*\
| =========                 |                                                 |
| \\      /  F ield         | OpenFOAM: The Open Source CFD Toolbox           |
|  \\    /   O peration     | Version:  2206                                  |
|   \\  /    A nd           | Website:  www.openfoam.com                      |
|    \\/     M anipulation  |                                                 |
\*---------------------------------------------------------------------------*/
FoamFile
{
    version     2.0;
    format      ascii;
    arch        "LSB;label=32;scalar=64";
    class       volScalarField;
    location    "0.0899999999999999967";
    object      p;
}
// * * * * * * * * * * * * * * * * * * * * * * * * * * * * * * * * * * * * * //

dimensions      [1 -1 -2 0 0 0 0];

internalField   nonuniform List<scalar> 
7340
(
-0.550629727495757781
-0.571902552102803607
-0.591789931552887394
-0.610156812702451923
-0.62694889033077561
-0.642158439484648902
-0.655804174568400122
-0.667917760402132465
-0.678541807255583329
-0.687724897722106987
-0.695511184768317525
-0.7019372325277905
-0.707036029109013753
-0.710836815406115541
-0.71335941270258818
-0.714613590946100885
-0.683963345636521614
-0.703862508228443429
-0.722621598097728191
-0.740064169498352631
-0.756097938705902362
-0.7706845824398455
-0.783818941433735095
-0.795514762996430758
-0.805799381411785642
-0.814707480906576853
-0.822272612363034172
-0.828524130010706572
-0.833489068573743719
-0.837191610880236081
-0.839648919151980921
-0.840870342758172518
-0.817779640018938103
-0.836319062928503998
-0.853947268874892251
-0.870452387725070942
-0.885709549955643549
-0.899653567315982006
-0.912257233879276486
-0.923516828186987437
-0.933444862440567014
-0.942062960587706222
-0.94939434210534035
-0.955460771751038496
-0.960283255492879961
-0.963881324795566652
-0.966269614288770229
-0.967456759892025842
-0.951989493303221135
-0.969199951277392002
-0.985707907092262525
-1.00127354422505821
-1.0157450342951766
-1.02903390979837783
-1.04109306815192082
-1.05190235971842894
-1.06146020260753637
-1.06977590196682071
-1.07686273186695614
-1.08273492266367777
-1.08740763264461315
-1.09089604331751655
-1.09321226699701546
-1.09436394289996519
-1.04027143655670562
-1.05478528730510757
-1.07044771101990377
-1.08651011990670421
-1.10243571052943845
-1.11784629174376837
-1.13248063471691296
-1.14616583916377923
-1.15879389950764078
-1.17030014800622739
-1.18064937202752174
-1.18982680540486219
-1.19783023904288544
-1.2046635936354968
-1.21033393598183281
-1.21485089373533528
-1.21822550899143756
-1.22046728824564155
-1.22158268640257051
-1.17968287032442132
-1.19250647319422365
-1.20660550321845594
-1.2212683356015881
-1.23596476919578091
-1.25031032398169595
-1.26402982506098693
-1.27693543075030691
-1.28890308653435515
-1.29985295869445427
-1.3097363036398697
-1.31852623364742616
-1.3262099640361753
-1.33278284315778239
-1.33824532760183845
-1.34260187234259964
-1.34585952001749365
-1.34802502707403971
-1.34910347256761209
-1.30397938870196706
-1.30980677478513918
-1.3188860804654452
-1.33017831065098813
-1.34284006138489875
-1.35619453891366692
-1.36972439355271947
-1.38304445914094387
-1.39587363246089291
-1.40801354352526653
-1.41932731596416017
-1.42972240459698297
-1.43913817678227707
-1.44753685932780884
-1.45489618534765097
-1.46120384149452787
-1.46645430890873874
-1.47064722981475193
-1.47378576594207766
-1.47587404020315294
-1.47691838452397528
-0.587003460315712711
-0.604152487800325599
-0.620259059565310245
-0.635197558426023323
-0.64889509979130866
-0.661312523293507315
-0.672432830135437754
-0.682259159411530258
-0.690807457770634681
-0.698094231108074115
-0.704133304190743381
-0.708940236662859991
-0.712531809139946626
-0.714919382976860085
-0.71610742975410735
-0.701367863240308753
-0.718216090298544052
-0.734419196241217986
-0.749738911891951409
-0.764022825964087327
-0.777175044083862843
-0.78913923363760019
-0.799885568219899534
-0.809405325144981425
-0.817703059926818576
-0.824786808249630576
-0.830664840782036729
-0.835347761010259982
-0.838847840602375161
-0.841174259867228824
-0.842331563213748469
-0.834195645514977602
-0.849918416103056407
-0.865169313348088442
-0.879688837366514376
-0.8933002275294738
-0.90588843171247968
-0.917381353401066857
-0.927736474091203744
-0.936933656622845445
-0.944966887804145284
-0.951835865074164511
-0.95754284004511403
-0.962093487891813037
-0.965496143647523897
-0.967757969880380431
-0.968883194135643055
-0.967430131197874577
-0.982046425512149268
-0.996351442320822844
-1.01006601271508512
-1.02299470648768742
-1.03500645723589946
-1.0460149169147539
-1.05596553319566544
-1.06482729873603299
-1.07258430958188966
-1.07922827605067173
-1.08475547114360271
-1.08916685583118822
-1.09246718282307897
-1.09466160838405724
-1.09575369750760032
-1.06410316377184433
-1.07514674595970128
-1.08768595400727452
-1.10099717893577131
-1.11453999010845073
-1.12791455050758938
-1.14082789035377274
-1.15307118992097202
-1.1645000409175581
-1.17501560025206375
-1.18455222832696228
-1.19306873191652407
-1.2005400392918868
-1.20695043033396376
-1.21229054857428142
-1.21655696029724236
-1.21975106128816613
-1.22187590562275017
-1.22293415355054003
-1.20170694491732122
-1.21140532105761389
-1.22267590688769667
-1.23483169861533559
-1.2473434580231344
-1.25981111788403788
-1.27193457173172897
-1.2834962516170727
-1.2943411182828839
-1.30435967624084048
-1.31347631924807118
-1.32164050292491031
-1.32881881599447627
-1.33498882296513899
-1.3401360542378411
-1.34425303204112812
-1.34733793246807765
-1.3493915318950922
-1.3504153400534864
-1.33049568457429168
-1.33316633941574159
-1.33922070034168139
-1.34769642390381605
-1.3577968182115705
-1.3688687788220375
-1.38039844568375791
-1.39198983468995463
-1.40334214328361995
-1.41423250229820541
-1.42449778078569556
-1.43401975118762293
-1.44271410606283412
-1.45052195432671893
-1.45740249665100885
-1.46332740272826367
-1.46827767876154081
-1.47224214493341066
-1.47521585271851086
-1.4771973694347893
-1.4781896226238973
-0.600866487141273442
-0.615544035033793957
-0.629599311230582659
-0.642846206025628586
-0.655157100841004758
-0.666443682958473005
-0.676646578416531863
-0.685733942952249764
-0.693692653900534362
-0.700514703186823184
-0.706193515776013858
-0.710728422838963425
-0.714124371539484493
-0.716385142671893904
-0.71751097817470666
-0.717305791496270495
-0.73141093150894787
-0.745302253634418155
-0.758692054759534606
-0.771376561463593347
-0.783211724786329166
-0.794097521895562153
-0.803966111566786878
-0.812776825656419954
-0.820507344868265376
-0.827142950711676761
-0.832672962062983357
-0.837092880346747448
-0.840403860156207383
-0.842607790600366169
-0.843705070219297748
-0.849253752073333312
-0.86243676029579619
-0.875533391606917899
-0.888244099618844651
-0.900348861663877065
-0.911690746910869376
-0.92215908348383191
-0.931677391275961386
-0.940196537322046777
-0.947685842698343439
-0.954124035869700737
-0.959495858380229549
-0.963792963356135068
-0.967013266624139556
-0.969156999244720652
-0.970224396596401029
-0.981616539535046129
-0.993888341997803848
-1.00619232047439722
-1.01821721073134874
-1.02973147849525359
-1.04056791426276773
-1.05060627763949577
-1.05976178251637321
-1.0679772466915225
-1.07521428717923073
-1.08144541304134845
-1.08665079364800343
-1.09081842003645346
-1.09394333508494324
-1.09602416897932242
-1.0970606740779405
-1.08580043368726042
-1.09375659192666186
-1.10349712732745253
-1.11432866518736917
-1.12571254936705145
-1.13723342632104996
-1.14857302273267958
-1.15949254002203062
-1.16981654862742479
-1.17941654886658021
-1.18820007626410518
-1.1961024258215649
-1.20307815785209615
-1.20909405634803524
-1.21412602043156648
-1.21815868697904617
-1.22118447128062213
-1.22320032933432121
-1.22420528835779874
-1.221802396826416
-1.22871191051121831
-1.23744103445460052
-1.24733141396600899
-1.25785911722837906
-1.26861370513629179
-1.27927526541577108
-1.28960145770968748
-1.299410747035457
-1.30856778629511417
-1.31697324871421051
-1.32455555507207068
-1.33126291482074288
-1.33705701275083944
-1.3419099473793108
-1.34580334700682247
-1.34872714671408844
-1.35067645206296127
-1.35164930915570047
-1.35453706146405173
-1.35444051342304217
-1.35781156756108734
-1.36376701655681321
-1.37156024340234328
-1.38056490285287703
-1.39027432861839806
-1.40028587057744236
-1.41028334191433946
-1.42002349433985975
-1.42932066204190855
-1.43803416827430031
-1.44605879625995293
-1.45331689142217635
-1.45975111544085956
-1.46531877406417355
-1.46998870473598209
-1.47373985378102312
-1.47655976047392845
-1.47844173076449703
-1.4793853782385058
-0.600554942237973455
-0.613046721446687704
-0.625588196913208106
-0.637860900542576159
-0.649629799549224618
-0.660723790583101489
-0.671014419665065698
-0.680406615099211742
-0.688838942491993622
-0.696273769718892765
-0.702682244899492048
-0.708040164011883189
-0.71233263632661592
-0.71555417316485681
-0.717701885008245943
-0.718772267607645565
-0.731273760353590374
-0.74301760272907047
-0.754907527354275021
-0.766617664651280006
-0.777902724879756424
-0.788580793311221773
-0.798515990211693283
-0.807608425081509207
-0.815790333778986465
-0.82301661998625697
-0.829253194082788969
-0.834473050191992805
-0.838658501463088957
-0.841800892885207763
-0.843895641711891131
-0.844939411260221651
-0.86247098733819394
-0.873462025183107005
-0.884690346422465135
-0.895823658230968545
-0.906608290175107467
-0.916854069197703625
-0.926418426954376484
-0.935196228860830092
-0.943113713764587636
-0.950119247511037601
-0.95617368375294054
-0.961246690952276772
-0.965317699039956123
-0.968375432827027316
-0.970413933544763463
-0.971429783374169853
-0.994087794126886304
-1.00433182191277615
-1.01489606771323082
-1.02544460724156572
-1.03571789910767453
-1.04551955604122537
-1.05470121427305985
-1.0631525651779492
-1.07079417695646639
-1.07756852788422464
-1.08343172235561713
-1.0883500632719374
-1.0923002556571868
-1.09526878406414219
-1.09724841961275388
-1.09823537696764473
-1.10470356243647005
-1.11003200687056491
-1.11737334293069734
-1.12606623227935065
-1.13557802895979143
-1.14548357870454631
-1.15544586034826535
-1.16520242160935616
-1.17455262817451711
-1.18334332029674205
-1.19145938053586775
-1.19881609877261308
-1.20535064546621795
-1.2110148164374277
-1.21577181314303662
-1.2195959132653198
-1.22247162098320583
-1.22439038857983551
-1.22534783641496126
-1.23934835045057867
-1.24387642349641148
-1.2504205334257521
-1.2583519999161541
-1.26715517313302684
-1.27641412734490722
-1.28579428895282821
-1.29503371484456475
-1.30392926562855482
-1.31232406199599283
-1.32009874106662695
-1.32716379919024319
-1.33345170439661631
-1.3389105046455323
-1.34350073338814813
-1.34719457416958877
-1.34997469965054773
-1.35183107486131648
-1.35275848268748411
-1.37540398793773733
-1.37298378375125996
-1.37407597906770618
-1.37787316972466067
-1.383677614952048
-1.39089032724344364
-1.39901430950700556
-1.40764407806663616
-1.41645223182700475
-1.42517939101942481
-1.43362145326925994
-1.44161902289002875
-1.4490492126715635
-1.45581834771662466
-1.46185488289517318
-1.46710376556401823
-1.47152335491961672
-1.47508403866857951
-1.47776672684357013
-1.47955994715093397
-1.48046020061721917
-0.612758896850309931
-0.623185714868289442
-0.633977230473902309
-0.644780143068338418
-0.655324421257545975
-0.665406578807970384
-0.674866475996289239
-0.683580357270568761
-0.691463022581063624
-0.698457172072105448
-0.704517157350306955
-0.709604517689077285
-0.713692744261164025
-0.716767601402759524
-0.718820384700343595
-0.719844192598986909
-0.742876007246724424
-0.752691440777061627
-0.762937500819410253
-0.773260100998580779
-0.783384345283657746
-0.793099360023963307
-0.802240970793941077
-0.810683602643644696
-0.818337672788113313
-0.82513972054453566
-0.831040001191809874
-0.835998275573322625
-0.839986064496103801
-0.842986513479173083
-0.844989454632206094
-0.845988206479371785
-0.873465490965722346
-0.88266237512520751
-0.892352216095973261
-0.902180598323272576
-0.911868969875494928
-0.92120151173097975
-0.930010536472267058
-0.93816797469971358
-0.945580194163832211
-0.952178587495177586
-0.957909511829161842
-0.962730403554783898
-0.966610702841238956
-0.969531475712920754
-0.971481436459189607
-0.972453896017435593
-1.00447603518210204
-1.01305583240673158
-1.02218497080284543
-1.03151057864415874
-1.04075211627820874
-1.04969073864892604
-1.05815593783195605
-1.06601699081046641
-1.07317646986112281
-1.07956128145228236
-1.08511418917216207
-1.08979024870984187
-1.09355696382692447
-1.09639369856560887
-1.09828817133220547
-1.09923341347442238
-1.12031635703731025
-1.12352211192222451
-1.12891210706702338
-1.13585554596017513
-1.14382758656945271
-1.15239855033201977
-1.16121834935720813
-1.17000689850951334
-1.17854411195960296
-1.1866574141510573
-1.19421356610455143
-1.20111163019361555
-1.2072745779082652
-1.21264200202252703
-1.21716681986478314
-1.22081487749500517
-1.22356409019524115
-1.22540114253340837
-1.22631857742083339
-1.25386946226306106
-1.25646760487465103
-1.26122953133419813
-1.2675544224018076
-1.27493638429809941
-1.28295757264996046
-1.29127338896541599
-1.29960721371517396
-1.30773918656649379
-1.31549547429199576
-1.32274066669568202
-1.32937068359798172
-1.33530511788021378
-1.3404809181342241
-1.34484926056655252
-1.3483746357589852
-1.35103364620459798
-1.35281178540142677
-1.35370089194566168
-1.39258178765968088
-1.38830700257298112
-1.3875612330515823
-1.38960443303036651
-1.39378257286583285
-1.39952224494975397
-1.40633707385835893
-1.41382149977630656
-1.42164053273768687
-1.42952266127299832
-1.43724949168109739
-1.44464687246166257
-1.45157773858497818
-1.45793537115672556
-1.46363660878001012
-1.46861634843399536
-1.47282446316319104
-1.47622434219543219
-1.47879132725952545
-1.48050978520517384
-1.48137343022742396
-0.622150579291980033
-0.631013019675787268
-0.640470712494839445
-0.650147350213074127
-0.659750046350570885
-0.669052203179097638
-0.677870091188016
-0.686058424137960365
-0.693514165794334669
-0.700165229374631326
-0.705953395600249944
-0.71082961652678589
-0.714758635900634043
-0.717719368407859326
-0.719698364777459521
-0.720685894093835877
-0.751815346832344411
-0.760166638016726903
-0.769157457217918283
-0.778415763945335626
-0.787646690417386441
-0.796618555284203333
-0.805146304516346722
-0.81308518259658169
-0.820329180232080679
-0.826800929648802363
-0.832438890982119428
-0.837192954592229199
-0.841026535062843195
-0.843916426290202026
-0.845847956471729612
-0.846811646805460949
-0.881946426155208352
-0.889778034241846316
-0.898291276128905136
-0.907117729381741067
-0.915961645591511719
-0.924588794425121763
-0.932813070233851183
-0.94048931709782857
-0.947508878624693907
-0.953790213804975417
-0.959268717314617048
-0.963892700827066573
-0.967624130025823592
-0.970438173380940183
-0.972319259342436792
-0.973257938023138869
-1.01249798251701106
-1.01980887124013408
-1.02783899915169674
-1.03622461551747724
-1.04467059560690023
-1.05294199956244716
-1.06085213902774589
-1.068255079577211
-1.07503972490129573
-1.08112106743321257
-1.08643177576099736
-1.09091853297375407
-1.09454197837630463
-1.09727599960898914
-1.09910423692776615
-1.10001701206580549
-1.13228589689344261
-1.13389534622190147
-1.13780940440506373
-1.14342283569258818
-1.15021880312199842
-1.15776633396689022
-1.16570699251224608
-1.17374841538208474
-1.18165657579958872
-1.18924472862620623
-1.19636610588977454
-1.20290740227207404
-1.20878071362843209
-1.21391641366926772
-1.21825977857141954
-1.22177036307093578
-1.22442099962020157
-1.22619450589763335
-1.22708079525550517
-1.26502111900985748
-1.26616385470547543
-1.26957436284014369
-1.2746751692961853
-1.28096972510199381
-1.2880404483940926
-1.2955363689856827
-1.30317060221962389
-1.31071130068886821
-1.317972247968485
-1.32480602464132535
-1.33109742971271405
-1.33675621268722189
-1.34171095731665502
-1.34590588394246158
-1.34929971768760204
-1.35186435088443591
-1.35358163861760583
-1.35444091125802291
-1.405715452478427
-1.40005991730441015
-1.39793367865870088
-1.39865082027425314
-1.40159286977370945
-1.40620791636670361
-1.41201944525892475
-1.41862325657660282
-1.42567955078062325
-1.43290831443890809
-1.4400808952765809
-1.4470123356271789
-1.4535549441924509
-1.4595920697673983
-1.46503170540459204
-1.46980118514038827
-1.47384404599079777
-1.47711838746523205
-1.47959520166783642
-1.48125547255548273
-1.48209056389619032
-0.628518690214057041
-0.636332942404701618
-0.644892434932687997
-0.653807748780415143
-0.662772468272252335
-0.671545116848747403
-0.679926363859994831
-0.687756784513792185
-0.694921447315733909
-0.701338131525206077
-0.706940136218059512
-0.711671553387060563
-0.715491441807835971
-0.718374034144870555
-0.720302508910469985
-0.721265105416770469
-0.75788172890238803
-0.765250428899303614
-0.773395160146801541
-0.781933647363383666
-0.79055890721238864
-0.799025877772065352
-0.807135852936855969
-0.814731499110215918
-0.821695778723674497
-0.827941781890295214
-0.833400019493578004
-0.838013975499508512
-0.841741810164504445
-0.844556015808975213
-0.846438727255426793
-0.847378400950629329
-0.887706376243239892
-0.894620391988601549
-0.902339780397034774
-0.910488111061267813
-0.918759071943231698
-0.926906635121904854
-0.934732748216423048
-0.942081020416555948
-0.948832631169863383
-0.954897153620857475
-0.960202620130357176
-0.964691442009190991
-0.968320762683481551
-0.971061773238634296
-0.972895848478351088
-0.973811446331440012
-1.01795045164516207
-1.02440738385069974
-1.03169527461230959
-1.03944419251039211
-1.04734999149250063
-1.05516747879445383
-1.06269950717574524
-1.06979008409848975
-1.07631881246856786
-1.08219250972922598
-1.08733709963378855
-1.09169387448478372
-1.09521905593548574
-1.09788283629956762
-1.09966592730955637
-1.10055655766883209
-1.1403762171470313
-1.14092257390348717
-1.1438496853552782
-1.1485702318065143
-1.15457366454270871
-1.16142933357965372
-1.16877403732937779
-1.17630779964486343
-1.18378775978206763
-1.19101801034678112
-1.19784278705200675
-1.20414034955140847
-1.20981536128989475
-1.21479206962974584
-1.21901083892447737
-1.22242716491562264
-1.22501043364126727
-1.22674066637472179
-1.2276057266769913
-1.27256853865657149
-1.27273996836203751
-1.27524486077298427
-1.27952242472303279
-1.28508325953006386
-1.29151085303709934
-1.29845054708265373
-1.30560909885428056
-1.31274708319642186
-1.31967025548677119
-1.32622318426931596
-1.33228309797943778
-1.33775306045458242
-1.34255611846383149
-1.3466320055213723
-1.34993569457097151
-1.35243585974732428
-1.35411171654037998
-1.35495064298635559
-1.41457552944992404
-1.40800701675218987
-1.40496236579903111
-1.40479269481660962
-1.40690483573643332
-1.4107622993669795
-1.41589604905334676
-1.42190344271759783
-1.4284418886811161
-1.43522611507357523
-1.44202097141761509
-1.4486344715570838
-1.4549118370451819
-1.46072969439867739
-1.46599007167888118
-1.47061530060554579
-1.47454479115851989
-1.47773315093405611
-1.48014837579231218
-1.48176900202386852
-1.48258458369677992
-0.631731019426139961
-0.639020682348705238
-0.6471290945696071
-0.655661146041658704
-0.664304370897373486
-0.672809614037255366
-0.680969832517450246
-0.688619165631971897
-0.695636835459968461
-0.701935042601309012
-0.707442561354122867
-0.712100267486841076
-0.715864625991307069
-0.718707499227299929
-0.720610256858574827
-0.721560119445357584
-0.760943493566417883
-0.767819932388079995
-0.77553941677308369
-0.783715415120306513
-0.792035321096863587
-0.80024718528625971
-0.808145721930349059
-0.815567796158069291
-0.822390769631202723
-0.82852248386915639
-0.833889326934686315
-0.838431865527502818
-0.842105890638519261
-0.844881711011258862
-0.846739716143974142
-0.84766725169770285
-0.89061496320741218
-0.897068851376823129
-0.904388989747361038
-0.912195645067376049
-0.920177543433627454
-0.928082726233042776
-0.935707418170621197
-0.94288988968403098
-0.949506059350340825
-0.955460669772812965
-0.960678017203030032
-0.96509786951097698
-0.968675225455555955
-0.971379274121853209
-0.973189693507637621
-0.974093739449782614
-1.02070502601978474
-1.02673344301967751
-1.033647852213885
-1.04107578792002453
-1.04870887940791224
-1.05629691793967373
-1.06363772907218435
-1.07057039833657575
-1.07696966646003922
-1.08273797479954803
-1.08779788842769021
-1.09208830748140162
-1.09556350295788918
-1.0981918143965399
-1.09995229926164462
-1.1008319308315242
-1.14444787801792991
-1.14446451507509139
-1.14689858598412808
-1.15117196866527527
-1.15677738532913654
-1.16328472993420662
-1.17032883569125756
-1.17760615976193961
-1.18486961156338877
-1.19191885354964233
-1.19859362934443126
-1.20476777978235883
-1.21034205224181091
-1.21523768876294702
-1.21939287672375918
-1.22276130911084269
-1.22531063388254768
-1.22701927173059833
-1.22787383596958355
-1.27637019530522799
-1.27605708320622169
-1.27810889343026446
-1.28197366897747811
-1.2871656887215559
-1.29326936615589028
-1.29992837625699709
-1.30684652133212409
-1.31378079894948385
-1.32053306146113369
-1.32694384322661274
-1.33288642934874857
-1.33826041597307244
-1.34298615694777146
-1.34700137316516066
-1.35025933438901946
-1.35272707044139984
-1.35438227855339832
-1.35521115503198475
-1.41902930784181658
-1.4120075732246038
-1.40850582774939692
-1.40789294678976029
-1.40958930092440826
-1.41306647747223479
-1.41785934052249063
-1.42356623147765649
-1.42984324496791571
-1.43640269863890779
-1.44300637678284804
-1.44945886967463022
-1.45560184192979691
-1.46130846424470651
-1.46647771698109741
-1.4710294980606915
-1.47490131471741304
-1.4780461332351249
-1.48043039651293018
-1.48203124362792349
-1.48283716689529177
-0.478332438759712653
-0.516106532877169233
-0.548979107672586841
-0.577471809977057049
-0.602081930062357107
-0.623261464289666889
-0.64140099603907097
-0.656823949204170532
-0.669801326537080577
-0.68055841570607889
-0.689274910129721086
-0.696089382964959702
-0.701107110062879402
-0.704408547526486073
-0.706045614844598268
-0.575407110352114226
-0.615379855873402715
-0.650690621905054667
-0.681661494674859814
-0.708683356446475399
-0.732151400440197109
-0.752438812824887004
-0.769878268846004854
-0.784752427501944516
-0.797300405004951918
-0.807722857174738351
-0.816181764979804658
-0.822803725339761982
-0.827685149584149849
-0.830899280654627148
-0.832493114553956248
-0.71598424339511979
-0.752893269656248143
-0.785791365152896604
-0.814871718398587852
-0.84041112808690277
-0.862714973288296938
-0.882085387198902171
-0.898799936395207055
-0.91310216987891657
-0.925200344256726925
-0.9352709526967522
-0.943458355783661662
-0.949876751875766256
-0.954613445216792256
-0.957734632737246239
-0.959282669968609447
-0.856759019109220699
-0.890746917294903073
-0.921308069669688479
-0.948529214413154631
-0.972591917655978855
-0.993723437881777527
-1.01216214396582926
-1.02813519921977825
-1.04184839261256124
-1.05348086743603919
-1.06318570965245085
-1.0710900118921356
-1.07729551208808871
-1.08188032029370351
-1.08490372487392506
-1.08640371940652347
-0.889624788360831698
-0.927385335899068131
-0.963642713143960439
-0.997607275443318064
-1.02883270526673765
-1.05714954879427703
-1.08255934799748355
-1.10516589233109985
-1.12512912150499766
-1.14263098646677852
-1.15785330315849766
-1.17096612002239908
-1.18212126512835192
-1.19144966741780167
-1.19906167704218469
-1.20504670534555025
-1.20947369888753764
-1.21239521953072704
-1.21384531255096562
-1.04128050257450466
-1.07493055691132833
-1.10756258624655946
-1.13842588938387923
-1.16705774149109143
-1.19323503531740105
-1.2168945031760674
-1.23807749572532444
-1.25688682641926164
-1.27345520909262921
-1.28792390061740991
-1.30043032697229854
-1.3111006432736958
-1.32004511787647427
-1.32735801736806325
-1.3331167023060444
-1.33738111814794358
-1.34019732473481157
-1.34159618308716544
-1.13410986854320894
-1.16216481175093134
-1.19179341457660914
-1.22176897306316823
-1.2511178579282638
-1.27913039704983156
-1.3053409991652114
-1.32949134761904686
-1.35147185118221325
-1.37127405641483557
-1.38895293438633338
-1.40459944412134541
-1.41831884932722874
-1.43021860961704217
-1.44040076812323847
-1.44895679354730023
-1.45596592761424182
-1.46149393702670105
-1.46559209031152626
-1.46830038318147116
-1.46964686359844787
-0.481789043537681594
-0.518888841766723452
-0.551215939008140365
-0.57927232190045308
-0.603533778302224433
-0.624434927461992029
-0.642352756395858759
-0.657600292398373476
-0.670439488268564809
-0.681088788602382533
-0.689722942702116537
-0.69647700224063902
-0.70145399702149458
-0.704729538594765836
-0.706351316961845832
-0.579422161475129704
-0.618640601634800946
-0.653328544951121026
-0.683792375302258226
-0.710405165046796183
-0.733544400231459504
-0.753568618307571714
-0.770797522560978443
-0.785504110346466278
-0.797919850510556694
-0.8082389606821343
-0.816618709510831708
-0.82318235451698285
-0.828024250986096999
-0.831213088871921579
-0.832791839448327575
-0.719741238197828537
-0.755959502888467694
-0.788284409559864119
-0.816894868337183611
-0.842052284077141722
-0.864047332356332021
-0.883169423089642747
-0.899684939182253229
-0.913827930098306762
-0.925799984223765193
-0.935771776192898752
-0.943883264397112454
-0.950245558962790948
-0.954944095422741057
-0.958040757656016817
-0.959574049034672139
-0.860264782545901663
-0.893622134362803244
-0.923657175815595366
-0.95044399862545903
-0.974151227244482332
-0.994993797113011058
-1.01319903862091154
-1.02898449772218603
-1.04254709837663495
-1.05405968606000666
-1.06367030717056332
-1.07150203382837583
-1.07765376052966433
-1.08220188939818707
-1.08520163018109095
-1.08668729820299426
-0.895215888486315836
-0.932098333360579789
-0.967580092372629319
-1.00087026799390832
-1.03152146725883442
-1.05935631319520418
-1.08436565598568579
-1.10664247036071917
-1.12633631589375183
-1.14361960946829511
-1.15866565275662481
-1.17163666468551542
-1.18267828430495747
-1.19191713610540995
-1.19946000187719259
-1.20539366547985249
-1.20978551755694475
-1.21268430924823556
-1.21412058644185561
-1.04640967698768739
-1.07927034673423261
-1.1112030340956851
-1.1414564243391081
-1.16956607081398478
-1.19530238841734215
-1.21859333004889758
-1.23947131394143173
-1.25803038420432944
-1.2743950306643872
-1.2886988583773511
-1.30107222707907488
-1.31163541372548509
-1.32049500355784755
-1.32774219549245331
-1.33345191807827756
-1.33768273418093786
-1.34047723215745584
-1.34186258292643878
-1.14048836060673242
-1.16765943889054524
-1.19649263670908867
-1.22575470708937972
-1.25447200256732661
-1.28193320244170561
-1.30766967376541077
-1.33141754537663304
-1.35306001368620654
-1.37258132259082499
-1.39002894802367338
-1.40548610966451193
-1.41905141685791447
-1.4308263757222206
-1.4409079311212889
-1.44938405014296023
-1.45633118281425356
-1.46181284229635233
-1.46587914513784745
-1.46856715670881255
-1.46990372932809521
-0.447942725977287237
-0.488611287473233458
-0.524361985132136277
-0.555608299478466905
-0.5828032017212742
-0.606378136352556996
-0.626733236239141789
-0.64421764786623481
-0.659122002475177604
-0.671690744539137019
-0.682128870886556493
-0.690601082406710365
-0.697235050966668712
-0.702127996375669028
-0.705350123235743531
-0.706945483623881765
-0.587369580310867279
-0.625068625555524227
-0.658515792314804282
-0.687976380149786237
-0.713782158702854996
-0.736274493170000488
-0.75578171807130079
-0.772598505226802068
-0.786977545812427626
-0.799134393463642345
-0.809250822910968948
-0.817474711295025247
-0.823922351095782712
-0.828682681359633966
-0.831819476604303887
-0.833372431562492189
-0.727163606786292771
-0.761999424658566293
-0.79318624448600672
-0.820867653751962689
-0.845272020604855734
-0.866659809084987742
-0.885294114506730678
-0.901419187077352357
-0.915250710298566306
-0.926975752542462006
-0.936753608718444486
-0.944715551381712593
-0.950966168807254819
-0.955585858298689583
-0.958632022899541747
-0.960140235322799573
-0.867182658749982904
-0.899284451667438312
-0.928276550606285555
-0.954205244419364718
-0.977212144453982634
-0.997486555134316388
-1.01523310811474099
-1.03064986305063067
-1.0439172591286896
-1.05519490509332692
-1.06462053553755243
-1.07230922762526459
-1.07835379172568091
-1.08282596929341257
-1.08577690667516968
-1.08723831463480947
-0.906335964890989887
-0.941438223725188372
-0.975360897043956454
-1.00730633861541885
-1.03681768594394241
-1.06369833749482234
-1.08791716808199768
-1.10954453544519893
-1.12870841726654092
-1.14556170776850075
-1.16026059809074833
-1.17295263109082604
-1.18377147410143513
-1.19283441757193609
-1.20024089375706944
-1.20607203864460422
-1.21039097518412597
-1.21324280464233447
-1.21465576329668234
-1.05658667154367913
-1.08785778069110339
-1.11839220122240235
-1.1474339541229952
-1.17450953466235752
-1.19937445302508361
-1.22193870153613737
-1.24221591307671986
-1.26028199038508992
-1.27624458708766841
-1.29022240875104854
-1.30233283494787999
-1.31268541143449013
-1.32137822745684885
-1.32849573750859262
-1.33410767220077853
-1.33826873649658862
-1.34101827278367391
-1.34238140320278454
-1.15313107276383375
-1.17855622606103649
-1.20580449620749786
-1.23364488081837531
-1.26110727590753502
-1.28747634814040368
-1.31227544099122539
-1.33522858609144301
-1.35620423042427385
-1.37517099932756626
-1.39216114407858549
-1.40724335144449464
-1.42050323178394855
-1.43203093182773156
-1.44191386261971477
-1.45023225319425908
-1.45705638252874836
-1.46244502932354692
-1.46644485946248837
-1.46909006767980954
-1.47040580844342861
-0.460104165124046727
-0.498399612569243589
-0.532226373141764353
-0.561927449055156236
-0.587887040986420861
-0.610477027539652939
-0.630048623268229968
-0.646910511963809887
-0.661321324161230351
-0.673500839383384009
-0.683634726994006625
-0.691872960339630971
-0.698332518149626047
-0.703102521153679882
-0.706246505774080879