/*--------------------------------*- C++ -*----------------------------------*\
| =========                 |                                                 |
| \\      /  F ield         | OpenFOAM: The Open Source CFD Toolbox           |
|  \\    /   O peration     | Version:  2206                                  |
|   \\  /    A nd           | Website:  www.openfoam.com                      |
|    \\/     M anipulation  |                                                 |
\*---------------------------------------------------------------------------*/
FoamFile
{
    version     2.0;
    format      ascii;
    arch        "LSB;label=32;scalar=64";
    class       volScalarField;
    location    "0.630000000000000338";
    object      p_rgh;
}
// * * * * * * * * * * * * * * * * * * * * * * * * * * * * * * * * * * * * * //

dimensions      [1 -1 -2 0 0 0 0];

internalField   nonuniform List<scalar> 
7248
(
21.6824291337656803
665.016596978556208
0.307721106892165808
0.313201382613297608
0.64274204725013373
0.39721054303877662
1.00654412324210596
0.341351478925846552
-0.153593147055379159
-0.303395675786480856
1.35913779096106002
1.97396954354338217
0.923894292537901562
-0.303300530067045493
-0.224209054877498287
-0.27693376537084391
-0.278237096989854937
-0.361775668299755715
-0.375367636831469786
-0.169251914829738448
-0.212815574850867967
-0.267981520339938328
-0.31228417152576482
-0.326981945665685503
-0.132703156734674477
-0.169111106094872676
-0.211934557782535338
-0.250862118600778949
-0.27951260297527547
-0.121590921376536612
-0.15218305027079701
-0.187558537518611956
-0.22478076640693162
-0.260627697607784703
-0.116320815160773208
-0.145421101970462457
-0.17782541472390509
-0.212831484428588541
-0.249678230008154645
-0.115641924180277036
-0.14244245408557582
-0.172156093561740026
-0.205096230012200759
-0.241422876149556764
-0.118105235524987126
-0.142668139734270338
-0.169917581755326785
-0.200310530415260341
-0.234243192949744966
-0.122206330179432526
-0.144368325041476647
-0.168902535332555087
-0.196231833280736623
-0.226760160371424102
-0.0928753388945775527
-0.109348437286594186
-0.127521010133591267
-0.147511726452771635
-0.169463673504706647
-0.193565409128273552
-0.22008412415698092
-0.102188656525901866
-0.117252141533335741
-0.133955788378908675
-0.152332224152041867
-0.172373848000484803
-0.194015342162647875
-0.217111559144838151
-0.111393603254778914
-0.125522528579069453
-0.141354252748402603
-0.158904319986484521
-0.178115507420801872
-0.198808514393536528
-0.220623158021682919
-0.119992837768948202
-0.133628529077040953
-0.14917151157578859
-0.166693892340106176
-0.18619978521511879
-0.207578811005590946
-0.230534173149978816
159.183196338327434
880.815910140373035
0.131469701302492054
0.281617598181119089
0.778690464828622586
-0.0846728382886079711
0.118870380700594691
-0.016318864226675632
-0.274370977679405936
-0.0875716590872154949
-0.103265362001054392
0.527166323487184618
0.376162127180597716
-0.318339925605090612
-0.18455453735673899
-0.222818283574405973
-0.264003694662682475
-0.299606799647853583
-0.329537462408621085
-0.141449453828437488
-0.179210195022594637
-0.221343376343827308
-0.262340424841489561
-0.294116807381600176
-0.120958007922852981
-0.154071804115561178
-0.191697976923262903
-0.229603702464455828
-0.263702580024382349
-0.112301575935339154
-0.143592808557312102
-0.177789863651701768
-0.213856612596451251
-0.249921103181549975
-0.109761582004793731
-0.139086891167953808
-0.171052990674286309
-0.205766329490970012
-0.24283666622930522
-0.11167023492010901
-0.13867027588678224
-0.168450464484396212
-0.201427509332058302
-0.23782560762081395
-0.1159759112714982
-0.140684562776315275
-0.168172579602220401
-0.198904940887496523
-0.233243582625505125
-0.121399057879066796
-0.14381617736262417
-0.16879378955610494
-0.196771793188959293
-0.228170743789706948
-0.127707651829531477
-0.148071554230541219
-0.17064083641139477
-0.195680603896876776
-0.223552786806200915
-0.134916195207426787
-0.15377449602697485
-0.174570495741601994
-0.197335173361179977
-0.222050647317145716
-0.142927993169828599
-0.161056503290450237
-0.181137060456830618
-0.203095578437442165
-0.226704753691649968
-0.151239172388985654
-0.169410688583070346
-0.189870046928302616
-0.212629280902769807
-0.237555836782297053
251.809564190133102
1063.26384833318843
0.0889586355484170976
0.267106112818858932
0.433013912939133883
-0.157436595008058872
-0.186248363342880724
-0.238537263123945603
-0.348885591153442198
0.000538569367196872653
-0.242114680270279437
-0.248151115365939257
-0.266660899091603953
-0.299259071562347045
-0.163077281709262251
-0.19333535609521571
-0.22483332216992008
-0.259351711011851838
-0.300722842384657685
-0.128182110929376647
-0.164376360207027949
-0.202059386751927667
-0.241140743058824741
-0.278689077406251373
-0.113425140106177699
-0.147207943952865128
-0.182747146115957632
-0.218930939464323765
-0.253569152610858217
-0.104646390650436169
-0.13675897750134075
-0.170746747559989365
-0.206491074355452942
-0.24288304489347215
-0.104836405148459363
-0.134413655351485195
-0.166424040602102086
-0.201114228610256435
-0.238545053816291097
-0.108626528885900464
-0.135813347301237564
-0.165763489086194177
-0.198873330773657625
-0.235570427665778764
-0.114350220652808449
-0.139220867355571792
-0.166972184605909624
-0.198051925085471731
-0.23286225820217421
-0.120870736639072773
-0.143523130461136073
-0.16890580900133581
-0.197461749216568921
-0.229722169168786128
-0.128019197108102084
-0.148717459106881
-0.171837836984269549
-0.197699996225311814
-0.226767071425359623
-0.13589117258197847
-0.155183982545108623
-0.176658712045460908
-0.200431057018507358
-0.226587748335190076
-0.144434672483836624
-0.163087541853101869
-0.183954994933717891
-0.207056818808943832
-0.232280679407669138
-0.153177001134786939
-0.171937231994548523
-0.193260525620666396
-0.217269824111116339
-0.243981517187324581
321.936879550621597
1184.58000125617286
0.0605704501457517419
0.469081042541977467
0.109141669447662071
-0.168024641505473971
-0.205814443550223353
-0.259643744472621285
-0.356170626260668477
-0.186385383333780213
-0.21329066267074151
-0.226322492037146245
-0.0695508105547671812
-0.212948627190163026
-0.156751442965963411
-0.181973504843022438
-0.206992127324114317
-0.240551589446922315
-0.280483161514923474
-0.126076506837940944
-0.161359067463349382
-0.19571995967416092
-0.233064459125598838
-0.272199522969085228
-0.096477133093407455
-0.139502032296016182
-0.177047841341876233
-0.212731267921103639
-0.24926265498965916
-0.0989955892114168789
-0.131766534997408452
-0.165947365773797151
-0.201841400711202934
-0.239490391732476882
-0.101541099443368629
-0.131405265771510071
-0.163543516113739629
-0.198256552746345738
-0.236291690978377239
-0.106533757213047003
-0.133866447909344016
-0.163946060023113627
-0.19731937703414712
-0.234418188326550397
-0.11329800299696971
-0.138295369115095851
-0.166274532924185869
-0.197683819920820514
-0.233167414174307586
-0.12062960967596463
-0.14347244164403844
-0.169193902831175358
-0.198232951467482488
-0.231131372036180283
-0.128431605546041799
-0.149409866894563592
-0.172996413802716076
-0.199552323312601643
-0.229625299359365931
-0.136834725731274615
-0.15650037911596551
-0.178557888779183327
-0.203194104782856572
-0.230582930089515026
-0.145816709115566684
-0.164923085705994704
-0.186471242281682437
-0.210561615317095552
-0.237178471666066898
-0.154919211728393902
-0.174190289372651491
-0.19626394230732816
-0.221359060450176864
-0.2496201864232446
409.985467454458615
1261.55288968561308
-0.087290401527746031
0.350415165856279132
-0.172898434686035635
-0.170431440068405049
-0.209799429939413917
-0.283087140982436258
-0.317377152676279584
-0.207665000832484153
-0.212521743577830186
-0.216336625146297479
0.836380137787319566
0.504212353390038115
-0.158161715771780093
-0.181760218235702514
-0.197328171244039341
-0.248934213198562765
-0.292817362643923829
-0.124721522211877239
-0.156709464890487815
-0.188906612372541693
-0.226563971764676131
-0.27303840930755241
-0.102899231126298896
-0.137209199908753438
-0.17217966246403707
-0.20904700494204978
-0.249706080765608907
-0.0977917837980485233
-0.130149769271139248
-0.163944192956832213
-0.199681482156052137
-0.238341195350706331
-0.100225221830311045
-0.129994452398753846
-0.162036642697864358
-0.196896862760533892
-0.235547926562175852
-0.105653920749099822
-0.132959885398958144
-0.16307514283149907
-0.196619324050581357
-0.234103185082245674
-0.11284640047584607
-0.137888866715498604
-0.166021927973509953
-0.197698633422828202
-0.233550085957764719
-0.120657767479265016
-0.143628856698307911
-0.169609129765795397
-0.199033151122962271
-0.232469141656484385
-0.12890052961906065
-0.150096263782746764
-0.174055445850438528
-0.201156985987520964
-0.23205861913091419
-0.137696120394664195
-0.157662577430696893
-0.180192872412380939
-0.205528398741974788
-0.233920846348517619
-0.147016415378059734
-0.166493382322266181
-0.188598350482192423
-0.213496455862462964
-0.241246424714594676
-0.156404266022836497
-0.176094962204804834
-0.198785845766669772
-0.224773870983388302
-0.254303438402314341
502.898250788131236
1316.14077224363223
-0.164466034933387295
0.380049847540059937
-0.192033326926760034
-0.16962515142035825
-0.176858615707251449
-0.283944469598520266
-0.320985433638995232
-0.22015383821037493
-0.21055135738789213
0.135425438362001604
0.919939420875497404
0.0967861370562334428
-0.162234090636121098
-0.183850449332486898
-0.210685004825567873
-0.249230535746250675
-0.303570707218795088
-0.126587165485899877
-0.157706227697295337
-0.189355870781351299
-0.226581584604601011
-0.273463553584303742
-0.105837788933430182
-0.139043390924317917
-0.172903968778436723
-0.210056844766601719
-0.25254804363006661
-0.0990375816583917851
-0.130742890332086331
-0.164036230582133152
-0.199670994769737958
-0.239177767114175849
-0.100406709402062061
-0.129844680776978555
-0.161713291955574018
-0.19666698701327176
-0.235686559050994754
-0.105688419516692125
-0.132818486237458594
-0.162895748030917026
-0.196532401250351069
-0.234429420080590256
-0.112888477375182414
-0.137877309831436728
-0.166089124121717335
-0.197952002974479596
-0.234182906683253145
-0.120880790654597517
-0.143910132842332561
-0.17006146065584643
-0.199752719623518288
-0.233842247912055795
-0.129367379967437496
-0.150711195138980319
-0.174938882178530264
-0.202448642727042688
-0.233959472519517125
-0.138420272296965435
-0.158608858433699151
-0.181491852665411763
-0.20734788946041835
-0.236478783021753458
-0.147979037542405878
-0.167736045099374231
-0.190262971955290766
-0.215771428772781576
-0.24436844840300373
-0.157575943451657347
-0.177585770264054921
-0.200746885734003483
-0.227413781680100763
-0.257899333753882742
535.402979745809489
1360.06723300596559
-0.228333135807976595
0.446747467071227089
-0.200387811560912732
-0.175149968490776603
-0.178091782607773391
-0.286157721711399193
-0.290719372258137487
-0.228297968097550708
-0.22922557637108823
-0.155116584089088738
-0.0316451798270038082
-0.21605039507657206
-0.173090515229740338
-0.192134496225241869
-0.192811507078882227
-0.142858816758565932
-0.201647423054778119
-0.133114593089952049
-0.15437595405705104
-0.190728766790226156
-0.227720799351702169
-0.27127432587969813
-0.110635917509826751
-0.141980514941419916
-0.174789155083184822
-0.211633136808041467
-0.254914600543210856
-0.101451234849537372
-0.132175206941980844
-0.164960596567468282
-0.200521405982693662
-0.240409854314085597
-0.101479312512076564
-0.130412911437572887
-0.161998605710988758
-0.196934319347183029
-0.236043764668647821
-0.106247280350401832
-0.133082416336165299
-0.16304411878854097
-0.196686494320271715
-0.234718263363573015
-0.113177559038551673
-0.138058286381174261
-0.166269989378255878
-0.198186206330489167
-0.234607847347055365
-0.121164341326253575
-0.144202017375128916
-0.170438932899545259
-0.200288918939472232
-0.234632978677031451
-0.129752967670820812
-0.151183695907202403
-0.175579560505726068
-0.203359328391068656
-0.235254693594575126
-0.138949297286326184
-0.159282015939309407
-0.182398725004985857
-0.208601381006930708
-0.238227952441454338
-0.148655029482445106
-0.168598132270011386
-0.191407610998009403
-0.217323859022520438
-0.246488675105196148
-0.158386693558121572
-0.178610118697195619
-0.202086936162174491
-0.229208494007804409
-0.260334465194306641
610.669375893048709
1426.18522079751619
-0.127990564641518478
0.506000403799372056
-0.144495536833261717
-0.137980514208768501
-0.14629342001001347
-0.27549348670283802
-0.253780347253938499
-0.120324545010715905
-0.208986807094412169
-0.155800303327772394
-0.100676056096122887
-0.20090815295519962
0.0771515399207900326
-0.190340575428198405
-0.0833052260478967799
-0.0155753639957437393
-0.120546666709994338
-0.132750392738042511
-0.16319228980933595
-0.193828764038560086
-0.225927702286112059
-0.274341508274347112
-0.116048177495881172
-0.145570204512172674
-0.176667816831354768
-0.212671856165887463
-0.256701622244693339
-0.105192909984166583
-0.133996467268180791
-0.165824535368967324
-0.201214141772277949
-0.241383827426938508
-0.102809858312932809
-0.131061162482648264
-0.162379382163856389
-0.197206368120635828
-0.236416499561114574
-0.106827065597180901
-0.133411541758741731
-0.163255605014743344
-0.196848107048822496
-0.234912877425253463
-0.113461044119437623
-0.138236882652005455
-0.166419417591954999
-0.198323904080892593
-0.234884601841408441
-0.121360184580908165
-0.144387256228283134
-0.170655386588968366
-0.200557049622026112
-0.235053857862063398
-0.129974789192899981
-0.151440498418783959
-0.175912800628500399
-0.203807681929092349
-0.235867082579524073
-0.139230422709506085
-0.159632306463616008
-0.18286245879402957
-0.209225879173203289
-0.239081069546494523
-0.149004571693935661
-0.169040003141400441
-0.191990398471602652
-0.218107824228524372
-0.2475490262554913
-0.158801158730852765
-0.179131247663206206
-0.202765576539243098
-0.230110854076840982
-0.261545885181571125
143.3002646683519
295.637521544480705
1.60478430550201989
2.67474721632697054
-0.327530130868126546
-0.305645197987134187
0.199029382567625202
0.466792671298146611
0.730132591180490897
-0.511262514448531546
-0.516847731100488317
-0.280219477354754054
0.0604639950388174904
0.261621420892489409
-0.354814408119291713
-0.297898756807227494
-0.217454546564158607
-0.247217761786893808
-0.184488362294018243
-0.233697042328360721
-0.228898155591270525
-0.163761902401693082
-0.31632487998262776
-0.344702939126873609
-0.194730040054079595
-0.234821954031387753
-0.270985087434150007
-0.310731684986706391
-0.357188359455063775
-0.17280471528234384
-0.211057368007158852
-0.25085265705457771
-0.294862804555701075
-0.366828639414520929
-0.156503214299258703
-0.191106710524996837
-0.228176041615048009
-0.271012038131713928
-0.332837344756785447
-0.144205026038537354
-0.175035885096691907
-0.208683085755853953
-0.246217738181219392
-0.293406361804406768
-0.135839615529354168
-0.16220119113539555
-0.190915065769258957
-0.223104747913751261
-0.259786320118551517
-0.130665758716371233
-0.152381757335981138
-0.175090214478539535
-0.199168594426821915
-0.226616738450243133
-0.0944064528416106719
-0.110970769344932135
-0.128373662687295359
-0.146430645249953029
-0.164948202663561944
-0.183923369253439245
-0.203126633468506734
-0.0998060771771049349
-0.114223101035035524
-0.129382940773832167
-0.144991787609056844
-0.160621839284119966
-0.175673237187379039
-0.189317292555573086
-0.105783173287667662
-0.118592412466184793
-0.132172791110284044
-0.146166313572394402
-0.160019947428303333
-0.172914773809528688
-0.183661790185596974
-0.111206768978991025
-0.122949337078058885
-0.135608254262426675
-0.148838319296871469
-0.16206099524689721
-0.174358941610699619
-0.184333366193556253
3.51241624366204963
140.386207613087009
1.85814808719890201
0.802254679311777963
0.324644801622215873
1.26361058059208364
1.63450274589281475
1.2674459667321305
0.183969271699096354
0.7109101937999176
0.342253555465362125
0.230917834301222341
0.125538534831245857
-0.0456597661902052657
-0.393639459382464141
-0.420291642409586663
-0.357260097706973645
-0.297507973832657258
-0.370473952293434217
-0.251438924443969203
-0.291009877104827952
-0.315542664524156802
-0.387723655800430334
-0.325684356607676528
-0.204736962117821331
-0.24723210865638473
-0.292983500980953659
-0.351407941792663936
-0.278575056321818337
-0.17831902164297786
-0.21833864358451055
-0.262046562406476335
-0.311130356227469429
-0.380667124075932783
-0.157606150280999446
-0.192954905306770008
-0.232299779272605089
-0.277671744911712814
-0.3389273468985603
-0.143900328847327924
-0.174802008291685407
-0.20869740029147113
-0.247264175652864654
-0.294580327877626724
-0.135235142798578678
-0.161548146526143355
-0.190189487562844067
-0.221918994970331795
-0.257968158347734566
-0.130376771583292722
-0.15229715860923973
-0.175474261922623498
-0.200148187755614271
-0.227066163805850429
-0.0943887730369495775
-0.111066542306839308
-0.128651231605350913
-0.146981023072846717
-0.165842534193954394
-0.18496298136037978
-0.20404770532069727
-0.100022116878951794
-0.114487310296860975
-0.12974809034363019
-0.145515022734604316
-0.161359553065057282
-0.176659592953967354
-0.190547872167105087
-0.106161966249744374
-0.119038625317718832
-0.132721203103937063
-0.14686376708183474
-0.160922469679203178
-0.174081637141792978
-0.18514572728805212
-0.112087916871231888
-0.123930966215805571
-0.136723435015909944
-0.150129824582285215
-0.16358119872700283
-0.176170481020120562
-0.186505658603609875
8.89853406725701213
16.145333871040858
2.3931895973164834
1.60652983002321581
2.13654899965345191
2.92014009860378954
2.88940561071496038
1.62553461282686773
0.691168515295343067
2.39411709925401173
1.94161282392985601
0.555992069084889629
0.0256566751131022328
0.22967198403183095
-0.419053209377914404
-0.47196156456321614
-0.481675151912062505
-0.430904140494780985
-0.413388926211366081
-0.270257425750506541
-0.32517297017357899
-0.36973177085322434
-0.417670749160352017
-0.464585508854570728
-0.21411523796737153
-0.2594531770630506
-0.305555285053919212
-0.356490883291809668
-0.392347832002582997
-0.179146800884725954
-0.218028537987286442
-0.261515913492848528
-0.30789724650285194
-0.360478967180005438
-0.156683136993802458
-0.191389756165846636
-0.229350159043443635
-0.270705969042589867
-0.32099528335689359
-0.142184457027266231
-0.172507426120964258
-0.205512666837031427
-0.242310931087551668
-0.284873127293245654
-0.133773748731597614
-0.15964707777812509
-0.187630037943474937
-0.218379958264653201
-0.25292300426526676
-0.129524081356199694
-0.15132819697612826
-0.17440751193014431
-0.198909457491344782
-0.225170500916120342
-0.0941782478681395113
-0.110838444067194175
-0.128454690428901508
-0.1468823274468819
-0.165920279580850788
-0.185251646339394282
-0.204458053601704659
-0.100121657315614232
-0.114626043823901333
-0.129988305312242425
-0.145939334811996002
-0.162070849272853978
-0.177766578409850107
-0.192158720165819447
-0.106564080696551697
-0.119536589404847751
-0.133381257832220324
-0.147777448997740424
-0.162211398449442379
-0.175897928363144274
-0.187685277015732899
-0.112848380347723237
-0.12484326201474126
-0.137862934233291656
-0.151603358865452675
-0.165538753983278136
-0.178819885177094073
-0.190135308033853978
11.6657831101934804
2.14482592748599776
3.30487190972380729
2.98487538989199042
1.98626298561342596
3.55632707507666268
3.62053422113765322
3.48745362815793003
3.46899714249858615
2.69676926871109623
2.98563238755723237
2.58223864426172511
1.74220155061914284
0.939323992133837549
-0.426498528562217094
-0.326542417014388964
-0.525816112422322179
-0.506680729269083696
-0.475894182572687174
-0.287122652185766103
-0.348309347523100277
-0.388111310465740489
-0.41714768348557979
-0.446921112070531035
-0.216994767051494314
-0.26135368905810713
-0.30459526720132768
-0.345475081656559324
-0.391373069533178242
-0.171732248289640538
-0.209289271092050755
-0.251576830946368124
-0.296198254625867241
-0.34143107028875691
-0.153432851731117537
-0.186626198893938555
-0.222509742961877061
-0.261431576865764792
-0.30446867820315543
-0.139150451769624289
-0.168581840600645794
-0.20043713158173207
-0.235397594941260085
-0.274638204803232533
-0.131719775464579802
-0.157100262394029577
-0.184477554094358231
-0.214409425056548225
-0.247658401428388436
-0.128447650192684754
-0.150121751342963849
-0.173109371274061091
-0.197520031408894042
-0.223565435397939632
-0.0939618009136348048
-0.110576700510629691
-0.128209314256608031
-0.146736190917140324
-0.165981496395391198
-0.18564728657917462
-0.205307026115606001
-0.10032251367081664
-0.114878965417726978
-0.130373544574145794
-0.146567666595927376
-0.163089293612230429
-0.179360954067745132
-0.194551268204429084
-0.107139225163584761
-0.120245656009693891
-0.134317421836182171
-0.149071293912612229
-0.164041474940572474
-0.178497953615420202
-0.191359541778524378
-0.113761498627826876
-0.12596315949676351
-0.139297498752437021
-0.153506975411430935
-0.16813054207732378
-0.182408928328151199
-0.195166146676462704
7.54894748463515519
2.25814934834998038
3.36591555132794129
2.16058683002609753
0.773636100997052267
1.95184159283862879
2.64784836753691222
3.59731255284185103
2.79438607487591417
2.05192235769869091
3.10660649359024221
3.0656617859238664
3.46050465833473098
3.10804558274649612
0.323412985664240427
1.68791144055906184
2.31470129537036007
1.38638178746870167
0.556129530072901335
-0.296424275996679476
-0.368341108565489073
-0.415828342774646365
-0.42656961423068307
-0.428300539416098081
-0.207757239904873714
-0.248156530028609795
-0.30477514301052222
-0.339561129785306837
-0.369444907746082352
-0.159752021670031275
-0.202027366649828094
-0.245339589166748501
-0.285043532514558939
-0.324100768614125068
-0.147543553255967963
-0.179534033716449326
-0.214574482326980454
-0.252124272008822148
-0.291884905403143102
-0.134934031559002854
-0.163502411732227487
-0.194628554975862955
-0.228769197994278639
-0.266453159931981876
-0.129141788758739634
-0.154108776430256278
-0.181155653152350632
-0.210801053784613335
-0.243725280734134186
-0.127156908104035626
-0.14876047233285164
-0.171824529336013276
-0.196503712561488186
-0.223056421267592397
-0.0936955587664694278
-0.110256052819342379
-0.127923153800162087
-0.146612519147339526
-0.166201180142759364
-0.186463436229207996
-0.207067655518305471
-0.100570588048176091
-0.115195147572964007
-0.130863317483053632
-0.147379305325338827
-0.164427876680108248
-0.18150629397139989
-0.197876381544569824
-0.107825987080587271
-0.121099080687993757
-0.135456697698275258
-0.150664490844314686
-0.166322684884904148
-0.181787361377945295
-0.196086712411798619
-0.114815564078540391
-0.127267450525180514
-0.140985747177185622
-0.155770438945512263
-0.171241847118574292
-0.186753599861457315
-0.201281581722181052
3.25686784898461434
3.03631042564224884
2.6634869656425999
0.868414321787166266
0.220084257840877123
0.656377150931030218
1.82154719197956272
2.61408814728033789
1.28954655451546563
-0.0480542206790990217
0.970804945037007316
2.53521122322605885
3.14923956376052194
3.05117301288692655
0.859099559367749288
2.58853474812257112
2.89253252484297985
3.27776110656073882
1.49656291815952547
-0.289608518529760994
-0.122485548764145497
1.32799215504037038
0.453627165854039782
-0.420414717192798937
-0.184253732022828937
-0.178533968115455272
-0.307713800956521399
-0.337759396234408094
-0.354330312902717937
-0.151366337265463863
-0.19328204364788365
-0.235741165312146117
-0.276143975852440493
-0.31054790302402463
-0.139841133860689248
-0.171224821487386686
-0.206356568897857501
-0.243277216086755593
-0.280858051649958251
-0.129991658658020842
-0.157874363495906361
-0.188639799836667788
-0.222420392937146272
-0.259196014563593369
-0.126281509123906677
-0.15098133152750301
-0.177960049841651258
-0.207572971276462376
-0.240569569533766542
-0.125785959573997269
-0.147412226296416204
-0.170722849767641571
-0.195950590409088798
-0.223456507814339428
-0.093423020982397964
-0.109936117177949738
-0.127674881295040094
-0.146606353478966611
-0.166678174614777713
-0.187768552248749748
-0.209697028667592295
-0.10087949180574636
-0.115591114016437763
-0.131475642619391625
-0.148390519271426186
-0.166093311785458803
-0.184183550387815059
-0.202059107624571216
-0.108611828237190386
-0.122078904263531476
-0.136770713914615122
-0.152511136537190672
-0.168980421296405586
-0.185642658015801043
-0.201665716071984802
-0.115996099500431715
-0.128729471606309875
-0.1428808530789763
-0.158315487320021625
-0.174746201539678375
-0.191655951591368917
-0.208196785485342567
2.64897050328526262
71.7820677992337579
0.803892630656415141
0.339050003527851307
0.464971806583690861
2.3136867539881476
2.86581803803727464
1.58237148346847234
0.265231297582976366
-0.310949110465169209
0.528893058165642915
1.45360751360479279
2.96262939976880268
0.842798214933131673
-0.280265916653118119
1.80505084309089558
2.58095324390819547
2.45118792499399119
0.32685572036682975
-0.25203975203783352
0.152631464113067661
2.42672822917394537
0.572606196813177148
-0.401011910441463948
-0.154092229858786262
-0.096362848111528579
-0.294390485204453822
-0.323868589840285881
-0.335269803464838034
-0.144093657231026684
-0.178549238575962277
-0.221494578249848112
-0.262156185118953944
-0.294694028500194438
-0.131627193535033937
-0.162341981606521274
-0.197003858189645442
-0.233376152787868107
-0.269090809753028182
-0.124870933496889172
-0.152193225811591948
-0.182583422493564129
-0.216092833826090375
-0.251743106007690731
-0.123367758816587653
-0.147929348722146359
-0.174936183515496974
-0.204714173231959118
-0.237965127949467475
-0.124447463338110742
-0.146189398128982906
-0.169864006695990222
-0.1957763425181408
-0.224376562555150649
-0.0931752304600068776
-0.109658261485836503
-0.127511591608502589
-0.146757726179107845
-0.167418062944944573
-0.189479740457792895
-0.212930377282467359
-0.1012525154811552
-0.116070297092766783
-0.132208527218791699
-0.149583899053402886
-0.168034405417085114
-0.187274610037093225
-0.206853967870756467
-0.109481862178852196
-0.123162842802996164
-0.138223227631661894
-0.154550645385134078
-0.171913238131300578
-0.18989523543145595
-0.207822790138782965
-0.117276171240336485
-0.130309191630504029
-0.144922303284627241
-0.161049972529532598
-0.178503119262162641
-0.196902138567228158
-0.215584977715969989
1.14517056331417111
309.205155682219015
0.435777641094970636
0.246823837295081255
0.525015963082505643
1.62890640429651556
2.09105091353001349
0.427459963322806669
-0.00591735895121955381
-0.285569666545622214
1.64132206810006354
1.97443979492284782
0.945335621005870208
-0.213583338334866701
-0.265152146266033895
-0.207376510702691863
0.578936622411999502
0.409919003697303941
-0.321430559607819966
-0.210215136315463819
-0.0270683592099922286
0.349649932039302447
0.192799296287191529
-0.340832106537287294
-0.132923428425701734
-0.127691050922087879
-0.25158421564115574
-0.289368893861293164
-0.306425728882297632
-0.13174302332091542
-0.163574867334953411
-0.202183788795832237
-0.241026092880900322
-0.275688274845854342
-0.123456562589475405
-0.153251961798675063
-0.186724191336942069
-0.222461419448117786
-0.258372823321060152
-0.119956185897855588
-0.146902279988241902
-0.17687288256294692
-0.21004961800361896
-0.245389231585621537
-0.120588042261151718
-0.145105824922650867
-0.172197539794417681
-0.20226589492632388
-0.235799100569618558
-0.123235001649256451
-0.145162205912152287
-0.169256635579803444
-0.195889028058206488
-0.225571586176724542
-0.0929846149769143759
-0.109455583365976564
-0.127458297790767339
-0.147066933154438972
-0.168370612564434807
-0.191461283231319446
-0.216482752695184549
-0.10168923856744351
-0.116627181118785672
-0.133044420047565476
-0.150917011061264678
-0.170162638429508017
-0.190610160922324967
-0.21196632855233255
-0.110416326483012417
-0.124321634436134129
-0.13976817319735485
-0.156708772479495523
-0.175000540989607739
-0.194349481620670006
-0.214243354707459477
-0.118621373688579959
-0.131959196861561823
-0.147042462257201495
-0.163875573145406572
-0.182367809306834022
-0.202277258288030587
-0.223128316811027239
630.932401507491818
609.392619681127599
552.613165832698201
550.702733763190054
532.215130023737743
559.66844514837635
607.978743723420621
416.932184625938021
536.896066003158239
568.342960146692349
607.163903094280499
1156.63012535098846
702.110728899656465
881.54797788150006
912.312267891376564
587.11320066475048
522.147124347699105
764.954943326849957
358.536993655050992
376.560094160834979
380.077107774714591
550.053463788462295
1076.34610257868326
337.837148119122787
440.098505150545805
351.925824474854721
198.5127866381697
248.255925468481081
582.439211092010964
147.69041245507259
109.783466970236489
108.002839218093541
491.509577271779222
507.52221242439208
248.245521917427993
326.19840182817552
223.190759203728419
124.538631567902158
312.127487837180979
222.196696586968528
14.6935531567142164
48.2940901054483902
263.821911811607663
376.697533938556091
435.914494905560105
260.277600303778058
823.690299256283652
284.376200864592192
363.825137071477172
771.612390140555021
555.060278799296952
40.7448590563889965
64.774707855325758
469.277969290538351
572.215969016623717
1015.01885544837751
392.360643124302726
1132.41002507615895
752.852728773053968
640.263870621783099
918.122852887915087
756.05783020177455
110.656763626723645
143.912202419856811
650.103652094554946
677.72118468911026
695.794798847928746
585.831878033203907
1003.82900450264356
828.479045050533045
1137.28175440930409
951.940034961048241
830.027966959895934
495.463736856481432
858.550968182384736
900.431216394544663
783.035350438443515
169.24888880522542
169.486964157767687
293.429611849069545
508.602075909359712
928.738887373593002
902.297201234668023
746.266821364470502
1215.93592702918909
987.661879643868929
797.883674509455204
763.548189900153602
370.449519103331966
375.252724654397184
424.493876292601954
499.584247815174081