/*--------------------------------*- C++ -*----------------------------------*\
| =========                 |                                                 |
| \\      /  F ield         | OpenFOAM: The Open Source CFD Toolbox           |
|  \\    /   O peration     | Version:  2206                                  |
|   \\  /    A nd           | Website:  www.openfoam.com                      |
|    \\/     M anipulation  |                                                 |
\*---------------------------------------------------------------------------*/
FoamFile
{
    version     2.0;
    format      ascii;
    arch        "LSB;label=32;scalar=64";
    class       volVectorField;
    location    "0.630000000000000338";
    object      U;
}
// * * * * * * * * * * * * * * * * * * * * * * * * * * * * * * * * * * * * * //

dimensions      [0 1 -1 0 0 0 0];

internalField   nonuniform List<vector> 
7248
(
(-0.415001112010754847 -0.759545248638871184 -0.412323893671210639)
(-0.162379226994146003 -0.585360535178028663 -0.424270856702325283)
(0.198875769062910407 -0.384460865333786372 0.079364344303898729)
(-0.095805463504349514 -1.12216060656016103 -0.0982407910057781636)
(0.20547943854681408 -0.379164946788069779 0.192346036577527524)
(0.202570228930581242 -0.470809163875525016 0.114702501968436066)
(0.190773528113898472 -0.433054317447616188 0.0478681781332761513)
(0.335437866898876669 -0.338371799445029542 0.0754795500952038512)
(0.526619908654417657 -0.33625086501874929 0.106134893575706157)
(0.537842286540560877 0.0434476624835026387 0.384857113524719741)
(0.434871403025648029 -0.100825708935022004 0.289851853027000117)
(0.361410110091474168 -0.270949148833075304 0.191396740122651232)
(0.441981699212929346 -0.407182372581687435 0.15566484576032702)
(0.58927241813837361 -0.467894197651117894 0.097859469009167116)
(0.637613783953043356 0.0695913686482878546 0.281514447430907644)
(0.730874014384966353 -0.00744681648428394821 0.29823972545187738)
(0.739790279809189544 -0.185310954444042414 0.257321643967712566)
(0.747403437631308121 -0.334943795032377201 0.162137095958501731)
(0.765587560137127365 -0.446564357267242917 0.0595061505025896303)
(0.498326403148820374 -0.129371960753043774 0.149571105302426066)
(0.605871404255499901 -0.110715541483564467 0.183067204886250695)
(0.680224902796396802 -0.194375240321792403 0.149249035052250567)
(0.742306261874559392 -0.33298706397667277 0.0657308034386523687)
(0.744433067931216774 -0.482486240562839896 -0.000927975989375513094)
(0.41046793804994397 -0.291187471895401784 0.102529039358689233)
(0.502009299853263036 -0.300351916206402114 0.107549675875308004)
(0.590210439513557783 -0.370615456514282793 0.0716402678735231918)
(0.638003010521042357 -0.481239194750365695 0.0303496779897960596)
(0.651073286918942173 -0.587971604624556332 0.0140659382440441686)
(0.388807176604556826 -0.357967266848088328 0.0470911439224776865)
(0.444863861131338911 -0.398621385841334053 0.0538051808538942342)
(0.496220447058413228 -0.46191425303546868 0.0477973255044132975)
(0.529807925994161932 -0.535686832347984865 0.0390502220800582542)
(0.542931275855638384 -0.609747413644034619 0.034577786474329554)
(0.339412307566214544 -0.410309085797385953 0.0325653184724998268)
(0.378474567393947803 -0.448942031059100743 0.0370894623569463372)
(0.413025671096362235 -0.50074838344392314 0.0384269230265440187)
(0.440212688127632479 -0.561495474303555619 0.0385441229280583664)
(0.455029956257396395 -0.62781695496055745 0.0413827582596469484)
(0.287448759315400593 -0.453750135709903357 0.0304795591395283783)
(0.316729619025105102 -0.493503592953110082 0.0342022031204445229)
(0.343286039306334223 -0.540129870192198269 0.0377657062339824129)
(0.366000271898188068 -0.591152386764760229 0.0416537605005637621)
(0.380585116875981677 -0.646069884639760894 0.0477354417693501912)
(0.23852987422220101 -0.48699987202129752 0.0271883549823413971)
(0.260668228166113347 -0.524132507545277515 0.0308354637880095088)
(0.281203056004368956 -0.565794570848394685 0.0355218506173944765)
(0.299486246743471629 -0.611084186110607663 0.0415472923216129233)
(0.314314986255180728 -0.659603160551375134 0.0499882471914832455)
(0.190925149122213811 -0.511954366394874683 0.023852341371888533)
(0.207541389451368241 -0.54758651183956264 0.0278861766944050737)
(0.22337174610561461 -0.586846197579137252 0.0333347496053775852)
(0.238224669374874687 -0.629354461857573155 0.0406745976872288986)
(0.252218747893938888 -0.674805308298668582 0.0505240745346422007)
(0.120295214234293985 -0.47097568238571802 0.0155144094259209546)
(0.133015195614840764 -0.498865263176560769 0.017220843220062728)
(0.145468846512897654 -0.529936887866516382 0.0198920150194364341)
(0.157456667528069999 -0.564234924248545711 0.0237768948913900033)
(0.168778472417923375 -0.60173590693933976 0.0292435132013087982)
(0.179366130712028893 -0.642406029367883491 0.0368350904377934274)
(0.189578967489310551 -0.68631781197848496 0.0473056171649655077)
(0.0850750885876753044 -0.484923183690293025 0.0113131117019710601)
(0.0937838166771592235 -0.512269038786448805 0.0127742532567673948)
(0.10217758550308495 -0.542465800859298408 0.0149935646552389612)
(0.110089390477733085 -0.57549208564158949 0.018224660075867951)
(0.117309997403792582 -0.61129931045972985 0.0228154667602806609)
(0.123615658436515174 -0.64986329472947546 0.0292428704067083031)
(0.128894911442984622 -0.691191912491621263 0.0381992658650481542)
(0.0507325791765264253 -0.493964519012673686 0.00687916172992801729)
(0.0558072869332301991 -0.520793996297525652 0.0078480990089277794)
(0.0606302400935703895 -0.550248518163755085 0.00931330749635939266)
(0.0650763758121818692 -0.582211479686809752 0.0114348873126822823)
(0.0689708166974859344 -0.61652340686032614 0.0144331329813935684)
(0.072089768844858737 -0.652979540689043958 0.0186087784021661123)
(0.0740800370973942607 -0.691335200738198208 0.0243556939567880493)
(0.0168736521644712867 -0.49814590595404723 0.00231963095447212247)
(0.0185501074969176075 -0.524716336874648248 0.00265795919430058094)
(0.0201339711321249434 -0.553778664837357493 0.0031656446014115807)
(0.0215790907288231429 -0.585172864534998838 0.00389872629837190307)
(0.0228228816344958514 -0.618671636851293116 0.00493219522590778066)
(0.0237777108601822766 -0.653948975585167069 0.00636884253940810195)
(0.0242997850911431494 -0.690569209063255918 0.00835318762405645905)
(-0.369617028726121566 -0.636410000311910307 -0.398536310961023099)
(-0.171767697900422012 -0.454276919796140932 -0.342051769432444364)
(0.161238276241751743 -0.720197863366011104 -0.0419873451407245385)
(-0.178851277923856661 -0.93265415547398367 -0.215676683310321721)
(0.417367340077431481 -0.379151514503819953 0.0918722487380776859)
(0.461548888323788153 -0.520640380018260074 0.0664469286643075696)
(0.406276726922710885 -0.469473481821411132 -0.00543020572264089896)
(0.483455723235246326 -0.281020092809050326 -0.0509608559306746617)
(0.634325348271168821 -0.28881267260244381 -0.00651179440810985624)
(0.588788814182339082 -0.0725981892848529542 0.277564870456910695)
(0.581248502032285841 -0.173289446822276011 0.211764999309074359)
(0.525744923509988249 -0.253362452127866677 0.123134987736861018)
(0.588591859660055783 -0.361809658736483741 0.060073499830889554)
(0.733206629941249188 -0.458825166471712065 0.0168940073898630923)
(0.610382036026701491 -0.0865904318592858324 0.237510846893724759)
(0.696379673705774138 -0.140691435926333819 0.231293526286514034)
(0.753358233613521833 -0.240587489951326311 0.19141294937927239)
(0.802230505557072537 -0.348587620922935104 0.118938342949947706)
(0.840065033638829117 -0.452452467484035392 0.0478842689943431848)
(0.46281417539289138 -0.271871951147953539 0.171653724977723882)
(0.563130012097136756 -0.283263083363293366 0.187738111881002312)
(0.657214607000427331 -0.323474254938839356 0.158709657321192882)
(0.720760133442243101 -0.40218368419606032 0.0954261225905079086)
(0.742200760985482821 -0.510819390606273571 0.0416593418920092953)
(0.417165194567898912 -0.305355884505038422 0.0963953700011028619)
(0.492925993705596643 -0.356210024635638889 0.103818151222745569)
(0.565566244021670439 -0.417485710369398133 0.0841228522941171314)
(0.614054021005388639 -0.495319069394895173 0.0555122639193900078)
(0.638882432038676118 -0.577206497629319304 0.0386051436081115001)
(0.392575973971099668 -0.351634946710504492 0.0378957383472602535)
(0.445229209532379266 -0.403103338399901479 0.0474643320346428144)
(0.490035733770911142 -0.462407317786203809 0.0467863555364379097)
(0.523158221931900425 -0.528857079617695014 0.0415906938197901435)
(0.541208348061399502 -0.600972459724140706 0.0378871624009232758)
(0.345729347352280669 -0.414758601932744275 0.0311573739860094706)
(0.382091570859769081 -0.456873437022248474 0.0360141343581141943)
(0.414390928292950544 -0.506645534951656984 0.0384392223670236496)
(0.44192579239811175 -0.562879147841568561 0.0398231848605925323)
(0.459419701992981711 -0.624628502881726333 0.0425118342531586799)
(0.291473220049332404 -0.456554811223223389 0.0294894763658456668)
(0.320035759862998426 -0.495586480682780217 0.0331817179011816635)
(0.34633306522870283 -0.540580394553881849 0.0367466112784077814)
(0.369907888221567172 -0.589722999743210075 0.0406258244097254806)
(0.386597308967766062 -0.643022983410308613 0.0459308046375959955)
(0.240984960678193999 -0.488789199214985426 0.0263748972731671985)
(0.263982085447412362 -0.526072362259064064 0.0297225282117758935)
(0.285577784931478285 -0.567270406159071205 0.0339724505988878225)
(0.305512925949671055 -0.611493597820850887 0.0394506547546678091)
(0.32241872783421871 -0.65878537273666804 0.0470216431543730093)
(0.193810778074333528 -0.514223133827942491 0.0228658444436851509)
(0.211530911598745541 -0.549783579738964301 0.0264778816620646236)
(0.228736981396784944 -0.588752474674140713 0.0313816140329180662)
(0.245467902923743764 -0.630709050469874355 0.0379378256268194658)
(0.261748995511055405 -0.675501662544889192 0.0468150437915137024)
(0.148280782242236203 -0.532749743866944958 0.0189201491229766608)
(0.161439687011956295 -0.567237939696988547 0.0224103708024391765)
(0.174357445794262711 -0.604971630594674514 0.0273085514477810418)
(0.187091171527183187 -0.645862312068038125 0.0341072062568541709)
(0.200116650345804253 -0.689944813536552348 0.0434846164893837733)
(0.104521953953035998 -0.545832071093373394 0.0141807639060105295)
(0.113464662487271495 -0.579426102972732338 0.0170928097247959078)
(0.122080305068016565 -0.616006238833651243 0.0212218048533968535)
(0.130275374916364539 -0.655622526513395698 0.0270192628671077351)
(0.138236259450828652 -0.698346643779660492 0.0350523473076298567)
(0.0621863982371406235 -0.554096963833244249 0.0087787972651098365)
(0.0672942845366162889 -0.586855012957528399 0.0106894820722795193)
(0.0720796292712029135 -0.622295826086710746 0.0133901073026763805)
(0.0763923125040185252 -0.660335440853595301 0.0171528125475680984)
(0.0800129262385285561 -0.700882450534130452 0.0223284976807981567)
(0.0206634451676039124 -0.557836795928831841 0.00297920700922080445)
(0.0223335015439081186 -0.590140742701435794 0.00363949927523264313)
(0.023879094087304379 -0.624918786238937818 0.00457150365563308621)
(0.0252374644947949041 -0.661975227413432288 0.00586598982601171069)
(0.0263012654337255111 -0.701039394419695316 0.00764806663871848286)
(-0.348691637795727483 -0.53085954899946397 -0.296535019158226665)
(-0.191354184694523366 -0.378521922103558894 -0.271266537722622381)
(0.211644694017318197 -0.785514010341830549 -0.0996554620648139461)
(-0.353229304939697064 -0.793906464445007121 -0.178573804938281649)
(0.60030599362437953 -0.371322220382757029 0.0474623601690701002)
(0.634669171350671135 -0.595995120050369032 0.0152250509703486751)
(0.671276778917050509 -0.569444450408587155 -0.034361519426007632)
(0.700010567514909088 -0.340199673932067959 -0.0846303408344114272)
(0.744652412691076293 -0.249839378983751081 -0.0790936449008229764)
(0.603353810733190832 -0.241460861153525524 0.192095680466130264)
(0.619867837756207352 -0.371785526391237797 0.140628556438854468)
(0.644184272303150784 -0.414292028090524622 0.051006005028710992)
(0.715195380705503703 -0.423457410043712568 -0.0388965064978220657)
(0.8386137532617709 -0.495809374520402024 -0.0514216665745413914)
(0.566587880319225357 -0.238131779326405474 0.230706483644330107)
(0.622438124647593516 -0.328928556784850556 0.203060668089049157)
(0.683518744662652167 -0.395742279613920778 0.156275206211453077)
(0.746421650400655223 -0.455143933422940794 0.0984551915911009018)
(0.824198620448106989 -0.516311237630421971 0.0464144222351349431)
(0.457927926309756594 -0.31309561240526107 0.1380931799252689)
(0.534844667961229092 -0.373711412064880122 0.139223649191327958)
(0.615642502840065831 -0.419278015616552091 0.12034284103537847)
(0.68126889873800589 -0.466424628194863133 0.0841088389396193736)
(0.715815214492879548 -0.542364541291283087 0.0507874373090312775)
(0.43618967171380657 -0.28104382093250857 0.0303676038904307707)
(0.499844718705143909 -0.353626124722494828 0.0532401153892525861)
(0.556564735748485861 -0.423193188986281499 0.056118222529101619)
(0.600986124885582895 -0.494998610555894836 0.0464320937109052034)
(0.630396009203128882 -0.569540747251603197 0.0389595967899730306)
(0.402028084208200021 -0.356925363937370788 0.0241024468604805753)
(0.449342952824489161 -0.411511367585679078 0.0357877952509025321)
(0.489424517351125632 -0.469728560561817166 0.0402924115361404933)
(0.521293144115258844 -0.531229387046335377 0.0400955755661335442)
(0.542286064704255666 -0.598935007929842445 0.0400734461067815545)
(0.349125227008697192 -0.418816708399744886 0.0355134300181969634)
(0.384534575578177162 -0.461910714872324157 0.03776387587481881)
(0.415810668000735906 -0.510202379311304965 0.0385199220226608852)
(0.443512367966804988 -0.563176877200673665 0.0397807789618298754)
(0.463350622693937397 -0.622109769116449218 0.0426755517515567812)
(0.294128113130894542 -0.459022120568244874 0.0282661846352236061)
(0.322722582919980461 -0.498198296230268789 0.0310153085110375613)
(0.34930157482393126 -0.542130752077598088 0.0341817987922385241)
(0.373723466996548126 -0.589678167113578011 0.0381133249824252701)
(0.392564657782158433 -0.64142182326904329 0.0432914560221069125)
(0.243442548058724173 -0.490974648409562675 0.0245820020149311487)
(0.267130313859641144 -0.52812191211120485 0.0276532898370854818)
(0.28962206243761579 -0.568820633455327851 0.031505827649512784)
(0.310987359753268411 -0.612165299391025264 0.0364550846857814095)
(0.32982113816434927 -0.658252440288198737 0.0431766737350986265)
(0.196327278963987245 -0.516464577024586258 0.0213471590932644666)
(0.21505588707399298 -0.551942741392528302 0.0243832150539245)
(0.23351378955019314 -0.590682862341426196 0.0286273601133555169)
(0.251997487673573051 -0.63216415514176727 0.0343473348334177517)
(0.270318008420505962 -0.676313248644197285 0.0422385884682960691)
(0.15075124742886295 -0.535424617454687279 0.0173828187556387785)
(0.164985393309271366 -0.570075186490434649 0.0204008001384605626)
(0.179327264423029598 -0.6079887513827269 0.0246635813924151875)
(0.193978133742457509 -0.649058952546134327 0.0305933997518210155)
(0.209506169091212252 -0.693355268294215232 0.0388299095897163965)
(0.106605454792720794 -0.54901035085110117 0.0129346273646214847)
(0.116469203552635542 -0.583078121306278452 0.0154650298209662567)
(0.126325431852972708 -0.620320821138637735 0.0190608603410131923)
(0.136196391826171465 -0.660842603339397594 0.02411764423102725)
(0.146553715726750577 -0.70478263523478768 0.0311283673703384133)
(0.0635590203512697294 -0.557672519284779011 0.00798244966011486985)
(0.0692614740011146951 -0.591130153168153316 0.00963758685411111177)
(0.0748421363273023971 -0.627565963994265452 0.0119872328992031308)
(0.0802220465320964138 -0.667002217140258757 0.015268571721266673)
(0.0853255007601483595 -0.70946382132129937 0.019790551545153235)
(0.0211325128917841387 -0.561598311950317397 0.00270080449456969922)
(0.0230034718485000178 -0.594701826722659366 0.00327485949261109056)
(0.0248175127700191456 -0.63061202584824938 0.004086734743246518)
(0.026534145076072168 -0.669244911500595507 0.0052143460192997414)
(0.028086845194207101 -0.71048246987872965 0.00676384614221360939)
(-0.336146927860082156 -0.469955359084108237 -0.22701837996630711)
(-0.189365182739594656 -0.332800755170894746 -0.218071113152819657)
(0.260724641404692425 -0.749989458030113298 0.0549523531937700718)
(-0.335034229543396067 -0.706106599784023792 -0.120024260356415044)
(0.702287933383169416 -0.33367463457758556 0.0775152323400075532)
(0.744505394533921283 -0.464428749721187362 0.0265709974420827687)
(0.827949848574999758 -0.495916749345417462 -0.056332638691925882)
(0.907002414246670718 -0.230993873959294133 -0.0637937934479593238)
(0.802522164798640691 -0.163939592201719608 -0.0286156444117309713)
(0.569452302314220615 -0.345088764915764568 0.162863373208689405)
(0.587947071491439432 -0.406623282779759176 0.0493618557255172258)
(0.621473398959418999 -0.374327530342971504 -0.0843978029262495988)
(0.644465064669240473 -0.256263735211260835 -0.138802468028197207)
(0.741928906530253451 -0.28381722437915502 -0.0775849597573710775)
(0.520518992662438396 -0.248980925898829947 0.167814334816169142)
(0.55697314985058044 -0.342822681809622776 0.108740347977209315)
(0.617480245023345975 -0.406456013508855518 0.0607196948636470474)
(0.688087928636273327 -0.458066522514868957 0.0301476653320185937)
(0.784331856872845457 -0.519570194125325235 0.0138583179881259268)
(0.47466660588968268 -0.232898955383446543 0.0643201651683927983)
(0.540363514111468435 -0.317734787202278046 0.0577312669018419516)
(0.608469939987695274 -0.385487265528046907 0.0519793821300955153)
(0.666996108348320349 -0.442099402342859438 0.0411169359157916026)
(0.712974389239588113 -0.514213127974485595 0.0367354846993192888)
(0.465272071393654896 -0.248399665378754797 0.0122175352125498717)
(0.516098885026874399 -0.338765012408890398 0.0246225840698390194)
(0.561517628290185589 -0.418468782205896561 0.0317832264840440873)
(0.601309989184098836 -0.492013353756114991 0.0340846373596546126)
(0.631494968341929641 -0.566810044059026907 0.0372009564008876359)
(0.412375194053018423 -0.377261755529634757 0.0390141529940988552)
(0.454126705602939607 -0.426694063230617593 0.0407357416039011155)
(0.490051683752689149 -0.478226438351719907 0.0403343739872032425)
(0.521023099336401119 -0.533800424428456766 0.0392075008970775157)
(0.54412407862124601 -0.596476237982378477 0.0399404255943796443)
(0.350658337305453593 -0.419344878056344572 0.0342394872827869595)
(0.385057937100589942 -0.463332208877366036 0.0349647601779675757)
(0.41656452016933998 -0.511242806846260889 0.0354348212461035664)
(0.445113711535534973 -0.563147366829768736 0.037106705028708234)
(0.468129783549781076 -0.620131888181762125 0.0408604012614050965)
(0.295680826046560707 -0.461156767922323463 0.0263669234035491494)
(0.324995316249730104 -0.500797783459488666 0.0283606786441824819)
(0.352329148052781982 -0.544180788356053324 0.030876298526912014)
(0.377699299536596311 -0.590748909862955029 0.0345142967903653008)
(0.398975878373159731 -0.640902936923740452 0.0393682982448647772)
(0.245566645403935163 -0.493449172055235363 0.0224479701459184312)
(0.269893246338132498 -0.530265838987949878 0.0248062962435285535)
(0.293220184109783399 -0.570417469365822938 0.028004648229433958)
(0.31585783559541758 -0.613153663264304205 0.0322625684096424503)
(0.336745452018381131 -0.658349906329787848 0.0380450510144770479)
(0.198375019908686223 -0.518690329367937242 0.019083937005598392)
(0.218011514141160545 -0.554024307765231483 0.0215183341285816905)
(0.237603841588471948 -0.592551967160255377 0.0250259010508696138)
(0.257697015424625087 -0.633675196645913208 0.0298176185727366296)
(0.277887920533461896 -0.677380013239234691 0.0365601074319433506)
(0.152799177453033841 -0.537892698015584703 0.015315534241349538)
(0.16799581742437486 -0.572673775430141863 0.0177878328556709299)
(0.183585102274236189 -0.610729728832962948 0.0213327763007815467)
(0.199945743583567703 -0.651916515071310987 0.0262981977108335332)
(0.217591879146816908 -0.696398584861315229 0.0332939001799583273)
(0.108376395975419496 -0.551910628375316459 0.0112952662138679771)
(0.119034443422795289 -0.586351144994520013 0.0133849564886677711)
(0.129962287876755206 -0.624140783875180238 0.0163803064360591999)
(0.141291118570579688 -0.66541684039819804 0.0206121284128908573)
(0.153675354368633055 -0.710369183027183104 0.026515462774416472)
(0.0647160306485392162 -0.560863345233084565 0.00693701640316275216)
(0.070936540866351469 -0.594914191831342976 0.00830812407283006843)
(0.0772056094876975851 -0.632198175987845445 0.0102638008184601781)
(0.0835038723038242503 -0.672823352887403692 0.0130056744358500904)
(0.0899198625558756959 -0.716906944201387897 0.0167833836833951797)
(0.0215309201216359325 -0.564945856981350802 0.00234049281910889357)
(0.0235757771276165762 -0.598727216832855236 0.00281763275745481549)
(0.02561937374788998 -0.635603144912832652 0.00349393407460615001)
(0.0276425685460809888 -0.675585481704192303 0.00443247764888915659)
(0.0296182038373920056 -0.718662700167622015 0.00571741552536116603)
(-0.319116204635083722 -0.475333014281514421 -0.167370709952423202)
(-0.176696387328303978 -0.308236849899636955 -0.172254841946293175)
(0.179095074124138526 -0.81085008125318736 0.0616259253930211137)
(-0.162900538361884062 -0.681000780856971577 -0.0862792707915974177)
(0.610085951302473894 -0.272085959062819738 0.0259311981852521321)
(0.694288717228611629 -0.320601055747167685 -0.0207268922835290893)
(0.763173325260531166 -0.298783991753413802 -0.109455117001714272)
(0.811326853185269647 -0.0964369608791432464 -0.0887377624773909857)
(0.730989507645481873 -0.112868133403079773 -0.0398217880757714138)
(0.65095407876497291 -0.148348045962331726 0.128640712375972827)
(0.677518731597048118 -0.178569268454138619 0.0369734524293982084)
(0.668690334566622413 -0.168877721241567608 -0.0821063552938474106)
(0.541056631471081295 -0.149113280484520966 -0.106931825835924268)
(0.574330212688150876 -0.219544555817092729 -0.0352941071070089832)
(0.549150526203686318 -0.121988876657868645 0.072044286339681976)
(0.591352046593916048 -0.207598822389570004 0.0260549719374480807)
(0.645101929092749993 -0.257393106036457375 0.00767879609477512253)
(0.719173765918667329 -0.368349241038457564 0.0227018227523964056)
(0.811654635978405037 -0.522076051605016578 0.0419541632865663566)
(0.520044008165818306 -0.162133614553942651 0.0374509032960173849)
(0.568330484579371298 -0.259811651543985001 0.0359041071259410191)
(0.623712412797485793 -0.350119796165228425 0.036649557496079295)
(0.675491339199985275 -0.431216846877484072 0.0370235989533290039)
(0.719161885025154102 -0.519974868623483411 0.0417176940144720135)
(0.480380099419643936 -0.308978296708922073 0.0499685659235347135)
(0.523762854621847351 -0.372964741900329022 0.0470528343381912476)
(0.563908452902687984 -0.431928454852990584 0.0429344816907639565)
(0.601947854768700052 -0.490880211455550386 0.0403679741120441388)
(0.640214455750172551 -0.56065384895680237 0.0425376873370620287)
(0.411106195457800028 -0.383010871590057367 0.0489305289704901891)
(0.450266383212005183 -0.430747265521482403 0.0438475128302127301)
(0.485870912023389057 -0.480141890081865363 0.0392267396836917318)
(0.518526267377033223 -0.535814006375261442 0.0368051435572271934)
(0.544006776933023795 -0.598553193384372295 0.0379311636594309512)
(0.350537743159914816 -0.424142669494645963 0.0305590303135463703)
(0.385126284967110655 -0.467520387958739847 0.0302943186122963011)
(0.417856424981335905 -0.514083542499258583 0.0306530591653732636)
(0.447497600045150434 -0.564692133754999492 0.0324931503891593698)
(0.473601819521483391 -0.61922309278580423 0.0368861755708536215)
(0.296559833494111469 -0.464448540559017908 0.0239770480943711783)
(0.326547307699200928 -0.503682241424253441 0.0249816126665550718)
(0.354789178736681865 -0.546293135187573498 0.0267406367823639704)
(0.380979555029566985 -0.592296437982119506 0.0296832578525217938)
(0.404563093898785697 -0.641636911400943033 0.0346151494588454317)
(0.246987368862271656 -0.495961171777868914 0.0195508158570696228)
(0.27200219844409762 -0.532405702225807853 0.021070170827333444)
(0.296165550766784968 -0.57209805065858077 0.0234662427927660247)
(0.319875783438630934 -0.614366453480204577 0.0268655675071169699)
(0.342518426069543858 -0.659203633249948018 0.0319541739784626119)
(0.199907422842944799 -0.520791403644799478 0.0160347114968852761)
(0.220366038570054795 -0.555957339894790348 0.0178589387001344795)
(0.240954447771591224 -0.594280209807240944 0.0205753245825829045)
(0.262372935592763423 -0.635121993063035295 0.0243470489480500686)
(0.284065121672428922 -0.678556506419933148 0.0297350578032631492)
(0.154420681901221157 -0.540113141583479339 0.0127001433143679506)
(0.170427443367911047 -0.57495755029573381 0.0145917226028287154)
(0.187067060239980848 -0.613105465693789653 0.0173520513577399733)
(0.204876152827778907 -0.65436893359824122 0.0212363405502206913)
(0.224200660647709882 -0.698886960053061168 0.0267140112258884496)
(0.109783965517180074 -0.554397001775325915 0.0092798761650387477)
(0.121106854538323178 -0.589133306366956599 0.0109002272567040731)
(0.1329306158388322 -0.627363449652512339 0.0132433968759150984)
(0.145470515612164647 -0.669233547473770618 0.0165643729096140134)
(0.159470543448901214 -0.71499317894419312 0.021197284645855026)
(0.0656452603430431048 -0.563576550498448681 0.00566474904594705796)
(0.0722914216803272752 -0.598102144120794876 0.00673427654971137102)
(0.0791255829055174248 -0.636069174773212342 0.00826594360898178296)
(0.0861649621600353022 -0.677660714061385616 0.0104172268076909279)
(0.0936525539586757771 -0.723052663743878221 0.0133614577291462922)
(0.0218512757637831997 -0.5677699816450964 0.0019076467021880766)
(0.0240386682724967361 -0.602100147359885152 0.00228031307198099881)
(0.0262693853140228972 -0.639762231406335924 0.00280987838745078589)
(0.0285385606590145315 -0.680840965397125131 0.00354177072424946473)
(0.0308494821898653779 -0.725384050150393533 0.00453538875360864294)
(-0.323580590053796024 -0.490294727253573814 -0.113542602964055411)
(-0.175463793014060732 -0.304772541944688724 -0.11891732562774833)
(-0.0913770659008061731 -0.994609548913088171 0.0168113873375299074)
(-0.274516232924138404 -0.714464845895719236 -0.0495234053209994834)
(0.633302314409074807 -0.471117452277192039 -0.14740534963184404)
(0.647648666756608482 -0.430317818451949718 -0.147611409886972633)
(0.556625978833852342 -0.214962547251832142 -0.12647133432315058)
(0.418670181240243133 -0.115455333781337321 -0.0261136135989018595)
(0.40465657767446761 -0.369862829984109798 0.00736133145220197078)
(0.66109519532706007 -0.148569687043408505 0.060587538873972481)
(0.635639610428606838 -0.145492819260811673 0.0244634741050806306)
(0.599110895977939428 -0.129365412600784074 -0.00353433281764875974)
(0.301812902971920094 -0.254393446740588669 0.0532005260926984302)
(0.545464673358567742 -0.479706424533399789 0.035799167672344645)
(0.588237196084198111 -0.193409773818950526 0.0974409997590268973)
(0.621723643742847165 -0.256949979667643991 0.0731893472051381305)
(0.664930927100921276 -0.283567298895691988 0.0483197926873187161)
(0.783902409994779892 -0.362514531577676102 0.030357331156575372)
(0.876661479279745248 -0.5012515209789421 0.028830799030485476)
(0.540987951202703821 -0.272247770229074482 0.0862156208608065994)
(0.574976334708310333 -0.335369197015645548 0.0702304703522233786)
(0.616582524911483909 -0.395947136941045663 0.0575091622241766659)
(0.668133523158671139 -0.470159651153500613 0.0510373955762677134)
(0.716249604475718948 -0.559090879550628639 0.0443472706265546079)
(0.473981455236440863 -0.346326531977630581 0.0679746453993085864)
(0.513708991534611803 -0.39856949208945347 0.0559862303469988443)
(0.55492295053943208 -0.446758493841316884 0.0452062267930387618)
(0.598512355970472365 -0.499157674860467637 0.0370856661848696714)
(0.637366977067832186 -0.562128484490138525 0.0330725687490674297)
(0.40595282675712635 -0.388825582475910092 0.0424250425584368276)
(0.445248371967738699 -0.435643900913721849 0.0362155799532491926)
(0.483015239633919402 -0.484064156138665158 0.0318841978499910389)
(0.517912256597704457 -0.538460475388889082 0.0307718528919935022)
(0.548332111934549893 -0.602155971049319283 0.0332294417064728231)
(0.348909001212975356 -0.431531188298899249 0.0263061184586996476)
(0.384763619488310393 -0.473160038963716389 0.024809775831697127)
(0.418609552242449834 -0.518188312388869643 0.02477544589731627)
(0.450451164193588161 -0.567213365196629682 0.0258710257260564326)
(0.47860614270399704 -0.621372910139371459 0.0296259211835432149)
(0.296667076964905851 -0.46843788792905805 0.0199178634442811128)
(0.327359616457153835 -0.506751619442097678 0.0199627906180793839)
(0.356572218425012744 -0.548631328706821297 0.0210221300459969389)
(0.384270244134509165 -0.59376808309004081 0.0229335031144879339)
(0.409867711302168092 -0.643918240749233206 0.0275971790819320058)
(0.247612703150400487 -0.498414299985701248 0.0154325062477559116)
(0.273371389461617709 -0.534456444822245191 0.0162555527651954343)
(0.29832473737182591 -0.573825667185840937 0.0178505423170251913)
(0.323283058126427492 -0.615777658684519391 0.0202579024032005783)
(0.347190967659397942 -0.661382104742802346 0.0243017952310408993)
(0.200931571252207314 -0.522727447405693213 0.0122686910931309665)
(0.22207601010257344 -0.557682369736751338 0.0134821908299899949)
(0.243443887129245556 -0.595820006834932525 0.0153423885148117958)
(0.265913769537238276 -0.636479890191193221 0.0180730382691608009)
(0.288662966038067126 -0.679971944294977759 0.0216674368643960912)
(0.155591860660307224 -0.541970658600127386 0.0095641869722547599)
(0.172229667703527267 -0.576813339077172471 0.0108728066240952638)