/*--------------------------------*- C++ -*----------------------------------*\
| =========                 |                                                 |
| \\      /  F ield         | OpenFOAM: The Open Source CFD Toolbox           |
|  \\    /   O peration     | Version:  2206                                  |
|   \\  /    A nd           | Website:  www.openfoam.com                      |
|    \\/     M anipulation  |                                                 |
\*---------------------------------------------------------------------------*/
FoamFile
{
    version     2.0;
    format      ascii;
    arch        "LSB;label=32;scalar=64";
    class       surfaceScalarField;
    location    "0.660000000000000364";
    object      alphaPhi0.water;
}
// * * * * * * * * * * * * * * * * * * * * * * * * * * * * * * * * * * * * * //

dimensions      [0 3 -1 0 0 0 0];

oriented        oriented;

internalField   nonuniform List<scalar> 
20856
(
3.36868757689485311e-07
1.05729801025676507e-07
-4.37634861121012063e-08
1.83130761064223527e-07
7.69157411640605663e-08
2.67151315047042475e-08
5.56273377525265719e-09
8.66959549571849129e-08
3.69420871159778543e-08
-8.80896857409850134e-09
2.41207148033240052e-08
3.94780576948299009e-08
1.69629626836700724e-08
-2.53069859290354325e-08
3.21968302668278713e-08
1.78639814669735032e-08
9.02302360183937179e-09
-2.72147439319901831e-08
3.17676455595150179e-08
9.05808574917933176e-09
2.6020958332886482e-09
-2.20856994024559226e-08
2.30395222359337016e-08
4.73603394290403882e-09
-1.03707326644930127e-09
-1.71668752289039148e-08
1.3823120374893483e-08
3.5294952873250693e-09
-8.14173212422149155e-10
-1.65351046358445309e-08
1.65737414058695019e-08
1.48440362832391805e-08
6.31775391733118285e-08
-8.86304263093310626e-08
1.25335826336021923e-07
-2.32417828916695692e-08
1.93696166283866743e-07
-2.42994005126839005e-07
1.15469419777117549e-07
-3.28929158092315511e-07
1.18385386527305933e-06
-1.05573275037259403e-06
5.23272531991161661e-07
-1.26952658070656539e-07
4.18002994401313917e-06
-3.85673887148554378e-06
1.99197384419829987e-06
6.67115597893224377e-07
8.57785824643315149e-06
-6.37301980796297839e-06
3.54450473177358843e-06
5.86694110484923769e-07
2.83285949714309007e-06
5.15461713762807596e-07
-3.99586995202152776e-07
-8.37537212267270656e-06
9.12249698205803083e-05
2.5957872361018003e-05
-1.92161709315771746e-05
0.00082964167725525827
0.000141431199372443436
-0.000135721226611266397
2.21537466457907126e-07
1.48365864224048344e-07
1.77244213832886677e-08
1.59385080169420056e-08
1.02896588485561305e-07
9.1212936864681425e-08
-1.82682931300544538e-08
3.83043462625284201e-08
3.71516995667364248e-08
4.77003936170519677e-08
-3.11471252037260329e-08
4.47568444118297532e-08
1.31277430095990945e-08
1.76089186913047415e-08
-2.95358836862152484e-08
3.64314499515646063e-08
5.62868732141591109e-09
4.69737916209993007e-09
-2.1442637223668151e-08
2.27402885691190315e-08
3.24073126060447967e-09
-2.63301854365558387e-09
-1.57032289641029077e-08
1.27221106429204997e-08
4.28667296722188852e-09
-2.22510486609516976e-08
-1.18560364866209463e-08
2.81562563912267568e-08
2.03267782175645709e-09
6.45661481681893697e-11
-3.82186284581120456e-08
7.98826690711044637e-08
-1.75323871702528138e-08
2.29966579499459957e-07
-1.92234007787735107e-07
3.02614858692197311e-07
-1.84484909643338796e-07
7.15904767892939624e-07
-7.04888780574259515e-07
3.72371163321896424e-07
-7.49184977152785359e-07
2.52041499719806481e-06
-1.85403571980433235e-06
1.04107679701557109e-06
-5.26282183635799874e-07
6.28925882611383149e-06
-6.22072928215750125e-06
2.50232283731485263e-06
1.02462187689081404e-07
1.04569782058935279e-05
-5.99542079076431557e-06
3.55487521123004739e-06
-1.58746969074770092e-07
2.76245686113755976e-06
5.30621482934731614e-07
-3.91590617280725978e-07
-8.8939126376126425e-06
0.000100656970522986893
3.05102527905997671e-05
-1.95395792541353978e-05
0.000803277792171374965
0.000135548150427351955
-0.000130806398891244628
1.23342182915899444e-07
1.56986564870184748e-07
-1.90041337056714751e-08
4.02680251478505787e-08
4.21114477314888778e-08
1.04975833005941079e-07
-3.50198140201429916e-08
5.47444498888122034e-08
5.78529814782249015e-09
5.47155588583614734e-08
-3.4514302054347352e-08
4.69762369049308908e-08
1.69149204143042803e-10
1.081149037681501e-08
-2.16772386981166565e-08
2.40098722675945827e-08
9.95845926471351622e-10
-4.77492651289496189e-09
-1.3300121697843794e-08
1.2334899795678478e-08
1.54743021799647555e-09
-3.37456966308897191e-08
-9.42601913848595836e-09
4.16303175164932103e-08
-1.00237152763503185e-08
-6.8013114030104244e-08
-2.39480841909088028e-08
2.10210552647731407e-07
-5.04820261293036326e-08
2.59207717480895273e-08
-1.0536592175684069e-07
5.68554383220933784e-07
-1.27858942557986245e-07
6.66401402638788827e-07
-4.40538748232902996e-07
5.62653694136942866e-07
-5.15112149457773105e-07
1.59537349909225535e-06
-1.30980399059974338e-06
7.87917479530422399e-07
-1.28344484854162836e-06
4.08845491588442092e-06
-2.55537621923509098e-06
1.54251021391868827e-06
-9.56366665334840971e-07
7.85852386326901435e-06
-7.07182864601893599e-06
2.67542545766938828e-06
1.22224832031257554e-08
1.13723436800491978e-05
-5.39370414006648775e-06
3.3292291673982146e-06
-1.2036956647776753e-06
3.43582703502836006e-06
7.17846196013794465e-07
-5.56147401015349781e-07
-9.76989649563995535e-06
9.16195220020846288e-05
3.48447351591515931e-05
-2.28271185319725742e-05
0.000771993482267856624
0.000131626445382811012
-0.000126560225264595315
4.00189756618077441e-08
1.51624014383802996e-07
-3.57906019312625665e-08
5.26079596553590003e-08
-1.62832080090367069e-09
1.03985968936058868e-07
-3.76154880968610826e-08
5.50009286025914355e-08
-7.23690362729879781e-09
3.63408332796029527e-08
-2.53149406148016886e-08
3.24673111019155588e-08
-1.75001574203335703e-08
3.11312403970307143e-09
-1.37308980295231774e-08
1.97324497916763284e-08
-2.30049341350100161e-08
-8.17560164280587799e-08
-7.18256205857768913e-09
9.34102667036897198e-08
-7.55179437165083531e-08
-1.17323078595272497e-07
-1.42532182612474953e-08
2.08269044186318421e-07
-2.62991000171801657e-07
-8.85481307051472275e-08
-9.5850406054694815e-08
1.01010622457912151e-06
-2.47159831912258951e-07
1.81016920328290925e-07
-4.01457218467360927e-07
1.66614879391914075e-06
-4.22828288104578835e-07
1.19258516961736474e-06
-7.77574265174727128e-07
7.62595727198805803e-07
-1.03746512583581636e-06
2.75668937674428765e-06
-1.99795151823209155e-06
1.27782495452170407e-06
-2.09818241112869133e-06
5.66498503158977759e-06
-3.21246085921344738e-06
1.92827213599635687e-06
-1.3842776606354747e-06
9.84132571758422755e-06
-8.08468886332233734e-06
2.76215356446442319e-06
4.11525038236775374e-08
1.17498525616212242e-05
-5.02916073845612951e-06
2.8976911793625933e-06
-3.313510448606888e-07
3.08076849252316424e-06
9.59337318810413938e-07
-6.24455289701146906e-07
-1.0178433999494137e-05
7.14023813088118147e-05
3.13888153779096052e-05
-1.83750459164217059e-05
0.000728131195443079498
0.000128335711886768512
-0.000120307188819796982
1.29288516332847531e-07
9.43314587914683865e-08
2.62226053820554871e-08
-5.44551811898258142e-09
6.81686246872726791e-08
1.41384665607535964e-07
-8.18566553426448339e-09
2.0686140590239364e-08
2.2615981536209002e-08
1.48495122756587934e-07
-3.20906839818016273e-08
4.08152190102493358e-08
-9.32812788432366871e-09
1.33404202947515817e-07
-3.85298134540539088e-08
5.04982115113974565e-08
-1.96468272161494789e-08
7.1878970470719623e-08
-2.9458497994917807e-08
4.45967762177249423e-08
-5.3947678588551259e-08
3.5223322988736663e-08
-1.68797511361927299e-08
3.73273905182663857e-08
-1.14284299614101923e-07
-4.92115443766392527e-08
-9.15004696629174084e-09
1.18834685431689072e-07
-1.75554826197652746e-07
-2.75027772006388759e-07
-3.24349973076269491e-08
3.16838835906145133e-07
-4.38950302218626754e-07
-4.42806762139234521e-07
-1.21746237391957664e-07
9.01845665968490845e-07
-1.05719375029066296e-06
-7.78847926860660606e-08
-3.69888606662364265e-07
2.10494618619480021e-06
-8.37501912564303808e-07
6.80723129488906403e-07
-1.51256313478149676e-06
2.50368621229799108e-06
-9.85306439970817574e-07
2.79333326575912011e-06
-1.4167995981116065e-06
1.49276564493897861e-06
-1.86752753997140191e-06
4.47158532918088656e-06
-2.83708245647489856e-06
1.82762975158010207e-06
-3.3172547464300644e-06
8.21337028615325706e-06
-3.90996208056664845e-06
2.39426514793535136e-06
-1.42860440968736298e-06
8.93526236140924648e-06
-7.8193887208596874e-06
2.87225807928571701e-06
5.69266628058645145e-08
1.13735918105030736e-05
-3.98506130033925277e-06
2.50456159734418935e-06
9.04447194022041056e-08
2.31042041923407374e-06
8.66910231668531728e-07
-5.63856213181902332e-07
-1.03999326445457988e-05
6.01827485817649967e-05
2.15621834557322047e-05
-1.5671552172260077e-05
0.000681742080539823772
0.000122561150534766951
-0.000114626036154080553
3.72271116657125735e-08
8.79853920809199254e-08
-2.72653436639354001e-09
1.35045211977637557e-08
3.76143162673605235e-09
1.30778699367160648e-07
-2.56625949226521966e-08
3.19754798536165214e-08
-1.74367437110596416e-08
1.23226242658707029e-07
-3.5179216244684475e-08
4.2161867105511193e-08
-2.96814045686309979e-08
9.66494324484646242e-08
-3.29616090714918559e-08
4.74287542295520119e-08
-7.98100439192802338e-08
7.28347897766484986e-08
-2.30700513489001937e-08
4.78881022704283291e-08
-1.99894832340704925e-07
5.63371765172539174e-08
-2.09313980267879878e-08
1.05923429816017601e-07
-3.48791680177358794e-07
-2.11882951433758055e-07
-6.65022181346408291e-08
3.67693659687353066e-07
-7.93320254548735347e-07
-7.73609009796290865e-07
-2.46169029465182724e-07
1.20411837254430695e-06
-1.31659902824580376e-06
-1.34929211942724855e-06
-4.63881264961196234e-07
2.29790906525779766e-06
-2.18015570961073623e-06
-9.51642298494913345e-07
-1.17203830739723908e-06
3.11371303334271259e-06
-1.94006007987938833e-06
1.08638273143099707e-06
-2.71768955910815824e-06
3.31765354112679611e-06
-1.98084746209969171e-06
6.72358138777110049e-06
-3.07122401684118186e-06
2.41623199009456747e-06
-2.52894862078682862e-06
7.24932119847696702e-06
-4.39276915652639797e-06
2.47409914229314563e-06
-5.08345242223442749e-06
1.42048000188949096e-05
-7.94285304119803548e-06
2.35344694928505511e-06
-1.42958834658573823e-06
3.16042582927752002e-06
-1.04037227496455258e-05
4.09589374075183892e-06
3.05568938989682416e-07
9.1855635866701653e-06
-1.27629709338548544e-06
1.32064371094790405e-06
1.293825519786683e-07
1.81229978255407734e-06
6.1119261200982829e-07
-4.7936933153453501e-07
-1.03371727666869662e-05
6.45808453105895598e-05
2.18757130059703221e-05
-1.58855103238680852e-05
0.000658214400047442286
0.000118209752805776015
-0.000111468942752388211
3.45705938567310361e-08
1.49041587757657719e-08
-4.65730813646936475e-09
3.53239202675864631e-08
1.28462849143170599e-08
7.99197951208695087e-10
6.7938970174832594e-09
6.41531127809545717e-08
-7.0488118906334174e-09
-1.5302015481535453e-08
1.95129698961494274e-08
8.51462121392968595e-08
-2.22645660906414276e-08
-2.78578468292712992e-08
3.17674863394977522e-08
1.16176143320880654e-07
-3.22321585956518437e-08
-3.16648589971757315e-08
3.84862212987964298e-08
9.35697678795884984e-08
-6.5769782423598837e-08
-2.89080838261117495e-08
4.71317835194147465e-08
8.30140017686937635e-08
-1.77307278781286134e-07
-3.29833378154780879e-08
9.12971731662082517e-08
1.02889012326053216e-07
-4.00297583278177927e-07
-9.59512742286957439e-08
2.99258804578944634e-07
3.90333362254832716e-08
-8.28425118485828068e-07
-4.00569975656011726e-07
1.02267554923363021e-06
-5.08053301282802659e-07
-1.90562223670308647e-06
-8.28731230764800234e-07
2.41885603765322452e-06
-1.86689168226814011e-06
-3.17388269937246012e-06
-1.90675547239391939e-06
3.56874029194316861e-06
-3.06565408390090225e-06
-4.54729990408669989e-06
-3.10079641107241775e-06
4.25579736704711563e-06
-2.71157640364337495e-06
-4.73878969856671158e-06
-5.49563973105209906e-06
4.19780131685061926e-06
7.2369067419696523e-07
-3.67147195952346715e-06
-6.20058120435037389e-06
3.76241719842809436e-06
9.50442364010729896e-06
-5.68417553512178176e-06
-7.93332429844014095e-06
2.72518763166448834e-06
1.34342770871341809e-05
-7.2165537889498629e-06
-1.03066891047798906e-05
3.74541943264528234e-06
1.76896610467733434e-05
-1.73876847414696802e-06
-1.13501230856970926e-05
3.84009773697371787e-06
-3.23496958914993421e-06
1.14345020426194529e-06
-2.04881306658952936e-06
1.24681857686977802e-06
6.43333393834932482e-06
1.36951372002641015e-07
8.41982816150799364e-07
-6.17597213149600815e-07
2.15102480641641094e-06
-1.12756732719250121e-05
2.25193544003748228e-05
-1.72879981828178949e-05
7.45189244286034025e-05
0.000114510535001414575
-0.000108306762786970079
0.000628860252486864823
2.66461313761020209e-07
1.07262587420944137e-07
5.40845813776144079e-08
1.46312655219465006e-07
5.16879599699798485e-08
1.71345220722982663e-08
6.61769139942236356e-08
3.12915713168595263e-08
-7.8605316591231475e-09
2.81114391457037095e-08
1.8491801584758288e-08
-1.91363232048579363e-08
1.25037062758094633e-08
1.24938282982134246e-08
-1.99743709058974717e-08
6.35510900637505004e-09
6.91945465307955119e-09
-1.84913098652994733e-08
2.38960625179045728e-09
4.40890052556669576e-09
-2.26648252116324113e-08
-1.09733195956483788e-09
4.39161379743923861e-08
-6.29181551450096991e-08
-1.44228739900925465e-07
3.4035008524042177e-07
-3.69705254655332168e-07
-1.04932190859852249e-06
1.97889926726643528e-06
-1.33465905617871975e-06
-2.59088118910779457e-06
1.35658099036836418e-05
-8.23127381400731535e-06
-3.68249752441557672e-09
1.39438664585879481e-05
-1.1718379128230404e-05
2.83571838167002367e-08
3.97114321895499391e-06
2.44533276265784068e-07
-1.50660949853402374e-05
0.000113680014597625066
3.28729605725779745e-05
0.000809944705987475128
0.000136477466284165089
2.80778191657986846e-07
1.684986528535427e-07
4.38637394035308647e-08
1.55674974151881618e-07
1.10620782426857726e-07
1.12572279883554768e-08
6.29426382374948634e-08
6.40864389202343646e-08
-1.00910101650610646e-08
2.35659950845632522e-08
3.05339292137048256e-08
-1.8371032442212949e-08
9.63476210151582851e-09
1.54709049907346436e-08
-1.78273427413404089e-08
5.21096533522800432e-09
7.54391185453918714e-09
-1.6203657364421285e-08
2.39473778685246054e-09
4.16325095222894276e-09
-1.64712879363520003e-08
-1.68984679315052321e-09
1.87381159082995177e-08
-2.28214948979971479e-08
-7.7531875170405538e-08
1.49352983794736093e-07
-1.82821665883049632e-07
-5.12660347492427713e-07
1.01999909668343709e-06
-8.85317804388183676e-07
-2.38351381727173258e-06
3.69340969763100312e-06
-2.20668238948839236e-06
-3.79719207630923044e-06
1.7942363846322434e-05
-1.03038220311689283e-05
-1.45098482979849032e-07
1.68264653984508001e-05
-1.58351707871561933e-05
-1.30204742311079526e-06
5.89785000998991653e-06
-8.30858339937599616e-08
-1.39176618515399797e-05
0.000134086842926226733
4.09114381053633431e-05
0.000783731799444266613
0.000133571964366029929
1.45793099605316137e-07
1.72645864102125154e-07
6.34613327358232006e-09
5.82131893532111944e-08
1.12013122357879921e-07
-1.1407351337488504e-08
1.61630494534237673e-08
6.01342776286702225e-08
-1.79019085183369888e-08
4.23375212462141519e-09
2.47088697123129404e-08
-1.60208084962138208e-08
2.83360591792873656e-09
8.40352628399385651e-09
-1.31682803469141465e-08
2.54495086123321472e-09
2.73333206796584586e-09
-1.31466934508591355e-08
2.30340499952826889e-09
4.78938232714785116e-09
-1.57952846928595552e-08
-1.86368606742403917e-08
3.72029247759555883e-08
-3.65183475358825653e-08
-2.5846759539851023e-07
3.9052027056597498e-07
-3.26070668544117549e-07
-9.30079658548983128e-07
2.0404921672168983e-06
-1.47148116374319494e-06
-3.26600920121509806e-06
5.66931200429583558e-06
-3.31147185140203703e-06
-5.03534405045718202e-06
2.20541680837968599e-05
-1.19116063690275651e-05
-2.70046872167399328e-07
1.67611615471360243e-05
-1.54007347774852567e-05
-1.19107440478025861e-06
7.22839022781821469e-06
1.36426248578833153e-07
-1.47122244850534581e-05
0.000123141445129537267
5.60608150860067206e-05
0.000756221746671253319
0.000131009039084525213
4.4198942101953166e-08
1.59070129758309766e-07
-1.42280018036524828e-08
4.51298500022758365e-09
1.00921517394100532e-07
-1.77241750808154664e-08
-4.01571059953339379e-09
4.74039229395093976e-08
-1.5494900955304178e-08
-1.16531418283272715e-09
1.26567945645282598e-08
-1.11820913664938828e-08
3.19135100362272626e-10
1.95952080102370396e-09
-1.00811378525890533e-08
8.43525816186013167e-10
-2.9443343278965996e-09
-1.07252868201241071e-08
-1.06423271991243321e-08
6.93687730494746e-09
-1.98059562798039881e-08
-7.91754455593682951e-08
8.81380107626149717e-08
-6.4052729499087768e-08
-5.61379399815984377e-07
7.85107258964022253e-07
-4.47507830667178291e-07
-1.68483230018844981e-06
3.44389082983314949e-06
-2.04035072105160998e-06
-4.16608280641158803e-06
9.43724816165558713e-06
-4.43828339948468067e-06
-6.04991326775908407e-06
2.52521324311631847e-05
-1.22561447232655736e-05
-4.18158218600162364e-07
1.61038049583457083e-05
-1.42633278257996524e-05
1.97503977871625585e-07
6.64320636421931969e-06
4.51179919825858783e-07
-1.57883998207844703e-05
8.91511595460373117e-05
4.99978301899366959e-05
0.000726064244953230882
0.000127302688333162992
1.49729992454447181e-07
1.20857596685293647e-07
3.46049752920501242e-08
7.84545021227422508e-08
1.76160786942344247e-07
5.92670104132253679e-09
2.35788278093113243e-08
1.6838258449631875e-07
-1.46167535158273535e-08
-8.82923079133137545e-09
1.37712435111036913e-07
-1.90801155961935563e-08
-1.19796136713626578e-08
7.62726175088064688e-08
-1.61007200230799569e-08
-7.2497439727104942e-09
2.78227758408610663e-08
-1.13099618977364363e-08
-8.94255197475225621e-09
4.05893475488413841e-09
-7.27972851200590205e-09
-1.63383242312000099e-08
-1.85188763274300111e-08
-6.68806227805381316e-09
-3.71665089193796524e-08
-5.8081145050612044e-08
-1.28773015214171803e-08
-1.9686112478229523e-07
-8.21523505614783764e-10
-3.76749008955147965e-08
-3.43380832149928109e-07
3.88681736570950613e-07
-1.69867896113056124e-07
-9.17198289478355737e-07
1.98283311186058826e-06
-6.69088787294080057e-07
-2.80474523919292182e-06
5.62325167737002545e-06
-2.78627155101772558e-06
-6.66806881161717806e-06
1.57712549083542398e-05
-6.46544700440181783e-06
-6.82858386504770951e-06
2.95807400146597777e-05
-1.68130643161294721e-05
-5.6691568735706459e-07
1.48398034845629831e-05
-1.38495584910188217e-05
1.79601921237576331e-07
4.85076361751322811e-06
1.38512694699454734e-06
-1.50121996682744066e-05
7.79723749340142469e-05
3.33424692015207085e-05
0.000687784453482192973
0.000123808011788212541
4.67330894763614804e-08
1.18930495114663157e-07
7.40931502099312747e-09
5.07665606934841804e-09
1.64388436302490655e-07
-1.1127659601179698e-08
-1.83770062245590305e-08
1.404922352196805e-07
-1.9185240629569811e-08
-2.09002852662649129e-08
1.0066729979336446e-07
-1.77213524346818767e-08
-2.00485602538690109e-08
4.76754928924883745e-08
-1.27429061758904035e-08
-3.67568639380223999e-08
2.16285074988082096e-08
-7.96287106246118574e-09
-6.99463488672791803e-08
-2.3294243033343728e-08
-6.65349228178275637e-09
-1.5144497698880634e-07
-1.28118784642582111e-07
-1.48362853013340732e-08
-2.48923946788768518e-07
-2.34601363853600752e-07
-4.18994402763822299e-08
-7.23651339264633671e-07
-1.28040605162192514e-07
-1.4633067328618278e-07
-1.06342892930131722e-06
1.01841759972195102e-06
-4.98461295342363905e-07
-2.04987736683383015e-06
5.91493323152094544e-06
-1.55273630499161592e-06
-4.643123001647336e-06
1.326901020805744e-05
-4.48480483539437059e-06
-1.09051826134799201e-05
2.6445001534564422e-05
-1.14589795270366569e-05
-6.85121879352697438e-06
2.78091231702554222e-05
-2.47571301437331861e-05
-5.19326281938625546e-08
1.60349222832511123e-05
-9.90126831324774116e-06
2.5465934347252599e-07
3.2915825130557614e-06
1.40391655901550076e-06
-1.43530036079801489e-05
9.24736939693874285e-05
3.58680311392165879e-05
0.000657521258171847936
0.000120977032388786522
4.20275383288746526e-08
1.90954693931673101e-08
5.02730074884330342e-08
1.82440205169296403e-08
6.88865918828950669e-09
8.9290533295104825e-08
-5.9789393498121438e-09
-6.06598828203502173e-09
1.13306947666369597e-07
-2.39131697093953457e-08
-1.618276880540667e-08
1.43828409262401738e-07
-2.87798665333694047e-08
-1.78445653239778689e-08
1.016694112435053e-07
-3.49515093134455942e-08
-1.43329385639714192e-08
7.05803344536154267e-08
-7.36238233276664416e-08
-1.09992579623574713e-08
4.73017651897245509e-08
-1.65314836636189383e-07
-1.93298126822958764e-08
2.44430521292075035e-08
-3.42119822645866102e-07
-8.28736153089848056e-08
-1.69054853843862712e-07
-6.66561730557808872e-07
-2.00175683294879823e-07
-3.92259804867028083e-07
-1.2726296185067639e-06
-3.01280411205730926e-07
-9.55599875971822795e-07
-1.43889069162557651e-06
-4.62626206316050607e-07
-1.04522941579402948e-06
-3.27677489882751976e-06
-1.47179496649179134e-06
1.73084309712002665e-06
-5.30985019960452324e-06
-4.72641977806434796e-06
8.13507430953228665e-06
-8.41406632162844567e-06
-9.26896217792140331e-06
1.88230145317813052e-05
-1.37343939120433707e-05
-1.73661462251960847e-05
3.72543748925566746e-05
-8.78703977973461334e-06
-2.17558466460836557e-05
1.71254305405057123e-05
-4.72785497574211176e-08
-8.45468511726340843e-06
1.25375608077458013e-05
-1.88055670356605682e-07
1.0355298810495374e-06
2.99842524404073386e-06
-1.45753335643767698e-05
3.83306347219621577e-05
9.78627299488260668e-05
0.000117838908584516996
0.000630023457165036251
2.71592399075896567e-07
1.18977649624797435e-07
5.60062614628730051e-08
1.69430239027952904e-07
8.59172412479339701e-08
2.79989895732901211e-08
9.14243015910311143e-08
5.5007031408079514e-08
4.09072468642402968e-09
4.23173824886795557e-08
3.28625418740164958e-08
-1.15540535487546648e-08
1.86784095453676307e-08
2.11471085880721438e-08
-1.85231701354744705e-08
7.81309250273384177e-09
1.49603517724867247e-08
-2.02795124870788982e-08
6.57950079337163045e-10
1.18540001487397116e-08
-2.01706484730939533e-08
-3.49349832088903216e-08
2.8668247802020963e-08
-5.2069263274036019e-08
-3.88734413961715737e-07
3.55851604073232664e-07
-2.5463998464161158e-07
-2.21997290587080259e-06
3.09466036758956088e-06
-1.09588606481478324e-06
-4.16481752066751061e-06
1.4303430116362684e-05
-9.73598378319316478e-06
-4.11578500170349279e-06
4.83253650923517997e-05
-2.43322812192858818e-05
-1.39219103008570984e-06
3.2831718022362363e-05
-6.16988209342127369e-06
-2.77727378116359152e-05
0.000173529648157883063
4.39656400922784263e-05
0.000822998817509655481
0.000124972172195965734
2.16563120362146359e-07
1.56779734560983773e-07
3.80295968240151849e-08
1.42454139439384671e-07
1.27407413646254891e-07
1.68473276968296008e-08
7.52679313983792329e-08
8.80799807626759952e-08
3.7799836560375876e-10
3.42912706066408403e-08
4.97218073164785296e-08
-1.15174723068514161e-08
1.54616209788078888e-08
2.6373979591509959e-08
-1.67854336934151282e-08
8.36118223138564589e-09
1.63208024765760509e-08
-1.80738376373722233e-08
4.6599551781647097e-09
1.36450901719809687e-08
-2.02632993320903679e-08
-5.44362806827304544e-09
2.13463528384590227e-08
-2.26144040715084732e-08
-1.50971103241672038e-07
1.14183493987509192e-07
-1.21998817227951049e-07
-8.44260758816900241e-07
8.63447549488238124e-07
-6.61955271432493042e-07
-2.7834265142200682e-06
5.16221636369958193e-06
-2.24783866892349459e-06
-5.78099167544309117e-06
1.99719245264770959e-05
-1.17148334460212297e-05
-4.51559874581754309e-06
5.76527438877323946e-05
-3.07532509844163438e-05
-9.5530855664549215e-07
4.01933836728410695e-05
-1.09691630435717462e-05
-2.71001947388829187e-05
0.000203335968361012651
4.84107724470146558e-05
0.000795736791815248473
0.000122230711903538724
1.02538492808044708e-07
1.66371479102718036e-07
1.04465660039920744e-08
4.88824100530048458e-08
1.17587765734090423e-07
-2.88487038514966938e-09
2.08160007950918108e-08
7.21309278141201841e-08
-1.06165266116619725e-08
8.60280349626795752e-09
3.80632121235032828e-08
-1.40149179133275311e-08
5.25262568143877653e-09
1.90410945920843765e-08
-1.45894310043652166e-08
5.1607373415714329e-09
1.24096068615157003e-08
-1.50739894214272367e-08
4.2162640675428325e-09
1.35404675899940686e-08
-2.13719311145037524e-08
-1.23435734864396734e-08
2.97968396582574311e-08
-3.02916565516098454e-08
-2.81108690174983686e-07
2.1671470975699559e-07
-1.43074371756393696e-07
-1.47201441803733006e-06
1.52823857190491567e-06
-8.65878769526379205e-07
-3.56536139366171508e-06
7.29676519311267699e-06
-3.27250522987651035e-06
-7.09031159933850819e-06
2.74417556016905883e-05
-1.42090776088268059e-05
-4.18315403545741076e-06
6.49481271705811155e-05
-3.07801593252450409e-05
-1.36132138578167838e-06
4.20831075785987766e-05
-8.54483151485802964e-06
-2.71306235754954927e-05
0.000212502205310142605
7.41981194929425963e-05
0.000773146820678260972
0.00012010265252944367
2.30831569388865756e-08
1.47225011146804928e-07
-3.90792630284832678e-09
2.96054522754931668e-09
9.56171015002348658e-08
-9.79503104055160737e-09
-1.50741723162301379e-09
5.25478860050109991e-08
-1.13356046844612379e-08
-3.68225210257118397e-11
2.65573146907323977e-08
-1.10673903391487307e-08
1.74903860087108091e-09
1.316711808316918e-08
-1.04322571503258633e-08
4.11036711120756075e-09
9.08284452708926284e-09
-1.24339517689949101e-08
3.60808390868004066e-09
1.18540826011346665e-08
-1.99482482633053076e-08
-2.173620423263823e-08
3.51616318293863846e-08
-3.52747610009377149e-08
-3.65376184276052095e-07
3.27651474765144342e-07
-1.40842552965567905e-07
-2.00430347206985218e-06
2.44424970038297675e-06
-1.08375245684039392e-06
-4.78923983083953892e-06
1.02552226628999445e-05
-4.18662326453381919e-06
-1.05426453399917078e-05
3.9046696708839687e-05
-1.62907786954150591e-05
-5.72567202857524109e-06
6.88472038779703601e-05
-2.8303707300036621e-05
-9.71450617380746228e-07
4.2015945094269009e-05
-5.6327956490865137e-06
-2.87418247074661855e-05
0.000159605445541916106
7.56410494550032602e-05
0.000744135114618835517
0.000119685857454412408
9.48070384004139035e-08
1.51109892594596231e-07
2.86736823367388089e-08
4.4246549230086115e-08
1.91120905502348408e-07
1.08100685590514636e-08
4.16776254491375665e-09
1.66555700165076183e-07
-2.48739140203976087e-09
-1.26563967298503262e-08
1.20897682789042676e-07
-8.61830320644981726e-09
-1.22905337195144572e-08
6.92065789068025269e-08
-9.47585335389674234e-09
-6.57724006802202424e-09
3.4285680768611008e-08
-8.30866840913068959e-09
-2.55876741579941093e-09
1.54729342040554295e-08
-7.34672104621392647e-09
-8.76712193689391589e-10
6.29043057563415464e-09
-6.69165512685502131e-09
-6.71469057173302999e-10
4.25466106413373919e-09
-1.08184000630092538e-08
-1.01482551484626885e-08
1.19682417089200768e-08
-1.86176128297001886e-08
-9.75590742438339823e-08
6.79200745824738322e-08
-5.06194580299571981e-08
-6.64492701299005218e-07
7.21844109767300082e-07
-2.32831897821846635e-07
-3.07200665384310682e-06
4.24352206826888057e-06
-1.44649384209995321e-06
-9.18733147908834602e-06
1.7568777744208332e-05
-5.38396304023729565e-06
-1.5361008496521311e-05
4.78370214068327574e-05
-2.03295588292385785e-05
-8.94322375512075055e-06
6.85884345193503794e-05
-2.73486402597125061e-05
6.45014345283370864e-07
3.49110456293843499e-05
-2.11060213176974158e-06
-2.96517724914964713e-05
0.000103071695362553551
6.65986747170355808e-05
0.000703768314745486416
0.000118107922149849576
2.37032849403062518e-08
1.45363370185285567e-07
1.21345303062148461e-08
-7.80577743631988511e-09
1.75638979015845133e-07
1.29420874190216033e-09
-2.1401297389043119e-08
1.35593134718459432e-07
-6.74919282099316235e-09
-2.07233461355261657e-08
9.1346007439504434e-08
-8.33451407408797553e-09
-1.3172110880937728e-08
4.5487661832962239e-08
-6.94446326068863807e-09
-7.0962892209839226e-09
1.78796199176069578e-08
-4.69251377487641873e-09
-6.22259116625163328e-09
4.79832223414243018e-09
-3.96993414880097093e-09
-8.85959330600938673e-09
-5.16982311644356641e-09
-5.10532501843980908e-09
-2.01902896626335639e-08
-8.93594400160856922e-10
-1.0740201089785959e-08
-8.52939117879899903e-08
3.44683591005512348e-08
-3.17642720192439861e-08
-4.12588879390867457e-07
2.2962898130618929e-07
-1.21470619022619919e-07
-1.89478586443670141e-06
1.94660388518248577e-06
-5.40117282949526616e-07
-5.54065999428816367e-06
9.34534031852895519e-06
-2.58436278975184317e-06
-1.40341832622574284e-05
3.2473135876085088e-05
-9.50635385595886772e-06
-2.34649828364149866e-05
5.54103093175588708e-05
-2.40792797855890088e-05
-9.14201992675318123e-06
5.71944494458734846e-05
-3.40547226543410676e-05
-8.16070623895383664e-07
2.9066181093401799e-05
-1.49327256111398846e-06
-2.77338494084047242e-05
9.74941170161324594e-05
5.53727368718249827e-05
0.000656661174292627972
0.000113536562120113564
2.13013588676045998e-08
1.70128092572454382e-08
6.55149065973771109e-08
3.16434062977538982e-09
9.82234773410028107e-09
1.07397791646748542e-07
-1.40333996033613814e-08
2.91787505465832463e-09
1.3194191861306614e-07
-2.6262543439565311e-08
-4.02115243125643626e-09
1.50937924277450473e-07
-2.57715592082187533e-08
-7.09642004316086263e-09
1.0163185465813652e-07
-2.14613455693811854e-08
-6.0314768090298743e-09
6.0793752044659106e-08
-2.33092536149736551e-08
-4.30116861944404405e-09
2.65111937938318404e-08
-4.02652954811576298e-08
-3.09151221016908888e-09
9.33336348194238418e-09
-7.76477969712605291e-08
-5.11262935742644259e-09
-3.98395616659567125e-08
-8.53128719522618351e-08
-1.00325102893333726e-08
-1.69771085280568741e-07
-1.50163896213579583e-07
-2.62269539137992461e-08
-1.21619981660156922e-07
-3.6802215544253524e-07
-1.03445584542832246e-07
1.28055402313261682e-07
-1.61291277893780208e-06
-3.45488117267778565e-07
8.50550322546918222e-07
-4.76048661042505629e-06
-1.50223538445647285e-06
6.21652785034443634e-06
-1.09993125073793755e-05
-5.29783076244759837e-06
1.90439445807924292e-05
-2.05758843663553939e-05
-1.55982145248243932e-05
4.0838796466299703e-05
-2.44362391742277197e-05
-3.26795809357605463e-05
6.26461228289514603e-05