/*--------------------------------*- C++ -*----------------------------------*\
| =========                 |                                                 |
| \\      /  F ield         | OpenFOAM: The Open Source CFD Toolbox           |
|  \\    /   O peration     | Version:  2206                                  |
|   \\  /    A nd           | Website:  www.openfoam.com                      |
|    \\/     M anipulation  |                                                 |
\*---------------------------------------------------------------------------*/
FoamFile
{
    version     2.0;
    format      ascii;
    arch        "LSB;label=32;scalar=64";
    class       surfaceScalarField;
    location    "0.360000000000000098";
    object      phi;
}
// * * * * * * * * * * * * * * * * * * * * * * * * * * * * * * * * * * * * * //

dimensions      [0 3 -1 0 0 0 0];

oriented        oriented;

internalField   nonuniform List<scalar> 
20856
(
-5.43645616296007192e-05
0.000103454979622520773
1.22238599977135029e-05
-5.26923033705201617e-05
0.000103817660968860264
-1.66532337955214436e-05
1.58802206707855085e-05
-5.1290375995055327e-05
0.000103353182489006936
-1.95168239695619065e-05
1.92175910305163194e-05
-4.99649084511447116e-05
0.000102779526752771677
-2.23851022041489729e-05
2.22802455910214338e-05
-4.8317382439819808e-05
0.000102427293526737747
-2.53696542722923539e-05
2.52991282429839096e-05
-4.59420831541719585e-05
0.000101645296023558104
-2.86460985288234903e-05
2.85905963462663093e-05
-4.27427336841046659e-05
9.92183618488919528e-05
-3.23198480308736731e-05
3.20108631813061767e-05
-3.87744543495668792e-05
9.51710386861207003e-05
-3.65100861865083707e-05
3.54811151205225317e-05
-3.35510296099619478e-05
9.08214600073867185e-05
-4.0938987257053283e-05
3.87529169242715541e-05
-2.59508565649830465e-05
8.69960949930915367e-05
-4.52251647027621047e-05
4.14824389447091666e-05
-1.53766440494906865e-05
8.50169314584368712e-05
-4.83251781993565658e-05
4.25099234208125757e-05
-1.75591987749145571e-06
9.12615667004170947e-05
-4.69337586864718615e-05
3.88280441151163874e-05
2.11241541432209836e-05
0.000113198078881361413
-3.60582337312039802e-05
2.47201379711759885e-05
2.08889098334721061e-05
0.000266784403530521497
2.74711606508167446e-05
-3.81831019375149174e-05
8.65178482857054988e-06
0.000554677922561720542
0.000181286104682690046
-0.000192211339533652028
0.00168008693170426486
0.000394606145453400012
-0.000377739595680911427
-5.58003033646751377e-05
0.00010111175594962366
-1.46554626183669061e-05
1.48908100108840249e-05
-5.40859700151266344e-05
0.000101553367225668014
-1.71068627504912489e-05
1.76565757648052635e-05
-5.26690746034966931e-05
0.000101315389732920349
-1.96894557862118163e-05
2.0309484646205578e-05
-5.13277073909546559e-05
0.00010088973948337944
-2.24007695908122359e-05
2.29483131728404482e-05
-4.96430632866213782e-05
0.000100348991942542275
-2.52960888865939061e-05
2.56897392001547247e-05
-4.72648176515606214e-05
9.91347592613387135e-05
-2.85186525659400736e-05
2.86512492345374753e-05
-4.41618113579008407e-05
9.65011478266993304e-05
-3.22094592418202002e-05
3.1823530038284046e-05
-4.02674148458497219e-05
9.25389479816368616e-05
-3.6450266763710512e-05
3.5187374256563776e-05
-3.48834294433350843e-05
8.79720956478236363e-05
-4.11307522156535699e-05
3.85950044238824155e-05
-2.67629373950406307e-05
8.31626353973950326e-05
-4.60062850663166143e-05
4.17175867972270205e-05
-1.48220393681736377e-05
7.96438540644956355e-05
-4.99864460267620387e-05
4.34170349963838642e-05
1.37596982538693921e-06
8.40108847423126328e-05
-4.95707561739614001e-05
4.06221937014307141e-05
2.4459810739876791e-05
0.000102007649723588693
-4.01867186097893951e-05
2.82923601741194343e-05
2.73913918413922012e-05
0.000272938391720984989
2.50825170802203413e-05
-3.41691043594084077e-05
-1.16138759376422426e-08
0.000583599448963293918
0.000189169939551090321
-0.000190688789745492365
0.00165958800030560735
0.000388225231495589859
-0.000367737798693043431
-5.56040533937494759e-05
9.85664436064122014e-05
-1.45253413366822356e-05
1.51405505272858687e-05
-5.40628647749516786e-05
9.93003973410796906e-05
-1.68187542129586483e-05
1.7530540686065134e-05
-5.28003802828861705e-05
9.93829416321289374e-05
-1.92677847316405968e-05
1.9937742881001654e-05
-5.15623043768500983e-05
9.91213870420909243e-05
-2.18922623910759078e-05
2.24232304197027225e-05
-4.99977846443876064e-05
9.84894158734604908e-05
-2.4762149817632063e-05
2.50582426282857009e-05
-4.78484984060418406e-05
9.70583952601080009e-05
-2.799693569919829e-05
2.79239580293675987e-05
-4.50348950741254366e-05
9.43607119280795019e-05
-3.17489980329821128e-05
3.10750988896879793e-05
-4.13199736680628851e-05
9.04196856532826749e-05
-3.61132971547281018e-05
3.45174425993168108e-05
-3.59126177659694604e-05
8.54864363664237497e-05
-4.10945430837134337e-05
3.81729815425978236e-05
-2.749484098769386e-05
7.95021656896460977e-05
-4.65420062179810548e-05
4.17847663205997823e-05
-1.47825282203919651e-05
7.40110853296431384e-05
-5.1305332748881689e-05
4.42258560058161678e-05
2.74195505568955542e-06
7.59711544262527182e-05
-5.18010810050118965e-05
4.23159062573492522e-05
2.67859852856531739e-05
9.0327433982897068e-05
-4.38998997064593053e-05
3.15351462123357725e-05
3.52107967077699708e-05
0.000273044401358447518
2.1806517251529268e-05
-3.03378317013861039e-05
-6.179310883573316e-06
0.00061882693868105655
0.000196389244982354382
-0.000190226358872522863
0.00162969600814583094
0.000379971857751302004
-0.000356258940849215732
-5.51663802088430742e-05
9.63348532228132734e-05
-1.40819892223576293e-05
1.46142565453083558e-05
-5.38236813520981647e-05
9.7382949629634975e-05
-1.62565269546075821e-05
1.68311778567139709e-05
-5.27193582660731612e-05
9.77681109354500654e-05
-1.8607209251669428e-05
1.91178142874880816e-05
-5.16177355436798214e-05
9.76701857817437131e-05
-2.11680699858211185e-05
2.15182777905518254e-05
-5.02417182151667851e-05
9.70279063002733996e-05
-2.40165007348735331e-05
2.41025520840729572e-05
-4.83821288242697114e-05
9.55177900238876723e-05
-2.72718691026760641e-05
2.69527833827819789e-05
-4.58805513809964379e-05
9.28027318231770332e-05
-3.10850684255918643e-05
3.0141529799666091e-05
-4.2385102402787308e-05
8.88004591667179163e-05
-3.55762162325208884e-05
3.37003605375328993e-05
-3.70787396162681394e-05
8.33939696468334135e-05
-4.08318113854177526e-05
3.76182240094350228e-05
-2.86099790253631765e-05
7.61033218231816152e-05
-4.67692334305160927e-05
4.17000874340106581e-05
-1.55208131951993367e-05
6.83269309719270135e-05
-5.22208830338253801e-05
4.48169605215095377e-05
2.9003731865667753e-06
6.73936141363010958e-05
-5.35842570794025052e-05
4.37407055435428514e-05
2.79703131763240715e-05
7.77956535271198137e-05
-4.71242364220660385e-05
3.45851148385624825e-05
4.00399255671093657e-05
0.000268511186767564824
1.89383472329958903e-05
-2.64748720931785434e-05
-9.13089003016847797e-06
0.000656361376395099495
0.000200832495455980107
-0.00018919550969712963
0.00159506968586222548
0.000370184890595765881
-0.000344689176061415195
-6.02551198850323738e-05
8.52372248144461905e-05
-8.52778597681363683e-06
8.15321965742038221e-06
-5.80425241059686576e-05
8.92786349496770053e-05
-9.9261199263446181e-06
9.87866059800486914e-06
-5.62150712581692969e-05
9.23499757249880357e-05
-1.1598999349383946e-05
1.1804391400806694e-05
-5.47428203678102153e-05
9.45092800747749761e-05
-1.34845083669503848e-05
1.38373392279105491e-05
-5.35866878770528021e-05
9.58395693841942683e-05
-1.55552533134746776e-05
1.59420575211134056e-05
-5.26345138202726366e-05
9.64938105507543765e-05
-1.78182394090497353e-05
1.81397349537804826e-05
-5.1690786134055444e-05
9.65680405874928539e-05
-2.0317501047280572e-05
2.04757047050200018e-05
-5.05360755569085135e-05
9.59840481560178912e-05
-2.3137887899434341e-05
2.30273603415492848e-05
-4.89744592088619919e-05
9.44793884291310782e-05
-2.64012207110437001e-05
2.58789363245634884e-05
-4.67900950886412906e-05
9.1766348985498474e-05
-3.02571169130401267e-05
2.91102542687232479e-05
-4.35732550252179414e-05
8.76527155970281333e-05
-3.48506004966160553e-05
3.27816306586149609e-05
-3.85184162426068964e-05
8.17233417169342663e-05
-4.032245694654569e-05
3.69380965531203754e-05
-3.03410018617862342e-05
7.31222060260737332e-05
-4.66316641160585682e-05
4.1436627016127124e-05
-1.7469308261786216e-05
6.29368617314858732e-05
-5.26567045480336892e-05
4.51770991554689761e-05
1.56452067062667037e-06
5.84131358924225026e-05
-5.50631861895044519e-05
4.50103226460496795e-05
2.77348174795955476e-05
6.4270664861488028e-05
-5.00219526177320874e-05
3.73752493416937363e-05
3.57855017627703274e-05
0.000265772937853668047
1.74335578231395345e-05
-2.27462829963978259e-05
-1.37255151473470024e-05
0.00069105967970761956
0.000201333831201416742
-0.000186520334807594162
0.00155543543272032786
0.000358316265011496054
-0.000332407207821411668
-5.91545291596404726e-05
8.33755881280598643e-05
-8.04648095217900802e-06
7.59109247432746681e-06
-5.71848075525426385e-05
8.74850840852305929e-05
-9.39572947068737069e-06
9.21985438206281038e-06
-5.5585483890043151e-05
9.07063792603265897e-05
-1.09909142638010779e-05
1.10346835421771411e-05
-5.43225223135431577e-05
9.30685086316388659e-05
-1.27864827376464342e-05
1.29638184004882164e-05
-5.33440372202324871e-05
9.46487310638442737e-05
-1.47646619498114586e-05
1.49762273604061371e-05
-5.25519842624926005e-05
9.55487980319284498e-05
-1.69452666081376303e-05
1.70970999191044938e-05
-5.17876082318903064e-05
9.58061565477964653e-05
-1.93809972183377157e-05
1.93779136737301199e-05
-5.08714709931107521e-05
9.53335763573313173e-05
-2.21628644980633748e-05
2.18977313134391925e-05
-4.96126397899898387e-05
9.38916704389587708e-05
-2.54139060938589929e-05
2.47445228909017426e-05
-4.77671200742912948e-05
9.1201555442890585e-05
-2.92851930364562909e-05
2.80057964311957195e-05
-4.49056882853665992e-05
8.69636777640570637e-05
-3.39409436580808793e-05
3.17681560145780518e-05
-4.02695104947951824e-05
8.05243597937544856e-05
-3.95557189724723542e-05
3.61182405743865791e-05
-3.27398667007446398e-05
7.07431705078423798e-05
-4.61172327352192725e-05
4.09685082769865714e-05
-2.07499324136076012e-05
5.8241624880413161e-05
-5.26192426166668679e-05
4.53272799071603244e-05
-2.21268801227107864e-06
4.97876286369818553e-05
-5.61626697572451699e-05
4.62513517976832644e-05
1.94658249262953342e-05
5.44133395230011942e-05
-5.20256117782965375e-05
4.02023550415832835e-05
2.89154303818811516e-05
0.000260816679080647595
1.59688262769002947e-05
-2.04623866908742114e-05
-1.70788019213273176e-05
0.000719562619779705293
0.000200554039126913574
-0.000183061889467965306
0.00151149974351032137
0.000345541827324591475
-0.000318684612992123817
-6.25568131359919319e-05
-5.80162439572920997e-06
4.68474255690208417e-06
7.06860846142189997e-05
-6.01253554471099485e-05
-6.47027140156244389e-06
5.63731671925543929e-06
7.66800137285824707e-05
-5.80444668711992072e-05
-7.49664247679382643e-06
6.94628317091123172e-06
8.18451679421364751e-05
-5.63138651631513127e-05
-8.80264129252543537e-06
8.50694313358692046e-06
8.60501218675081413e-05
-5.49300683550714582e-05
-1.03293604894162369e-05
1.02346937937806038e-05
8.94168188255579617e-05
-5.38633698316412729e-05
-1.20423951921191153e-05
1.2073492499062526e-05
9.19702129400093503e-05
-5.30614890788621183e-05
-1.39358361559195225e-05
1.40039454534081271e-05
9.37779974097731345e-05
-5.24416902656136917e-05
-1.60376217932312588e-05
1.60546428335991592e-05
9.4911209848669962e-05
-5.18744776278952339e-05
-1.84057401965314763e-05
1.82692666492417536e-05
9.53748513208812744e-05
-5.12115056664128913e-05
-2.11363610133416869e-05
2.07637416249083363e-05
9.50436676853688852e-05
-5.02694723407278262e-05
-2.43520440005439378e-05
2.35907400426408146e-05
9.37123594141709104e-05
-4.88003561031172023e-05
-2.82052723186163958e-05
2.68604309184717026e-05
9.10779026651945396e-05
-4.63937506243727182e-05
-3.28727953744376985e-05
3.06796365098758621e-05
8.67498181204192352e-05
-4.23641896382534881e-05
-3.85515978876897804e-05
3.51647252714644177e-05
7.98821542088185038e-05
-3.56880434719390421e-05
-4.52795413582627473e-05
4.02895521210115348e-05
6.90595937754552813e-05
-2.4819485625583604e-05
-5.22219438820238036e-05
4.52340383939147032e-05
5.43632507179646536e-05
-8.03179359614302911e-06
-5.67199394312578047e-05
4.73381451310516803e-05
4.23813698754946729e-05
1.23371386109071664e-05
-5.34249936116682801e-05
4.23133110558836665e-05
4.51542712598463128e-05
1.74737647324454325e-05
1.5132943620892277e-05
-1.74895239438549478e-05
0.000258036939019520839
-1.84267906359732387e-05
0.000196010880359000179
-0.000178725681731130715
0.000738179007086308151
0.000331029636418053719
-0.000304846562499854531
0.0014668901479529988
-5.72634272329921858e-05
0.00010530594503334949
-1.67590311080067006e-05
-5.5896729783181397e-05
0.00010541117763402668
-1.93304554577208542e-05
-5.46178090458941648e-05
0.000105330565353088017
-2.2084104511689478e-05
-5.29802578240782466e-05
0.000105064215232926475
-2.50444062147405687e-05
-5.0668532417335063e-05
0.000103801601294358899
-2.84443375511194453e-05
-4.77259966848210209e-05
0.000100834414235343215
-3.25665321052587259e-05
-4.39262474639616818e-05
9.66091612446683568e-05
-3.75224665028164086e-05
-3.82157617527224228e-05
9.16677458105752733e-05
-4.33096847710575809e-05
-2.89499321434675264e-05
8.5651503645591009e-05
-5.00519293012144844e-05
-1.4852265390917009e-05
7.94168527191103967e-05
-5.6958656063882717e-05
5.10308525454578015e-06
7.95716682048750183e-05
-6.0054156694927512e-05
3.46048650391802973e-05
9.20958843996348979e-05
-5.4795608036797601e-05
4.71787774864357751e-05
0.000235275439351141148
1.0061004641770208e-05
7.71130084483437686e-06
0.000508969045067682074
0.00017478014241650657
0.0015748716424921678
0.000401047718512668821
-5.84649280731653912e-05
0.000102398298852379602
-1.44940664345623772e-05
-5.69191308247656613e-05
0.000103404109682704652
-1.67509399028132813e-05
-5.57179235194985679e-05
0.000103726286707023387
-1.92057389623424142e-05
-5.45736593723293546e-05
0.00010369278022155446
-2.19066173847954579e-05
-5.31124993239896152e-05
0.000103213229235000573
-2.49052392721984286e-05
-5.11177993101524615e-05
0.000101687626418173183
-2.83991707622930763e-05
-4.85360553108412453e-05
9.86947036048253367e-05
-3.26521489306872729e-05
-4.49902513224908823e-05
9.44416234914933784e-05
-3.78295751467143932e-05
-3.93890353505558415e-05
8.90390348685919539e-05
-4.41046228172181309e-05
-3.00601133042173202e-05
8.19741036990754749e-05
-5.16589227604778364e-05
-1.54570655399548325e-05
7.42660571647068706e-05
-5.94394376215075926e-05
5.38902420987736396e-06
7.23971771615860112e-05
-6.32435622200916263e-05
3.44720932032748011e-05
8.17327151946100602e-05
-5.89081876198696043e-05
5.05109171305412867e-05
0.00023607200424145407
8.2460920079936366e-06
-3.2588205940607619e-06
0.00056309007709465903
0.000188818830020455166
0.00156336237735385888
0.000396475780104427915
-5.77969549550972175e-05
0.000100410129940303644
-1.42575077076705142e-05
-5.64681826797048208e-05
0.00010166813217838498
-1.64118323628426042e-05
-5.54339280872887929e-05
0.000102222391137136688
-1.87981379307944633e-05
-5.44471369948157624e-05
0.000102276733227313455
-2.14625184380500504e-05
-5.3223489821363986e-05
0.000101714801682457651
-2.44871917366765079e-05
-5.15857639155796599e-05
0.000100113611307133489
-2.80614260060766582e-05
-4.93755103039449414e-05
9.71686392113146999e-05
-3.24340029147865302e-05
-4.61150393632502639e-05
9.28919345279524212e-05
-3.7824401972439156e-05
-4.07404458828923414e-05
8.70774380229268421e-05
-4.45075919932440435e-05
-3.15948632768149447e-05
7.89538757627363652e-05
-5.26669443243794148e-05
-1.69286345484567392e-05
6.93917121506175568e-05
-6.10967793348760106e-05
4.54401508312364966e-06
6.47247889816761877e-05
-6.56019846395122021e-05
3.45020878378955969e-05
7.02266586661733896e-05
-6.23533771481107738e-05
5.2144720543148077e-05
0.000232247177364803658
7.98825280839675377e-06
-9.87667827091471932e-06
0.000620309727581732479
0.000201191616844188499
0.00154229865717050887
0.000391159066561504545
-5.72599540367962071e-05
9.86891865071091849e-05
-1.38436416280884554e-05
-5.61238075949854312e-05
0.000100183573712031102
-1.59087184759564408e-05
-5.52496448758343654e-05
0.000100960219371622236
-1.82197918963967196e-05
-5.44395996447768652e-05
0.000101140093436149928
-2.08419238265110405e-05
-5.3475061509317915e-05
0.000100603753746557505
-2.38704647201124728e-05
-5.21786451913133198e-05
9.90371722535712096e-05
-2.74921513533536786e-05
-5.03198300948755041e-05
9.61758716034584005e-05
-3.19510207264350399e-05
-4.73828242921982406e-05
9.18843954787653804e-05
-3.75057333466769237e-05
-4.23525884385311208e-05
8.56973653484190422e-05
-4.44818580254316664e-05
-3.367540149199684e-05
7.65515350306275963e-05
-5.30429337590169374e-05
-1.95262303875168262e-05
6.49700785090587203e-05
-6.19472163318082292e-05
2.05299422250702299e-06
5.681636239943409e-05
-6.72553009657976184e-05
3.1887602143535928e-05
5.77095105662117107e-05
-6.44430347692166326e-05
4.39902958555413772e-05
0.000230263353303704951
8.81931509171198053e-06
-1.39383586630801529e-05
0.000670830933941119617
0.000208240609242990799
0.00151510480739904972
0.00038344056649913512
-6.15553250927320067e-05
8.71252624457454644e-05
-8.9704106181269337e-06
-5.96395680939780444e-05
9.13414473310798303e-05
-1.01269886919144148e-05
-5.80464678660970606e-05
9.47075144364836459e-05
-1.1577116111202414e-05
-5.67792867882998135e-05
9.72300511353265258e-05
-1.32932776760232301e-05
-5.58290093461348859e-05
9.89420709725613129e-05
-1.52647582936199241e-05
-5.51209226358210158e-05
9.994258391727838e-05
-1.7509699709694351e-05
-5.4504638634464463e-05
0.000100285448245946091
-2.00801427754297922e-05
-5.38027604304347167e-05
9.98545959894469183e-05
-2.3090942549162374e-05
-5.28335578078873645e-05
9.83942778330191306e-05
-2.67268967754960671e-05
-5.13321567670174336e-05
9.56485206585825216e-05
-3.1230591759140737e-05
-4.87763902809013554e-05
9.13615493732921328e-05
-3.68838229596520095e-05
-4.4224417511008949e-05
8.48535220343023375e-05
-4.40306411049833137e-05
-3.62925750945593603e-05
7.47908585391746154e-05
-5.28013921019256536e-05
-2.3215197075696786e-05
6.12291350636669625e-05
-6.19911954661841286e-05
-2.98524712744486359e-06
4.95808061011861911e-05
-6.80575976742084127e-05
2.07101702937222862e-05
4.90460580579987342e-05
-6.50554385010545925e-05
3.11765594209000805e-05
0.000228072663672517016
9.15781007032139491e-06
-1.83583257154626336e-05
0.000709878018107427825
0.000211822343666995949
0.00148079231376088108
0.00037427062837484549
-6.04531014661958499e-05
8.555443943241682e-05
-8.46306346021949793e-06
-5.87462186267689743e-05
8.98345803777163797e-05
-9.59630747990224134e-06
-5.73614262030999817e-05
9.33253813489296532e-05
-1.09947430006573544e-05
-5.62938972779596265e-05
9.60144750745995116e-05
-1.26392338068291953e-05
-5.55251988200424688e-05
9.79390484532703388e-05
-1.45307953404445994e-05
-5.49936643316261482e-05
9.9164487325039129e-05
-1.66994769259068928e-05
-5.45823471380079686e-05
9.97016060196789783e-05
-1.92095012281957199e-05
-5.41433151499483604e-05
9.9434136902656553e-05
-2.21816461415928264e-05
-5.34991518811616702e-05
9.81356196536667922e-05
-2.57984381824882789e-05
-5.23774205744105133e-05
9.55418000449722459e-05
-3.02997853338410648e-05
-5.02741514989532481e-05
9.12940953844557833e-05
-3.59775492151235052e-05
-4.63412693435263462e-05
8.45414485599519749e-05
-4.31765588696403458e-05
-3.93586914974372305e-05
7.37121194927060284e-05
-5.20190067223783416e-05
-2.76894541067555372e-05
5.83508934573277976e-05
-6.14079154915019194e-05
-9.99316485992920615e-06
4.38043281977913072e-05
-6.80827327413640612e-05
1.10392479419935293e-05
4.14495316654740523e-05
-6.5462921785948235e-05
1.80667544141234428e-05
0.00022734549554158132
9.66869863591697382e-06
-2.18931467998553005e-05
0.000738432544222162798
0.000211960118746880815
0.00144158138143528781
0.000362859815658518961
-6.31819782837483385e-05
-6.56986289847245239e-06
7.30939505443533384e-05
-6.11120985624388709e-05
-7.07166935570655031e-06
7.89714235726815815e-05
-5.93236176662643685e-05
-7.90356024179944335e-06
8.41721290969936134e-05
-5.78271804366911762e-05
-9.00934607274233006e-06
8.85438549488806482e-05
-5.66405132019707539e-05
-1.03562351841044372e-05
9.21643184321919989e-05
-5.57627275716338533e-05
-1.19311275260282114e-05
9.50248370329404403e-05
-5.51746305904665056e-05
-1.37446597223925795e-05
9.71598289750522543e-05
-5.48267550232380289e-05
-1.58356310620936097e-05
9.86142388576880923e-05
-5.46281815089244468e-05
-1.82765144210672357e-05
9.93727660123533982e-05
-5.44551550487862554e-05
-2.11900284773003133e-05
9.93143016360246479e-05
-5.41426607809349986e-05
-2.47544073676321846e-05
9.82257245282994326e-05
-5.34311385824748589e-05
-2.92039729100439216e-05
9.58289590956124367e-05
-5.18657095179780132e-05
-3.48298051628639818e-05
9.1685463254009684e-05
-4.87076497160785383e-05
-4.1972874882990114e-05
8.4805296049266738e-05
-4.29004867237474055e-05
-5.07804810210508905e-05
7.34077182551686358e-05
-3.30388462338385413e-05
-6.02994368327121604e-05
5.6568046384754515e-05
-1.78208717581793653e-05
-6.72996783962224245e-05
3.91657213682047555e-05
-2.97066101487397836e-07
-6.49366423867041363e-05
3.54366089452307922e-05
-2.46305966364957017e-06
1.30907875459721432e-05
0.000231554225722016191
-2.34591361866675003e-05
0.000208123935515716244
0.000747316241514037975
0.000348805643642806471
0.0014003464114945728
-5.98575312219188363e-05
0.000105575921259651117
-1.70613006324623362e-05
-5.87422767947069204e-05
0.000106163481926681199
-1.94431971281064341e-05
-5.76911299622561062e-05
0.000106288376869834354
-2.2043249899110603e-05
-5.64484365767317623e-05
0.000105742278054638726
-2.49740430263009551e-05
-5.48577919762341189e-05
0.000103890437876628792
-2.85273237300917039e-05
-5.27352660500065993e-05
0.000100565787407900313
-3.29983119822619967e-05
-4.96082461896658452e-05
9.56928206583154375e-05
-3.86731479343825111e-05
-4.43385052333792909e-05
8.88485358156498655e-05
-4.62506599438856916e-05
-3.49763890356252666e-05
7.9218007615086458e-05
-5.68141293891639087e-05
-1.9131670296299399e-05
6.80956014077180235e-05
-6.97849784910753776e-05
5.35142445504311102e-06
6.23666837523841175e-05
-8.01074230960931107e-05
4.11416054718667537e-05
6.99071359145828043e-05
-8.27854207736499327e-05
6.90590687937273241e-05
0.000196112300195939771
-1.49529492654135282e-05
-6.194025490500717e-08
0.000500714797037505742
0.00018713609393949238
0.00143165545198625571
0.000395974448757684875
-6.04324415802695765e-05
0.000103021011564975054
-1.48157632087136787e-05
-5.92103684758600441e-05
0.000104464331245336181
-1.68615350371301197e-05
-5.82760472027878167e-05
0.000105216243777480424
-1.91930206947471794e-05
-5.74474066007488391e-05
0.000105369588232054754
-2.18166406812094663e-05
-5.64976882962634817e-05
0.000104737547176002855
-2.48505057673953185e-05
-5.53034867244711338e-05
0.000102864647363707463
-2.85683292325511625e-05
-5.36455200178140664e-05
9.95415838307849607e-05
-3.32867004976106342e-05
-5.0986973163822187e-05
9.46276670628358365e-05
-3.9423597511765582e-05
-4.61281333020199311e-05
8.76474720592932489e-05
-4.77630904776758783e-05
-3.70571717748760897e-05
7.76668259278003931e-05
-5.91790258873009736e-05
-2.131047162893746e-05
6.5520522297317764e-05
-7.26109660563046112e-05
3.46021410584335275e-06
5.73236963065003666e-05
-8.2971914615643586e-05
3.91307548298440693e-05
6.05378696791036955e-05
-8.52108714266977074e-05
6.44990248959210794e-05
0.000193699669076039205
-1.47105466205926395e-05
-7.19246726246433859e-06
0.000564719935691182181
0.000196504973031213262
0.00142708313535073929
0.000393855669177270104
-5.97926169413262858e-05
0.000101819503990346387
-1.44627400234184356e-05
-5.87622085292730499e-05
0.000103466148478675347
-1.64448388063394239e-05
-5.80138028492924404e-05
0.000104389511640689213
-1.87208094967196054e-05
-5.74043863871525264e-05
0.000104635112203164501
-2.13384259359400264e-05
-5.67581002123383743e-05
0.000104034364313992236
-2.44312796608231827e-05
-5.5944333472421089e-05
0.000102250111655490699
-2.82616413070536068e-05
-5.47161799146085096e-05
9.90563126181997681e-05
-3.31773900638080942e-05
-5.24933980756994047e-05
9.42499040697987315e-05
-3.96694369430380622e-05
-4.80627987534412932e-05
8.72421667998347298e-05
-4.85327983517921751e-05
-3.94722086251084921e-05
7.68603656553924048e-05
-6.04508187500859233e-05
-2.43005001853636997e-05
6.33162406927516064e-05
-7.4063959447898448e-05
-2.27694087818622402e-07
5.20746849225273888e-05
-8.44264926713795443e-05
3.1330309422810277e-05
5.22037422188384068e-05
-8.5578507941362717e-05
5.30770970812229369e-05
0.000192275691340020955
-1.23345893861124257e-05
-1.27612512614125231e-05
0.000625795816493328089
0.000205954473255367268
0.00141526645418547925
0.000390214561781813778
-5.9261448871429786e-05
0.000100711799464856693
-1.39340391017237111e-05
-5.8413608948718488e-05
0.000102553514290562386
-1.58448256319716542e-05
-5.7851846909337045e-05
0.000103669633490827015
-1.80629424036426219e-05
-5.74662515666161797e-05
0.000104060815268242852
-2.06546839171559123e-05
-5.71184964069679988e-05
0.000103584560394933125
-2.37694896310259999e-05
-5.66666154445866739e-05
0.000101972522336801123
-2.76668312275732726e-05
-5.58443994255654674e-05
9.89950201054194554e-05
-3.27119701526564172e-05
-5.40547187719834211e-05
9.43886995833409287e-05
-3.94342147260269259e-05
-5.01197086982069028e-05
8.74252097645839688e-05
-4.85996946982028669e-05
-4.22105955842310736e-05
7.66340263263498849e-05
-6.07252452943760643e-05
-2.80755864125688856e-05
6.1567400447506889e-05
-7.43330343906139948e-05
-6.07814600096352823e-06
4.75240017254917666e-05
-8.47025458138556364e-05
2.00968985021783653e-05
4.55820733823921953e-05
-8.39976074801733312e-05
3.72933099820767471e-05
0.000192345565877579755
-8.44719209399373249e-06
-1.73931840261078163e-05
0.00067586330941629344
0.000212859947410702166
0.00139636246476098334
0.000384951472016977446
-6.26617844511964531e-05
8.90609943160612541e-05
-9.43326644819903602e-06
-6.10566453283134031e-05
9.33460549886274858e-05
-1.04361899248109379e-05
-5.97423843612702877e-05
9.6899024651293656e-05
-1.17156522294310836e-05
-5.87428723997976263e-05
9.9694588232490547e-05
-1.32761285149098207e-05
-5.80766029922810705e-05
0.000101730871735480259
-1.51087101068901409e-05
-5.77055217570067441e-05
0.000103051866922360314
-1.72640126790477017e-05
-5.75466255797481066e-05
0.000103635477738858516
-1.98151971786561805e-05
-5.74870949309694577e-05
0.000103353580339093036
-2.29203496412874607e-05
-5.73840493165687305e-05
0.000101981072834238503
-2.68384646901139431e-05
-5.69647638492291132e-05
9.92873778554766032e-05
-3.19421901513859566e-05
-5.56339127512622274e-05
9.49412323618309189e-05
-3.87675219305300283e-05
-5.23006307345578485e-05
8.80831764194862823e-05
-4.8022003423990775e-05
-4.53175368233370713e-05
7.69372902886588999e-05
-6.00871032757273484e-05
-3.27471977287579173e-05
6.04828430387797914e-05
-7.34761012531078396e-05
-1.34560511227958173e-05
4.3888052444646679e-05
-8.3713121620102352e-05
8.9148079580490856e-06
3.99589973429716769e-05
-8.18043120971123731e-05
2.00722556077876556e-05
0.000194671147193530171
-4.32556268197999782e-06
-2.25065314605369738e-05
0.000713789829353528717
0.000216474892824093304
0.00137130589727540737
0.000376820739511237498
-6.15588815222670703e-05
8.77324588495459305e-05
-8.80706388592123737e-06
-6.01330846346742029e-05
9.21122711013290502e-05
-9.78996940460921558e-06
-5.90050102566372364e-05
9.5800644831544861e-05
-1.10259183870936959e-05
-5.81941908641347579e-05
9.87627258565077669e-05
-1.25184250468617797e-05
-5.77100971938232629e-05
0.000101001991033437569
-1.42856601590598296e-05
-5.75313529699781785e-05
0.00010254522987055483
-1.63722452730875781e-05
-5.75970268923043193e-05
0.000103358559230294988
-1.88682971525303749e-05
-5.78152780972668957e-05
0.000103324699007022433
-2.1935287037579214e-05
-5.80503077328433325e-05
0.000102246384690176141
-2.58287824691735382e-05
-5.80340385256183309e-05
9.9888104504105134e-05
-3.09171344132086676e-05
-5.72119586633207156e-05
9.58593189692416223e-05
-3.77183992352626406e-05
-5.46020818153108027e-05
8.91740517956329516e-05
-4.68774206315769449e-05
-4.87870202923213703e-05
7.78051659270090486e-05
-5.8700799477979482e-05
-3.81223592974194112e-05
6.01972557791898474e-05
-7.17858738489596959e-05
-2.19166481945607414e-05
4.13086520345612771e-05
-8.17093338057029816e-05
-2.38847454002970931e-06
3.46023825257631794e-05
-7.96354793804858474e-05
-1.02215202821498647e-07
0.000201076333012277432
9.76997089111736406e-07
-2.60077656596677037e-05
0.000735182064377656983
0.000216473651037760661
0.00134042404770130992
0.000367733966318812048
-6.36635908014936548e-05
-7.02848134987793835e-06
7.55116871807295448e-05
-6.19159033132879455e-05
-7.44724442745268484e-06
8.12805704454071053e-05
-6.041195868437129e-05
-8.1541170227991829e-06
8.64776935636987743e-05
-5.91689499932434134e-05
-9.10991217318922019e-06
9.09681582373415924e-05
-5.82205267913448818e-05
-1.02993424965957452e-05
9.47944020982396203e-05
-5.75897336994890156e-05
-1.17289855808271866e-05
9.79301010071329073e-05
-5.72866667250232538e-05
-1.34237095789232783e-05
0.000100378252668870764
-5.7299051661589301e-05
-1.5436671374919315e-05
0.000102157845236304224
-5.75855267479465899e-05
-1.78637646713003751e-05
0.000103230955849206561
-5.80736586738582041e-05
-2.08661969879090675e-05
0.00010348823069913957
-5.86406447721657067e-05
-2.46913327126195787e-05
0.000102749948098234688
-5.90402994419268111e-05
-2.96930276278686125e-05
0.000100776207567422003
-5.8778128494710686e-05
-3.63579465014024191e-05
9.71247040560488677e-05
-5.70139125237598745e-05
-4.52699768546140611e-05
9.07072051323943988e-05
-5.26345427127032395e-05
-5.66939709001660578e-05
7.93403890429635847e-05
-4.43216863659645773e-05
-6.93304821348515894e-05
6.09160574860211423e-05
-3.07595635572686764e-05
-7.87291811262411329e-05
3.91756594487992614e-05