/*--------------------------------*- C++ -*----------------------------------*\
| =========                 |                                                 |
| \\      /  F ield         | OpenFOAM: The Open Source CFD Toolbox           |
|  \\    /   O peration     | Version:  2206                                  |
|   \\  /    A nd           | Website:  www.openfoam.com                      |
|    \\/     M anipulation  |                                                 |
\*---------------------------------------------------------------------------*/
FoamFile
{
    version     2.0;
    format      ascii;
    arch        "LSB;label=32;scalar=64";
    class       volVectorField;
    location    "0.300000000000000044";
    object      faceTraction;
}
// * * * * * * * * * * * * * * * * * * * * * * * * * * * * * * * * * * * * * //

dimensions      [1 -1 -2 0 0 0 0];

internalField   uniform (0 0 0);

boundaryField
{
    inlet
    {
        type            calculated;
        value           uniform (0 0 0);
    }
    outlet
    {
        type            calculated;
        value           nonuniform List<vector> 0();
    }
    top
    {
        type            calculated;
        value           uniform (0 0 0);
    }
    bottom
    {
        type            calculated;
        value           uniform (0 0 0);
    }
    left
    {
        type            calculated;
        value           uniform (0 0 0);
    }
    symmetry
    {
        type            symmetryPlane;
    }
    interface
    {
        type            calculated;
        value           nonuniform List<vector> 
181
(
(2148.68519628236754 -0.0281024085329922395 -0.0686455198029407437)
(2046.88917946518995 0.00175382982142209673 -0.073124609031863283)
(1942.53701758446005 0.00569766418663458611 -0.0721740437364632031)
(1843.16754840045223 0.00683057375502023768 -0.0713335848363662595)
(1747.5424923075916 0.00923226095739785625 -0.0729170014324192484)
(1654.26564964685349 0.0116617849359890672 -0.0685862992990373954)
(1561.47027795028157 0.0150881110698350973 -0.0662029568060010232)
(1464.77433892790737 0.019104084240999096 -0.0647812575883555813)
(1362.20075247087539 0.0236369459859814765 -0.0626649144695061167)
(1248.52315681284654 0.0291617205963141599 -0.0606218413496207448)
(1116.56527672385027 0.0369759608347852917 -0.0593879376744263707)
(957.461478769381756 0.0482371678781165422 -0.0607403490067969926)
(767.929546896597685 0.0581637997324995354 -0.0588139575926508312)
(557.039837372151055 0.0687227656170466827 -0.0579083713632978364)
(346.740530870390955 0.0771602856046008367 -0.0564302742388282028)
(187.204507312833812 0.0791680043778242026 -0.0537186067990589391)
(2487.86826231728082 -0.0139780130165602784 -0.0427834552436215862)
(2379.75909381083511 0.0035423943883006472 -0.0487473804755442566)
(2268.49502994030354 0.0067319645832897906 -0.0477656438807386313)
(2159.00591788117435 0.008926488069065883 -0.046989683197850303)
(2050.02167261572868 0.0127110396342305434 -0.0493366279754528791)
(1936.82259415976887 0.0160513517632188442 -0.0476754482961719919)
(1823.16395515551153 0.0193297498910749814 -0.0450201642120105633)
(1707.72077111121143 0.0237331005934413933 -0.0440310752673499714)
(1588.0540157234725 0.0285770488597243237 -0.0428332709528078948)
(1458.48772053126686 0.0340327374365845536 -0.0414047606739905774)
(1309.88430777643202 0.041067538256681739 -0.04035638023342044)
(1138.35296593282237 0.0516173293715939119 -0.041021035199567929)
(940.735070270533129 0.0623729195907654702 -0.0410066223476111338)
(719.291978838608543 0.0724016106595477965 -0.0407171339806491825)
(487.317394466391875 0.0821121778511776507 -0.0408559106224292076)
(281.150952645823793 0.0853822688601325736 -0.0400388507224932813)
(2644.11040134547193 -0.0139950181189873023 -0.0339602062137020419)
(2536.27214774589129 0.0040648311553446578 -0.0379423375673085678)
(2423.50425480888089 0.00838762753534390976 -0.0381022345457393344)
(2310.02348370434993 0.0112491174809595078 -0.0374655517807836597)
(2196.41550094194645 0.015070371028517467 -0.0383468760563015348)
(2079.17139475848262 0.0205635194208438205 -0.0404251320417391771)
(1958.51563782685889 0.0230946427297860947 -0.0368193399844349359)
(1836.7189969266185 0.027501240031205975 -0.0359003120757028227)
(1710.75849443035281 0.0322555646607674967 -0.0350238118006583193)
(1576.20124370371809 0.03766116087618121 -0.0341833760813930534)
(1425.42299895190604 0.0446644099109546333 -0.0337448767232440272)
(1255.94754184884687 0.0542139784547451958 -0.034234749320226715)
(1061.07919068425008 0.0656786420296697621 -0.035433024763139212)
(837.475508287994671 0.0753016323204235838 -0.0354063996309233464)
(599.119968825983392 0.0851971249682560716 -0.0358527843442569827)
(367.309343331358491 0.0904320534744800231 -0.0358544388257954622)
(2705.83647950515433 -0.0103860713084381606 -0.0199836941391277854)
(2597.40985769423833 0.00493706269284933854 -0.0250738185200946942)
(2483.07044051159482 0.00936194569639661398 -0.0250924977347739657)
(2367.14576329285819 0.0128022907265568173 -0.0244798473086247879)
(2251.15997955129296 0.0160521239937568977 -0.0240580032375938488)
(2135.03232909987491 0.0212509736188330745 -0.0249761399868297859)
(2013.45335003390619 0.0268614710048202948 -0.0263197763194049049)
(1885.98817006044897 0.0294613067609282749 -0.02401920587088794)
(1757.21158884370652 0.034237920320141807 -0.0233328970687481305)
(1621.16173784177363 0.0394727358037858592 -0.0227185385218295587)
(1472.69262189842038 0.0458853273290848185 -0.0223905583180586676)
(1307.34351296498198 0.057091604424812134 -0.0238494082598232592)
(1117.5368810750706 0.0670775678747384113 -0.0244967444341776426)
(899.863940840043028 0.0759932974970538161 -0.0246657284249929484)
(662.534805169798574 0.0858099814197519489 -0.0251971613949450585)
(422.02375084944191 0.0923550406282682423 -0.0257694078358448216)
(2740.49753746179204 -0.00866140354608391748 -0.0163743494820215128)
(2632.62691802855352 0.00529478489326719402 -0.0184535799898517261)
(2519.1211465092656 0.00982429546021467044 -0.0186454039048450336)
(2403.1431324026662 0.0136773539533611484 -0.0185534151697959136)
(2286.96407674808233 0.0172150850002453434 -0.0183944843530025846)
(2171.10282110002981 0.0215875893867830682 -0.0182583115944160157)
(2050.47249040748784 0.029263339534102005 -0.0202845221489777877)
(1920.80216810356319 0.0332667538699829846 -0.0192128312346236674)
(1788.88086942787504 0.0360843249320663487 -0.0173296139853021426)
(1653.56914578766759 0.0408475772173547344 -0.0166390308551339558)
(1508.0466284306026 0.0464358657452325907 -0.0162614708382511457)
(1347.9251324982672 0.0576752271205289296 -0.0175185564039545411)
(1164.91812117176278 0.0688818174557871005 -0.018576351126421798)
(953.26476470892726 0.0771295505429202555 -0.0186719945858213748)
(718.526611712376962 0.0863021428434594395 -0.0190041628478688773)
(476.592944463649644 0.0940673658664487183 -0.0195657118363767521)
(2756.83742556323978 -0.00674301429754928065 -0.00904610274985835454)
(2649.3097709265071 0.00559621019153332729 -0.011992052816471057)
(2536.14432506426556 0.01008081977012029 -0.0122306301644987785)
(2419.70394428432201 0.0140826325888773665 -0.0120380934080628541)
(2302.94268484487793 0.0180625908426697776 -0.0118496225211008593)
(2186.22881610921695 0.0226794111202620989 -0.0117426001564896552)
(2064.36755214091727 0.030208006725951652 -0.0124858792679016593)
(1934.67856555476214 0.0360897459752171773 -0.0120384635994080693)
(1800.3501844518355 0.0387840845281833199 -0.0106179134132612478)
(1664.33404111257641 0.041605178645748718 -0.00957010919242086595)
(1519.14437465067067 0.0470142257293152885 -0.00940264873523236414)
(1361.11789537511777 0.054365775146149882 -0.00950438073963184166)
(1183.14113682541438 0.0700109526785937519 -0.0110174492601896514)
(974.474261868076155 0.0790873342308352767 -0.0113897219629413519)
(739.914428578642628 0.0879767418473576673 -0.0115968705711209669)
(491.836739549186802 0.0946650795099941295 -0.0119683872149033525)
(2767.22885137026969 -0.00613303874657636014 -0.00522860009583051445)
(2659.04784110504761 0.0058606527926326436 -0.00695762550249006892)
(2546.1848819396746 0.0101624602787895625 -0.00704113032791014136)
(2430.46734950308428 0.0141959454142088701 -0.00695083030358697833)
(2314.45735028554509 0.0184136573079168239 -0.00688633285221984352)
(2195.69169354795622 0.0249486443801729789 -0.00723898970367300824)
(2070.65335066393754 0.032013559165748974 -0.00711833613426513922)
(1937.34851567766987 0.0370682176479863248 -0.00634294606659060057)
(1803.2347478397935 0.0382626146300583878 -0.00510078009628310222)
(1670.43807481590193 0.0432903915690516852 -0.00467657925800339918)
(1528.59110602037686 0.048836613793164653 -0.0046004987298619085)
(1369.53078142470508 0.0554087069186489159 -0.00469898149941342345)
(1193.82378160115968 0.0650299915474266826 -0.00502640843502812421)
(992.088910151417167 0.0813268729228757703 -0.0059985398668188257)
(758.7465806455848 0.089518993782798012 -0.00639011482321702635)
(507.090729390311708 0.0950079664900196075 -0.00696928395373573768)
(2770.98871865931096 -0.00527280238884131856 -0.00167019880279309146)
(2662.63784412844188 0.00602450927012825824 -0.00223182805680572976)
(2550.1700041947056 0.0102302421961471841 -0.00225781658391563779)
(2435.1714973422263 0.0143412648949725729 -0.00223544801009063028)
(2319.51470984126036 0.0186094946676533569 -0.00221172246167861608)
(2198.85724949945188 0.0264058838479632879 -0.00236826583030834382)
(2070.85124508054059 0.0329503263835821264 -0.00221609234342746205)
(1936.3499326116937 0.0356507769468579414 -0.00180922049278396712)
(1801.67637689006983 0.0393879334899946559 -0.00152633506429723374)
(1668.06818546069189 0.045324018446989342 -0.0013434736944338368)
(1528.25827925927979 0.0512427280464965856 -0.00125492935254023713)
(1372.49175649043286 0.0576750517001107313 -0.00129089716648276339)
(1194.18308418744436 0.0650279412434075221 -0.00132539835774980264)
(996.001225326923191 0.0745760441688096826 -0.00151476318715558695)
(773.961386394964848 0.0892591966422433963 -0.00192666484140553425)
(534.060605488783494 0.094978460196257497 -0.0023207550990251625)
(0.112508529954486083 0.0489583168725499646 -278.491666870313963)
(0.113768414242500657 -0.00133836645616142213 -374.962030684846468)
(0.113002794910439089 -0.00661584483015077891 -408.328297894466573)
(0.108994610294181962 -0.0101597596934510041 -391.422858182668051)
(0.101902560106275533 -0.0131616219411229748 -329.628436517212037)
(0.0887792664370970902 -0.0145285162362785471 -242.788568012677359)
(0.0727204849854998642 -0.0110679274484632943 -148.1992613481695)
(0.0545116956914649259 -0.00275052889198320423 -64.9977445189402516)
(0.0622838548694823954 0.00412811860211106506 -74.7771937555426405)
(0.0445682924805122713 0.00539167127297793952 -5.11611910970390138)
(0.0401744369944997612 0.0130958032544334982 -3.79192872500441203)
(0.0360212960985386438 0.0193509448786625543 -3.75607007915602553)
(0.0366288368209646137 0.0267572830633378451 -2.74801569164757797)
(0.0288825270710602981 0.0259813216184495155 -1.47322358791033747)
(0.0173826411059005911 0.0236752092688180815 -2.29647152637716534)
(0.0892289878219697796 0.0394098488262859814 24.7406588112728407)
(0.0857917428242013641 -0.0125059003240859425 -38.4757113214590021)
(0.0768709719671118452 -0.0265283917701677439 -71.3559562608030973)
(0.0642746485525737821 -0.0342329909768417789 -92.4408197443429884)
(0.02300234764542336 -0.0181872845057415057 -61.930238231139505)
(0.00493481876573368793 -0.00653673264311782024 -16.2362000853874839)
(-0.00111248613862951541 -0.00419074785975155108 -10.5483444440116205)
(-0.000199188769219084009 -3.87789676061356715e-05 -12.993074517444839)
(1.35918274659421514e-06 -1.67568154469585573e-05 -2.65118810456603082)
(-9.91266217546094941e-05 -9.34273941739106867e-05 -2.20248217695717496)
(-0.000112433687018958283 -7.18476337251558125e-05 -2.24440546817245057)
(-0.000108187588635610455 -6.35149061188742848e-05 -2.30788830988136917)
(-9.64825605508663601e-05 -5.96632763578641725e-05 -2.28563855801161697)
(-0.000108553168113236591 -5.74764283992007334e-05 -2.23970472199914772)
(0.075075508977339972 0.0206079704849498301 379.579928800066284)
(0.061343971132506267 -0.019108880904765306 251.560843200149492)
(0.0254329670936966241 -0.020948231742267516 110.54904077660467)
(0.00443995466038584179 -0.0103258530227676084 18.2467894738753635)
(-0.00188995876680948956 -0.00282977846114697371 -3.94942302014688806)
(-0.000289159313313948829 -0.000202943543883826809 -7.46934224174906269)
(-0.000366560188704144582 -0.000126786137621219042 -7.32501233701173948)
(-0.000239113253220203133 -0.000138998805041583106 -6.99511980461218297)
(-8.7292576336838243e-05 -8.02453439856980004e-05 -5.09936634992026683)
(-6.97615719474178512e-05 -6.34302433860730626e-05 -3.9596930966054118)
(-0.000107040391268895923 -6.02388381792388536e-05 -3.21455815759298291)
(-8.76610059097965506e-05 -3.57458552323191379e-05 -2.97141739470955457)
(0.0758257276978342859 0.0100606554119896888 272.431568002512847)
(0.0465955325626707662 -0.0218097846154618746 135.225260390479434)
(0.0137584144462450791 -0.0151314228300438794 26.636440627585678)
(0.000384479272033236665 -0.000371373439688278337 -2.5166148776797912)
(0.00012778542775354268 -0.000209835115906097802 -6.55210537619901601)
(-3.58585336117493725e-05 -0.000112053580122381346 -6.96659414966320067)
(-0.000137147440116587224 -6.5358804619161331e-05 -5.59951373467484448)
(-7.45826353798753936e-05 -2.4559490294797505e-05 -4.74246859870645121)
(-0.000151935655548615894 -5.14083478203971244e-05 -3.87024146879374875)
(-3.34387979367106844e-05 1.15563432519989958e-05 -3.46509910937072529)
(-9.69808849836471251e-05 -2.40100380441599673e-06 -3.12994124703252652)
(-9.72037303837445713e-05 -4.46956241667185762e-06 -2.96294796955055917)
)
;
    }
    procBoundary0to1
    {
        type            processor;
        value           uniform (0 0 0);
    }
    procBoundary0to3
    {
        type            processor;
        value           uniform (0 0 0);
    }
}


// ************************************************************************* //
