/*--------------------------------*- C++ -*----------------------------------*\
| =========                 |                                                 |
| \\      /  F ield         | OpenFOAM: The Open Source CFD Toolbox           |
|  \\    /   O peration     | Version:  2206                                  |
|   \\  /    A nd           | Website:  www.openfoam.com                      |
|    \\/     M anipulation  |                                                 |
\*---------------------------------------------------------------------------*/
FoamFile
{
    version     2.0;
    format      ascii;
    arch        "LSB;label=32;scalar=64";
    class       surfaceVectorField;
    location    "0.300000000000000044";
    object      Uf;
}
// * * * * * * * * * * * * * * * * * * * * * * * * * * * * * * * * * * * * * //

dimensions      [0 1 -1 0 0 0 0];

internalField   nonuniform List<vector> 
20789
(
(0.0513679031685836743 -0.0129738287322300038 -0.0231400903460843681)
(0.0264989155331183598 -0.0229653949663755977 -0.0219594580401925484)
(0.0256280800484682131 -0.0106566558275103737 -0.0217347910390995221)
(0.0261666744784014096 -0.0106854802648577128 -0.0220052225989622978)
(0.11973006856081457 -0.0155225004741511106 -0.0256920930310405998)
(0.0857341172575302735 -0.0305456615596781771 -0.0241506737186598618)
(0.0839574115386092362 -0.0152458325208472446 -0.0240774375721184604)
(0.0857037337205594774 -0.015311222540689921 -0.0244024631936897961)
(0.18864079612212159 -0.0157551027426263736 -0.0293041047007568632)
(0.151103907927183617 -0.0308020948687498276 -0.0268187422788470665)
(0.149277747250856935 -0.0157093954522542004 -0.0267204127612005286)
(0.152314777401518386 -0.0158284307780052376 -0.0270706707613136803)
(0.256180756229956175 -0.0153836266975111921 -0.0348684500018056828)
(0.219556643397858603 -0.0302261763522425515 -0.031280872206022152)
(0.222017247017031988 -0.0156512768736271311 -0.0311820312826184796)
(0.227093176087549309 -0.0158376141514940325 -0.0315988819672386873)
(0.320513337634912687 -0.0148014128899626157 -0.0428594965675204581)
(0.282551472565428785 -0.0288567152422990816 -0.0378367275773873885)
(0.285077181124994694 -0.0149111592233269561 -0.0376615978561559983)
(0.292482476689413295 -0.0151408222756966408 -0.0381905096264057026)
(0.383775051188687655 -0.0145281962698878084 -0.053957401002441098)
(0.345228915507830914 -0.0284902134558366986 -0.047135608037194375)
(0.346763347250119647 -0.0144331995470253355 -0.0468629395479119304)
(0.357105958307362081 -0.0147192864966731903 -0.047610725153940936)
(0.447103444681165252 -0.0145188487679338372 -0.0695059885064779615)
(0.40817568265114812 -0.0285951412415164953 -0.0599133251536795308)
(0.407944549005072654 -0.0142888001474442 -0.059476394515722425)
(0.422213754553897813 -0.0146701930507767489 -0.0603747635508261327)
(0.509993633415254277 -0.0143585821167577354 -0.0903775683563539378)
(0.471396077530811419 -0.0287576090923544296 -0.0778049427874523969)
(0.468884396186766583 -0.0142807173769993849 -0.07725976394184908)
(0.48843839948314699 -0.0148245356241745469 -0.0788725859705970284)
(0.571332859882375255 -0.0139357276136484309 -0.11981503431124263)
(0.533635421066378401 -0.028001633367340073 -0.101506920002720838)
(0.527545056869703766 -0.0138060725839570693 -0.100500463815655638)
(0.554640989078416635 -0.0145466596449323055 -0.101979952864180934)
(0.627491826556872745 -0.0128858335002106899 -0.158787256814886812)
(0.593216479638084881 -0.0270355470348292749 -0.135761327020444134)
(0.582095327755124847 -0.0131480157659206523 -0.134330801959030743)
(0.619246476814297897 -0.0142628589218967115 -0.138482779618976676)
(0.677882443191586637 -0.0112885505890585741 -0.21607796879756036)
(0.648528561281757954 -0.0238799414077160328 -0.17974228083831012)
(0.629524811023083219 -0.0114165450441792923 -0.176747984527230645)
(0.682529095406188446 -0.0128793447887894097 -0.179716194623399883)
(0.710980374951263649 -0.00876806147573185035 -0.289971157234270804)
(0.693927203276515026 -0.0211979592182732872 -0.248088271325152487)
(0.663390916503417083 -0.00957694393201844948 -0.242908712499357166)
(0.736751487133555982 -0.0116675633345292278 -0.255884255634089897)
(0.733700195613613992 -0.00684745548590099794 -0.408269514400564915)
(0.727091504016404544 -0.0150970406750357278 -0.330242333291967172)
(0.680049770213883242 -0.00602337725298932036 -0.319806812873197455)
(0.79292769532100138 -0.00812927745626976055 -0.329805522114865857)
(0.69416529566068419 -0.00483112560721158518 -0.571769075810738325)
(0.731670738537233301 -0.0143017576818583667 -0.483254155274334296)
(0.6679688854427559 -0.00528155654462492651 -0.453177136037878625)
(0.807024319965232495 -0.00934942970612438057 -0.516922803017124677)
(0.611051110306036538 0.00407905640460506577 -0.985846783606081578)
(0.721016179167320415 -0.00926273277419202914 -0.659115308573160363)
(0.623462211832485291 -0.00297632305129064785 -0.597676305287120901)
(0.955019067257810161 -0.00945490774277592955 -0.690081032179981846)
(0.40726648980152258 0.0208808212475096455 -1.33037163642604606)
(0.39574621866608678 0.0153930307290964831 -0.96710787305312651)
(0.795562904073551791 0.00510735752546208344 -1.46850275200955926)
(0.0542318939729730734 -0.0401884410363395478 -0.022970041412768042)
(0.0277639016732538699 -0.0472132397714504701 -0.0219062723655851499)
(0.0268273786444415685 -0.0342437798002679719 -0.0217505095408292229)
(0.0273768407264475232 -0.0343360027215642571 -0.0220402294123571256)
(0.120161743545700223 -0.0458270155315342875 -0.025277322966466325)
(0.087462129949787415 -0.0600088289387627136 -0.0239168129354066852)
(0.0857725544837994736 -0.0459787068883653824 -0.023662950290266424)
(0.0875151412785662719 -0.046212037205003588 -0.0239851250795845607)
(0.183733247475827949 -0.0449595040250114902 -0.0287955097841123622)
(0.151398472081325564 -0.0592271928812503831 -0.0265555280521711304)
(0.149834820275126374 -0.0453898385072498689 -0.0262753116981314268)
(0.153018334607247425 -0.0457457654721059592 -0.0266175711983338802)
(0.245326364406776853 -0.0437008353411089193 -0.0342491497816038645)
(0.214344133327662528 -0.0577995644264144293 -0.0309062048180533226)
(0.212150854966380031 -0.0441193796606050778 -0.0305973998387498031)
(0.217048270991676839 -0.0446040841193393808 -0.0309947442370232737)
(0.307591607570908698 -0.0428542797805366443 -0.0421128390470613193)
(0.276234777340630344 -0.0567873972883032388 -0.037377617995504285)
(0.272880164535814873 -0.042748425790721363 -0.0370013634347957504)
(0.279907949415802992 -0.0433465645655042586 -0.0375158253822148458)
(0.370260154861626889 -0.0427526410909704266 -0.0530915321884328287)
(0.33860031840533783 -0.0566905659344814003 -0.0465187270102253164)
(0.333738175991421304 -0.0422727740388666312 -0.0460365530206355567)
(0.343528965828928667 -0.0430413938717577396 -0.0467318523789667234)
(0.433123303857941788 -0.0429485026580398721 -0.0682122794346540079)
(0.401526403366932572 -0.0570181278299328673 -0.0591641433899550012)
(0.394684377271994236 -0.0423122635691398144 -0.05853315018427864)
(0.408167821700261058 -0.0433617525710187357 -0.0595007351663058015)
(0.495677415855715842 -0.0425996255796521547 -0.0889342944338192692)
(0.464718803003816627 -0.0572256042693815373 -0.0765187493910937933)
(0.455151843955852009 -0.0423042671327695033 -0.075671137821331419)
(0.473612199069601336 -0.0437805293899597922 -0.0770034110904276176)
(0.556870420676659372 -0.041338566563547105 -0.117453212711922356)
(0.527157169488983834 -0.0561894295444414216 -0.100272682754352735)
(0.513895451526247715 -0.0411476739841488137 -0.0990606032400768721)
(0.539299734350015214 -0.043191256465053951 -0.101042323026138234)
(0.614160698617701395 -0.0385797374304664847 -0.156716351043867441)
(0.587392139891190879 -0.0539958579417133266 -0.133112875564815325)
(0.569094218557620324 -0.0390843136560286297 -0.131252933030592378)
(0.603988821938309162 -0.0419914859763334536 -0.134248820989540801)
(0.666237977867455089 -0.0343323919593173515 -0.211752583365902247)
(0.643524872641812129 -0.0495732927205095528 -0.178189386962437024)
(0.618203413069087548 -0.0348793250368725147 -0.175094196935297319)
(0.667234564741570613 -0.0387036262676085652 -0.180190005409037152)
(0.7052701772895833 -0.0281631292252516249 -0.288359447382848855)
(0.691578956456453287 -0.043328641978972432 -0.242529964480908272)
(0.656926205284015685 -0.0296245430820816884 -0.236580278270906774)
(0.724307374048881569 -0.0347482385188828055 -0.246146416679018737)
(0.729141416117474073 -0.0223944299006889024 -0.405226974165736276)
(0.726665023496015139 -0.0342449834299097186 -0.330622980710570613)
(0.67798648110492743 -0.0213689011198468955 -0.320098702776234589)
(0.782290280181685227 -0.0275795130887375936 -0.337175765803828409)
(0.701427209338100655 -0.0201579940942673841 -0.57060038803675639)
(0.732910668163833101 -0.0273304789289493012 -0.474659816243977517)
(0.670958699210844056 -0.0168293313870683352 -0.446607007869794181)
(0.809185591190278108 -0.0258130080229040659 -0.497299297157509979)
(0.621696873646139125 0.00893446632528883261 -1.00364016139312295)
(0.721113247214731468 -0.0313414823821903665 -0.660818442421758023)
(0.619056041689849401 -0.0149872879852099503 -0.589713513698262748)
(0.921561095107595651 -0.0321571110455554365 -0.704742412968301424)
(0.416414515022862752 0.0568556861877373906 -1.33686524801342266)
(0.425972572397717797 0.0469146646153598135 -1.01774057891421732)
(0.784670970178398264 0.0165249951446403247 -1.49841019063392222)
(0.0569671173602013109 -0.0672472892015055501 -0.0228530438882237966)
(0.0288497588568664247 -0.0726837584298503231 -0.0217223431798941186)
(0.0281479287972307354 -0.0597326867507304363 -0.0215655846908494805)
(0.0287068525304287891 -0.0599225410199608899 -0.0218693065169904902)
(0.120380184152631908 -0.0740936296687426943 -0.0251950180211114871)
(0.0887812891436837587 -0.0883569998944529755 -0.0237771985342018002)
(0.0874104701413108143 -0.0744855744526509711 -0.0235755219733334645)
(0.089161461247708157 -0.0748834229887685304 -0.0239048111667269254)
(0.183270517437926467 -0.0725905563339509785 -0.0286662230861120908)
(0.151270176382620469 -0.0873479649919853968 -0.0263834833154909902)
(0.149812197275753511 -0.0732368071960811939 -0.0261754759630274635)
(0.152964027024346833 -0.0738008789564666284 -0.0265145542391858093)
(0.245132502147048431 -0.0712149321574818694 -0.0340346730319537397)
(0.21365988408146297 -0.0854872096018654964 -0.0306486253948200435)
(0.211713552051517401 -0.0713143084056813009 -0.0304260165798722025)
(0.216549487507041755 -0.0720462642872892189 -0.0308128835318278484)
(0.307456834667297618 -0.0708189575835803803 -0.0417835059586682822)
(0.275641997954930995 -0.084741173592875238 -0.0370053778003610126)
(0.272681701168572099 -0.0702964069601683672 -0.0367300974490852791)
(0.27961971609420988 -0.0712229810902783589 -0.0372382273792085522)
(0.370419804245184558 -0.0711148870867745336 -0.0525913382117475028)
(0.338239351871086336 -0.0850247102308684111 -0.0459847477589270873)
(0.333848264943427064 -0.0702591639933464324 -0.0456221313022642447)
(0.343507157367662297 -0.0714731786723864226 -0.0463233144598228092)
(0.43374276053758648 -0.0714682655284898521 -0.0674706133463947866)
(0.401468738539633441 -0.0856456949734378109 -0.0583861847805037665)
(0.395135007981613218 -0.0704991009042745254 -0.057910169687781704)
(0.408432689777475377 -0.0721619788753030955 -0.058878211828185846)
(0.496912643917587105 -0.0709794635052415218 -0.0878571377116272312)
(0.465220528209570716 -0.0859716430164804701 -0.0754031307451751009)
(0.456184036189584197 -0.0704114825280609258 -0.0747669801632344089)
(0.474388479106732874 -0.0727190906818933058 -0.0761079995713139779)
(0.558764727908381942 -0.0689865896418201258 -0.115932345607245718)
(0.528351143038805815 -0.0846319631373315118 -0.0986912196342610154)
(0.515592044517248382 -0.0687726600108452685 -0.0977961626984050064)
(0.540661621236034451 -0.0719881286260230235 -0.0997015315876503827)
(0.617206620284079466 -0.0649743714732494981 -0.154585911483384825)
(0.589579585382067006 -0.0814349374818478661 -0.130922546851190674)
(0.571686731361523925 -0.065434475531418082 -0.12949156146578758)
(0.60614474542338348 -0.0698390854627689711 -0.132421339330510979)
(0.669966606842045453 -0.0583659104118256222 -0.208966768077443077)
(0.646904529578019361 -0.0754042102728650909 -0.175187634064924852)
(0.621765696506527688 -0.0595600756081373986 -0.172728665404974807)
(0.670321448042533019 -0.0654149361294240478 -0.177492749298978819)
(0.70973649751658352 -0.048882930435721221 -0.28479349780863028)
(0.696110980995149453 -0.0656200903074657671 -0.238711429158048549)
(0.66150830515042891 -0.0506915864502999469 -0.233605243753230662)
(0.728259768738820923 -0.058369607256054494 -0.242837176899879686)
(0.732349789872354218 -0.038282748004484321 -0.400055822788811799)
(0.730961729227958656 -0.0525489619843400729 -0.325723216986116115)
(0.681752045816850449 -0.0384661028190842677 -0.316228552419103415)
(0.785384078985938316 -0.0488376893146934693 -0.332735822076329402)
(0.703977494832933703 -0.03617542511837845 -0.56487787062897965)
(0.736733407838445986 -0.0390802404735257902 -0.467160333807798978)
(0.675383638765194916 -0.0275702312136889109 -0.441371040959860517)
(0.81113379806763497 -0.0396314891264869379 -0.490090365213674051)
(0.60465535067070042 0.0160061610745970764 -0.994043529042057727)
(0.720904541200373394 -0.0428372670134404346 -0.653440963627449412)
(0.616679465682146821 -0.0280889607446934766 -0.586052609173585926)
(0.918698110732775297 -0.0527883063769469391 -0.697330534347961883)
(0.400580383124577666 0.0867995915158755738 -1.31749843211850015)
(0.4043812257471322 0.0846009351206980925 -1.00425846575110844)
(0.764445144733434612 0.0322141175957828332 -1.48184205391729651)
(0.0586704529408020176 -0.0940739440434000679 -0.0226464978258721222)
(0.0295097094290213968 -0.0989222123232717382 -0.0214930617557803662)
(0.0289955480369433263 -0.085682693962434775 -0.0213431360545470218)
(0.02955618181107144 -0.0859847415225977879 -0.0216686389914431572)
(0.120461759083483694 -0.101869161487723681 -0.0249656638285812998)
(0.0895382834961743063 -0.115989035739390123 -0.0235215712807046937)
(0.0884155594173836046 -0.102068876820547896 -0.0233630714421972363)
(0.0901530425994745283 -0.102619432524345827 -0.0237016407691187682)
(0.182539920535864264 -0.100413513777860258 -0.0283658856241989499)
(0.150999265524750292 -0.115099899800253494 -0.0260693719320046723)
(0.149620798194241428 -0.101032333219589432 -0.0259289815364147948)
(0.1527198070025646 -0.101801151278140461 -0.0262523088713203755)
(0.244287104406323757 -0.099112834183814863 -0.0336193301632273234)
(0.212763968656232622 -0.113108804707977587 -0.0302262471095436705)
(0.21086603425410122 -0.0989418485970637307 -0.0300887079335884662)
(0.215605557575466122 -0.0999331905618554006 -0.0304455187378306763)
(0.306605516645443055 -0.0990540251407347194 -0.0412066196006198038)
(0.274679202012587498 -0.112682924276858595 -0.0364327120048273528)
(0.271821797262963238 -0.0981699881152957865 -0.0362503558109418533)
(0.278616313026158968 -0.099431217417678755 -0.0367396982869456212)
(0.369765908001565724 -0.0996964087132113652 -0.0517795943276833787)
(0.337439645941078725 -0.1134469222991418 -0.0451975335196118239)
(0.333197580114779457 -0.09845107814859963 -0.0449392354780794312)
(0.342646174266921733 -0.100105665286588291 -0.0456410781575522576)
(0.433529341511336763 -0.10028490285085688 -0.0663187021792840947)
(0.400990823802281904 -0.11447466384774499 -0.0572803257412479727)
(0.394815782030333018 -0.0989114770801686471 -0.0569377532380933721)
(0.40781698083774881 -0.10117324533204694 -0.0579170735690112126)
(0.497389787701529751 -0.0997314316916737414 -0.086237212667808899)
(0.465362513041102654 -0.115022298372118095 -0.0738403046258679641)
(0.456481966786688453 -0.0988682663688751212 -0.0734001553391888661)
(0.474267346097591469 -0.102003073529197727 -0.074736580817758233)
(0.560137201180890942 -0.0971454566003069897 -0.113681420878205958)
(0.529376065649424965 -0.113437259217922207 -0.096509012005414993)
(0.516704556202818854 -0.0967770782505564808 -0.0959229942775979838)
(0.541224863528411038 -0.1011538654158812 -0.0977580495892444584)
(0.620036095092164508 -0.0918442366209695771 -0.151524269432730618)
(0.591933577697716595 -0.109443298096754016 -0.127902119518291724)
(0.573984180126187904 -0.0923756745853012706 -0.126929894090140327)
(0.607737166279199714 -0.098342575138373356 -0.129703125976696559)
(0.674111927514998044 -0.0825542634188427549 -0.204932295145530324)
(0.650987373981529616 -0.10165769471122732 -0.171145949184894702)
(0.625599245933282644 -0.0845447925441152603 -0.169342887781824325)
(0.673270096504162363 -0.0924872638984189366 -0.173782470824738244)
(0.715163255768362705 -0.06899001835306387 -0.279641148335534384)
(0.701788744024808842 -0.0882411039751451326 -0.233427392576654624)
(0.666783624137834874 -0.0716772969892878892 -0.229224397733183261)
(0.73243386421128398 -0.0822217957553729589 -0.237976398288176377)
(0.736983112403362228 -0.0528606393182517384 -0.39282772800510346)
(0.737558128827540349 -0.0702688211204092333 -0.319009024562695642)
(0.68754671586851035 -0.0545079721793172017 -0.310631779806148534)
(0.789653343415184117 -0.0685598439012315569 -0.326676072063023681)
(0.708269415411963199 -0.0449514182329139728 -0.555723426806268961)
(0.741991978555302745 -0.0499833836010820792 -0.457336935975033665)
(0.680579118146149797 -0.0365602104382705337 -0.43336404513047494)
(0.814104916412378254 -0.0531962060454285873 -0.480693582621608162)
(0.595615425283883004 0.0281441812074368636 -0.976895866703892501)
(0.724688923834537091 -0.0468026505093502715 -0.641869321649095825)
(0.619990660430071894 -0.0300769833736322725 -0.578485878662249653)
(0.914331134802541912 -0.0631528532848855406 -0.686553487462440604)
(0.396832099457894938 0.119119251505895599 -1.28489615246730593)
(0.393922730437920976 0.119796376431250282 -0.988396620086574029)
(0.747392962847974296 0.0492252400709337901 -1.45319325076245809)
(0.0595644779895337304 -0.12103193804689473 -0.0223681352106129376)
(0.029863948202049316 -0.125576515780562364 -0.0212210491876941992)
(0.0294773503398157131 -0.11213615089140283 -0.0210784112996488943)
(0.0300301500733326544 -0.11255490236946443 -0.0214409135523742946)
(0.120445274139660358 -0.129368230686018132 -0.0246252793841280626)
(0.0898770372052192928 -0.143224498280222351 -0.0231741338708350945)
(0.0889558372059440078 -0.129412185449251288 -0.0230550865635152404)
(0.0906572598603545415 -0.130114287949457286 -0.0234098375404758648)
(0.181805948504114856 -0.127984820503835472 -0.0279297334173493964)
(0.150600668039184094 -0.142514664591243567 -0.0256341509781954462)
(0.149337015704064657 -0.128512879680852038 -0.025573106560086014)
(0.152354572706027813 -0.129486130026222335 -0.0258598533912207142)
(0.243365863830711154 -0.12685602861125439 -0.0330396289511437138)
(0.211819176172561768 -0.140617731368744586 -0.0296575646099637748)
(0.210041135485285496 -0.126387236798962244 -0.029622267157851663)
(0.214654446531240078 -0.127637545715494849 -0.0299202001717026704)
(0.305693853129076099 -0.127238526518020395 -0.040423625923819366)
(0.273607466891318762 -0.140613114396956923 -0.0356863230608054152)
(0.270937274562390584 -0.125927153446932699 -0.0355983809417899366)
(0.277552228648937638 -0.12750811053141764 -0.0360560930552823594)
(0.369070432338447385 -0.128384880102186766 -0.0506982649331764387)
(0.336502789752066211 -0.141969255156368684 -0.0441930128622980908)
(0.332507176191271736 -0.126667901452492737 -0.0440207541772425215)
(0.341693452141811294 -0.128734107084135907 -0.0447306836438493491)
(0.433355143681649402 -0.129357813752108169 -0.0648019281878318143)
(0.400429857242802223 -0.14355171104212533 -0.0558861429753186867)
(0.394528484499868715 -0.127518198491852003 -0.0556432909409383183)
(0.407150451871593266 -0.130335997211640159 -0.0566554172148445098)
(0.498079708287803957 -0.128848147526566092 -0.084112103963474058)
(0.465530720180244439 -0.144459912482265279 -0.0718762549441971932)
(0.456939893133098629 -0.127642924975036653 -0.0716035557144206469)
(0.474185932558292167 -0.131557851644190871 -0.0729457962693691314)
(0.56208207805961663 -0.125811840312782586 -0.110729710645500745)
(0.530675314033547507 -0.142761489435377004 -0.0937573670411336185)
(0.518229990671759566 -0.125193893309474474 -0.0934638105825000703)
(0.542045997913259692 -0.13068309828677338 -0.0952212231387197933)
(0.623892676785859024 -0.119247577871725602 -0.147523799270455835)
(0.594992465829494943 -0.138187748810174066 -0.124088645775597556)
(0.577142894225496916 -0.119934759543041988 -0.123587675492232554)
(0.609983040514120667 -0.12740711666908841 -0.126133800541263635)
(0.679915325744125942 -0.10719134871100669 -0.199641046616018863)
(0.656345868329270443 -0.128567252946414523 -0.166065389513366635)
(0.630875513812561461 -0.110040861380726565 -0.164931124300311843)
(0.677361813946220526 -0.120008297541522507 -0.168952356288912198)
(0.722933233505172246 -0.0891130905941770746 -0.272795268803815882)
(0.70942330243706353 -0.111428307999973539 -0.22673210118233611)
(0.674096309864790522 -0.0931318327689283215 -0.223451637172142836)
(0.738417267122398968 -0.106473617045891131 -0.231587936294766428)
(0.744763999050479741 -0.0667573040728472872 -0.383518232532626069)
(0.747140010779586472 -0.0877066948562309212 -0.310468734293810278)
(0.696421795615147166 -0.0702623622220829025 -0.303166022291674941)
(0.79629735331064988 -0.0878599909048732586 -0.318636651345808264)
(0.715610836569868569 -0.0509181636630412215 -0.543482830817860196)
(0.750935744594893095 -0.0598179317300346555 -0.44513996829131719)
(0.688691790136422677 -0.0445234633228071275 -0.423257834252800669)
(0.82005387749972547 -0.0658449722809293508 -0.468840821394267582)
(0.593546084177802191 0.0459775743353648819 -0.949869607412510475)
(0.730778735608187957 -0.0454707602049679166 -0.62766864617914897)
(0.628513349553960321 -0.0279882968074205742 -0.56658172740574364)
(0.910598792875170648 -0.0698947785270565281 -0.67241990409170227)
(0.399729481194501191 0.158614789701360309 -1.25283441682941787)
(0.395368650881854578 0.162958359070912412 -0.96161526487216531)
(0.737837992433622025 0.0734264923102972145 -1.41022075365979238)
(0.0599557640616191906 -0.14797281239965146 -0.0220270478479163527)
(0.0299986100726278605 -0.152432932452650105 -0.0209168914395203194)
(0.0297296780207723828 -0.138893297986195347 -0.0207699136847059214)
(0.0302639487613241692 -0.139427272120856094 -0.0211888195063897472)
(0.120258451197084781 -0.15653215866993278 -0.0241830054649024712)
(0.0898738803113625778 -0.170213553886638697 -0.0227415329769267809)
(0.0891509926021062105 -0.156418712263019483 -0.0226604119458373547)
(0.0907883086863183336 -0.157264925778005271 -0.0230362094983118798)
(0.180984764010338584 -0.155319511998546628 -0.0273619821708098246)
(0.150028098081610051 -0.169607123743870603 -0.0250755180315552911)
(0.148911622689767209 -0.155656183952391947 -0.0251246079971116677)
(0.151815147820485025 -0.156835875096599769 -0.0253306144983977549)
(0.242281664892678328 -0.154535484310029114 -0.0323042587196254866)
(0.210733593388180873 -0.167956599749064989 -0.0289428109836279944)
(0.209126959043478722 -0.153709916033524741 -0.0290400184541656191)
(0.213589275402497419 -0.155226781801708152 -0.0292316245202059212)
(0.304590869966745836 -0.155491808096555856 -0.039455709999284147)
(0.272338710369523451 -0.168512058548433513 -0.0347828601726143244)
(0.269908645165072292 -0.153694145383090841 -0.0347858089909314425)
(0.276317520375642722 -0.155583579656511317 -0.0351977326576506586)
(0.368200618070434471 -0.157283051042563654 -0.0493808909044403527)
(0.335344488928905615 -0.170608528932855857 -0.0430034613572412641)
(0.331651998372701373 -0.155019186872798809 -0.0428801929519929612)
(0.340530785420995241 -0.157459646516550533 -0.0436167537465888613)
(0.433081228051837963 -0.158792662237929455 -0.0629604697316840656)
(0.399696923542766258 -0.172926312802481663 -0.0542458807060136119)
(0.394139657658689135 -0.156407651764815692 -0.0540495964407966545)
(0.406300369760511149 -0.159722101267277455 -0.0551271450707470634)
(0.498840321758644845 -0.158486668810499998 -0.0815215180218567814)
(0.465638009703305378 -0.174371156903623536 -0.0695547149276091597)
(0.457411663053100881 -0.156846061151573457 -0.0694055056251683539)
(0.474005380675969479 -0.161475613349088248 -0.0707754251176195559)
(0.564459163399701036 -0.155200832998879434 -0.107116302171230346)
(0.532175520289463799 -0.172759727057294893 -0.0904779119847870239)
(0.5200300709832959 -0.154218005610192888 -0.0904546204726657532)
(0.542973326373167087 -0.160743480474551947 -0.0921231900382830787)
(0.628679880123586998 -0.147473781265315407 -0.142630236018508466)
(0.598724954190933301 -0.16784377897645078 -0.119544760055573851)
(0.581044771773058022 -0.148360971105346462 -0.11951277240396356)
(0.612747922537818179 -0.157252070553879825 -0.121739738680002985)
(0.687381952314215283 -0.132598265450277447 -0.19315644407968377)
(0.662960741984451873 -0.156388997832959675 -0.160047621445931737)
(0.637487866588998919 -0.13639872898473665 -0.159555824710203215)
(0.682555368868449697 -0.148327924711971759 -0.163019719345264213)
(0.733368072105885727 -0.109494554760709725 -0.264405566672330727)
(0.71919713018861664 -0.135538744886300438 -0.218795935124045798)
(0.683604696142996238 -0.115357599018090562 -0.216361881145754359)
(0.746322541738902334 -0.131397840115174913 -0.223706221308259429)
(0.756576942903151917 -0.0798540245210889871 -0.372090470052501565)
(0.760377793055010187 -0.105349455071930137 -0.300201884601165148)
(0.708644061828542782 -0.0858355531175069436 -0.294038432781631776)
(0.805650904596002082 -0.106989987062609065 -0.308693859641890278)
(0.725931208280551354 -0.0530554410510656743 -0.529325783652605741)
(0.765667023714699746 -0.0679120281414886257 -0.430344918631995033)
(0.701254069203741004 -0.051084412649148675 -0.410795868853179258)
(0.830860486165523771 -0.0770067470476505089 -0.454224702863816887)
(0.592117462943954176 0.0694421268389936175 -0.930633455596056924)
(0.738654605599816105 -0.0377769875302580577 -0.611820320299075848)
(0.639406924759007733 -0.0201020874016844056 -0.55318967413226372)
(0.90564408844252986 -0.0699668560869434047 -0.656747652081165367)
(0.401876326924564153 0.20771072532501314 -1.22619014742662835)
(0.396722089885234996 0.209997928197075051 -0.946492255030247032)
(0.73320192814220253 0.106328587832282426 -1.37462706322464601)
(0.0599673014657211081 -0.174880795681910867 -0.0216313765685307441)
(0.0299311821269526851 -0.179329527131358524 -0.0206006972360191221)
(0.0297843728598864953 -0.165788765463860649 -0.0204228288081252755)
(0.0302827839945197484 -0.166418556966315606 -0.0209118215323047495)
(0.119848319539500772 -0.183452301753267627 -0.0236340455435795974)
(0.0895503483074721052 -0.197020482331413171 -0.0222090597220209428)
(0.0890226329671446881 -0.183220098461134129 -0.0221871833596092513)
(0.0905503631600041436 -0.18420032993378177 -0.0225735318873836639)
(0.180004257293261943 -0.182406657122561044 -0.0266563468443734609)
(0.149239131942326408 -0.196360627891095235 -0.0243688045883746207)
(0.148281863785185208 -0.182510531006688598 -0.0246065770863268495)
(0.151034139878500534 -0.183915331459605341 -0.024641669703406522)
(0.240985258380788714 -0.182094036675602949 -0.0314214124366168288)
(0.209447118661561626 -0.195063002645774058 -0.0280726889807632433)
(0.208044045083118856 -0.180857911518788939 -0.0283611818761135837)
(0.212342161693145487 -0.182664744300498644 -0.0283686572365511244)
(0.303246333403962287 -0.183783311372276575 -0.0383306115305714554)
(0.270840892171406888 -0.196355901772129804 -0.0337389974387251879)
(0.268681067894867454 -0.181425152421356706 -0.0338300262132461352)
(0.274871341073323727 -0.183605261807663761 -0.0341745376311612462)
(0.367112451810665041 -0.186405411628564166 -0.0478684511588145373)
(0.333947431091128011 -0.19938508306708902 -0.0416659277042297493)
(0.330591494281824161 -0.183498670309164169 -0.0415424333621984346)
(0.339125542872109831 -0.18624991242870495 -0.0423256745010898716)
(0.432670999058913597 -0.188650338245861998 -0.06084012590193872)
(0.398768977755928622 -0.202653024965788825 -0.0524077291534866957)
(0.393606941233744123 -0.1856149156915331 -0.0521932849167481977)
(0.405235857013411194 -0.189333751594580491 -0.0533724362660842541)
(0.499651529412878437 -0.188765566985212269 -0.0785111088905394022)
(0.465661652996922859 -0.204856532768210614 -0.0669318369851441414)
(0.457857966020025819 -0.186559030500043882 -0.0668488621842692754)
(0.473688581231831995 -0.191794466576315992 -0.0682813225354674674)
(0.567283923766857212 -0.185477835026766819 -0.10290636986913046)
(0.533888767738315506 -0.203598897505054277 -0.0867462805021761291)
(0.522092318464631666 -0.184007061302609465 -0.0869512840903522294)
(0.543986828902144448 -0.191449225719284605 -0.0885119039054233364)
(0.634441122538836444 -0.176740614467474882 -0.136962145482997205)
(0.603141294663855909 -0.19858065342056147 -0.114416091573563888)
(0.585707273404199591 -0.177850611759442917 -0.114801322179481094)
(0.616095016158477615 -0.188047955963562663 -0.116579781111396913)
(0.696606556130230037 -0.159102873066533257 -0.185687112490293932)
(0.670730778950605844 -0.185367481436089304 -0.153325418630704452)
(0.645460578657238382 -0.163920005894637649 -0.153367628203670392)
(0.688923462986789525 -0.177657457614968428 -0.15606645054669574)
(0.747111440181757458 -0.130698448178216242 -0.254592253052880579)
(0.731325064991666385 -0.161134197164266829 -0.209868858767835537)
(0.695533919902281195 -0.138819966994142008 -0.208177662714437106)
(0.756219552712745213 -0.157310484908611936 -0.214475346880654893)
(0.774309723226595747 -0.0920983090867010662 -0.358456333180658615)
(0.778862495712104197 -0.124166505237716163 -0.287999971362549068)