/*--------------------------------*- C++ -*----------------------------------*\
| =========                 |                                                 |
| \\      /  F ield         | OpenFOAM: The Open Source CFD Toolbox           |
|  \\    /   O peration     | Version:  2206                                  |
|   \\  /    A nd           | Website:  www.openfoam.com                      |
|    \\/     M anipulation  |                                                 |
\*---------------------------------------------------------------------------*/
FoamFile
{
    version     2.0;
    format      ascii;
    arch        "LSB;label=32;scalar=64";
    class       volScalarField;
    location    "0.480000000000000204";
    object      p;
}
// * * * * * * * * * * * * * * * * * * * * * * * * * * * * * * * * * * * * * //

dimensions      [1 -1 -2 0 0 0 0];

internalField   nonuniform List<scalar> 
29184
(
1746.12214945374581
1746.8847807543932
1744.14072411093139
1738.58208599300929
1732.08549308754914
1724.74697237854321
1717.39845251288239
1711.27663864570559
1707.46706873375297
1706.45903235645437
1709.00986159396507
1713.54500323447496
1719.34701609525769
1714.03902996861825
1701.47987094356358
1570.34740869847315
1622.921136442837
1623.26399856313992
1620.44183026481232
1614.8963337035982
1608.18152294953416
1600.79612400508768
1593.47514210994814
1587.3159848687169
1583.37551519254976
1582.36939560835253
1584.91585269056282
1590.03910598440416
1596.03732628345006
1592.83886970615185
1578.80005991506619
1457.49447565548348
1498.95500388205983
1498.67246917956049
1495.64431559023978
1490.07105344722527
1483.23312967943457
1475.80038009244254
1468.42949315666192
1462.12603724952987
1457.98980413884965
1456.92280769214562
1459.60824907405754
1465.42072248219529
1472.46370301014758
1471.77390737999212
1459.93272165125791
1345.14590615264706
1374.09753219648678
1373.21592809753042
1369.89681044533086
1364.25062785695127
1357.28179415825707
1349.70208910132919
1342.16246956244299
1335.61416671344728
1331.19170460772125
1329.98084043073914
1332.84524998876714
1339.51144847665046
1348.2455959502222
1350.8017051448378
1342.76184333966535
1236.11889167066147
1248.31352275020436
1246.91163126047468
1243.21447038361794
1237.41441774646387
1230.27956064721616
1222.48728421308897
1214.68642434245385
1207.7816761442441
1202.94470479087295
1201.47554736748089
1204.51836065055841
1212.21839023826942
1223.2378282914101
1229.94339310590431
1227.25021951541066
1131.46720064523379
1121.6058227104204
1119.73069733417969
1115.60215748617838
1109.58061881050185
1102.23484854591379
1094.16572256357199
1086.0000833702527
1078.59628676233706
1073.16895528400119
1071.27694228991641
1074.43065628194449
1083.29804900388126
1097.15975306034761
1109.07013111370679
1113.21158478474717
1031.06725975009999
994.005080940065
991.6721771408736
987.066180829164068
980.760174904322298
973.150123406621105
964.74238870104557
956.107474564851714
948.035726391143726
941.780783418959345
939.224955928407553
942.328784692828322
952.423033974848295
969.671756050646991
987.923586668453254
1000.43168816996535
933.95321971786268
865.555571874405246
862.758736916640942
857.629269362819628
850.986079134348643
843.060573043838758
834.25903296014485
825.047288872849208
816.095810319853626
808.680346771292761
805.105572881655348
807.857401761256142
819.123582684669145
840.295103540681112
866.109124515694702
888.55187985933685
839.248944545057952
736.346253424993847
733.035774360592995
727.343714317504691
720.324717589987358
712.039016973264552
702.795375584242038
692.89081908184653
682.783513469207264
673.740031907846742
668.64886114083356
670.525872649343682
682.688362219898409
708.34018536410349
743.220027354344893
777.275685540427958
745.37197288519053
606.621296194531169
602.659238025685227
596.382134801964639
588.965404483236625
580.285643193684336
570.552601959717322
559.814534672552782
548.192270762195676
536.919694749892642
529.726238811666235
529.990961988882873
542.384959198710703
572.85179474818483
618.605325571907088
666.640658735447005
651.647147077258751
476.82513917855249
472.079174525606504
465.274812087167675
457.454756435850413
448.336243989856939
438.066566240468319
426.318410971040976
412.699018076443735
398.464179773728574
388.472562213381252
386.108189807774124
397.921239639734949
433.123757815399813
491.635341482161948
556.309464194732982
559.683977702205766
347.626855930682495
342.137074145181941
335.035713836588457
326.772353261258331
317.106042800994146
306.207362712590793
293.22090411309955
276.841120638648135
258.465220312859174
244.252877882294797
236.699642566153216
246.548424954236907
288.636553256045318
362.385355548438383
445.252395962330183
467.562786553203296
220.655171182816957
214.294426564666082
207.2475658467215
198.428447363927262
188.124342131363164
176.430509167370701
162.103301795064453
143.966102149821381
124.068275894043609
107.242877018620902
94.3475348326860512
96.5652601174053871
140.004323058688897
231.996921722843126
333.171669290584305
373.561465954179084
106.225854339261332
100.870035910083288
95.9640181736917839
89.1526060593589591
81.1565677254736784
72.2395651278262676
60.6300282986049979
47.2053677260320228
35.1416442319439284
24.6833872393317506
16.9824266063885716
15.304421803909861
29.7248435263970805
105.32696175644196
220.411389044209045
281.243798561657741
35.7565950101404155
33.4745142860107876
31.7684311781364954
28.4294938062822098
24.6494717019493805
20.956334761333494
15.775684660288448
10.5659496522440008
7.20092299562988103
4.48494768453527115
3.76275971224168693
3.99944655087214684
6.37933194896770317
28.5704576748792078
113.596022283131788
194.060397622479286
12.9603939366266019
12.1011238959559506
11.5980040038532763
9.81924104279781318
8.0178024920119384
6.52017539152430459
5.03565191099015408
3.39030909254466195
2.26160923044237805
1.95065631450565036
2.39799947637731492
2.92939024848114116
4.21857661205529055
6.70658637852162087
33.7548412740029562
126.18286489942011
1747.19426731941235
1748.06372949871343
1745.57697287375163
1740.48690937938977
1734.69274883464777
1728.37134748259177
1722.46964843574642
1718.36307336835057
1717.26739590160628
1720.0179798744964
1727.52338359532155
1739.55642139540259
1755.20188435999557
1769.53868303015315
1777.71483609626466
1758.55944519549553
1623.9921245162991
1624.44695945067019
1621.88846090861784
1616.81480506192406
1610.81637118781669
1604.46120523196032
1598.58946516951755
1594.43829594644762
1593.2318529016743
1595.98492692774835
1603.59719242501819
1616.07385573436045
1632.17324015232998
1647.82851957411958
1655.47747232342044
1641.86866313534028
1500.02643225769498
1499.86464783893621
1497.11283882337784
1492.02496304504893
1485.92474415010747
1479.53921023590169
1473.62357121479408
1469.33449305069485
1467.96066713969685
1470.68989196613052
1478.51113193673905
1491.63828022843904
1508.7665204416021
1526.2651338796386
1535.47242326314699
1524.64799999618549
1375.17364110780863
1374.42024700748561
1371.39612308819687
1366.25720233338802
1360.05515894830432
1353.54693644045437
1347.47500480129338
1342.95515958814576
1341.33347211148248
1343.97728892320924
1352.05793602185759
1366.04804306791448
1384.7686182292623
1404.7889294004558
1416.79461133222867
1408.03140560647103
1249.39898446906727
1248.12766962866044
1244.75170272329433
1239.49324152804934
1233.16640771588709
1226.47571354497813
1220.15540597213635
1215.29709552363215
1213.31171582438719
1215.78066294798782
1224.14523298184031
1239.21632962032868
1260.08859269373397
1283.4367396577245
1299.34630227362391
1293.76912174157951
1122.69683903562964
1120.95642781763399
1117.18421806444553
1111.75405256181875
1105.27186398698086
1098.33605559265379
1091.65737360628259
1086.31860693834551
1083.80925293258611
1085.96730327595469
1094.58569791557784
1110.91703501454867
1134.49873377153699
1162.11049322838608
1183.15846682473125
1182.80418924292576
995.083102748222018
992.897362690806517
988.700447096556672
983.054342704551345
976.378011882129272
969.128745956325361
961.970108242436595
955.9793199330486
952.730973454295281
954.373504152280361
963.136329392827633
980.849343541399662
1007.7131554463457
1040.63966302904623
1068.1382969432525
1074.32126804793415
866.585430383030598
863.953265334379921
859.321227846167289
853.430316040488378
846.520871456948498
838.883086672322406
831.107549497804484
824.254243386578764
819.97154526703207
820.787206722304745
829.458890348656382
848.582349199170267
879.30984411292593
918.720064009243629
954.104914323830485
967.874606357056905
737.274711389966797
734.145401715125445
729.085473933560024
722.942745131161701
715.768156159884484
707.660562699927141
699.114483971365189
691.143739197607829
685.42477304668023
684.944337940226433
693.065805984213284
713.459040122404303
748.678905099341137
796.010576304550568
840.888430959462539
862.878517204539548
607.362174012934247
603.622016354210473
598.139776984968648
591.755476529001953
584.299383446992351
575.63751089604466
566.147554920915354
556.763447303102112
549.104150532998119
546.713502991367932
553.521400206702992
574.645330488571972
614.958340292936782
672.07875590287108
728.300812039962921
758.746281062130493
477.290450836874697
472.850522071607202
466.999268899573053
460.389300084423439
452.640044988041154
443.337883450193431
432.718511427003023
421.573962427919241
411.373092082376843
406.302015979884573
410.791724089480567
431.78917364646918
477.249786746517429
546.322038814758344
616.042354419247886
655.688859573595892
347.754336370164992
342.653956733558516
336.680396784026925
329.865366099963467
321.777952739487773
311.710610345524628
299.759166904101448
286.367893745301672
272.613856964145498
263.244990004685405
263.269578735098548
283.872368548635905
335.961453218644237
418.412211741858528
503.697805887402865
554.158359666453862
220.28937405363763
214.492622232193298
208.652367319021096
201.728435803030379
193.318269045515308
182.393213566356735
168.991876649037295
153.687840330948575
137.493021901465227
123.93323451726701
116.562906566007314
131.248330529367422
189.963453456128946
290.409620662387624
391.204564800912294
453.438911976899362
105.837568097555277
101.105889362786911
96.9381632695792632
91.6001274051545806
85.1560505786687827
76.53304607288635
65.9576888546090458
53.5733870632260505
42.2960358397384653
31.9696038422520132
23.5998181872835744
25.1745505171745663
57.4331870556922013
160.340397078944761
278.866752872565485
354.337642024286652
36.1824670797768135
34.0406520717187391
32.2899518625655446
29.5014887599956523
26.4063537931664882
22.4129465918788355
18.0649239340843053
12.6518989270768714
8.72482175269074389
5.42857418820646132
3.74662765499315853
4.25715334370321941
9.83613601129850679
56.2830704703303581
168.534347542110254
259.734418751776957
13.6050974002408509
12.6275186800750845
11.9425587362752736
10.4745638102367593
8.95629957241423824
7.15652606370461797
5.63902261401418059
4.03981690072581046
2.66557852462099731
1.97211882590087839
2.4950431254081149
3.10088373057615385
4.96961841080202049
12.7930294387347203
77.3393227098088119
176.661692380490649
1748.08455126249987
1749.04008830314706
1746.82283406986221
1742.21110189601154
1737.09927995356679
1731.7352126036003
1727.1686823223115
1724.88341671397961
1726.17286237464145
1732.10238115200241
1743.70084879634305
1761.18166743794472
1783.56925669762472
1808.30153916745894
1830.26304571479886
1846.8081980573877
1624.85782767246383
1625.40719423557857
1623.13245017519944
1618.54591230199117
1613.24390290354086
1607.85758650517346
1603.32420569708529
1600.99190945370606
1602.19686005004542
1608.14813681218493
1619.89072501847068
1637.76682821145118
1660.69485721997557
1686.44881728665018
1708.67023925102808
1729.97042332142814
1500.84756188131223
1500.79810302087526
1498.35815231929723
1493.77933177139857
1488.39577968547133
1482.99437585474652
1478.42690047851374
1475.96817366377309
1477.03629021415213
1482.99804225498156
1494.9916731974447
1513.50497752047249
1537.43705091471293
1564.69484485202429
1588.23468690292884
1611.2524179178904
1375.93777243180398
1375.32470780977837
1372.64972371926592
1368.04865521944953
1362.58814369239735
1357.08674896104412
1352.38220509541543
1349.71280521757035
1350.56929180784823
1356.49674702579568
1368.81094941422293
1388.2003612566798
1413.64249808681961
1443.01192631257504
1468.57797705935445
1491.50171175719447
1250.10646090483397
1249.01007627608942
1246.02636362372732
1241.34001480309394
1235.78514891657778
1230.13028934387603
1225.20173064612709
1222.21776037621294
1222.75326118781959
1228.5761464242596
1241.26071085455715
1261.76742712969235
1289.244219721626
1321.43940459005762
1349.82909855798152
1373.37039824279555
1123.35801376750214
1121.83589705968416
1118.49757307757454
1113.67612596111576
1108.00109666011031
1102.1338142078107
1096.87081833805723
1093.42761472149186
1093.48742679515885
1099.09383293661176
1112.15520704729897
1133.99097782558238
1164.04277270088778
1199.90220270200598
1232.10389641972165
1258.5496532961397
995.716890944018701
993.796515066278403
990.068123815770832
985.068835064367477
979.23827676135727
973.088014128015288
967.357638414090502
963.270707224395665
962.646040528523031
967.867092447399386
981.249378007066753
1004.58045014280731
1037.778431327622
1078.26715637813595
1115.40160729391005
1145.29318460655577
867.217397987811751
864.885957395053651
860.748046513146619
855.54564306442478
849.521148208091063
842.999323339042462
836.635646315310851
831.670335935715002
830.081491993898339
834.66715136735877
848.218793692749045
873.131646010955137
910.063591369212304
956.32462563291665
999.657168603324862
1033.47593736216049
737.8956618408547
735.090334609384172
730.558841614916901
725.153722517233291
718.898888000115676
711.895793869106683
704.693955859133439
698.557525353432311
695.633431211546167
699.21611121011415
712.619391426033644
739.076942999011862
780.3760251952001
833.825041332861929
884.809583074905731
923.086943649951763
607.877980173104788
604.474651450973852
599.629034463225025
594.036806356331226
587.514184575160925
579.907021294485048
571.631069821546362
563.972500458499098
559.24164144497081
561.32345254167808
573.979936568620587
601.618876404257435
648.337188815571153
710.502940553376675
770.825346603530079
814.014560590693463
477.573187564751152
473.416093750414575
468.462979609020522
462.704688615886425
455.860528623847586
447.532410008212537
437.928947308152601
428.328347679045009
421.212428440897156
421.170010975903324
432.240639892790114
460.118959390709733
512.436888995276149
585.912099803863612
657.612533261173667
706.527042032321106
347.729225471758127
342.797759758027041
338.068066392699848
332.180669973141448
324.972972995096598
315.796665788822565
304.489087295585477
292.209281967661127
281.715600037137392
278.462992393893046
286.513998648708821
314.166906329805443
372.87101588687392
459.561651072140876
545.045408574400426
601.085273660262146
219.698776834879482
214.028822811702867
209.884821385385521
203.883565714760607
196.420513026726667
186.282907330934677
172.725777056780998
157.806855051208913
144.391927438975927
137.123425130982469
138.548929343781765
162.247789823496305
229.121720404894177
333.307357609214478
432.899656118107487
497.703614608728458
105.108931207609203
100.611163095994925
97.9582980946347561
93.1308619259179977
87.2978705229731986
79.2594243069943332
68.1314877518196909
55.297315711487272
45.1194811185481512
38.2165424001274232
33.7856817522005031
38.5839701460591868
87.8656667695552187
204.156534115398699
321.306773289018111
395.86074229377914
36.0579977835935779
33.9791823155317729
32.9688199505766875
30.3024320348857259
27.4338807873746191
23.7118197996805407
19.1459339630163186
13.1898815104090659
9.46030211574465341
6.75227673457948185
5.24578944896203581
4.24739545938692231
16.5369943839422149
88.465034542707599
212.122388858500244
296.924297025083206
13.7399510231612396
12.7277292876008232
12.333909609098157
10.9706215774284459
9.61829693116401074
7.93989787353426379
6.25149779617275669
4.27932756583587803
3.16724371671892868
2.54861207131055068
3.00581673754790479
2.97431176097174443
4.49863251086831895
25.339124626690932
117.093344052676912
205.968809046331671
1748.87191419783494
1749.93392776930341
1747.96515934695617
1743.76977462376749
1739.2432784666089
1734.70160577309866
1731.27404100747117
1730.525075260741
1733.80109305419978
1742.28913789299099
1756.99396582326608
1778.11982672915428
1804.48754885158564
1833.70111135512184
1861.0124186273847
1881.8070715982326
1625.64164334292059
1626.30122486822506
1624.27896314810937
1620.10971607925808
1615.40181602297275
1610.84262671080978
1607.44766604485108
1606.65112912095742
1609.86476006573912
1618.38880079909177
1633.25807695841218
1654.78611923527478
1681.73705181067157
1711.98146543824214
1739.13009506001117
1764.49712070527971
1501.62445811000998
1501.68889857510317
1499.5100914169775
1495.35934411307744
1490.58342745761456
1486.01532789923317
1482.5869715319875
1481.67165441118186
1484.77807937818102
1493.34748782953034
1508.50492849858347
1530.68274433813826
1558.61526309388046
1590.23011547375609
1618.30952736669315
1645.22989756790867
1376.70210973809185
1376.20285857133058
1373.80150964748532
1369.64812959334836
1364.81419343120251
1360.15566757588931
1356.59348570920974
1355.48100967545497
1358.4167539314501
1367.01072951349443
1382.55003141512407
1405.63219584871149
1435.02900624112635
1468.55463172616442
1498.2480354715492
1525.41036810514788
1250.84779233258405
1249.85916306120589
1247.16718427680871
1242.95890067338905
1238.05587029618914
1233.25398531024712
1229.47021605241389
1228.06235354145201
1230.73339187694933
1239.30626388945302
1255.30104975641189
1279.54350275971569
1310.90572399578286
1346.99080145221023
1379.02485175184188
1407.08403439215044
1124.06518811025012
1122.62977476740161
1119.61034081924436
1115.30717053165654
1110.31364558778637
1105.30859434349145
1101.19334390897393
1099.35569530417206
1101.62825014207806
1110.09495333034988
1126.5788889669343
1152.21464064914494
1186.06823586630117
1225.46731425300459
1260.70261066820285
1290.75867266573141
996.378300281849988
994.503154150498858
991.127315975844454
986.694045758407242
981.579355346494481
976.302847955359994
971.729687722199515
969.295290394357949
970.986192506530529
979.204067436678201
996.149466427942116
1023.37288865291384
1060.29162605503234
1103.89597019763187
1143.3205800437006
1175.72880648153318
867.817911176490043
865.476099126232157
861.718791185308191
857.135514739424025
851.870948558095392
846.244560213070031
841.063916088083829
837.822700028055351
838.679203899862955
846.421031930443519
863.704887446349744
892.638051883693265
933.25360971067937
982.132882716733093
1026.87229678963513
1062.0662922862266
738.425327098394973
735.545446600709965
731.398445727477338
726.675735884783307
721.246296135350121
715.18238244600775
709.212642760943709
704.892992997364672
704.563061326276966
711.480835186441027
728.824254484984522
759.47605981434026
804.502002759721336
860.006412649796403
911.341871129768379
949.920298308470365
608.349244592998048
604.781970731061847
600.285287643804622
595.467500431058625
589.873025110281105
583.28118189428892
576.303000757341579
570.553170741805616
568.567204620283519
574.168220459441045
591.024365829108319
623.09777180911874
673.406179270828034
737.34346081649187
796.779493225165879
839.293674837749677
477.99026624552971
473.582390927109373
468.882534428309782
464.029641675172797
458.262406335877586
451.038913669456861
442.788205822329019
435.163237614659693
430.960600354521148
434.636549741212093
450.214697464667552
482.795276430741751
539.162380428920414
613.869142479612037
683.257324551692818
730.231531612566641
348.020459201548647
342.849727055131552
338.222431933148073
333.413918598033888
327.461692669709009
319.447712674259947
309.467268113459568
299.205535257781094
291.863301355790782
292.706940234679905
305.751985549565006
338.190961368513626
401.600299083292612
489.331487101346511
570.835966836572197
623.221443071913882
219.960597946274902
213.896380311256962
209.730336190110847
205.119823581156197
199.096774565081205
190.141488676300014
177.692720662731062
164.230255124866062
153.731926990010152
150.519507886328029
157.150967123313876
187.092868666439472
260.596711676640098
364.961997208532921
459.691437572033237
518.456548454582162
105.190818956625435
100.377485150410848
97.6023417401299866
93.9521524969923121
89.1407872061938633
81.7669948056100111
71.2514215488623677
59.1730022060328338
50.3351193347502885
45.6112258923529907
43.4350105907584521
53.1334673825953132
118.251786693933127
239.341978213712309
349.783282186917631
415.705517347938439
35.7289207486957139
33.7074138659245932
32.7441406867396836
30.553851009798052
27.8393906505355631
24.0874684934480001
19.7469251906163095
14.4418100781309136
11.0804395957734414
8.71346007975387238
7.14252181131622876
5.66001243257839803
28.0764790605889516
121.70601418577462
242.116163294824446
315.473074496302615
13.312119229359368
12.4814273645953762
12.1964386869037469
10.9419558113472561
9.50012953839014074
7.76794823064176398
6.31661691075872511
4.72399679818010299
3.93085655979647441
3.27035441280975547
3.55597558534910974
2.60753764647131092
4.95969855005878912
42.6532088445408135
144.462870874672035
221.334411531271144
1749.50381757279661
1750.64416440053469
1748.89245439889737
1745.04798912939555
1740.99690027488941
1737.1193831302719
1734.6162848452484
1735.0927858173095
1739.92304246500521
1750.3170512531849
1767.17628981144753
1790.60649140991268
1819.11892257509135
1850.33722922170455
1879.00858959034872
1900.4846090414037
1626.24023296934638
1626.98849672923393
1625.19861051272028
1621.39016988846811
1617.1689551869722
1613.2778649022423
1610.80535611142614
1611.24142444070435
1616.03466752067038
1626.49377777037557
1643.56652569340895
1667.42283902317354
1696.57090828532546
1728.66028799767855
1757.1606881730936
1783.34856921464529
1502.15713999538957
1502.34206258536597
1500.42292989451016
1496.64925991902328
1492.36782856431114
1488.46674460560757
1485.95983710151768
1486.28980794952031
1491.00681853108381
1501.54974728779803
1518.9544375275641
1543.48065866790853
1573.59862229457258
1606.99537301879582
1636.34754311420693
1664.44661556998426
1377.14707250737797
1376.82154837929056
1374.71234228012145
1370.95225143002563
1366.61763189389126
1362.62453336069825
1359.98612170522438
1360.13805126944635
1364.72657970614455
1375.35002361836473
1393.19378202433882
1418.65484039376679
1450.2082197610996
1485.377098854834
1516.286967205064
1545.36687217930785
1251.20787133895192
1250.45817463618641
1248.0847068342805
1244.28121440649375
1239.87865307472907
1235.73887725087366
1232.88313318713381
1232.76573587186704
1237.14504186812792
1247.82068198188836
1266.19222212187697
1292.85595812289966
1326.32845785465065
1363.90082903287748
1396.99982015191517
1427.11733274064522
1124.37487454422899
1123.22687578942805
1120.54091776588325
1116.64746471789749
1112.15485265836992
1107.81025634066646
1104.63133423294971
1104.11862092704223
1108.16956250973772
1118.82937750684414
1137.78002440111914
1165.90107793299467
1201.80237680442724
1242.50670893170764
1278.5078426182522
1310.17931229802116
996.685091272147247
995.108398459741352
992.068819515121845
988.050305653707369
983.447412307997183
978.838643268488113
975.217488694977646
974.149479883085633
977.70269266047228
988.217920035773204
1007.73682846475572
1037.54485854379163
1076.55728492881485
1121.13398785118625
1160.87618154750271
1194.52483005555223
868.163899277474229
866.109606409671528
862.664712661069075
858.511753090148659
853.797070575208863
848.866454525345944
844.667351669802997
842.836968778418623
845.649039575169581
855.799676836008416
875.776421143242828
907.425929336328181
950.086953741286266
999.693756483274569
1044.18133278612549
1080.29056275225685
738.863141917294342
736.261414794586244
732.349430458766165
728.10204079656387
723.308801491180702
718.006501231375069
713.05144156706956
710.186447919849343
711.901764237442649
721.329706287721137
741.498716119221399
775.060706537320812
822.128131551145998
878.071113610637894
928.489205570122976
967.585322150452384
608.961344399371228
605.647462308820195
601.253061717641003
597.033362476834782
592.245779690040536
586.50360359639717
580.516943155619629
576.254861155964363
576.38037678841556
584.552225214676128
604.381417659602903
639.706872419046704
692.148222885955192
756.144738862209351
813.897304292992203
856.469458325885398
478.850477005627226
474.658612948272548
469.882786962247792
465.863665487781191
461.173213828455573
454.772503437326577
447.457930772837244
441.297251634843406
439.249390121801298
445.522989512364575
464.179667125349624
500.57727992904961
559.449539411267779
633.755393395199917
700.541754477365203
746.993954182603147
349.124816002631405
344.046500816700245
339.252689049614446
335.599781609209913
330.955917559525005
323.654316308363832
314.436873385758417
305.673199674607304
300.624048943794151
304.123196861558426
320.363291645246363
357.218262336365115
423.746560967189225
510.730628133467008
588.52172134874445
639.429102982762515
221.426572544155988
215.098395995374403
210.778514836040358
207.876034657786931
203.326767534915007
194.681481210005359
182.656083826467466
170.480745115947457
162.2395428924915
161.321346285802747
171.687671706772335
207.965390410826785
285.258519277077312
387.879279652161586
477.974618196114761
534.022452164582774
106.192501167317687
101.200281341779828
98.4813483862005796
96.1339141704572739
92.4761717095068434
84.8129717994497696
74.2665180830248346
63.2510042253294387
55.5244687632683736
51.359404214165238
51.3467633113007196
69.5384049500187302
144.553350726308281
265.32427682488742
368.822281826489643
430.647527192874122
35.5830708637448652
33.9480876428626743
33.2836858045563417
31.1453829942390144
28.6960284482726138
24.4459080522935324
19.9794773520367812
15.6761220143503692
12.5370609024031978
10.0451047719121789
7.22008114566922643
8.77534069963627417
41.2435478207586357
148.11415698871815
261.703488812648402
329.221645876677485
12.8394455698044254
12.4338831443109683
12.438168434073134
10.7836823580394281
9.20446832803931159
7.26355335772274202
5.90255820986131141
4.79819809300036582
4.11899998416154034
3.32127808483478759
2.44019766421943274
2.2181273956590708
8.1584356279876431
59.0421653193161546
160.196224247631108
233.059600414083434
1750.13432730631757
1751.35259341039659
1749.74811997285474
1746.12401033563378
1742.39226896465334
1738.99992439777566
1737.19313942380495
1738.58301090512578
1744.5554989746247
1756.28890272838908
1774.60131419614868
1799.44921950112757
1829.1816701751427
1860.97392196581086
1889.26669245843959
1908.83355647920348
1626.88638224953388
1627.71854508775323
1626.05598335715808
1622.45879112480657
1618.56601183633666
1615.17034839664484
1613.39987108097398
1614.76148183786404
1620.71222089807361
1632.53196899352929
1651.07882189932434
1676.36120476335145
1706.66042534273333
1739.25365541313136
1767.45714978309547
1791.9014066897505
1502.83408738282264
1503.09700164811557
1501.27363181298574
1497.70047044390321
1493.75658812794427
1490.36282924194893
1488.56960278587917
1489.84286308587343
1495.73965147057629
1507.66880821103314
1526.5728286099727
1552.53592564738392
1583.77943089941391
1617.69320826214062
1646.76698624417986
1672.91337326413213
1377.85923311919419
1377.57935650875515
1375.52990008659913
1371.96494721083673
1367.98512730212997
1364.52065040824164
1362.6162993351229
1363.73636265752293
1369.53496409883383
1381.57864585943298
1400.95588585854875
1427.87258377750913
1460.52807009866478
1496.13087420130978
1526.70731419361528
1553.88097898241153
1251.92157676219949
1251.16336910389759
1248.82570764359525
1245.23086355242276
1241.2147058457158
1237.63369497152689
1235.53755553400651
1236.41813086155548
1242.04502728206921
1254.18446501097924
1274.13553036360986
1302.28836641412045
1336.85241996158652
1374.71622592257336
1407.42399094063194
1435.8123067953793
1125.00453176500105
1123.80451614996127
1121.15474613601987
1117.5129751085824
1113.45435933420913
1109.70346312499169
1107.30953398677843
1107.82618187331195
1113.16832563021626
1125.3472256785044
1145.940546241633
1175.60614110153301
1212.60105606171419
1253.45312254581177
1288.92460819134112
1318.83668919640263
997.11984624803199
995.483600173865625
992.512573956768051
988.822390677403746
984.712236648613953
980.727585696089136
977.90572851351601
977.894912234525918
982.787885992093834
994.893544298905454
1016.14393234766044
1047.58214346165641
1087.60304587654355
1132.28090453670075
1171.2749048277019
1203.05134412687767
868.299242205906125
866.197807717478781
862.908884905516629
859.194885964475475
855.032264773262
850.738308122809826
847.324928292214395
846.572229080826219
850.780502402328466
862.618277085839964
884.45643681223271
917.883983312207988
961.593307900807076
1011.13247919005812
1054.57655448973082
1088.71224583491312
738.583751357054325
735.949414416715854
732.375961254792173
728.713234726113797
724.512798471497945
719.813353516753523
715.59272172872943
713.815595191419561
717.00484888818778
728.260670384645209
750.490634346864454
786.070691375560955
834.25622737435242
889.924030987180913
938.929043449588562
975.914330187417249
608.129980621794175
604.8597046246216
601.073994167636101
597.604093555762574
593.386844974830638
588.131185282716388
582.810951784783128
579.643078199471347
581.353507294960082
591.550174873508695
613.744316886153001
651.491644299395375
705.158050365286499
768.582546813975341
824.436541801683916
864.67772767593101
477.40674712202599
473.42066353684595
469.554608427666381
466.438314947512936
462.182031695839896
456.129639401535997
449.338990166318126
444.342578754958367
444.012769736946666
452.519802679900295
473.929456959696154
513.402766184003667
573.706453146410013
647.042812002676101
711.296552834744944
754.905103154088692
347.274196100157269
342.557897183076193
338.845726285251658
336.193053425774906
331.78075118581387
324.56863918433055