/*--------------------------------*- C++ -*----------------------------------*\
| =========                 |                                                 |
| \\      /  F ield         | OpenFOAM: The Open Source CFD Toolbox           |
|  \\    /   O peration     | Version:  2206                                  |
|   \\  /    A nd           | Website:  www.openfoam.com                      |
|    \\/     M anipulation  |                                                 |
\*---------------------------------------------------------------------------*/
FoamFile
{
    version     2.0;
    format      ascii;
    arch        "LSB;label=32;scalar=64";
    class       volScalarField;
    location    "0.480000000000000204";
    object      rAU;
}
// * * * * * * * * * * * * * * * * * * * * * * * * * * * * * * * * * * * * * //

dimensions      [-1 3 1 0 0 0 0];

internalField   nonuniform List<scalar> 
29184
(
2.78479220314724629e-05
2.61271742059237909e-05
2.45466684755873522e-05
2.31402246817056462e-05
2.19727780032677859e-05
2.09728569296690412e-05
2.00823835583050768e-05
1.92526919683442689e-05
1.85025077608658884e-05
1.77630676176837597e-05
1.71111644559960075e-05
1.63556573965393846e-05
1.57073718953760436e-05
1.47441067091266811e-05
1.40656945789664641e-05
1.32693908154939005e-05
2.66254637997107275e-05
2.46189679441797275e-05
2.32388274955587085e-05
2.2147870250102693e-05
2.12473818022801586e-05
2.04110790576656958e-05
1.96195302579840633e-05
1.88769616868981861e-05
1.8190563256369118e-05
1.75383356012769427e-05
1.69189049495355035e-05
1.62568658251851971e-05
1.55821796968100249e-05
1.4706833623746807e-05
1.38605572044234107e-05
1.29180794760001564e-05
2.53956008354817231e-05
2.32820046680438666e-05
2.20773240629706097e-05
2.11597084057007537e-05
2.03780406547760582e-05
1.96523874534070597e-05
1.89619916979421833e-05
1.83131799957383313e-05
1.77150512548560949e-05
1.71557209006483172e-05
1.66226698957836722e-05
1.60570378734566518e-05
1.54432209641656873e-05
1.46611873771395162e-05
1.37301901829790901e-05
1.28696812164720915e-05
2.41927730033325759e-05
2.21158690301725516e-05
2.10439301511041952e-05
2.02617547019341202e-05
1.95852799082474792e-05
1.89519082756590927e-05
1.83477301852569231e-05
1.77809976105575231e-05
1.72633877371315803e-05
1.67895997751424759e-05
1.63428745611505163e-05
1.5872612977406582e-05
1.53386269766164151e-05
1.46476824891125256e-05
1.37023589848938203e-05
1.28974417937473463e-05
2.30482062668579405e-05
2.10778187283703831e-05
2.01145238282395645e-05
1.94373658951937758e-05
1.88475865456670312e-05
1.82911017108705455e-05
1.77604761054394014e-05
1.7265610362102062e-05
1.682118524593482e-05
1.64266654135396866e-05
1.60657276405411394e-05
1.56944445313419725e-05
1.52589097831767852e-05
1.46683479223795282e-05
1.37570015525483178e-05
1.30405029975008206e-05
2.1979511175942789e-05
2.0144790497391516e-05
1.92750269738067273e-05
1.86792614440755277e-05
1.81603671387222682e-05
1.76687153952358665e-05
1.72007080836506578e-05
1.67677425096960319e-05
1.63878853002616483e-05
1.60648700982031438e-05
1.57870178062216086e-05
1.55203177955196231e-05
1.52025375506476979e-05
1.47333211404995649e-05
1.38965985137830092e-05
1.31819733397172507e-05
2.09940529437397744e-05
1.93025755840029714e-05
1.85138620024355027e-05
1.7981133647413299e-05
1.75201911984374112e-05
1.70830429595035851e-05
1.66669835059247377e-05
1.6284466601878285e-05
1.59579471390807368e-05
1.56965915508739151e-05
1.54987383152823886e-05
1.53459379732508407e-05
1.51698137864457873e-05
1.48513732112926051e-05
1.41315058879799739e-05
1.3259551179068415e-05
2.00906283690760638e-05
1.85412074468137426e-05
1.78239256042403844e-05
1.73410747566355866e-05
1.69274779258326702e-05
1.65337244442839355e-05
1.61563048753310008e-05
1.58090433971769523e-05
1.55220701181268519e-05
1.53128597161475103e-05
1.5195430146949336e-05
1.5171845137451659e-05
1.51671584034942406e-05
1.50330557681569583e-05
1.44651438931026516e-05
1.32723761086390189e-05
1.92672753299021679e-05
1.78587604924601103e-05
1.72071572847743429e-05
1.67651745217087025e-05
1.63880998289577322e-05
1.60227491657784989e-05
1.5665752395264344e-05
1.5334958737558184e-05
1.50751012506026258e-05
1.49129907279740219e-05
1.48805626734874606e-05
1.50069750954097018e-05
1.5208934032890224e-05
1.50951110295666428e-05
1.47841618149058378e-05
1.30917281020097028e-05
1.85306656233016519e-05
1.72674831129701534e-05
1.66798755616491541e-05
1.6272363566603082e-05
1.59178463287515535e-05
1.55610791258524044e-05
1.52030146994522589e-05
1.4871709727272231e-05
1.46347781576535252e-05
1.45183712416375752e-05
1.45692150156245345e-05
1.48634103567672159e-05
1.53173197291015412e-05
1.48801325904552251e-05
1.473208742153647e-05
1.30053460000301e-05
1.7901732449499073e-05
1.67979797391012003e-05
1.62805393358302451e-05
1.59030171792986128e-05
1.55543972785967493e-05
1.51866564519110791e-05
1.48119700652540861e-05
1.44756263382608307e-05
1.42707285214171485e-05
1.41907247223209256e-05
1.42991068349222512e-05
1.47589380616381785e-05
1.5536943699051783e-05
1.45077781132876362e-05
1.43054107254224443e-05
1.28874230641027242e-05
1.74104077980032932e-05
1.65140723889788086e-05
1.60873137030212999e-05
1.57387247923998757e-05
1.53844188062013214e-05
1.50041758767850738e-05
1.46249320223457595e-05
1.43125732774878939e-05
1.41647644431957715e-05
1.40981324996887293e-05
1.42231213028698544e-05
1.48653345272858374e-05
1.57171215854413123e-05
1.41163412695055528e-05
1.37510821264628765e-05
1.24237232402414685e-05
1.71743041465496359e-05
1.65512440987283464e-05
1.62539356061827094e-05
1.59385828863611724e-05
1.55796709886990896e-05
1.51966760193579511e-05
1.48615719989846737e-05
1.4872603581666021e-05
1.53512095897900383e-05
1.58830005473574341e-05
1.70423627598631611e-05
1.83420048742238119e-05
1.73311945390545912e-05
1.41275815575709163e-05
1.32376302156645229e-05
1.19993580452853417e-05
1.84994199769584736e-05
1.86749572835540867e-05
1.886574789539265e-05
1.90331224390791312e-05
1.91728375658872063e-05
1.95427992108941947e-05
2.05345716545786647e-05
2.33073226390746152e-05
2.91749071379298219e-05
3.6662201436975582e-05
5.05807501563970292e-05
6.67897362353095207e-05
4.24619086050055165e-05
1.72978580422284694e-05
1.31754767867734586e-05
1.17026085062111218e-05
3.01530209846980871e-05
3.33538005040722265e-05
3.54221333492326171e-05
3.79551636091449951e-05
4.13827779481887897e-05
4.68124632032810683e-05
5.83376782906431423e-05
8.03391459043352083e-05
0.000118115294533112936
0.000213752073938877477
0.000464200553034889321
0.001290282292745686
0.000731372438896105755
4.52251602050471533e-05
1.5112969203620667e-05
1.16780165033005054e-05
8.1565408738129642e-05
9.47099685899401098e-05
0.000103848338246857619
0.00012154858410460966
0.000144675465835932823
0.000179823128905751432
0.0002516923931156966
0.000398543458436516568
0.000539911640545861376
0.00101591901800000503
0.00251615958843233413
0.00335385035333209949
0.00116968132451639628
0.000313070263609186274
1.68897369247714632e-05
1.19216797998099564e-05
2.78922224137627543e-05
2.62009176984766752e-05
2.4643776293236061e-05
2.32655835777649272e-05
2.21313365748492412e-05
2.1169821590022625e-05
2.03219794804889588e-05
1.95523840551134648e-05
1.88679971719377455e-05
1.82353346077660596e-05
1.76819194726367642e-05
1.71191896026296916e-05
1.66306983594701079e-05
1.60589044706343625e-05
1.54714183149357418e-05
1.62078679410075165e-05
2.66640751327290423e-05
2.46873514314300884e-05
2.3335528200905797e-05
2.22739992123034832e-05
2.14030268729219902e-05
2.05985704165873689e-05
1.98468868835718646e-05
1.91578760793735256e-05
1.85405903490082294e-05
1.79825047253653552e-05
1.74802700447378109e-05
1.69925503832429577e-05
1.653664843607898e-05
1.60226487951990703e-05
1.54969783292127693e-05
1.55192016688834648e-05
2.54324859618434147e-05
2.33509823048014498e-05
2.21762557466416367e-05
2.12870863630870492e-05
2.05320697688462104e-05
1.98348806481529832e-05
1.91814998953275064e-05
1.85839507547152534e-05
1.80549882423804121e-05
1.75907575513157104e-05
1.71825921184499329e-05
1.67943151544308475e-05
1.64170601047907891e-05
1.59944682194805141e-05
1.54274796638158754e-05
1.52783748793252261e-05
2.423091570601219e-05
2.21864448341951993e-05
2.11453982596467628e-05
2.03911509946172393e-05
1.97379178353555234e-05
1.91283261348667938e-05
1.85571361720358381e-05
1.80385213500612793e-05
1.75890551401157235e-05
1.72115518907266936e-05
1.68959957321292876e-05
1.66103267454568514e-05
1.63278140349116536e-05
1.60057950792426882e-05
1.54469838955183768e-05
1.50581653803052456e-05
2.30874849498526894e-05
2.11461236945953655e-05
2.02158201980361457e-05
1.95679491589467559e-05
1.89978424412373053e-05
1.84589536047121781e-05
1.79555303084185907e-05
1.75040986299103341e-05
1.71254867988401935e-05
1.68287034991237037e-05
1.66059577930771169e-05
1.64303353290334788e-05
1.62622596615750492e-05
1.60566397746115199e-05
1.55469917114106099e-05
1.5071256122130354e-05
2.2015359390776296e-05
2.02034418655067012e-05
1.93712113035439046e-05
1.88082872483010629e-05
1.83043429300259657e-05
1.78215674402137448e-05
1.73727679879378611e-05
1.69771292200158964e-05
1.66603901075186353e-05
1.643825884853021e-05
1.63087749863037656e-05
1.62531943233615521e-05
1.62222202840396578e-05
1.61597119039147441e-05
1.57433980956573656e-05
1.50218418712282549e-05
2.10176320082199272e-05
1.93443196206108209e-05
1.86001025577072114e-05
1.81040499330450829e-05
1.7649819577589375e-05
1.72096685884123464e-05
1.68038539840525865e-05
1.64534420224340528e-05
1.61894599392956139e-05
1.60357386970028805e-05
1.60003777781303921e-05
1.60777461112929729e-05
1.62112740279486558e-05
1.6254943905180736e-05
1.60445564260611827e-05
1.48974284838304616e-05
2.00924253803898446e-05
1.8562485586234494e-05
1.78978587675354953e-05
1.74524547166850089e-05
1.70318433052079254e-05
1.66218822985095538e-05
1.62490890584112158e-05
1.59339936397892887e-05
1.57132421181768396e-05
1.56214926181086603e-05
1.5681565689464348e-05
1.59067938501210319e-05
1.62360510584687374e-05
1.6173919807206149e-05
1.6203283454979419e-05
1.47323647313783381e-05
1.92411244785195678e-05
1.78633198984122557e-05
1.72709277554985434e-05
1.68609699772699094e-05
1.64583072575049993e-05
1.60674652954126091e-05
1.57191023926990251e-05
1.54291588818900197e-05
1.52415993144195961e-05
1.52052920832327402e-05
1.53610784767080395e-05
1.57488490918700216e-05
1.63082474220719295e-05
1.59045305299382339e-05
1.60073987200667266e-05
1.44986271499439366e-05
1.84778345556514289e-05
1.72687358076400117e-05
1.67411736899694449e-05
1.63530344126080992e-05
1.59538355908418578e-05
1.55726191098646584e-05
1.52403938974679993e-05
1.49649848989004552e-05
1.48012463165881701e-05
1.48120471888575526e-05
1.50545602976248775e-05
1.56154623696713338e-05
1.63924063088707426e-05
1.5530752359823898e-05
1.56021344606672953e-05
1.42289531221397999e-05
1.78377388847596771e-05
1.68196373573445101e-05
1.6352053218000975e-05
1.59754911628265412e-05
1.55679823485521585e-05
1.51899096791605967e-05
1.48670968037323479e-05
1.45979158088385891e-05
1.4451688921054526e-05
1.44906178828156013e-05
1.47848497366301428e-05
1.55178549818361233e-05
1.62230220607811468e-05
1.505142212110204e-05
1.50865406567022382e-05
1.39591202928746007e-05
1.73782413475325204e-05
1.65886322523905969e-05
1.61833963989276906e-05
1.58155637325768853e-05
1.53959229111054734e-05
1.50241301716855683e-05
1.47167905970824679e-05
1.44592534715838184e-05
1.43224849112001908e-05
1.43468022830104451e-05
1.46314249060549323e-05
1.55419404587470409e-05
1.58882591262746447e-05
1.45011466800628616e-05
1.44700086704162056e-05
1.35274677475177028e-05
1.72202678392213162e-05
1.67065773836952837e-05
1.63866946665730729e-05
1.60362546844286034e-05
1.56118876411635205e-05
1.52547782678042333e-05
1.49790855023444676e-05
1.48514465865518039e-05
1.5042932848025606e-05
1.54642620297126687e-05
1.62364868202841969e-05
1.71556879530478723e-05
1.63253935479992532e-05
1.40999144168707703e-05
1.38193610987825376e-05
1.27783217760595061e-05
1.88196958062972813e-05
1.90803429064983693e-05
1.91221558901117096e-05
1.90106143251071716e-05
1.88950309664969765e-05
1.91124446210726112e-05
1.98977138779640831e-05
2.14712581483454852e-05
2.50215587384990882e-05
3.05660921228983719e-05
3.83029298416781962e-05
4.16677266686728116e-05
2.61556728230972135e-05
1.52119392284140496e-05
1.34630485449209379e-05
1.23154804527503093e-05
3.15446275809958126e-05
3.46099433305515852e-05
3.60816916689111604e-05
3.72800056091488898e-05
3.90532701109501816e-05
4.29820509329115777e-05
5.12129909657153533e-05
6.7391957887769774e-05
9.3130616572298017e-05
0.00015130168680098019
0.000303747899309971697
0.000730388850598739231
0.000207818349794399522
2.47473617438808544e-05
1.38627313640692451e-05
1.20309607933480188e-05
8.59640396617429304e-05
9.86896025494558632e-05
0.000106396253542968131
0.000115483990714442875
0.00012801956758080852
0.000150691896431668992
0.000194681652847924309
0.000287237111652797279
0.000479098445774768077
0.000806723581612689617
0.00276669643117943582
0.00270964382869992755
0.000777707897946126187
9.38704208617293311e-05
1.60972100751415562e-05
1.20612314973901002e-05
2.7969920688646022e-05
2.63024371237486696e-05
2.47651757054093091e-05
2.34139195456089833e-05
2.23140885201711907e-05
2.13941580029690175e-05
2.05953127711917198e-05
1.98907938376256878e-05
1.92827320182906313e-05
1.87567840091085647e-05
1.8321999817967956e-05
1.79409593312086232e-05
1.7648902975211721e-05
1.73667097465477911e-05
1.72118177049543206e-05
1.91405951578260099e-05
2.67480783398622076e-05
2.47953880557598946e-05
2.34613974019841038e-05
2.24219364310406314e-05
2.157948722308405e-05
2.08105380188710545e-05
2.01045909846413777e-05
1.94761558895866105e-05
1.89368424366071235e-05
1.8481766320946564e-05
1.81105910496622645e-05
1.78019910009456703e-05
1.75735001974393858e-05
1.73821142173216398e-05
1.72915077390471168e-05
1.79369417224699251e-05
2.55287519651205967e-05
2.34745540156387131e-05
2.23109572265098605e-05
2.14359509850042392e-05
2.07036544855780022e-05
2.00380003889567165e-05
1.94274365018359977e-05
1.88888823476511703e-05
1.84394887567942777e-05
1.80817037764998919e-05
1.78113416135503369e-05
1.76070249069738012e-05
1.74735997644519059e-05
1.73817673238817667e-05
1.73090467005743699e-05
1.72632734903170569e-05
2.43519164454444458e-05
2.23331386883740627e-05
2.12925689722835288e-05
2.05425566107584854e-05
1.99049214954943017e-05
1.93214198796542423e-05
1.87888294876883688e-05
1.83270885731263479e-05
1.79586915585232696e-05
1.7691739195841514e-05
1.75206743891668773e-05
1.74262584025761196e-05
1.74015590717249652e-05
1.7424664883400982e-05
1.73924303169800628e-05
1.67369988617925069e-05
2.32431631375998688e-05
2.13204583049607164e-05
2.03763014894910596e-05
1.97212956913673261e-05
1.91590038078507809e-05
1.863940950427367e-05
1.81685964950522989e-05
1.77711960436092839e-05
1.74758158867438345e-05
1.72954127743419959e-05
1.72250079985405525e-05
1.72494754101716014e-05
1.7352275200697489e-05
1.75101506525472847e-05
1.75576805093504946e-05
1.67978506485224282e-05
2.22092821180712107e-05
2.04004893336666157e-05
1.95387346328076417e-05
1.89585016120929002e-05
1.84553323898255113e-05
1.79836320805494038e-05
1.7559345337587742e-05
1.72149994288513998e-05
1.69865131694441059e-05
1.68904651383745019e-05
1.6923652778068579e-05
1.70776307949348401e-05
1.7329904239173677e-05
1.7506081660588266e-05
1.77510991622227886e-05
1.65778620299261233e-05
2.12414166467048509e-05
1.95475333808758719e-05
1.87609385467487552e-05
1.82415598280862732e-05
1.77828437395669765e-05
1.73440749963937475e-05
1.69535129600296385e-05
1.66547073531682096e-05
1.64902362980917941e-05
1.64776502926421072e-05
1.66169147248151749e-05
1.69120202484687207e-05
1.73403648392686798e-05
1.73402238543480221e-05
1.77239093361702085e-05
1.62774145839676778e-05
2.03233766657267107e-05
1.8747416230176504e-05
1.80350782087307845e-05
1.75661703301115036e-05
1.71382193175644934e-05
1.67196893455480616e-05
1.635502283297103e-05
1.60989288976870515e-05
1.59962494373932807e-05
1.60627003213719959e-05
1.63059248542868305e-05
1.67531838622233152e-05
1.73898099905973225e-05
1.70810188312203402e-05
1.74419583305118615e-05
1.59579936045478749e-05
1.94456709733734683e-05
1.80067297431169099e-05
1.73718241795249952e-05
1.69439722037777117e-05
1.65343944849748726e-05
1.61275954206952416e-05
1.57862688538497133e-05
1.55704487457238804e-05
1.55208387915635678e-05
1.56519102818991064e-05
1.5988652972958378e-05
1.65973797396223566e-05
1.73719060645396875e-05
1.67282290087505038e-05
1.70547307688849556e-05
1.55838466365643729e-05
1.8622129024392589e-05
1.73587392587324076e-05
1.6804347207791039e-05
1.6407729061506357e-05
1.6006171314533857e-05
1.56070173098604557e-05
1.52872812431382629e-05
1.51021039120942701e-05
1.50853980255523743e-05
1.52543728355126411e-05
1.56622682054416342e-05
1.64417501696576049e-05
1.71263664690825021e-05
1.62776349823521741e-05
1.65666104474429138e-05
1.51537096775522254e-05
1.79036004648626378e-05
1.68626004104893205e-05
1.6389305754357842e-05
1.6013105353040098e-05
1.56120826313905154e-05
1.52197463876166611e-05
1.49157789402124043e-05
1.4743054960417115e-05
1.47340210874395845e-05
1.49043053183866026e-05
1.53430335800173427e-05
1.62974503482124063e-05
1.66934809725376062e-05
1.57203309079920294e-05
1.59795754114081955e-05
1.4753545314389543e-05
1.73859539912484048e-05
1.66121255413137943e-05
1.62128200962831022e-05
1.58484652667601316e-05
1.54480923840004894e-05
1.50685216073315413e-05
1.47731896282257473e-05
1.45951405511157984e-05
1.45726457265801711e-05
1.47029913107315312e-05
1.51126274387976481e-05
1.6246012824880721e-05
1.62484188749214708e-05
1.50723197082176371e-05
1.53001294804844423e-05
1.42572501334095524e-05
1.72260223158020255e-05
1.67445249609563894e-05
1.64167156547882109e-05
1.60662780901040806e-05
1.56795544392959001e-05
1.53241494281957532e-05
1.50468963095745441e-05
1.50221183046825798e-05
1.52368105117526431e-05
1.54851196072305715e-05
1.60267156355031599e-05
1.71143090008595159e-05
1.61939694454915911e-05
1.45017949281357853e-05
1.45562255371058921e-05
1.35617015280872653e-05
1.90080278863581752e-05
1.93120469079065149e-05
1.91532528813828002e-05
1.90159547179588477e-05
1.89515917553125151e-05
1.92234223182865312e-05
2.01629770921548099e-05
2.19649873962285534e-05
2.48463058596665791e-05
2.76528297809581228e-05
3.12174108146376616e-05
3.11970348487620999e-05
2.1101920371280477e-05
1.47891753988442578e-05
1.39969137372705202e-05
1.28373717458585861e-05
3.23687680527967426e-05
3.53298808016802696e-05
3.59466969727432296e-05
3.70627997409570843e-05
3.89723948798649777e-05
4.29943514617853566e-05
5.22393404669941759e-05
7.04611563865326318e-05
9.51353983245622884e-05
0.00012965298076005692
0.000199114647161164005
0.000342220016590095251
9.49249879222344444e-05
1.99450975913848021e-05
1.40961543652772358e-05
1.24114322047983792e-05
8.92785702759893083e-05
0.000101598223757639925
0.000105397856643935089
0.000112817356863767311
0.000123054878284385206
0.000145793776327856592
0.000195124227518459311
0.000296491773797244776
0.000444431778265300906
0.000685063801713590233
0.00164781529801472874
0.00175023457548545338
0.000463206837223253639
4.33284307393171688e-05
1.56664978291935779e-05
1.22388502725608949e-05
2.80659274210149301e-05
2.64110038767064731e-05
2.48937575646768532e-05
2.35728129160947098e-05
2.25106541357743826e-05
2.16355848277565742e-05
2.08904743949380206e-05
2.02541501424401706e-05
1.97270964398856685e-05
1.93069543711374071e-05
1.89957980693931435e-05
1.87838669230088602e-05
1.86841555096563227e-05
1.86509733152064326e-05
1.88616961476444818e-05
2.13366522167816916e-05
2.6825544649894082e-05
2.48792514275372714e-05
2.35709657590916923e-05
2.25652418532301021e-05
2.17610814640168174e-05
2.10362545802513838e-05
2.03840056092118492e-05
1.98226364392561287e-05
1.93652432403925547e-05
1.90143974110165108e-05
1.87744942828203554e-05
1.8635384596855045e-05
1.86190883413456514e-05
1.86836809343518533e-05
1.89174587423817469e-05
1.97619596787436715e-05
2.55825727074489663e-05
2.35397504155283204e-05
2.24055127982903994e-05
2.15648237989370953e-05
2.08707174863925964e-05
2.02499845964439796e-05
1.96948147700009604e-05
1.92249374039728019e-05
1.88596626046518481e-05
1.86078319164117488e-05
1.84725914962960131e-05
1.84439070467377878e-05
1.85393516528643525e-05
1.87208976226818791e-05
1.89984562006608761e-05
1.88405222045461786e-05
2.43816366461236429e-05
2.23820415943136801e-05
2.13740144888297754e-05
2.06576721246298974e-05
2.0056964002814219e-05
1.95188013214526657e-05
1.90439288809083654e-05
1.86535497518291486e-05
1.83715622650004627e-05
1.82119275914529508e-05
1.81786912304741833e-05
1.82660255958721567e-05
1.84848271836908956e-05
1.87756822694400569e-05
1.91358787414572639e-05
1.83000616018249773e-05
2.32499406796098432e-05
2.13587467499957705e-05
2.04480200338323622e-05
1.98227802593736566e-05
1.92944478558550915e-05
1.88212511271199923e-05
1.84126679213916527e-05
1.80914841041555155e-05
1.78851820239072172e-05
1.78120756673829479e-05
1.78796787559794778e-05
1.8090204012330075e-05
1.84493219816497968e-05
1.87368624123372476e-05
1.92345448192585546e-05
1.80665407166822982e-05
2.21979715112883355e-05
2.04350161696456023e-05
1.96030754152708691e-05
1.90450832140916315e-05
1.85729614251334967e-05
1.81521361496555501e-05
1.77990697354093045e-05
1.75385900821863848e-05
1.74011606148735214e-05
1.74088361465353347e-05
1.75756562366519064e-05
1.7916322950770658e-05
1.84364009746080406e-05
1.85733915734287178e-05
1.91343843355417891e-05
1.76694931678481556e-05
2.12218242673400065e-05
1.95829438181521217e-05
1.88172790739767806e-05
1.83122690659290358e-05
1.78860621068706797e-05
1.75090109747141705e-05
1.72034303703495037e-05
1.6996625637243531e-05
1.69211348245748709e-05
1.70024521840788101e-05
1.72652712920800431e-05
1.77440451143963172e-05
1.84515529436241631e-05
1.83304383224418452e-05
1.88700500050785799e-05
1.72501094037345145e-05
2.03074739626407687e-05
1.87831670143780892e-05
1.8080642831641321e-05
1.7624530545683784e-05
1.72388330793880091e-05
1.68983919236078184e-05
1.66325475273662186e-05
1.64711708729416594e-05
1.64474954606330044e-05
1.65915595053607035e-05
1.69454087044957987e-05
1.75740957391825508e-05
1.83970203310952636e-05
1.79965453074357778e-05
1.85044144323527351e-05
1.68203554917817144e-05
1.94422645631201851e-05
1.80357852829889473e-05
1.74050782534183633e-05
1.70007993370335954e-05
1.66502920618338086e-05
1.63363830604026532e-05
1.6098793512549428e-05
1.59687274827675724e-05
1.59798106420835371e-05
1.61705639020941947e-05
1.66098813285798381e-05
1.74065582308251302e-05
1.81439862482496997e-05
1.75639591243134397e-05
1.80392273969662417e-05
1.63508454055591676e-05
1.86327363122986324e-05
1.73703053543633035e-05
1.68287145835866309e-05
1.6478469950187774e-05
1.61513590022754867e-05
1.58472980013651539e-05
1.56191728124385813e-05
1.54975877796863808e-05
1.55204488166648706e-05
1.57378302828899215e-05
1.62526262908326032e-05
1.72402474236330761e-05
1.77350642952419266e-05
1.70348912938302412e-05
1.74771100973249291e-05
1.58387169325590279e-05
1.7922949463033354e-05
1.68501556711644115e-05
1.64139386403399229e-05
1.61099719561596109e-05
1.57851189741186179e-05
1.54683555055218289e-05
1.52250163087649455e-05
1.50868979536857994e-05
1.51033562503971996e-05
1.53225780983136042e-05
1.58826213817229025e-05
1.70796758506163338e-05
1.7235655361468561e-05
1.64127390812465563e-05
1.68268393239305013e-05
1.53486694717933057e-05
1.74070174586778897e-05
1.65755415075494633e-05
1.6249503894327966e-05
1.59693743179301903e-05
1.56250069381391301e-05
1.52788674823205367e-05
1.50021652582663233e-05
1.48352946030046359e-05
1.48367839124942895e-05
1.50232247097822046e-05
1.55657600762004729e-05
1.69814376220103415e-05
1.67047577023116342e-05
1.57109819086601072e-05
1.61022570125611961e-05
1.48332067965691725e-05
1.72513342884628046e-05
1.66927847223024297e-05
1.64691939959694395e-05
1.61910771384889741e-05
1.5818362748360216e-05
1.54439012007869332e-05
1.51432661755225111e-05
1.50615779779640497e-05
1.52519927829426961e-05
1.54617551738471683e-05
1.60398443681386069e-05
1.75323236880339239e-05
1.64364961142483054e-05
1.50357806431866635e-05
1.53137795915323856e-05
1.42268801030877937e-05
1.89157579238859899e-05
1.92847891938474968e-05
1.92766086905264252e-05
1.90760058121378278e-05
1.88377119282199754e-05
1.88654579557193564e-05
1.96243315221998736e-05
2.1244734279499771e-05
2.34564572056022323e-05
2.52284740032413135e-05
2.76337273973753122e-05
2.73780755466493817e-05
1.93267601778408861e-05
1.49214728674523615e-05
1.46572460415637289e-05
1.34436989117519506e-05
3.16487305328280163e-05
3.50796902114104873e-05
3.63397830818083876e-05
3.70682354612286786e-05
3.82341838355689263e-05
4.11517971032376357e-05
4.92649392219164149e-05
6.56523045368564539e-05
8.61487434817259483e-05
0.000107231712069107173
0.000154146668739356206
0.000198090868812686395
5.72344913837883966e-05
1.80292511210697391e-05
1.45762174217998217e-05
1.28384602397415285e-05
8.70874581106760907e-05
0.000101185436084454369
0.000105890212086499869
0.000111892120125711291
0.000121012064709594494
0.000140598004058116607
0.00018818646876981633
0.000273940709686188691
0.000378458582509828432
0.000564228379216589939
0.00137925385372589921
0.00122206788942294444
0.000267674399976464031
2.94182053491366532e-05
1.54870694323261937e-05
1.25697959084745954e-05
2.81950595768704284e-05
2.65461137809072691e-05
2.50434459903922618e-05
2.37474023791319009e-05
2.27191967175636292e-05
2.18870171956471709e-05
2.11952959219648392e-05
2.06255821999120155e-05
2.01802064302447681e-05
1.98628645636391731e-05
1.96773785201140376e-05
1.96261548850439737e-05
1.97221733644041603e-05
1.99384909020005286e-05
2.04441297618196597e-05
2.33369703011070481e-05
2.69605744136578194e-05
2.50115317166980369e-05
2.37110951827457019e-05
2.27260706948810936e-05
2.19542230194039462e-05
2.12720816911514721e-05
2.0673378436529506e-05
2.01775987634311334e-05
1.98001141430868621e-05
1.95498868467050293e-05
1.94352163029240205e-05
1.94543608094724217e-05
1.96347295708841429e-05
1.99332016838667852e-05
2.04309887208287534e-05
2.14333729240283173e-05
2.57281416847841596e-05
2.36774967059139385e-05
2.25399542930824073e-05
2.17140575230644087e-05
2.10518404469810989e-05
2.04761157680145206e-05
1.99767489213344056e-05
1.95737050604001837e-05
1.92896137954884289e-05
1.91400479313766104e-05
1.91350507929815852e-05
1.92732270430947367e-05
1.95814085487064665e-05
1.99952449654752159e-05
2.05824992188208539e-05
2.04453263587541302e-05
2.45483866630169795e-05
2.2528976007334775e-05
2.15014562800122537e-05
2.07932532609601761e-05
2.02251515014089391e-05
1.97356002509851131e-05
1.93196298026497962e-05
1.89973475685460821e-05
1.87965245031134889e-05
1.87390060257149862e-05
1.88388834411849748e-05
1.91009805415698077e-05
1.95474437956359633e-05
1.99701689595671864e-05
2.06751230807068011e-05
1.97139329020297109e-05
2.3451240130895599e-05
2.15152685451043902e-05
2.05649402948232577e-05
1.99419983980967821e-05
1.94495709804417873e-05
1.90310116879469169e-05
1.8685790251490373e-05
1.84338693413652163e-05
1.83067815792266592e-05
1.83327828987400455e-05
1.8533920720200809e-05
1.89259106936106812e-05
1.9528664120819397e-05
1.98225989965507492e-05
2.06006374759577218e-05
1.91480429362976213e-05
2.24444203591544578e-05
2.05960220132221208e-05
1.97036578078165938e-05
1.91457344882604111e-05
1.87175010784349978e-05
1.83612694222907374e-05
1.80780541179477757e-05
1.78874891289199674e-05
1.78239380165233304e-05
1.792313624333801e-05
1.82204220195575429e-05
1.87475284450100223e-05
1.95300341551220334e-05
1.9603483120836175e-05
2.03568870774371913e-05
1.86179645066542771e-05
2.15142225778547857e-05
1.97387691558198964e-05
1.88962694398786116e-05
1.83955803626074923e-05
1.8027872564456648e-05
1.77304669896361881e-05
1.75030559429330066e-05
1.73646114610324673e-05
1.73516346477824272e-05
1.75101605262335006e-05
1.78958398542333633e-05
1.85651289506013355e-05
1.94580325229168639e-05
1.93026627415881366e-05
2.00190621428773165e-05
1.81124394020303238e-05
2.06319777176176585e-05
1.89231199923079683e-05
1.81363859293445262e-05
1.76968658966388533e-05
1.73912796933865068e-05
1.71494059707687628e-05
1.69690135100218803e-05
1.68685924586683252e-05
1.68873599137229969e-05
1.70875404555158653e-05
1.75535189568900066e-05
1.83765859556436404e-05
1.92228005965066884e-05
1.89117764766302422e-05
1.95831663189341926e-05
1.76027305464433011e-05
1.9770594043658711e-05
1.81490954313076505e-05
1.74390379843500778e-05
1.70713390748149037e-05
1.68263045894363293e-05
1.66275916587527242e-05
1.64758757759649289e-05
1.63894534201015664e-05
1.641518230254402e-05
1.66398213560456444e-05
1.71838518856428325e-05
1.81816616314109924e-05
1.88535331489233324e-05
1.84220119270146712e-05
1.9053776415012122e-05
1.70619017967640959e-05
1.8926354079491494e-05
1.74457555347919628e-05
1.68420651341109164e-05
1.65530401501314518e-05
1.63513886702682075e-05
1.61662210438615974e-05
1.60122938257602772e-05
1.59078057971037574e-05
1.59185581145295326e-05
1.61582987056530334e-05
1.6782460442133263e-05
1.79853239454019073e-05
1.83711045404580137e-05
1.78310420261554871e-05
1.84339595192908121e-05
1.65143205762216572e-05
1.81416777378969769e-05
1.6876887650338709e-05
1.64049368752069177e-05
1.61838142507332457e-05
1.59851011016793358e-05
1.57710674605474448e-05
1.55756805618302277e-05
1.54313334953743234e-05
1.54249061744663154e-05
1.56764408794724734e-05
1.63643910772948675e-05
1.78027589974879776e-05
1.77873192827133807e-05
1.71493194896479143e-05
1.77308714038685896e-05
1.59505182711725956e-05
1.7525635957322979e-05
1.65430792324377332e-05
1.6213690824268357e-05
1.60203213321362051e-05
1.57726708600065073e-05
1.54889266471350364e-05
1.52397316683636228e-05
1.5064410999389004e-05
1.50547035753264753e-05
1.52999904839410379e-05
1.59929053731849773e-05
1.7691770129892069e-05
1.71635642658329059e-05
1.63947775102304938e-05
1.69676565433408069e-05
1.53852565047180253e-05
1.72619028601414973e-05