/*--------------------------------*- C++ -*----------------------------------*\
| =========                 |                                                 |
| \\      /  F ield         | OpenFOAM: The Open Source CFD Toolbox           |
|  \\    /   O peration     | Version:  2206                                  |
|   \\  /    A nd           | Website:  www.openfoam.com                      |
|    \\/     M anipulation  |                                                 |
\*---------------------------------------------------------------------------*/
FoamFile
{
    version     2.0;
    format      ascii;
    arch        "LSB;label=32;scalar=64";
    class       volVectorField;
    location    "0.119999999999999996";
    object      faceForces;
}
// * * * * * * * * * * * * * * * * * * * * * * * * * * * * * * * * * * * * * //

dimensions      [1 1 -2 0 0 0 0];

internalField   uniform (0 0 0);

boundaryField
{
    inlet
    {
        type            calculated;
        value           uniform (0 0 0);
    }
    outlet
    {
        type            calculated;
        value           nonuniform List<vector> 0();
    }
    top
    {
        type            calculated;
        value           uniform (0 0 0);
    }
    bottom
    {
        type            calculated;
        value           uniform (0 0 0);
    }
    left
    {
        type            calculated;
        value           uniform (0 0 0);
    }
    symmetry
    {
        type            symmetryPlane;
    }
    interface
    {
        type            calculated;
        value           nonuniform List<vector> 
181
(
(0.189641031647851149 -6.60444853955349265e-06 -3.56362800913436052e-06)
(0.172501891545062375 1.7545746421952354e-06 -4.55394394526187653e-06)
(0.147136969586445426 3.48792888414656746e-06 -4.41995882491472248e-06)
(0.122207971339382215 3.95683045749414781e-06 -4.06150680826567624e-06)
(0.101217044172839402 3.9303768005451557e-06 -3.61051036711098504e-06)
(0.0832910559335548611 4.08394006383611399e-06 -3.39368132979157319e-06)
(0.0676055338443439513 4.46842070826472026e-06 -3.36299112442913931e-06)
(0.0543409004953327307 4.04749897041928647e-06 -2.78941043202704329e-06)
(0.0435227087622940684 3.17863822057090792e-06 -2.04834223154318902e-06)
(0.0338977782120804261 3.72545768057191576e-06 -2.22737234885438574e-06)
(0.0251300658335525326 3.7603670363931282e-06 -2.09358247622580767e-06)
(0.0178753707910475207 3.32438048707903785e-06 -1.72103205881504639e-06)
(0.0121718248481410985 2.73174084828187222e-06 -1.30620794337692204e-06)
(0.00777903960353962514 1.88732021286026844e-06 -8.3184409181397969e-07)
(0.00451575882718225404 1.2289821297355455e-06 -5.03290084248500239e-07)
(0.00230065016769576353 1.37262861365014303e-06 -5.40945492371535056e-07)
(0.248816049393568994 -1.74775527198629117e-06 -2.16101088194685887e-06)
(0.22797269276347934 2.0651232647084279e-06 -2.68113959191643775e-06)
(0.198424472078392089 3.05445493347025071e-06 -2.46791081352249509e-06)
(0.168359847937637863 3.51438211202701197e-06 -2.23935987241301265e-06)
(0.141151495324629533 3.97640835612490431e-06 -2.21734873220112638e-06)
(0.117366729065221997 3.33063996631249953e-06 -1.71793213030080255e-06)
(0.0966045642668691973 3.62642727847826675e-06 -1.76458366004853375e-06)
(0.0785353666250964977 3.35368868951279387e-06 -1.54732302814234102e-06)
(0.0630216206537410062 3.21412928376348489e-06 -1.40642972878484659e-06)
(0.0494418219936066036 3.93700110878927457e-06 -1.62975992011448723e-06)
(0.037198187043510321 4.13771597246760213e-06 -1.62013370834077686e-06)
(0.0266583518473849646 3.95332771932264436e-06 -1.4534646229806394e-06)
(0.0182438310876975769 3.46891541305205298e-06 -1.18964801298850386e-06)
(0.0118459690961468574 2.89836584643611699e-06 -9.18161663658753413e-07)
(0.00706062027586303563 2.3221609010316637e-06 -6.85875331524206829e-07)
(0.00383417876592044007 1.08237612057160768e-06 -3.00533154851802178e-07)
(0.276307486183370254 -2.17595589747539174e-06 -1.18481230682803191e-06)
(0.255833867652127012 2.10249411472081341e-06 -1.64629182473756813e-06)
(0.226233238097782952 3.1551195065029507e-06 -1.59020892597774147e-06)
(0.195464564900773685 2.92014270709046123e-06 -1.18399500419371167e-06)
(0.16681451116017057 3.91906054858388599e-06 -1.41352352790096544e-06)
(0.140292434953812772 4.08514753752693076e-06 -1.37715502491064155e-06)
(0.116464275390206207 3.66596510689204129e-06 -1.16930681005218983e-06)
(0.0956644531257204722 3.36748226105163457e-06 -1.0238649638239186e-06)
(0.0775704531595473451 3.2060693990413413e-06 -9.30884357557229158e-07)
(0.0614663250216519394 3.50987301525000527e-06 -9.72918763501621612e-07)
(0.0467010213254733034 4.73960592180617895e-06 -1.2528931510574131e-06)
(0.0336320330266358658 4.60575236002536355e-06 -1.15546206738236606e-06)
(0.022956248297823615 4.11196084140154731e-06 -9.71513272619300946e-07)
(0.0150405510478430204 2.94049381739189119e-06 -6.54336604304213085e-07)
(0.00960680194903737808 1.0440098424790903e-06 -2.23621915664655158e-07)
(0.00578784627312514677 1.00159247454205078e-06 -2.03388453471253368e-07)
(0.289007762012165326 -2.22443454836319015e-06 -6.84444410571910521e-07)
(0.268925524083825584 2.199547986846269e-06 -9.73693757434048695e-07)
(0.239778192477245244 3.33091812825853972e-06 -9.51527482832561465e-07)
(0.209339937001080056 2.90258101630812657e-06 -6.59830150827287671e-07)
(0.180608497703214382 3.80056717506378382e-06 -7.65275208135311358e-07)
(0.153217922006809143 4.25049079409220172e-06 -7.97771589053693494e-07)
(0.128053716243553106 3.93019546213026173e-06 -7.04046787316785081e-07)
(0.105741664624993292 3.44966971904976757e-06 -5.95758468212978901e-07)
(0.0861535610985677269 3.31932575144194797e-06 -5.54102554037273439e-07)
(0.0687356604924485859 3.55668275628519207e-06 -5.73298103817986367e-07)
(0.052651773908427707 5.07184394289538649e-06 -7.90373340190824183e-07)
(0.0381042692817443948 5.09159290072422986e-06 -7.61568196443717975e-07)
(0.0260153653635196158 4.47547913738428762e-06 -6.40266969437633408e-07)
(0.0174200950111437214 5.18495245031268116e-07 -7.16483837944619206e-08)
(0.0114416524084331971 9.33291902637272522e-07 -1.23603403375852505e-07)
(0.00677000732008746931 1.37028339072691026e-06 -1.69592703614829833e-07)
(0.294868744818963691 -2.35304031709786978e-06 -4.23294240352995795e-07)
(0.274860696117737946 2.2279424127520581e-06 -5.37017204023154118e-07)
(0.246064090530447116 3.17837308013834176e-06 -4.61509401844297936e-07)
(0.215737313433250449 3.27613559208836354e-06 -3.69625824108847652e-07)
(0.186713169369627147 4.15072239374779726e-06 -4.09102900510574059e-07)
(0.159282282986972168 4.17595876238491849e-06 -3.83511770186976686e-07)
(0.134142649871854813 3.88136671358165125e-06 -3.42743645895432037e-07)
(0.111514860973309912 3.74686536553459141e-06 -3.24415392666707629e-07)
(0.0912473915215793185 3.62403773644057067e-06 -3.09022622957596349e-07)
(0.0730944625934343561 3.7992354144577526e-06 -3.20854852840761134e-07)
(0.0562674446808051898 5.53829892899664216e-06 -4.5945403670384534e-07)
(0.0409735115305025072 5.47953446099223544e-06 -4.43424982182009701e-07)
(0.028237674198767538 4.42771700539688717e-06 -3.43060409117300674e-07)
(0.0189990237259067656 4.59662263570387994e-07 -3.38507007857377788e-08)
(0.0123865459189904086 9.25566752141070021e-07 -6.56742831218673721e-08)
(0.00716477832750806159 1.52466625636232065e-06 -8.47817289376799024e-08)
(0.296481700071917098 -2.21266771947290136e-06 -2.41890524265632231e-07)
(0.276018507032392169 2.32130829792288479e-06 -2.30994755794658329e-07)
(0.247357611127073884 3.30388219452288808e-06 -1.49130528619396147e-07)
(0.217740891586875818 2.69021943962465883e-06 -7.74074856732656588e-08)
(0.188942025961476384 4.61008992844535384e-06 -1.11563506047062924e-07)
(0.161283500486722048 4.40881724873600972e-06 -1.00208337336553081e-07)
(0.136156106796603449 3.9416356218365899e-06 -8.7257998338618433e-08)
(0.11371569375853563 3.61126704558403371e-06 -7.98388809861975944e-08)
(0.0936904648511117238 3.04995275379623093e-06 -6.90115672100044291e-08)
(0.0755987978404501354 3.44459556183907964e-06 -7.96730086068499034e-08)
(0.0584901307360215575 5.86695694401276351e-06 -1.31131702314125309e-07)
(0.0426638502201273292 5.73221785318649993e-06 -1.15550657024779142e-07)
(0.0293585584739526999 5.04953501852052236e-06 -9.46965175866384483e-08)
(0.0192672663607243756 2.81049602643976829e-06 -4.99841596061752712e-08)
(0.012314063993695161 2.1702438163194425e-06 -3.67521716998712648e-08)
(0.00737375344582393098 2.47788538192759747e-06 -1.87161528738820081e-08)
(0.294972096095163727 -2.02149979587638247e-06 -7.52294545546026811e-08)
(0.273465183577864701 2.55250772018721733e-06 4.59288023270292965e-09)
(0.244307995669922756 4.2190558277815242e-06 8.00609340453742217e-08)
(0.215821159043074556 2.32744429010727787e-06 6.04000708343797315e-08)
(0.188399658948252502 4.98604176766408038e-06 1.3154851226462086e-07)
(0.161312482376446298 4.80863249755414721e-06 1.12738883611858326e-07)
(0.136513634099232395 4.23047699670199758e-06 8.03625672241023067e-08)
(0.114403489541783768 3.29307055798169519e-06 4.72894234637218321e-08)
(0.0946691732101984651 2.67113807854991538e-06 2.96211799885281088e-08)
(0.0765927455320690731 3.14294850302140059e-06 3.22772006167604324e-08)
(0.0593552516799945376 6.43759382286459261e-06 7.41038042436127141e-08)
(0.0435076245856997404 6.37383598651002623e-06 8.24150364560840024e-08)
(0.0304119283008843742 5.72541394237165627e-06 7.74794536881264601e-08)
(0.0202650434839124344 4.93779885804453049e-06 7.55028669131207489e-08)
(0.0125548914796210134 4.29603496260703084e-06 9.30163761591823241e-08)
(0.00666122911559193648 3.68492009867444398e-06 8.47902578213716336e-08)
(0.293425227243454712 -1.91757202306041072e-06 -4.02824068976266504e-09)
(0.271428277117054806 2.70759274261668303e-06 4.35918003085866295e-08)
(0.242721455846632489 4.58144291890909243e-06 7.41171653168963511e-08)
(0.214054728091602753 3.86467193944362037e-06 6.11018720519386432e-08)
(0.186465929250901913 5.30553126905413906e-06 8.96913875844718248e-08)
(0.160417710081032422 4.83813203990669982e-06 7.7040184147869863e-08)
(0.136754012154590848 4.06731154719176452e-06 5.15990440662816766e-08)
(0.115180337905338104 3.12922496716611722e-06 2.98034964436981435e-08)
(0.0950893731310138018 2.69006685074229108e-06 2.14720962074056086e-08)
(0.0761025843563933463 3.01954007504492436e-06 2.27881416026115357e-08)
(0.0580492009648067298 6.76973378301019066e-06 5.88604976022145797e-08)
(0.0419478608605800066 6.80193446395809783e-06 6.17909651531529728e-08)
(0.0290142210882126141 6.15864245673209275e-06 6.61399332540801359e-08)
(0.0190084146621266499 5.41987771540204179e-06 7.34986397343063509e-08)
(0.0115377511202353414 4.71471822703876795e-06 7.99473326411380523e-08)
(0.00601352217166316143 4.41266829080347859e-06 8.44900213899668958e-08)
(7.82095395345132403e-06 3.30907076364412127e-06 -0.027498967572762642)
(7.00930128433760866e-06 1.05002295502426416e-06 -0.0319684129586421742)
(3.82136361493229687e-06 5.53206258158869387e-07 -0.025397470473682425)
(1.37384400136099457e-06 3.09942177263588809e-07 -0.0140040304717856216)
(-1.49946582329768751e-07 -6.24383156023454286e-08 -0.0039922441635454357)
(-1.84011579033643992e-07 -1.4362798898163043e-07 -0.00300154081849067717)
(-1.34028253853666544e-07 -1.75615727920310791e-07 -0.00337925942300188343)
(-1.97498833012892811e-07 -3.82695112174503037e-07 -0.00289878475915527961)
(-1.8931109210699162e-08 -4.92940578828821869e-08 -0.00268292488547788345)
(7.36622555752702504e-10 2.49872582220956496e-09 -0.00249153990691928411)
(4.90068874311426276e-09 2.19607941119266767e-08 -0.00234055755652482931)
(-2.72483921070766206e-08 -1.46496174405822683e-07 -0.00223528461352862822)
(4.06569318851462527e-08 2.6794202311778759e-07 -0.00211834589270499174)
(2.62962535619366761e-08 2.41806721264458069e-07 -0.00200133782966744949)
(7.98947829838108003e-09 1.13660982640988188e-07 -0.00185487026334680183)
(4.76119348086774577e-06 1.68227093181509078e-06 -0.00916326181280423084)
(2.84501454309976799e-06 2.70235622743257505e-07 -0.00851230452304875193)
(4.83243716441851095e-07 -7.70613408100074631e-08 -0.00438073736479945193)
(-2.07150648898170168e-09 -1.55673596514464802e-08 -0.0022515500271859442)
(-7.60338636935842571e-08 -2.94080881650966535e-08 -0.00215135571192660033)
(-6.71640003210743023e-08 -2.4485962122179271e-08 -0.00211354643709955447)
(-6.43565621150859409e-08 -2.44471778212507043e-08 -0.00205333314910883385)
(-5.84088961977869813e-08 -2.31728863711503741e-08 -0.00193440429244056897)
(-5.11151988373023403e-08 -2.04072473058557238e-08 -0.00182920879870188862)
(-4.73032748086918601e-08 -1.88891452169584412e-08 -0.00176079414777584081)
(-4.0072778647773515e-08 -1.70700902932962742e-08 -0.00173601119812007523)
(-3.12044680397880786e-08 -1.36046708075519416e-08 -0.00171234450886009726)
(-2.56805397582763306e-08 -1.38747154737744013e-08 -0.00166809412254337644)
(-2.59088974191078566e-08 -1.33009034178210423e-08 -0.00162871676030476977)
(2.54302920316846151e-06 6.57173295057867216e-07 0.00158696796265796409)
(6.55602397243666002e-07 -5.79373153572909205e-08 -0.000549714833061397184)
(-2.51868249292656712e-08 -3.23171219244781288e-08 -0.001550006575664332)
(-5.2347904990978139e-08 -8.55455032822847817e-09 -0.00169885757505343132)
(-4.21944163594900149e-08 -8.75039143430144256e-09 -0.00178649371596139315)
(-4.25495195341788295e-08 -1.53871112937080455e-08 -0.00178038989847285195)
(-3.64273575775174765e-08 -1.21713673002155814e-08 -0.00173285951692556269)
(-3.01361238987401021e-08 -7.61575621353536171e-09 -0.00167537200382476565)
(-2.69685133520646471e-08 -8.32430737645550759e-09 -0.00161165158019606911)
(-2.55309051943272996e-08 -1.11093922236274378e-08 -0.00155296340204855274)
(-2.43615056989994817e-08 -1.40161834090825524e-08 -0.00151326496360286531)
(-2.34192835777422279e-08 -1.5610211677232719e-08 -0.00149487128525788854)
(1.71302218461323698e-06 2.42697084021231814e-07 0.00082486335917170985)
(1.63444628422143585e-07 -3.67828409565920875e-08 -0.000788175309243037219)
(-1.45238053966292844e-08 -6.00683194119227165e-09 -0.00116759425221026102)
(-2.00771249018134348e-08 -1.94046270967900084e-10 -0.00125601532779872661)
(-2.24050551323488439e-08 -1.61655399594520696e-09 -0.00128317108729007756)
(-2.49165292704090409e-08 -1.25405303352716811e-09 -0.00129720951929884927)
(-2.41865095829638275e-08 -4.68623950778284973e-09 -0.0012884406574905367)
(-2.34599461905278513e-08 -6.01930694839095445e-09 -0.00126752611612539461)
(-2.37606783580156674e-08 -6.4141515998954782e-09 -0.00124758675844124488)
(-2.31084064919363123e-08 -7.31477273823441541e-09 -0.00123492627915837145)
(-2.20753301327786482e-08 -8.52839901038382832e-09 -0.00122165161087929184)
(-2.05135998825716196e-08 -9.51786454466386144e-09 -0.00120605785945014751)
)
;
    }
    procBoundary0to1
    {
        type            processor;
        value           uniform (0 0 0);
    }
    procBoundary0to3
    {
        type            processor;
        value           uniform (0 0 0);
    }
}


// ************************************************************************* //
