/*--------------------------------*- C++ -*----------------------------------*\
| =========                 |                                                 |
| \\      /  F ield         | OpenFOAM: The Open Source CFD Toolbox           |
|  \\    /   O peration     | Version:  2206                                  |
|   \\  /    A nd           | Website:  www.openfoam.com                      |
|    \\/     M anipulation  |                                                 |
\*---------------------------------------------------------------------------*/
FoamFile
{
    version     2.0;
    format      ascii;
    arch        "LSB;label=32;scalar=64";
    class       surfaceScalarField;
    location    "0.0599999999999999978";
    object      phi;
}
// * * * * * * * * * * * * * * * * * * * * * * * * * * * * * * * * * * * * * //

dimensions      [0 3 -1 0 0 0 0];

oriented        oriented;

internalField   nonuniform List<scalar> 
20789
(
1.32316598623489667e-05
-1.32489057773684445e-05
-2.40933312967926596e-07
2.58179224120434894e-07
2.72303158354376729e-05
-1.40170698738990504e-05
-2.5900394944161027e-07
2.77406426580588622e-07
4.1610904981753181e-05
-1.44011413005190893e-05
-2.78956332176092737e-07
2.99488657900403477e-07
5.68566513049362113e-05
-1.52692856037781921e-05
-3.03001228830934511e-07
3.26566416626506187e-07
7.33428546310385492e-05
-1.65126359287923663e-05
-3.26159867364583413e-07
3.52653747839973733e-07
9.16199688009911224e-05
-1.8308768754126971e-05
-3.39658087289189285e-07
3.71333080692240726e-07
0.000112430043137134983
-2.08328713870854264e-05
-3.26857593903611685e-07
3.49657087641070206e-07
0.000136602159283367221
-2.41551280269802001e-05
-2.74373304047025531e-07
2.57399033029474366e-07
0.000165937268216490204
-2.91886861713671817e-05
-1.95584961607274082e-07
4.91659011010400885e-08
0.000203181876285582702
-3.67876580588915431e-05
-1.38154132501602069e-07
-3.18753647286300008e-07
0.000247667277173656449
-4.30855468237215352e-05
-1.89359753980950392e-07
-1.21045347328739679e-06
0.000335530767189234946
-8.33138938362233054e-05
6.73555484064715945e-07
-5.22317790317761965e-06
0.000444749269345117424
-9.77914345701528522e-05
-2.26924085006144205e-06
-9.1578232486940218e-06
0.000485530574385263278
-3.27219443646325012e-05
-2.05142332620930963e-05
1.24549376863929128e-05
0.000412481587995252338
4.82663802959908264e-05
-5.7306495135786487e-05
8.20891127055085472e-05
0.000242215604919597484
-0.000181345918598440551
0.000351611863587830416
1.32343863153571645e-05
-2.6501493118506846e-05
-2.49100550074602808e-07
2.67266528101453307e-07
2.70391502959870746e-05
-2.78413990224891531e-05
-2.65376129269878195e-07
2.84888065966882101e-07
4.117498943391251e-05
-2.85587876060210142e-05
-2.83927701973128678e-07
3.05764800686761345e-07
5.61807732041574802e-05
-3.03000920784166124e-05
-3.0589304489153169e-07
3.31039250415435737e-07
7.24775995818579492e-05
-3.28376873863682413e-05
-3.26010135553500197e-07
3.54296991234381037e-07
9.05114526019689932e-05
-3.6377275637444917e-05
-3.3560676242359348e-07
3.70276166203555113e-07
0.000110892114277518798
-4.12391607340503263e-05
-3.16903556976204169e-07
3.42577568761495596e-07
0.000134695176973452708
-4.79460017470328346e-05
-2.57701827031547631e-07
2.45569774250595408e-07
0.000162937367022584649
-5.72911765931791099e-05
-1.49362438054698435e-07
9.77246038031339021e-09
0.000199634919263086814
-7.30313772441769225e-05
-2.29881011498930311e-08
-4.30768594361206897e-07
0.000244151286686442016
-8.61294114095022788e-05
-6.90979812570371092e-08
-1.403435560780979e-06
0.000320167152421603875
-0.000154373812047439946
1.04024894332132448e-06
-5.99618557316691837e-06
0.000414124735347014489
-0.000184533008239898201
-6.37142397889443381e-06
-8.44536201193348347e-07
0.000472208279001741851
-9.41861556537965968e-05
-3.09949172717599605e-05
3.43756374714755379e-05
0.000446055668432788989
4.82939912993156573e-05
-8.70396068245458986e-05
0.000113164457544497884
0.000511132963319923259
-0.000265871306611077717
0.000443009074273875746
1.31876621089581528e-05
-3.97082268626725414e-05
-2.56229314558365666e-07
2.75270595917393318e-07
2.67876874264899545e-05
-4.14619401309786558e-05
-2.7167016004671148e-07
2.92157843396815773e-07
4.08218100538282357e-05
-4.26157274316754471e-05
-2.89186744389995891e-07
3.12058426833437868e-07
5.56935445054174361e-05
-4.51980499724657914e-05
-3.10059857381380736e-07
3.36374464735157452e-07
7.17992892548427426e-05
-4.89730919661646508e-05
-3.28552964441073421e-07
3.58232259052836685e-07
8.95777763152454044e-05
-5.4191235693815305e-05
-3.35871641119965408e-07
3.71362474617873516e-07
0.00010961590161397887
-6.13035067830271837e-05
-3.12342631676272393e-07
3.38594017306554329e-07
0.000132821757475603543
-7.11392098818331022e-05
-2.45520989512101223e-07
2.32909362135362536e-07
0.00016015989718462417
-8.44826212464737879e-05
-1.20707568106973901e-07
-2.58738527312120474e-08
0.000194183992119718743
-0.000106610848038098184
3.64555860330995323e-08
-4.80987691912394625e-07
0.000236386418206017881
-0.000126775187510812248
1.62784902944742248e-07
-1.71942641421788027e-06
0.00030586964405962991
-0.000219740706591019615
8.55524949866869486e-07
-4.97187438930504023e-06
0.000383688266683029585
-0.000257985035036721426
-8.25471007737305274e-06
3.88800026013410434e-06
0.00043654653113708885
-0.000150120850349480615
-3.60099103891172218e-05
3.90859977410836775e-05
0.00040353486629548423
5.16692390898678273e-05
-9.87365626153976139e-05
0.000128372616017177207
0.00073826699161664254
-0.000303967709193742942
0.000480368553616191416
1.30671662992063532e-05
-5.27953967192126145e-05
-2.62626716538713658e-07
2.82595654368035459e-07
2.64376709012710594e-05
-5.48538083313653962e-05
-2.77347728836450854e-07
2.9870473709628009e-07
4.02943974578100561e-05
-5.64960774947285391e-05
-2.94182425658101044e-07
3.17866986628062383e-07
5.49516766787347025e-05
-5.98823862481359941e-05
-3.14433601720380164e-07
3.41535669280422684e-07
7.07736690425131985e-05
-6.48256565916263417e-05
-3.32068235825177259e-07
3.62630966520670222e-07
8.81720211875656947e-05
-7.16254173422163881e-05
-3.38429425140297745e-07
3.74276115398953077e-07
0.000107688081951460744
-8.08456000413143274e-05
-3.11831431967701059e-07
3.37884076811718735e-07
0.000130047082946014772
-9.34843963936482264e-05
-2.40423683799013271e-07
2.26628728417583302e-07
0.000156171910765633246
-0.000110452810480433504
-1.04783099083908388e-07
-4.98066651849660219e-08
0.000187738936339100531
-0.000137756846954394368
8.95732318160674823e-08
-5.10598795307564548e-07
0.00022648722136008864
-0.00016376176566837837
2.91986573935964226e-07
-2.05376713591437676e-06
0.000291023923106854582
-0.000280670975954033471
5.59927305726554557e-07
-4.16649821735779904e-06
0.000355420020492753391
-0.000318954932940797298
-9.52686015732468509e-06
6.1004733542688584e-06
0.00040627892471094924
-0.000200764082400984749
-3.93170890789803945e-05
3.91014736589984476e-05
0.00037029007062774319
5.49901205555237212e-05
-0.000113684918735707172
0.000146353075609241957
0.000930434813161726271
-0.000337887092773499914
0.000516009466332947191
1.28763961382615217e-05
-6.56928278189438807e-05
-2.68410489653340421e-07
2.8941613916103984e-07
2.59946249764371207e-05
-6.7994366202374834e-05
-2.82483913945198963e-07
3.04826461775276429e-07
3.96056437079276706e-05
-7.01315657380077745e-05
-2.98954282496359489e-07
3.23461977337199565e-07
5.39748386184809957e-05
-7.42794073818668589e-05
-3.19066979423701561e-07
3.46873023909551062e-07
6.94277230647595133e-05
-8.03098578245849723e-05
-3.36654201292783959e-07
3.67937953735989982e-07
8.63372275741902293e-05
-8.85671273965036459e-05
-3.44012597616295473e-07
3.76211417812785404e-07
0.000105174124666251233
-9.97085236085684245e-05
-3.15444893299098172e-07
3.41429327175188967e-07
0.000126519618347954396
-0.000114816405114258227
-2.41162631183335714e-07
2.27629615221779286e-07
0.000151840188358885817
-0.000135606745668745746
-1.06831280660683524e-07
-5.98370501715867243e-08
0.000180346058124467327
-0.000165881336156257852
1.43100657928505981e-07
-5.24576189574478652e-07
0.000214782124749569837
-0.000196428275026584254
2.37319399125110367e-07
-2.00697802167586645e-06
0.000273663067684078664
-0.00033645922188928418
4.50866402118693123e-07
-3.54357010325140098e-06
0.000325805134982350413
-0.000368006480665972885
-9.31706797928938215e-06
6.22671516360019916e-06
0.000372471209555809857
-0.000243250547008303837
-4.03479453794492154e-05
3.61684253825449132e-05
0.000337753847378094224
6.32252448117542345e-05
-0.000129811854770707768
0.000156293764255132435
0.00109391841835932671
-0.000369845609268190688
0.000544115607210642299
1.26283150151912514e-05
-7.8343373067933593e-05
-2.73666919608471764e-07
2.9588753707205169e-07
2.54580601232721099e-05
-8.08475665230588456e-05
-2.87157994305128175e-07
3.10637784993542055e-07
3.87646189605186052e-05
-8.34634786027956297e-05
-3.03579785976146375e-07
3.28948979134767117e-07
5.27792153029149321e-05
-8.83225141963235805e-05
-3.24081380493580502e-07
3.52558932318832432e-07
6.77869618464338713e-05
-9.53494264527498744e-05
-3.42555459745041138e-07
3.74373165575500578e-07
8.41143103311167353e-05
-0.000104924237078973532
-3.52462649504053049e-07
3.82211381882543228e-07
0.000102144102827003033
-0.000117764612858928258
-3.23380730629322374e-07
3.49617529670752222e-07
0.000122349220443859243
-0.000135009125739677169
-2.48851156059518854e-07
2.36408243781004734e-07
0.000145139167953891619
-0.00015827232984310852
-1.1867835588292752e-07
-5.70628440808198102e-09
0.000171048171729535465
-0.000191464015663256467
1.74226569808676106e-07
-5.00571962624399084e-07
0.000202650408653429556
-0.000226411452129538979
1.18506731985023899e-07
-1.73757018063501756e-06
0.000255135237629065055
-0.000386499459981411251
1.06644885262146748e-06
-3.51101131867226094e-06
0.00029552923611159029
-0.000404641064936962346
-7.72049399788798631e-06
3.96111316777733662e-06
0.000337789547655094737
-0.000276713123651334497
-3.89354573418126403e-05
3.01375176576697742e-05
0.000305195280952802169
6.73040459038860167e-05
-0.000139384065421720117
0.000167899337821360187
0.00122809635440941666
-0.000399190638730301023
0.000570207973420378792
1.23306005915552778e-05
-9.06976658352564127e-05
-2.7845275188955393e-07
3.02160227071813707e-07
2.48318704895955533e-05
-9.33736138409051641e-05
-2.91384236873377862e-07
3.16201576038029594e-07
3.77822145572943269e-05
-9.64400541220119308e-05
-3.08116530528763647e-07
3.34397270883230556e-07
5.1383376076412788e-05
-0.000101952778729573707
-3.29578309433433189e-07
3.58732170576129649e-07
6.58806619321143584e-05
-0.000109878751619281212
-3.50047399697413606e-07
3.82151577013905707e-07
8.15474152518738855e-05
-0.000120623725886466333
-3.58923849148161706e-07
3.9166354321115265e-07
9.86861617931241559e-05
-0.000134930563448680709
-3.36304826663913209e-07
3.63512597657816164e-07
0.000117620259020227835
-0.000153934624696227385
-2.65416344747856959e-07
2.5687633591006517e-07
0.000138733022757846431
-0.000179285253068210053
-1.32840881223009782e-07
3.30409784087403387e-08
0.000161975129736471369
-0.000214446000448367282
1.97718836924735686e-07
-4.57856335386378094e-07
0.000189386445034916653
-0.000252502763615880315
3.96237038435778131e-08
-1.35969551308028836e-06
0.000234764658567841988
-0.00042950154457327644
2.17561258660986509e-06
-4.55180442456286117e-06
0.000265455237754753817
-0.00043107308809287937
-4.94004314549943799e-06
6.81350905431650581e-07
0.000303792858915652626
-0.000300434650334781663
-3.53202322867717138e-05
2.07039180537047952e-05
0.000272402378164362819
7.65976739134591883e-05
-0.000144359787892526549
0.000166456976514266902
0.00134533347425757439
-0.000419162064668275776
0.000574327599115089481
1.19890629943446919e-05
-0.000102712320088685187
-2.828500290754039e-07
3.08483205143362602e-07
2.41222149598138282e-05
-0.000105533191379058225
-2.95056536266843467e-07
3.21563999435262838e-07
3.66704756445205619e-05
-0.000109015473561380755
-3.12561194439541097e-07
3.39850148191692632e-07
4.98073154024855072e-05
-0.000115119357558324156
-3.35622801006223078e-07
3.65503082756451026e-07
6.37393312527601875e-05
-0.000123842942005921439
-3.59282689221080243e-07
3.91536894670816458e-07
7.8686484164798028e-05
-0.000135603812672866619
-3.71856603927665304e-07
4.04797290438501851e-07
9.48712377048983066e-05
-0.000151145906342923148
-3.54906873261034993e-07
3.85549250614853369e-07
0.000112497767696188443
-0.000171557152072758626
-2.91000745681016873e-07
2.87069615972569446e-07
0.000131788153354368544
-0.000198511081345851073
-1.59153258121129952e-07
9.46069784342064738e-08
0.000152435462257657038
-0.000234913399549180313
2.07656084056178379e-07
-3.87621116429383075e-07
0.000175987375891047246
-0.000275113684474872621
7.50695884652584004e-08
-1.0161538939862814e-06
0.000213917517003987817
-0.000464439251200931505
3.00734241376415035e-06
-5.99977224939056197e-06
0.000238005410940146666
-0.0004501336227409606
-2.63693234075073897e-06
-2.39041633058535203e-06
0.000271611709901094017
-0.000318613974723700442
-3.21669701868373045e-05
1.67398029178305265e-05
0.000243168846632572114
8.63351449713073036e-05
-0.000143430287240963491
0.000162135726799791078
0.00144253229081898874
-0.000426399742404844355
0.000572369772980548907
1.16087786761152014e-05
-0.000114349419785736119
-2.86872458384131503e-07
3.15260030776970969e-07
2.33364764885711149e-05
-0.000117289703891184348
-2.97798914600725624e-07
3.26738566051293892e-07
3.54423421988939334e-05
-0.000121149697616105808
-3.16819942495126547e-07
3.45337316657647126e-07
4.80718013344396146e-05
-0.000127779442455473068
-3.42217104953737056e-07
3.72970930111438059e-07
6.13950047077703242e-05
-0.00013719835365437599
-3.70526113829070719e-07
4.02750639184772685e-07
7.55796723872670557e-05
-0.00014982140952262069
-3.88962020090813664e-07
4.21875230824225816e-07
9.07731180115467896e-05
-0.00016636838640212017
-3.81129431743815021e-07
4.101956759870172e-07
0.000107071129942929984
-0.000187856307155663695
-3.2617198106624973e-07
3.27325217658293804e-07
0.0001245482746018631
-0.000215962283107096783
-1.94312057119596547e-07
1.68377296878899347e-07
0.000142733670899075095
-0.000252969759612414009
1.69042213884443551e-07
-2.98076881966415513e-07
0.000162571649792611075
-0.00029456631050436854
3.03327532208557562e-07
-6.88658643749141219e-07
0.000192473503400635167
-0.000490560488886255066
3.27681460796859642e-06
-7.05733247515147525e-06
0.000213447811054103643
-0.000465067712910570473
-9.28622530939831421e-07
-5.11155977155937905e-06
0.000242329743633177636
-0.000334066611531678211
-2.92340770666104497e-05
1.58045701630066447e-05
0.000216609974475697793
9.75940218920543596e-05
-0.000138305165601278104
0.000152765545461125776
0.00152319434805559223
-0.000425481985404469842
0.000561429443912772434
1.11948043401991392e-05
-0.000125576890190697975
-2.90148871621082695e-07
3.22889691231041834e-07
2.24826239795985435e-05
-0.000128610315986172968
-2.98796219621181033e-07
3.31720479113511255e-07
3.41112684511412324e-05
-0.000132808467877530169
-3.20672543594287407e-07
3.50906304701566205e-07
4.61976006107655204e-05
-0.000139897731584589938
-3.49259225169026046e-07
3.81288324973732827e-07
5.88794377120149318e-05
-0.000149912009784844115
-3.84247610609457016e-07
4.16090771576938817e-07
7.22747761693668625e-05
-0.000163249039635418992
-4.10945438573070231e-07
4.43280177041059224e-07
8.64602886553103025e-05
-0.000180584052038900279
-4.08280017808465323e-07
4.38483479977325739e-07
0.000101432133905308297
-0.000202833186533512541
-3.72248762622179075e-07
3.77307433978991774e-07
0.000117128998271072665
-0.000231671243277640327
-2.33702738258577944e-07
2.45849306920773695e-07
0.000132910628326411272
-0.000268680759087570344
9.14143431802197333e-08
-1.62011118039907413e-07
0.000149309635724308431
-0.000311234355446997162
5.90058366438694278e-07
-3.20912821136494273e-07
0.000171468522107865329
-0.000507177833445783348
2.75859097735832874e-06
-8.30002945062195601e-06
0.000189520304185140226
-0.000476363440693644059
-1.22766136585581207e-06
-5.5284264570932736e-06
0.000215377260079862535
-0.000343505854506229906
-3.1109743380703094e-05
1.4691889018284396e-05
0.000193282111298054456
0.00011024587499261127
-0.000135511476539560739
0.000144954353426758245
0.00158950282959774165
-0.000415244232110852833
0.000542217545106761707
1.07524561065898049e-05
-0.000136369027015670796
-2.90916234436309011e-07
3.30669745273382223e-07
2.15687271033641789e-05
-0.000139466323571623416
-2.96533504402128072e-07
3.36396381300367805e-07
3.26908848026463458e-05
-0.000143963383076831314
-3.23843209777023147e-07
3.56658915122961762e-07
4.42046291107479447e-05
-0.000151445656114114154
-3.56511362631910479e-07
3.90762210121201477e-07
5.62228592710331022e-05
-0.000161960926627832734
-4.01196285657682533e-07
4.32005776053023302e-07
6.8816394286831415e-05
-0.000175872998607142682
-4.39249754585239177e-07
4.69809295747774112e-07
8.19986485731171789e-05
-0.000193796903017574222
-4.45241444618398987e-07
4.7593645892682872e-07
9.56680870405558266e-05
-0.000216515139192580066
-4.32250749465466349e-07
4.44843519322533905e-07
0.00010963118562362523
-0.000245687467434052749
-2.84745566288282914e-07
3.37892580742125752e-07
0.000123127424594340049
-0.000282192511943990683
-2.93375169139246336e-08
4.48038120389124173e-08
0.000135957190763758413
-0.000324704633224464603
8.69063839113488416e-07
-2.28538710032460671e-07
0.000150837164669401994
-0.000516298880207110211
2.23021498819923231e-06
-7.98918336642308671e-06
0.00016473738147398286
-0.000484391611827486275
-3.00578139188487417e-07
-5.57170068654585143e-06
0.000185445760672450793
-0.000347535929309714629
-2.99653029559934272e-05
1.32870173764077095e-05
0.000165274310231619829
0.000122623565275822985
-0.000137019642877846928
0.000144813720886146225
0.00163418471756990248
-0.000406710670455849815
0.000527303262342325614
1.02876506649658407e-05
-0.000146707562530418883
-2.89376073726086658e-07
3.40352964144495991e-07
2.06029569364450561e-05
-0.000149833768965163666
-2.88773956439634414e-07
3.41023063078059075e-07
3.11947523184187163e-05
-0.00015459143388947365
-3.26631110813718464e-07
3.6288580870778203e-07
4.2111297475492153e-05
-0.000162400774446551176
-3.63790280666233567e-07
4.02379625721866938e-07
5.34531829105536107e-05
-0.000173330941888665202
-4.23128391321226437e-07
4.51337178024271197e-07
6.52455225667988094e-05
-0.000187691740058053768
-4.76772536437938574e-07
5.03243965926729359e-07
7.744880010611337e-05
-0.000206028908268861055
-4.9236044508979642e-07
5.21157322827637762e-07
8.98614151080949101e-05
-0.00022893252054120985
-5.0518681038495483e-07
5.10015678554904944e-07
0.000102202375702106505
-0.00025813027343919953
-3.59003494402963848e-07
4.60783384335329724e-07
0.00011366900593496839
-0.000293775029423279919
-2.20967534879592895e-07
3.36750381187944859e-07
0.000123077236678154696
-0.000334807623622602514
1.04165865638383136e-06
-3.46984245169612995e-07
0.0001286959072574615
-0.000518606134151492664
1.25326956358004493e-06
-4.56477876314746679e-06
0.000138556505908524836
-0.000489852329348483637
-9.78844574615054305e-07
-3.42124533002914922e-06
0.000157834586613460478
-0.000357471072477676794
-2.45562686999785813e-05
1.52135571848391183e-05
0.000147538094125760797
0.000132188006991095354
-0.000143508412886106742
0.000144241428137465534
0.00166966908139257078
-0.000398092347787340278
0.00051014642690080784
9.8075306485844789e-06
-0.000156583708729449384
-2.84148331769679722e-07
3.52873821176986528e-07
1.95926267108556201e-05
-0.000159691308159663151
-2.71927631754426421e-07
3.44383347174509045e-07
2.96362568539353975e-05
-0.000164674958204364367
-3.28682459589374447e-07
3.68478874347194484e-07
3.99340631642500424e-05
-0.000172744561353587486
-3.70641088759295069e-07
4.16528446460922043e-07
5.05971596893605612e-05
-0.000184017609783470405
-4.50648715533922427e-07
4.74145334432892449e-07
6.15987458251567087e-05
-0.000198711021249224808
-5.27447291553667051e-07
5.45085519208060267e-07
7.28644598211564782e-05
-0.000217317570718395604
-5.49894054293326819e-07
5.72887683429745715e-07
8.40800592269424097e-05
-0.000240146676660053755
-5.92938112339974297e-07
5.91542044295905366e-07
9.50042891861552474e-05
-0.000269203584288306246
-4.73000114556328438e-07
6.22045857801392001e-07
0.000104608835863031864
-0.000303574469180512723
-4.36608995618841051e-07
6.31480826501321975e-07
0.000111703512024616172
-0.000342542790792846395
9.95002257659610004e-07
-3.54448018002287688e-07
0.000106140506979682638
-0.000511758045888773103
-6.705096467366055e-07
-6.14525813568695528e-07
0.000120251769485126616
-0.000502735969380733918
-2.57162576198971039e-06
1.34419193911158162e-06
0.000145443720159693716
-0.000381419332977790064
-1.76783988110868387e-05
1.64351997935011481e-05
0.000144534846867252765
0.000134985039366153928
-0.000151634109768950974
0.000149746653848460861
0.0017089552847866776
-0.000391818809254026632
0.000497067750658039651
9.30818823438403582e-06
-0.000165983319283388627
-2.84256933764313428e-07
3.75753449965331664e-07
1.85298110005541528e-05
-0.000169022225978116084
-2.4721721639708293e-07
3.56452407540201815e-07
2.80241726655341173e-05
-0.000174207966155450573
-3.43256316767798674e-07
3.81863617535535573e-07
3.76840309804019668e-05
-0.000182467991596898057
-3.80934875797493497e-07
4.444966286694637e-07
4.7672900470050528e-05
-0.000194013404666924062
-5.02073420140854446e-07
5.08941453165935164e-07
5.79060349013919547e-05
-0.00020895539885811782
-6.09642851710895023e-07
6.20875951541154277e-07
6.82897121165049745e-05
-0.000227713977038615804
-6.24966563176930138e-07
6.37801545354867788e-07
7.83935471692498437e-05
-0.000250233769992589208
-7.0740239899755929e-07
6.90701418042274004e-07
8.81325812017672987e-05
-0.000279159015525923824
-5.97694279546181785e-07
8.14116243006312001e-07
9.60995835207708628e-05
-0.000311813404284940463
-7.22772642383099616e-07
9.9471220995759458e-07
0.000101715295066222091
-0.000348960463897315519
1.73359789281634049e-07
6.28736997675968148e-07
9.25243094441956064e-05
-0.000500493699168891152
-3.26330716977116486e-06
1.18999123410501494e-06
0.000111764723321542306
-0.000524638474255547933
-4.44794846878901571e-06
7.11030902937098599e-06
9.81523536230629928e-05
-0.000377743793299667213
-1.18856320989754892e-05
2.18227311562584241e-05
0.000110529277676030361
0.000135935921537355762
-0.000156291884687799254
0.000142964566191084206
0.00173972865059820059
-0.000392561771814450443
0.000472317989584271987
8.73803758821692895e-06
-0.000174841815843942684
-2.82535484624059588e-07
4.0304635642174619e-07
1.73954370391898842e-05
-0.000177834075601653252
-2.03575642552141836e-07
3.58098557659025161e-07
2.63889023421490245e-05
-0.000183241269678588925
-3.57589251561877556e-07
3.97507059107312182e-07
3.53824146964407216e-05
-0.000191541544679093537
-4.03114504800306369e-07
4.83193180377786246e-07
4.47159207306464373e-05
-0.000203333070356001122
-5.73627403034826486e-07
5.59806232133397179e-07
5.42063522175293216e-05
-0.000218427672209546369
-7.4466028848006279e-07
7.266764987259418e-07
6.37914670028178859e-05
-0.000237306606039776829
-7.18289922377865464e-07
7.25949949952487847e-07
7.29064609590066384e-05
-0.000259312063937865676
-8.42065866694062828e-07
8.0536864789546876e-07
8.16779211945426684e-05
-0.000288221721501199894
-7.46118806064049637e-07
1.03736083521213848e-06
8.81943113458036337e-05
-0.000318641011385621383
-1.03894197916914003e-06
1.35016138273631928e-06
9.30575658756773848e-05
-0.000354491805522193074
-1.18233163389345456e-06
1.85044115101984851e-06
8.92156123058459108e-05
-0.000491073810031623448
-4.62402770336639714e-06
-9.53897082323243537e-07
0.000114567341419452486
-0.000556206078393153792
-2.58406394072060525e-06
8.8000798941627785e-06
7.20895862255079906e-05
-0.000367142316313445966
3.8798456655037369e-07
3.14884031588431228e-05
5.92913819380718122e-05
0.000153587758663191465
-0.00014408479051002224
0.000139231397043569052
0.00174573934336330746
-0.00037721188338627566
0.000430492927352038243
7.97754056867337261e-06
-4.21997916290838243e-07
5.1538288922525851e-07
-0.000182912710451105579
1.61501211482314067e-05
-1.80854031552520114e-07
4.54096622804562661e-07
-0.000186279914358838125
2.46908808143956155e-05
-4.67595811562114493e-07
4.24832276772168917e-07
-0.00019173925387312035
3.29819496322564788e-05
-4.37893005393648246e-07
5.90247143954308711e-07
-0.000199984858026861124
4.16757458026027026e-05
-7.55709347616244258e-07
6.04608671112351623e-07
-0.000211875733890376001
5.05092691707917759e-05
-9.79343598931976014e-07
9.46243246483968901e-07
-0.000227227946216734534
5.93705885789200068e-05
-9.09248792977181338e-07
7.62404827757510073e-07
-0.00024602099104339216
6.76500207410893518e-05
-9.90540116757179823e-07
9.72109058341764253e-07
-0.000267572897744237069
7.56158940188925946e-05
-9.15054367693217472e-07
1.09447983025155053e-06
-0.000296366907828693785
8.05808126453471372e-05
-1.37654100259196904e-06
1.62615880146716063e-06
-0.000323855479286815052
8.67133777330585716e-05
-2.47432787716515234e-06
2.81760322110531125e-06
-0.000360967579289904418
9.63896432257835105e-05
-1.19733396419829533e-05
7.22318239072408739e-06
-0.000495999809687424319
0.000132503325615308224
-1.52224200619826149e-05
1.55575361427847198e-05
-0.00059265488309237415
7.20039698371048933e-05
-7.48208197456105086e-06
4.86868538489108475e-05
-0.000347847783706850262
1.97387248020639141e-05
-0.000124553144214434026
0.000142739522809044446
-0.000356239752756953127
0.000401447395767946661
1.32265016042944386e-05
-1.32494861261939543e-05
-2.179712681812906e-07
2.72203767016609741e-05
-1.40171767243729097e-05
-2.35697742563068422e-07
4.15988578815965076e-05
-1.44015572243581841e-05
-2.55845741131101179e-07
5.68469172330814232e-05
-1.5269862918669719e-05
-2.81117102117405637e-07
7.33419056036559635e-05
-1.6513620418036989e-05
-3.07463081616639384e-07
9.16413293593924057e-05
-1.83103007155319833e-05
-3.28758830905511127e-07
0.00011248325010574437
-2.08353403183200566e-05
-3.33412907364736387e-07
0.00013668320171929374
-2.41655581999927319e-05
-3.0877551293362874e-07
0.000165950356350857942
-2.92149798066918578e-05
-2.47751011141952392e-07
0.000202836915057595337
-3.68630413593440731e-05
-1.61609551344987296e-07
0.00024538193733226923
-4.26948261653882188e-05
-3.95382140913954127e-08
0.000329256899170785782
-8.44841388203804698e-05
1.28274143552385544e-06
0.000433052936284382558
-0.00010388486489980268
-2.1803464607941282e-06
0.000458890785580400257
-3.2920478985641301e-05
-1.34315545941489462e-05
0.000376696534218309766
6.33881027252186955e-05
-3.85003842791879661e-05
0.000284567092901882369
-8.92169523527898986e-05
1.32294322422726986e-05
-2.65024764058620777e-05
-2.25511068337475683e-07
2.70299398830537012e-05
-2.78416443403597678e-05
-2.414067931017375e-07
4.11645895509356454e-05
-2.85599356503744888e-05
-2.60148196647336014e-07
5.61741315956340356e-05
-3.0301846600606073e-05
-2.83362905874105146e-07
7.24818123772984874e-05
-3.2840373954200292e-05
-3.068839448738549e-07
9.05409556000056303e-05
-3.63806396715732658e-05
-3.24387525057747401e-07
0.000110957520598604524
-4.1245673287798292e-05
-3.23141700878960365e-07
0.000134788980951683487
-4.79652533148856749e-05
-2.89473134836037186e-07
0.000162963879499277109
-5.73291073533143818e-05
-2.10019940862147103e-07
0.000199267151253581669
-7.31080236068325587e-05
-8.1149870072942044e-08
0.000242264690930180918
-8.57618947296670455e-05
5.18562938507455344e-10
0.000315393583182368412
-0.000157585312079148537
1.01261592235788413e-06
0.000402926830782575341
-0.000193327027120272473
-4.46248219327647932e-06
0.000444163304921388401
-8.48242864773302474e-05
-2.03278114093903176e-05
0.000387790167516488798
9.21196024250729104e-05
-5.93985516654148635e-05
0.000561592115070001243
-0.000155106319416308252
1.31827750139598519e-05
-3.97096488328242149e-05
-2.31831541985186572e-07
2.67788674071834203e-05
-4.14624755698535751e-05
-2.46954498806713261e-07
4.08121409034777028e-05
-4.26177325297772899e-05
-2.64642446046116442e-07
5.56883785233831016e-05
-4.52013398539061423e-05
-2.86774946323974606e-07
7.18066166202473312e-05
-4.89783248879736247e-05
-3.0883086006592144e-07
8.96126816252373545e-05
-5.41980475967807497e-05
-3.24497490566061876e-07
0.000109690167589876562
-6.13165973326807215e-05
-3.18891416563983197e-07
0.00013292371756785644
-7.11684474780588459e-05
-2.75863515668033262e-07
0.000160190656519077081
-8.45379474591074066e-05
-1.78729696171762951e-07
0.000193813476396616745
-0.000106664216331787682
-3.0137896067860013e-08
0.000234750926090045728
-0.000126634922593002274
9.83129997851430139e-08
0.000301617872709790619
-0.000224546171269658152
9.49368875620457172e-07
0.000372046254826647097
-0.000266537332506156628
-5.47295288764615806e-06
0.00040926515569859477
-0.000133485843252309342
-2.45674562926505688e-05
0.00035788683599280029
0.000116327602971332084
-7.15662788274671767e-05
0.00080406964277217937
-0.000188558214603913436
1.30622706358672708e-05
-5.27972538435541168e-05
-2.3732144112086146e-07
2.64289775394767657e-05
-5.48547608303802788e-05
-2.51804073725903394e-07
4.02850363889381186e-05
-5.64991693394350006e-05
-2.68808469017534735e-07
5.49473738477993507e-05
-5.9887816660942387e-05
-2.90306610816177279e-07
7.07831750167552148e-05
-6.48346282534350166e-05
-3.11566022323982743e-07
8.82107175780343978e-05
-7.16363803122661391e-05
-3.27599088518783774e-07
0.000107768570541491698
-8.08684245821867905e-05
-3.17853924753477997e-07
0.000130151736875632406
-9.35252646765168924e-05
-2.66805016397830852e-07
0.000156203032795427122
-0.000110541331254743278
-1.52732222457207241e-07
0.000187365002505304902
-0.000137753963460519516
1.72622387412688689e-08
0.000224739237279342825
-0.000163905348910456025
1.88031881480423394e-07
0.000286246591100417077
-0.00028680293277122301
1.30922353454492819e-06
0.00034497272232238786
-0.000329489902657526825
-5.30040798934931234e-06
0.000380639397131684633
-0.000181162441803055468
-2.73070011266316736e-05
0.000333091684827698225
0.000135708497084268938