/*--------------------------------*- C++ -*----------------------------------*\
| =========                 |                                                 |
| \\      /  F ield         | OpenFOAM: The Open Source CFD Toolbox           |
|  \\    /   O peration     | Version:  2206                                  |
|   \\  /    A nd           | Website:  www.openfoam.com                      |
|    \\/     M anipulation  |                                                 |
\*---------------------------------------------------------------------------*/
FoamFile
{
    version     2.0;
    format      ascii;
    arch        "LSB;label=32;scalar=64";
    class       volScalarField;
    location    "0.750000000000000444";
    object      alpha.water;
}
// * * * * * * * * * * * * * * * * * * * * * * * * * * * * * * * * * * * * * //

dimensions      [0 0 0 0 0 0 0];

internalField   nonuniform List<scalar> 
29184
(
0.99999997993770684
0.999999979910258352
0.999999975423844445
0.999999948602012467
0.999999946543948082
0.999999963856573526
0.999999978277202883
0.999999982372181462
0.999999987289898362
0.999999991969794499
0.999999992024340312
0.999999991969794166
0.999999991881739936
0.999999987290286274
0.999999975364884053
0.978711859357904168
0.999999979930616179
0.999999979345180368
0.999999969484634654
0.999999945415320779
0.999999947456334248
0.999999963840038086
0.999999975080863246
0.999999980291816692
0.999999985086096776
0.999999990967902708
0.999999991977285951
0.999999991885618056
0.999999991476797079
0.999999979841456055
0.9999999063675864
0.978899018137671439
0.999999975687183795
0.999999920730221925
0.999999878294820288
0.999999869402376951
0.9999999006388538
0.999999931710507051
0.999999946772512915
0.999999959742579936
0.999999965591185314
0.999999979227982561
0.999999991726498005
0.99999999147920593
0.999999981348303035
0.999999939125310711
0.999999506221007306
0.986611255813891308
0.999999826971313288
0.999998913868961115
0.999998545605081945
0.999998746212622081
0.999999129267168385
0.999999358991628728
0.999999492153737402
0.999999585618162268
0.999999669727517526
0.999999743406117303
0.99999988861739264
0.999999983724812136
0.999999949247500908
0.999999614325216779
0.999997095383913681
0.992631270129801457
0.999997158779675988
0.999988217045618466
0.999985770838725863
0.999988182755196409
0.999991514305890838
0.999993578680827166
0.999995003350870326
0.99999581080868849
0.999996525535067571
0.999997434464977575
0.999998277504026145
0.999999589833373559
0.99999962979805268
0.999997075719073703
0.999982415983421524
0.980029491782746787
0.999964471963914914
0.999904179295184603
0.999894699088972772
0.999913730678765544
0.999939796082893961
0.999954207753527724
0.999962630018247367
0.999968579748822028
0.999973952394897614
0.99997990592850472
0.999987020008096916
0.999995330101561386
0.99999682075945584
0.999981953552922853
0.9999088024531535
0.967784140344235988
0.999682920041638501
0.999402566309672613
0.999381263485849214
0.999498718292570087
0.999671440012084078
0.999767162094094997
0.999789330236427354
0.999813417746187372
0.999845198863313023
0.999878684531031126
0.999916960308750324
0.999967433783936377
0.999979875210494473
0.99990840845403528
0.999604412775978002
0.963026031510620273
0.998106618985918459
0.997423350622525184
0.997750487305504308
0.998122842544465039
0.998520373173928499
0.999111315064700745
0.999261019493494551
0.999186864079733672
0.999256803472442834
0.999395316439241621
0.999572058319655898
0.999823356536705621
0.999890161760462082
0.999606179197441547
0.998502849081058796
0.961461687935562637
0.934368859233013938
0.93159133224714652
0.946820697046386495
0.967807921337772159
0.985763889871534071
0.99562316798611783
0.99835653160442972
0.998171539088006154
0.997382783341041579
0.997542586405876897
0.998273468116352092
0.999223244983572512
0.999437257761136677
0.998515871134302291
0.994904099055372915
0.978938466334444923
0.338946493645230551
0.345021543088969151
0.392770657515462029
0.468977252214939133
0.571363162016816473
0.697636194167476908
0.834128569557220589
0.934202731324883962
0.978239445573306776
0.989693245862475424
0.993816617701770433
0.996786401425181823
0.997119124342496832
0.994853706288428841
0.985828572547908788
0.971409511420875171
0.00659204301559028136
0.00742501879514890183
0.0105923363393324466
0.0268275406091172605
0.0585310258515349749
0.120217853478697706
0.239720337592121913
0.429077455810696118
0.658541455061286252
0.855543442088035455
0.9441007855951562
0.977643298132798044
0.989793938971254672
0.983683078163051672
0.964281303134460144
0.960185581515161202
0.00541511982243318701
0.00621312274694519728
0.0076231371116832012
0.0101960756594033971
0.0115851707198947398
0.0149541674568545654
0.0240997332462253022
0.1131637348955776
0.294456840418940546
0.525114074076256765
0.757407158869626951
0.90606789508685992
0.960129354452703976
0.932775910501836725
0.917502735437833894
0.935030866712231457
0.00535505445629826278
0.0057095858370933188
0.00637204172188141332
0.00797182275949303611
0.00989005848370765918
0.0179409507459586462
0.0210573313100621724
0.0220706766685100399
0.0999728571843456482
0.305737172940262147
0.452281833659282428
0.52147130974748801
0.507977434913170045
0.443221861920810589
0.471290076383921952
0.830763961314269661
0.00378179480006076655
0.00382775195525111422
0.00596696827639098867
0.00808493851536363703
0.0116209678807858256
0.0155859081922778871
0.0158650580092111262
0.0208809932690076951
0.0159343894556417121
0.00548119886441443289
0.00362415460140662034
0.026739592156377244
0.0440566477865213038
0.083479622870847689
0.114958854765696478
0.298704099317902927
0.00229719788015452821
0.00322041591332284348
0.00523847829135244605
0.00616251900082465543
0.00754975521838131651
0.0115484049938029496
0.0184369632506405333
0.0229408946149066498
0.0194489687006593887
0.00333689814620040902
0.00167422979263269793
0.001483126264285282
0.00265257248578533228
0.00555867937846337649
0.0174578228549119932
0.0347896896049031748
0.00113783197839009004
0.00266399797436057267
0.00301933678361024967
0.00327354567742904482
0.00431547511667664842
0.00670677626039475113
0.0146701503622099112
0.0212463796231117524
0.0185517078564763072
0.00412097429417853517
0.00103191865645537459
0.000756421187532391702
0.00114583271169261831
0.00187858621422020691
0.00428699189554891062
0.0274566199901596919
0.999999979709142783
0.999999979754839008
0.999999974368043887
0.999999954327773777
0.999999954046325801
0.999999968892553159
0.999999980244471454
0.999999985449745998
0.999999991299627911
0.99999999202434442
0.999999992033099527
0.999999992024341422
0.999999944380439265
0.999999973757719429
0.999999949390319998
0.976849846411043554
0.999999979713448783
0.999999978826916047
0.999999969242356457
0.999999951518290686
0.999999955301827503
0.999999968666539507
0.999999978220175167
0.999999983590390107
0.999999989744151718
0.999999991932979726
0.999999992025951467
0.99999999181700594
0.999999960218215467
0.999999603342188736
0.999999822162731089
0.976638646379086373
0.999999975107149219
0.999999925585015603
0.999999891378885897
0.999999887558543965
0.999999916374711861
0.999999941713371143
0.999999956728518491
0.999999965827211179
0.99999997777096794
0.999999991582515069
0.999999991880094807
0.999999991594122228
0.999999981181374897
0.99999991889811124
0.999999147389579512
0.977126059777793099
0.999999829721970879
0.999999006711310812
0.999998735108718728
0.999998936226125235
0.999999257042788803
0.999999462389565164
0.999999581155595063
0.99999967494113573
0.999999760562354068
0.99999984443500245
0.999999977017824171
0.999999982865869663
0.999999934904441945
0.999999418233292303
0.999995600348190017
0.972444094326832542
0.999997214114791033
0.999989014481130756
0.999987372347416636
0.999989783230852192
0.999992718218210896
0.999994561825648942
0.999995726006547958
0.999996630530550323
0.999997478805524587
0.999998303352232831
0.999998999862392268
0.999999853927716842
0.999999416443532851
0.999995852073996772
0.999974890379006887
0.973615905528112391
0.999964799777705804
0.999908687388955553
0.999903252994983394
0.999923781827798841
0.999947416840777814
0.999960055818741811
0.999967603429695928
0.999974495603734859
0.99998044842204048
0.99998570035635681
0.999991922155085033
0.999997378742994325
0.999995788159828924
0.999975311836791336
0.999880348331885882
0.972603949563262571
0.999681346328480824
0.999416447115655027
0.999414313291089984
0.999543192728569063
0.999707537081275799
0.999787792382904827
0.999814132419175272
0.999839477245064057
0.999873871467243158
0.999908575235792574
0.999942789256013764
0.999979605660278326
0.999975088628458852
0.999882620009494572
0.99951231900536186
0.960423293815942269
0.998004011611767439
0.99737225956851483
0.997787001569481857
0.998238286112288487
0.998636835676450119
0.999174471086483829
0.999299811162329799
0.99926678855723905
0.999370028159817236
0.999514909157978582
0.999690647499958729
0.999886173596549854
0.999871716545854161
0.999524086707509252
0.998127361688542547
0.95705248566871437
0.932447007161785413
0.930646303376600148
0.94722347791676309
0.969311602648551984
0.986752373749182121
0.996130089190527701
0.998580537153353154
0.998524041370524751
0.997811452139267141
0.998047286708814818
0.998825400727756052
0.999456422321168603
0.999410879482469872
0.998285847567877971
0.994892410626756263
0.958317750223529163
0.334457247314361938
0.342266563125117107
0.39099576734716246
0.470000094512304512
0.576674891814917823
0.708671921890286161
0.846231367095306442
0.940627317299554067
0.981453401247727841
0.99265451223336898
0.996494188282215143
0.997598292067662928
0.997240491910626803
0.994398920141017495
0.986600158733084598
0.964150968295449884
0.00543003581334895041
0.00620198078130386639
0.00840566633951505063
0.0226341433326003941
0.0584951394459199275
0.131067985185933322
0.269205962614984362
0.47152377225200004
0.697817692247812649
0.873211540431602429
0.957593320695692363
0.987599562473452264
0.99068275495349134
0.983200380176514344
0.967804846613498859
0.953345857239840777
0.00449877904567889172
0.0050132648298529623
0.00619309115483543306
0.00834327625935411821
0.00984433080296766641
0.0147333289365770732
0.0278922555763003802
0.14419906853654646
0.349736730763449299
0.59254282581851303
0.809176287758884616
0.937879787869427495
0.970966129683342727
0.953358855293473972
0.927386109857368357
0.938562953807301703
0.00444990750482331457
0.00458280660504540444
0.00558955574271265913
0.00637203896596440916
0.00845848749058536811
0.0143285097814286194
0.0176446629020295884
0.0179805820481039047
0.101993779164567713
0.285884225969248673
0.453177022786584505
0.565523257028925919
0.57928018468188347
0.549749869883573217
0.562997207936309807
0.89046029371429869
0.0027197972522611984
0.0033033783582464022
0.00415444936565880982
0.00512057516040275232
0.00974244981981057037
0.0182798923821868714
0.0182798923821868714
0.0160626986453177058
0.00820169421261165987
0.00307684390083517046
0.00218208837669934706
0.0262689695900787529
0.0873122900893818915
0.12434493683644747
0.217814799034013212
0.489952439821379926
0.00189888318829227833
0.00220594702468050177
0.00293323714176582304
0.00385362392595418966
0.0124033033485465936
0.0161413818190595665
0.0193054337915669963
0.0212463796231117524
0.0096748739815676367
0.00188006393029378945
0.00102948964932705173
0.00133470280110833603
0.00319917814266879172
0.00793954520167114951
0.0559727410670013276
0.0937298052868660581
0.00117281194586613428
0.00135167187539005171
0.00191964722004200894
0.00497887468033413397
0.0100136836551583848
0.00960458093232398856
0.0135494249039643869
0.0193054337915669963
0.0148775339100724671
0.00160980124675039801
0.000632083434991904123
0.000520868225224932957
0.00113724123952396857
0.00236313637486259024
0.00575195234093857019
0.0536093179762357555
0.999999978606274098
0.999999978926949806
0.999999975190532964
0.99999995991990509
0.999999960508761276
0.999999972645902568
0.999999982584128366
0.999999989376773701
0.999999992019886319
0.999999992033680618
0.999999992032592822
0.999999992032592822
0.999999890859128659
0.999999930698444617
0.999999910692106697
0.975840198931888336
0.999999978672627798
0.999999978091888231
0.999999971269260657
0.9999999571505791
0.999999960548709876
0.999999972283163729
0.999999981100884838
0.999999987094301601
0.999999991733308002
0.999999992019912964
0.999999992032646556
0.999999991802327459
0.999999696162821916
0.999999318632758261
0.999999597555676467
0.974967881755408161
0.999999975442896871
0.999999938061329141
0.999999908906250123
0.999999903967172643
0.999999925332820783
0.999999948219074231
0.999999963368531253
0.999999972187195163
0.999999990712792552
0.999999991839476854
0.999999991874472416
0.999999991548465306
0.99999998222953268
0.999999888864795627
0.999998971409571946
0.971532581382446025
0.999999869771138972
0.999999235652045071
0.99999897108360436
0.999999109573686873
0.999999341885501214
0.999999518159155776
0.999999639738200941
0.999999732939197861
0.999999813530951354
0.999999908984488872
0.999999986271039143
0.999999982542601806
0.999999901727095075
0.999999188109513826
0.999994257701578348
0.969872467303565022
0.999997944811338191
0.99999142227600335
0.999989534821801973
0.999991272172181755
0.999993509973724715
0.99999511438887434
0.999996230189767354
0.999997160117393702
0.999998015153421127
0.999998657738120134
0.999999372008758991
0.999999846747348653
0.999999218919337185
0.999994420439021203
0.999968647886920081
0.968518397091204353
0.99997316988903806
0.999925728066051844
0.999917568837413784
0.999932404747096104
0.999952266750960939
0.999963898781647709
0.99997098032838172
0.999977559315824438
0.99998372093098431
0.999988516259069815
0.999993970374384644
0.999997881965809077
0.999994705798734618
0.999969265733800405
0.999856207467534341
0.978146670084586001
0.99974108647035631
0.999499250742210688
0.999479751624221979
0.999578819117055484
0.999721851848978216
0.999795431260645184
0.999827545552725683
0.999854606370566001
0.99989109187934011
0.999926687961056104
0.999957460021193345
0.999984500658736231
0.99996969428079352
0.999860261690087571
0.99945903663993696
0.974514064418056991
0.998166457367504201
0.997550240123358689
0.997900451023963853
0.998307626522992653
0.998669468047349129
0.999172645266460657
0.999317489548909199
0.99931993131126895
0.999450750724496295
0.999620671759457569
0.999804516130438525
0.999913852464038855
0.999848303049499565
0.999453958840839984
0.998262138639763319
0.9619032949715558
0.936184971923444853
0.934418131911931349
0.950190627914288433
0.971046072049244091
0.987398849213217522
0.996402224587367269
0.998780128441510096
0.998749759431576845
0.998181114555599436
0.998610173048714023
0.999344848541529496
0.999565463332494852
0.999337847801552437
0.9980830371417867
0.995071906892031621
0.957829954264834416
0.339707756784742076
0.347545613187017932
0.397003512035816519
0.475273791450352756
0.582443373391921648
0.718078509901383888
0.858865674324131301
0.950063720769249054
0.987557142509053909
0.996540289604501139
0.998071807524437693
0.998076166171126156
0.99718785684918898
0.993950793041955327
0.98730379047801109
0.960110206997869975
0.00486254770862581086
0.00550482999900351114
0.00823218620617503262
0.0223738471705677774
0.0600008386009833056
0.139629723817718543
0.292226538030671446
0.5099504170307263
0.742202615036780644
0.904005455581783912
0.975050497348324274
0.990690871829624453
0.990704049381388341
0.982668413620488956
0.969585781183253115
0.954110189288462918
0.00409518386692876019
0.00451148576719685376
0.00544076036233885098
0.00702587681545764793
0.00922786762601138059
0.0149298717922988194
0.0300511342625886177
0.166116820869452425
0.387012346967025467
0.641209926741945102
0.848068435416144073
0.956165901237158056
0.971315190298343012
0.954236400574396848
0.932370913480584984
0.941795796627221238
0.00434204443821624951
0.00452072395287918347
0.00477036687538474023
0.00555587580766668185
0.00778327953070123355
0.0120649753138234103
0.0134851802595100517
0.0143651561410028314
0.0962236678544481638
0.27372715864467545
0.465239676029640781
0.601460232088960711
0.630061700500045507
0.604296676965207058
0.636565638847978676
0.903588635446683996
0.0022609330909966795
0.00261377341582360711
0.00296542606754432274
0.00418370127883916677
0.0111324864859095232
0.016809684611419233
0.0157106470517928455
0.00941459838833704453
0.00461815863748906048
0.00219440457574368239
0.00202127530054925768
0.0371473042583991692
0.121461937199650885
0.166330236233978829
0.257633309064372484
0.659626536194834689
0.00145930591712354089
0.00185050377920665935
0.00224914389673432167
0.00317795511202082284
0.0107824191024804804
0.0140858720523147178
0.0165743959538780516
0.0193054338118402585
0.00478172763605179234
0.00158196560408551041
0.000732528530193156391
0.0010391621727437073
0.00308207500658968419
0.0098259403729261327
0.0910497939582910337
0.167176904077101812
0.00113614311256407812
0.00116348386633133207
0.00168046110407887991
0.00454506850185153362
0.00698385937260168586
0.00939741763785775439
0.0147074037239866579
0.0164804540133833485
0.0065308006946195804
0.00162555164873515417
0.000563841507109779879
0.000253194338596879798
0.00071282033244045263
0.0025910866454216747
0.00740359037883104448
0.0489034180992706444
0.999999978023044078
0.999999978316004956
0.999999975246947725
0.999999961846629759
0.999999963793684499
0.999999975951744169
0.999999984961002286
0.999999991225050677
0.999999992032248652
0.999999992034260154
0.999999992033680396
0.999999983823974592
0.999999884987315291
0.999999921133609249
0.999999892481889585
0.97421604667401307
0.999999978115181376
0.999999977602084922
0.999999971419354483
0.999999959161473773
0.999999963637486999
0.999999975365749805
0.999999983559139327
0.999999989458152827
0.999999991966286417
0.999999992032252871
0.999999992032613583
0.999999991757639872
0.999999515985536602
0.99999937417039686
0.999999417933562951
0.973898371214227176
0.999999975227589877
0.999999939386315373
0.99999990973427999
0.999999906202339695
0.999999929908388596
0.999999953088745563
0.999999967273104362
0.999999977533191586
0.999999991683460321
0.999999991891663331
0.999999991772484886
0.999999990991061627
0.999999978096902886
0.999999798708522847
0.999998888541075881
0.971217867069710028
0.9999998740653675
0.999999264663679055
0.999998984761584775
0.999999115055334453
0.999999364642471633
0.999999544879151658
0.99999966369330584
0.999999757381051291
0.999999843958430112
0.999999922919466266
0.999999985667475055
0.999999977300922493
0.999999852697006197
0.999998867380911705
0.999993233286519234
0.969582756163740234
0.999998031072952265
0.99999181259010661
0.999989711686273042
0.999991293073691168
0.999993635882676313
0.999995224705280128
0.99999639158087239
0.999997322067224248
0.999998173233713206
0.999998684988661957
0.999999536274156053
0.999999811719333498
0.999998943028912901
0.999993115136435406
0.999965245565811345
0.967607223262603178
0.999974518380347455
0.999929380677433199
0.999918968034224753
0.999932172715369605
0.999952384960298035
0.999963388225180716
0.999971343274814961
0.999978513979478567
0.999984991635807008
0.999989557430238429
0.999994607492510568
0.999997767027997475
0.999993144468875661
0.999964048824260043
0.999851000032793813
0.96561852907546275
0.999754881209172108
0.999520390765342936
0.999487973545602815
0.999573671454765833
0.999715637775396404
0.999792628994502275
0.999827754238674871
0.999864515120838071
0.999905787933224044
0.99993914166009723
0.999965480366652004
0.999984562695466317
0.999961675420303342
0.9998409381153891
0.999456916595988565
0.966892788489753685
0.998245723909226834
0.997605310590224725
0.997891868525695447
0.998259157851234091
0.998636545700602341
0.999179534881468268
0.999331731364489828
0.999395065702135432
0.999549684483075573
0.999706303407988939
0.99985992318906769
0.999913623132318907
0.999817525165911936
0.999383422820746659
0.998288871870949279
0.960098709849041443
0.940568951090319905
0.938096280842670049
0.952248577102071891
0.971794047102111924
0.987781352307365079
0.996887317056192712
0.998902421477792291
0.998834495552595625
0.998506501240312372
0.998994936574426728
0.999503690596912353
0.99956298787946618
0.999242031307499445
0.997885765347652276
0.995186695481570238
0.960237907347780029
0.349211911588467538
0.355538332944848601
0.403145415414815078
0.479364276312696569
0.588882866102616975
0.731117040649738481
0.876006883776289325
0.96219499076401549
0.992823489298210848
0.998162854709347513
0.99851624447770515
0.998058715269863117
0.997001067874808022
0.993526097003579967
0.987556321000157777
0.964214891232512139
0.00459376028290782272
0.00510349952966692843
0.00924888419016486191
0.0231317520904357442
0.0622761041193893444
0.147629566911515797
0.312336660315662762
0.544745267962943647
0.780484033502817809
0.927633035868217437
0.984199192109454613
0.991384994370877459
0.990629524357919955
0.982007149257021261
0.970502450981827858
0.956866439557265691
0.00376178534713713124
0.00423548818177206347
0.00493974014730616702
0.0061926297335702981
0.00883378788010119251
0.0147042750047937393
0.0316249139646094732
0.180559054417453846
0.412948833201656984
0.673214415873160221
0.872583744890345958
0.966263778401136975
0.971208010692657386
0.95386806885544495
0.934976334387279895
0.948132635044269367
0.00365200753797215432
0.00437460887649279186
0.00461027560446239035
0.00519538607850624033
0.00714383087536123
0.0107715743074115015
0.0119365368546028531
0.0116585744352243267
0.0913410671601376511
0.282718601960040283
0.484818252146809292
0.616412957394771976
0.652297145459277528
0.617759153659735105
0.696059037734692909
0.914437883390409989
0.00201760180289332989
0.00213337562565466682
0.00242266607300838663
0.00517029925460900461
0.010302848203547911
0.0125204429250409203
0.0129573696491762057
0.00849656167676809612
0.0037378627813281968
0.00207250896110302207
0.00221754128438583602
0.0542883654779581434
0.131729201706809962
0.177983934592713527
0.277370850634209298
0.780537898289645815
0.00118505125800619031
0.00131973434098806583
0.00185286338385795037
0.00460695567888839801
0.00776431136566657545
0.0112341135639640564
0.0147074005693472142
0.0140330123276765743
0.00296273548672175511
0.0011808902260602007
0.000527009289195538551
0.000980774079817652933
0.00322047766101574368
0.0207022007134802337
0.0985725250677123299
0.203289800554247113
0.00103811920131712324
0.00105992829335735178
0.00214865193423241681
0.00285446628597707053
0.00287259000717884037
0.00792174537758835381
0.0133747177333233599
0.013337495116424937
0.0042986019325415431
0.00145660161464973093
0.000374819651155482267
0.00010323951702369456
0.00039946779106503729
0.00302993823094072382
0.0122497295514258104
0.0466454621455789781
0.999999977708402543
0.999999977872760737
0.99999997541643415
0.999999964072427749
0.999999966280000541
0.999999977768748494
0.999999986085381098
0.999999991670406541
0.999999992034266039
0.999999992034260154
0.999999992034260154
0.999999971907424956
0.999999890690699056
0.999999938754261741
0.999999921133599923
0.97300781335786346
0.999999977750827274
0.999999977513599925
0.999999971792238318
0.999999961311696883
0.999999965962894866
0.999999977103821602
0.999999984730158165
0.999999990349140555
0.999999992000599081
0.999999992034270258
0.999999992030458862
0.999999991343267558
0.99999947002947176
0.999999733013872349
0.999999600126804555
0.973342630363771999
0.999999975911517236
0.999999943398654834
0.999999910649814527
0.999999908869715348
0.999999932347892195
0.999999954465186858
0.999999967629117803
0.999999980592805038
0.999999991794220389
0.999999991884203743
0.99999999167617315
0.999999990057522048
0.999999949224625762
0.999999779811402423
0.999998836051706808
0.978462563032066912
0.999999900553469434
0.999999310873520342
0.999998994196125812
0.999999129533190367
0.999999370095019602
0.999999549244029007
0.999999670452583089
0.999999764146162873
0.999999859773001099
0.999999933225987014
0.999999956792237077
0.999999970435649255
0.999999790179198156
0.999998555873730988
0.999993091262687317
0.973146776931760993
0.999998543014156693
0.999992385377517889
0.99998983863328883
0.999991430837417927
0.999993703692020341
0.999995302223310789
0.999996530506445991
0.999997385752568801
0.999998211001009496
0.999998734130237987
0.99999966714946753
0.99999974991556706
0.999998605825727083
0.999991909263106549
0.999964503672142957
0.966800623051106367
0.999981314815684419
0.999934904370086031
0.99992031035058726
0.999933315146204649
0.999953061911896035
0.999963905048122603
0.999972780530314909
0.999979449199483117
0.999985968773294265
0.999990456921156623
0.999995132214125615
0.999997444627578558
0.999991122984966729
0.99995881052171165
0.999849080957801339
0.962920747954091771
0.999814491461028743
0.99955719241763874
0.999499868887708254
0.999578988192172724
0.999729696389070055
0.999798531633163345
0.999836378892368427
0.999876789585472103
0.999915507489554711
0.999945436151292721
0.999968390626730708
0.999982482234236469
0.999952854866124508
0.999819277855900079
0.999456234966709101
0.959876879448326337
0.998576150116984196
0.997731454359047865
0.997918270847852562
0.998245680337383923
0.998687429252150594
0.999252928011498898
0.999378961881282502
0.999455796545120401
0.999592941412788205
0.999734006167517619
0.999874177982894907
0.999899755151859138
0.999785292057967512
0.99931148451551155
0.998298089700724534
0.956387907420035432
0.94677625247518904
0.94213128116369671
0.954717611735345306
0.973642027422588097
0.989263061691730616
0.997746932963166078
0.999070936168931278
0.998797053409670954
0.998611889008920728
0.999089444982399488
0.999505578175685971
0.99950705151945296
0.999139045735555231
0.99769326448646467
0.995188679101925322
0.958460675732300871
0.359325257763339012
0.364642017667784812
0.411122544839558735
0.488732474233852132
0.603330064946612676
0.751078094112065053
0.894354177823157181
0.971374441734392358
0.995028150090309094
0.998396261498062598
0.99838785601615232
0.997884411849840003
0.996862635375357575
0.993099071204605166
0.987650789446207211
0.963444580826518515
0.00433946743565222313
0.00475840736690561449
0.0108767188702239247
0.0251608734565659728
0.0668919125549077564
0.158249381859726979
0.333850558771342509
0.575914557757104095
0.809392920705128138
0.942267091771270993
0.988466969824503439
0.991943782682605635
0.99014677458115985
0.981238282451830424
0.971001446895258136
0.957980799730351773
0.0036501021155837224
0.00406989999670830625
0.00465005041477415271
0.00588385932243310969
0.0086994497592293267
0.0142250000695200388
0.0323121918379246087
0.192185421111122356
0.431061256510063884
0.696376506128059014
0.88901181969462828
0.971970869508430368
0.970548490438641442
0.952781184511841461
0.936516560675898724
0.952927273879488945
0.00326335799051647932
0.00408996792262502837
0.00459964558804410503
0.00514250065913110163
0.00693861597283749673
0.00844236676920436142
0.0107736170649553875
0.0113744612703626999
0.0942759354414181849
0.303651336579061237
0.500047662981910612
0.621663458376635503
0.649479418816043097
0.61539063551780504
0.730244565788180644
0.92411689189338142
0.00186400681386746916
0.00209374862874313252
0.00254282492755334615
0.00486570568224365622
0.0083057465987372691
0.0104579913952445938
0.0110252895960873641
0.00905229223685170489
0.00486732686039059032
0.00234631682386757592
0.00265260445828696591
0.0656781852168413505
0.135189851922781129
0.182814107879637477
0.28669263886133689
0.842712190027148145
0.0010053585949816742
0.00113283354864724024
0.00173879572261290008
0.00393843809969542449
0.00702672574522882065
0.00972921679656231671
0.0133747102876090943
0.0124139254058716203
0.00337283551181792422
0.00114505338077494287
0.000473466709814478594
0.00114423980985905072
0.00422041455221451416
0.0247277373525249637
0.107261820881775771
0.245467913800762633
0.000823684535781789035
0.000899398886054142638
0.00148180874196316868
0.00265428025520247392
0.00355394997820026887
0.0065240244603683396
0.0109974072422592203
0.0110483517076505507
0.00656537430318781916
0.000720654924464215509
0.00012057215424529069
-1.37109446550359364e-05
0.000743205037355613865
0.00371393169250925541
0.011949026543590039
0.0605995988879491285
0.999999977638715842
0.999999977621273572
0.999999970914509095
0.999999962899604133
0.999999966126390083
0.999999977803734286
0.999999986033176302
0.999999991540493682
0.99999999203334855
0.999999992034260154
0.999999992033340557
0.999999966456570744
0.999999944175114619
0.999999950997468412
0.999999938754261963
0.972313823700050373
0.999999977621273572
0.999999976703572102
0.999999965572779259
0.999999959427759544
0.999999965399255508
0.999999977083170233
0.999999984664785124
0.999999990395364469
0.99999999200197176
0.999999992033355767
0.99999999202717027
0.99999999156535968
0.999999529263479792
0.999999901159984272
0.999999715685923496
0.972896030585951976
0.999999973341948234
0.999999917289678075
0.999999881243301081
0.999999892808022817
0.999999927083331297
0.999999951967843748
0.999999966408722019
0.999999982874050897
0.999999991795486265
0.999999991835167745
0.999999991595936111
0.999999989672271994
0.999999674026070595
0.999999715685927937
0.999998776026090663
0.979671689899915821
0.999999816783812889
0.999998910545984998
0.99999866777424351
0.999998956394697491
0.999999312663414019
0.999999525893868535
0.999999673377105047
0.999999770220303175
0.999999876042823255
0.999999932645332601
0.999999958249488397
0.999999963936605285
0.999999689645638234
0.999998466878430081
0.999992925889659157
0.972141156437696163
0.999997009458725161
0.999988375096169779
0.999987119722297035
0.999990203322244975
0.999993372046843909
0.999995296712264059
0.999996637372230879
0.999997548373556588
0.999998365384365595
0.999998918543275384
0.999999748297489166
0.999999688993356117
0.999998225411940611
0.99999105182939485
0.999963570551940961
0.965699040631054717
0.999963204115969617
0.999906763903944285
0.999903757473693755
0.999928370679952438
0.999953109434573384