/*--------------------------------*- C++ -*----------------------------------*\
| =========                 |                                                 |
| \\      /  F ield         | OpenFOAM: The Open Source CFD Toolbox           |
|  \\    /   O peration     | Version:  2206                                  |
|   \\  /    A nd           | Website:  www.openfoam.com                      |
|    \\/     M anipulation  |                                                 |
\*---------------------------------------------------------------------------*/
FoamFile
{
    version     2.0;
    format      ascii;
    arch        "LSB;label=32;scalar=64";
    class       surfaceScalarField;
    location    "0.750000000000000444";
    object      alphaPhi0.water;
}
// * * * * * * * * * * * * * * * * * * * * * * * * * * * * * * * * * * * * * //

dimensions      [0 3 -1 0 0 0 0];

oriented        oriented;

internalField   nonuniform List<scalar> 
84128
(
9.64111900310847306e-07
-1.33271390349305883e-06
-1.08553001128678797e-05
1.12239021051193009e-05
7.75248650649940117e-06
-7.48586812954789446e-06
-1.23917529841728068e-05
1.30892464762520325e-05
1.67156181708541101e-05
-9.70002055817438515e-06
-1.33804614358059222e-05
1.41173496412005616e-05
2.57448502261021685e-05
-9.71227804020900466e-06
-1.49793989111210479e-05
1.56624443260169384e-05
3.28204581604627622e-05
-7.67476277377339036e-06
-1.72812520005862031e-05
1.78804071171872979e-05
3.73416153749791169e-05
-5.0677058606958099e-06
-2.04579289398254771e-05
2.10044780509451473e-05
3.99610366592750409e-05
-3.14706316301111541e-06
-2.4709268659417565e-05
2.5236910418947259e-05
4.13889844709016812e-05
-2.09337029302604697e-06
-3.02964523137570489e-05
3.0961874684814274e-05
4.24011816526653383e-05
-1.85584372222213214e-06
-3.72190194698648045e-05
3.80626658395553962e-05
4.36273454384907334e-05
-2.62793842718251529e-06
-4.58222905062090572e-05
4.72240651242826286e-05
4.60343058850272007e-05
-4.20530183867599867e-06
-5.59730791396998941e-05
5.77714205286028253e-05
4.95295606928672773e-05
-6.93999161321831386e-06
-6.86383196155312687e-05
7.20830564021869786e-05
5.70985190440672559e-05
-1.05486833032267291e-05
-8.34672948767029087e-05
8.64470197958461766e-05
5.97917591431427407e-05
-1.47248267761808769e-05
-0.000104305680485306421
0.000116337267463185518
6.92696798176316894e-05
-2.42876453811623131e-05
-0.000124785123213035239
0.000139594848913926099
-5.17122863066997979e-06
-0.000173343699573135705
0.000247402186191921934
2.41294420307048305e-06
-4.22623088706805677e-06
-1.08416823755524205e-05
1.13222551188262053e-05
9.75585648320863592e-06
-1.56729229967283453e-05
-1.19936157206571875e-05
1.28377577781100441e-05
1.76745846047302057e-05
-1.85317270348897391e-05
-1.30457069200518689e-05
1.39586837717443348e-05
2.43583896485750762e-05
-1.72245113691187854e-05
-1.45895443813113428e-05
1.54179712494949144e-05
2.97952597097377295e-05
-1.38019155761804762e-05
-1.6886006602150969e-05
1.75762887812751269e-05
3.39161361126626772e-05
-9.7578499974797281e-06
-2.01234121286968009e-05
2.06926797657417877e-05
3.66725071341220268e-05
-6.42850698638884412e-06
-2.44833143872805954e-05
2.50083870901090459e-05
3.84139256917905749e-05
-4.44249724819091487e-06
-3.01133914884674385e-05
3.07210998052926445e-05
3.97703035688625595e-05
-4.07574139947547743e-06
-3.71038224714984326e-05
3.79673421472024878e-05
4.13896196704909586e-05
-5.5929458017436372e-06
-4.55912071190556076e-05
4.6936898261625698e-05
4.41427706413994954e-05
-8.99429965197059231e-06
-5.57042958783997505e-05
5.77401427030889826e-05
4.8338393186060374e-05
-1.4475919656299764e-05
-6.79698847769162552e-05
7.13101902413435049e-05
5.52048751203529757e-05
-2.19249089254433557e-05
-8.25825499821898119e-05
8.70922936363836668e-05
5.95764092377980547e-05
-3.01214769869770039e-05
-0.000102645514771051893
0.000113670631439568033
6.73629970404033738e-05
-5.1930367140434576e-05
-0.000122507219609681078
0.000142363364785639689
-1.27470839390942381e-05
-0.000178611988062243665
0.000253224181683604928
4.20761513107594084e-06
-9.10278511777188548e-06
-1.05827741600545972e-05
1.12517119292831798e-05
1.15351947366630308e-05
-2.39840681289006663e-05
-1.19916196723614305e-05
1.29751725477497533e-05
1.89223736904376496e-05
-2.69184938755881938e-05
-1.3113225402572422e-05
1.41127952171295381e-05
2.52938840485789131e-05
-2.44725569959484135e-05
-1.46583283989222264e-05
1.55348474203673145e-05
3.04397974054401752e-05
-1.96591477915398935e-05
-1.6948299429285187e-05
1.76596064607966053e-05
3.42805462183713253e-05
-1.41659488968314481e-05
-2.02101439675930397e-05
2.07774895691966187e-05
3.67977736490063967e-05
-9.44521800550810096e-06
-2.46284506726126746e-05
2.51279323995813635e-05
3.82927583035861887e-05
-6.50503279323856538e-06
-3.03406759043728128e-05
3.0908225813223883e-05
3.93790436244884111e-05
-5.9937285859450996e-06
-3.74208200680677783e-05
3.82525209162012188e-05
4.0723085711916273e-05
-8.28196491975273105e-06
-4.59842912361383267e-05
4.7329266764451302e-05
4.31628841190925843e-05
-1.35201256200328807e-05
-5.61548217916713792e-05
5.8240849305297014e-05
4.70489723382457208e-05
-2.17978912927368554e-05
-6.84296774852466053e-05
7.18655608864241153e-05
5.34850022127734558e-05
-3.31336822098228834e-05
-8.30171646951740922e-05
8.77899086557482825e-05
5.81130388705889959e-05
-4.56160681859841264e-05
-0.000102881054892315445
0.000113747616777349375
6.31261845878621853e-05
-7.6010978834784303e-05
-0.000123085011332432596
0.00014215256480877957
-2.33535327908794606e-05
-0.000179023232646838152
0.000253151797874685174
5.91808883542329749e-06
-1.58037909780353868e-05
-1.02706224805056327e-05
1.1053501064560905e-05
1.32786283549870953e-05
-3.21784714361966968e-05
-1.19212242600243825e-05
1.27549095397997215e-05
2.02569554590211569e-05
-3.46323614172398958e-05
-1.31073396356804653e-05
1.38426549813355704e-05
2.62559146383182138e-05
-3.10665198416653097e-05
-1.46648737577315192e-05
1.52596750002697636e-05
3.10832557350069832e-05
-2.49420028088863423e-05
-1.69705245481743957e-05
1.74259155884155058e-05
3.46180872133633821e-05
-1.80456785408372442e-05
-2.02888264363212324e-05
2.06336790135120334e-05
3.6806071064771187e-05
-1.19382746140442085e-05
-2.48163901932963959e-05
2.51214451273341236e-05
3.79065175167298137e-05
-8.00672975115169933e-06
-3.06791226326006301e-05
3.10803622494083067e-05
3.85522971154075533e-05
-7.37326429590686477e-06
-3.79162590542905727e-05
3.86500050618120443e-05
3.94316543023696047e-05
-1.04927902458685703e-05
-4.66200812232483259e-05
4.79515360381639589e-05
4.13826536811608882e-05
-1.76689678415068631e-05
-5.68883164746623415e-05
5.90861382439507546e-05
4.48084714182618577e-05
-2.88714735963297406e-05
-6.91889598222688131e-05
7.28367205214632181e-05
5.06153742656868108e-05
-4.4081964003177272e-05
-8.37370310530183667e-05
8.88784158468264952e-05
5.53622287630239958e-05
-6.13606595490361631e-05
-0.000103387987874324191
0.000114385786173960889
5.92219099115496385e-05
-9.88365545513095905e-05
-0.000123134155463094658
0.000142100671171439537
-3.55504623577028477e-05
-0.000177385714150492279
0.0002497965887989485
7.70260010699259378e-06
-2.40261322056902633e-05
-9.86373556395444736e-06
1.03829163613436172e-05
1.52630922193928813e-05
-3.99081408614249258e-05
-1.15922773419354825e-05
1.17599136421537881e-05
2.19231018891595613e-05
-4.12891597682807829e-05
-1.28488822469756262e-05
1.28438676604315556e-05
2.75858653904014805e-05
-3.66442895862402652e-05
-1.44903128133156407e-05
1.44036834334813631e-05
3.21422699324642506e-05
-2.93759182121157257e-05
-1.6892867736271316e-05
1.67695034596525839e-05
3.53842872336660634e-05
-2.1161983539073667e-05
-2.03407317628659918e-05
2.02147269281951285e-05
3.71738721381858258e-05
-1.36619526054815693e-05
-2.50443873464157788e-05
2.49783713410842015e-05
3.77366123170596245e-05
-8.69241825051921417e-06
-3.11203212541215986e-05
3.12432004633630847e-05
3.77641663623009828e-05
-7.99431712597229559e-06
-3.85598608819736938e-05
3.91532923551175956e-05
3.79697851173199544e-05
-1.20441051451072123e-05
-4.74401598883074819e-05
4.87857599587409306e-05
3.92204450730643483e-05
-2.13206464903931532e-05
-5.78202523944886356e-05
6.02211291113843221e-05
4.19560457338607592e-05
-3.55926190385199556e-05
-7.01518076306640871e-05
7.41372409870837211e-05
4.69657299038694028e-05
-5.47184508176409222e-05
-8.46360282996054644e-05
9.02628790891116288e-05
5.14899222607864519e-05
-7.71628284344796846e-05
-0.000104004722093061861
0.000115283329891283196
5.44527987170782753e-05
-0.000120905958174834704
-0.00012310252016489907
0.000142212895236174674
-4.91910957382364682e-05
-0.000176353217122028009
0.000244974817658968002
9.7649015386302651e-06
-3.34762911677139791e-05
-9.30298836139164108e-06
8.98317868743855396e-06
1.76206930700227362e-05
-4.69303163965837912e-05
-1.09460696244002849e-05
1.01030918875615055e-05
2.39052041615043823e-05
-4.66804990065710837e-05
-1.22994634433982548e-05
1.13959865002933347e-05
2.92097138789508104e-05
-4.11204669497750968e-05
-1.40799409352560771e-05
1.32420581961943604e-05
3.35441456129924646e-05
-3.29805048135619843e-05
-1.66358894840480139e-05
1.59003501869547143e-05
3.65415587092618671e-05
-2.35604409482571063e-05
-2.02760055898806231e-05
1.96754805340657897e-05
3.78897389979711231e-05
-1.46034744550096505e-05
-2.52282979948950932e-05
2.48212177658833406e-05
3.78111980369330515e-05
-8.53495216266569201e-06
-3.15845389882654789e-05
3.15053683484480676e-05
3.7033337616369292e-05
-7.74233548437012708e-06
-3.93023455405469785e-05
3.98279376598854762e-05
3.63698321180656452e-05
-1.28464641609233118e-05
-4.83977816669404348e-05
4.98631648394171135e-05
3.67038959462597864e-05
-2.43624903628346558e-05
-5.89176362353452702e-05
6.16246079806144801e-05
3.85318545951357134e-05
-4.1844537482721722e-05
-7.1276013368995933e-05
7.56989901443862873e-05
4.25178045350215703e-05
-6.48947367835966905e-05
-8.56722532090337395e-05
9.18630032204876358e-05
4.64816578761423745e-05
-9.27695935143625676e-05
-0.000104678024764430242
0.000116324859758777863
4.82348298803251575e-05
-0.000142096800764346409
-0.000123038269387590099
0.000142494883016652346
-6.55509774527399168e-05
-0.000172564610947727626
0.000237791600274162436
1.20562495303036611e-05
-4.38309781383651231e-05
-8.53588352698489819e-06
6.79998135505728858e-06
2.00468139153468268e-05
-5.34032234348663832e-05
-1.02786769730282322e-05
8.71111617570578283e-06
2.58047391638943706e-05
-5.11525776732477117e-05
-1.17331951664707981e-05
1.03961684064241327e-05
3.08026527082719194e-05
-4.50233608069511488e-05
-1.35935516081735989e-05
1.24522076613146547e-05
3.50812043903844984e-05
-3.63744025397711297e-05
-1.62299698507601978e-05
1.53079311698240897e-05
3.79785599413894466e-05
-2.58100328673142764e-05
-2.00466429463730835e-05
1.93871511843963238e-05
3.88836679271590977e-05
-1.51528849305898962e-05
-2.52733384946790807e-05
2.49157161170199358e-05
3.80481380565871708e-05
-7.75390670011943646e-06
-3.19638918600019122e-05
3.20185849559371336e-05
3.62773269283000227e-05
-6.66765635951424927e-06
-4.0039026746561821e-05
4.07346856706039808e-05
3.45625351413073512e-05
-1.28447017586073089e-05
-4.94171924284282312e-05
5.11284438003211614e-05
3.38189396192800542e-05
-2.66742962768649894e-05
-6.01243353196549186e-05
6.31762082139254505e-05
3.46100920719421681e-05
-4.7500876038811699e-05
-7.24981236676169551e-05
7.73581047074800186e-05
3.73785710549458911e-05
-7.43880204209952645e-05
-8.67893972210144346e-05
9.35163580619351674e-05
4.03634906974645877e-05
-0.000107785587874192182
-0.000105422041900223967
0.000117472254369384445
4.06494271879702767e-05
-0.000162149744083243963
-0.00012302205999198721
0.000142867021407845385
-8.60003977075202809e-05
-0.000169529922372305971
0.000231409003282327772
1.41728354246066033e-05
-5.52963852672594408e-05
-7.81543894348861104e-06
4.94696715498436525e-06
2.1688915331647144e-05
-5.97401606606726325e-05
-9.98824650685051708e-06
8.57876780859758856e-06
2.70047870540694813e-05
-5.57555514934598444e-05
-1.13108246337697523e-05
1.02826514862983134e-05
3.20582877383251069e-05
-4.94537649354370159e-05
-1.30853045202742186e-05
1.21933009440916191e-05
3.66690260964062155e-05
-4.05808641102523067e-05
-1.56609228232078227e-05
1.50893989947985965e-05
3.972679634316191e-05
-2.88579381731550534e-05
-1.96541309826316642e-05
1.95374955990561917e-05
4.02468634276116895e-05
-1.60632489829082063e-05
-2.51100704592223818e-05
2.54778442851995735e-05
3.84621731185102214e-05
-6.67926120515741803e-06
-3.213669461143485e-05
3.2844236607097873e-05
3.54941617939773544e-05
-4.9099013756312206e-06
-4.06069368356248815e-05
4.1816499972458441e-05
3.25241098028198472e-05
-1.19168505285101844e-05
-5.03757497729742684e-05
5.24130078197575447e-05
3.0625195424769641e-05
-2.81105788608497704e-05
-6.13410690437153465e-05
6.46629081221198731e-05
3.03450962355156315e-05
-5.24084132659070136e-05
-7.37584621073121539e-05
7.89227336204302473e-05
3.17266110429598159e-05
-8.29007022168744609e-05
-8.80186239346548202e-05
9.51526578607725843e-05
3.3275060552421898e-05
-0.000121701392630448098
-0.00010635189371789831
0.000118797423206363597
3.24830685350944431e-05
-0.000181268416055896088
-0.000123241930165075587
0.000143434622567204125
-0.000112706851496668966
-0.000166245685152165504
0.000225546193228033887
1.417469711021486e-05
-5.50432007198875235e-05
-7.234961007642936e-06
4.80079856317492059e-06
1.9939528305553835e-05
-5.29301237989758481e-05
-9.24567711357909751e-06
8.53694521050404458e-06
2.53227513214885059e-05
-5.18157933985681078e-05
-9.84905982495457079e-06
9.4983090575532797e-06
3.1571175354509301e-05
-4.99706953709107797e-05
-1.09174150538573322e-05
1.02773951000024213e-05
3.75312468979144569e-05
-4.40093222060885972e-05
-1.36585844232053766e-05
1.30279578045708031e-05
4.14257273652798814e-05
-3.29872010742584477e-05
-1.81790612925501673e-05
1.83664185555289675e-05
4.19022857050661452e-05
-1.80202387848656464e-05
-2.40481043754354737e-05
2.53558274336519912e-05
3.90728642638883152e-05
-5.7611285248091167e-06
-3.1561249346658621e-05
3.34272827393164399e-05
3.46927415734229276e-05
-2.53357433551114663e-06
-4.0621869573801545e-05
4.26073176945174697e-05
3.03989672188818156e-05
-1.01957651466661493e-05
-5.09304289457980928e-05
5.34757921348528344e-05
2.73724715708544903e-05
-2.86708621555838448e-05
-6.2301417788654948e-05
6.58196626265841647e-05
2.59093281065929903e-05
-5.63494160359277393e-05
-7.49496051468813256e-05
8.02572924976496777e-05
2.54566921024149988e-05
-8.98743936520911355e-05
-8.95056124224102064e-05
9.69161729834153846e-05
2.49848211625008679e-05
-0.000133887095992982159
-0.00010767638230135098
0.000120611847809831794
2.41205536328386561e-05
-0.000200225173860418658
-0.000123964044135921732
0.000144746295355823443
-0.000145484190072474773
-0.000163523812776896946
0.000218392893307722043
4.09008895884871515e-06
-1.05947274975680471e-05
-2.03678993421941397e-06
1.2392318438447283e-06
5.58255540990359194e-06
-1.04207132394762234e-05
-1.24949005864312607e-06
1.43119107322139289e-06
8.92541595450433547e-06
-1.26001930487797017e-05
-6.61876045528609434e-07
-3.03094595163788579e-07
1.50422926691512017e-05
-1.55936360220558141e-05
-1.18137414725857476e-06
-8.09258972767921405e-07
2.3801147191133808e-05
-1.74383062629775756e-05
-3.98733693383415293e-06
1.57702729254940823e-06
3.29819985674284469e-05
-1.68899102169799236e-05
-8.60729203803524491e-06
6.81409779649536748e-06
3.78070606594854361e-05
-1.07911338093084573e-05
-1.6648535938526733e-05
1.57872817044026737e-05
3.7042019422708371e-05
-2.89152878552780475e-06
-2.72140164033501619e-05
2.84136709482698338e-05
3.24713745279489591e-05
3.25237294930454096e-07
-3.85500667925102859e-05
4.09436976895447864e-05
2.7550684033346037e-05
-8.17701880530962458e-06
-5.0164393851309052e-05
5.30771529035146451e-05
2.33292546592271907e-05
-2.82696495291892127e-05
-6.27091909977399344e-05
6.6171796640985967e-05
1.99732816842421209e-05
-5.86413257898298702e-05
-7.62629947767380168e-05
8.15263026398293399e-05
1.67254917967942032e-05
-9.46080827014294579e-05
-9.18495229791807348e-05
9.97788105884920456e-05
1.37601875725376078e-05
-0.000144100406882160864
-0.000109829422713007781
0.000123914265953470624
1.39729666734779057e-05
-0.000219859379453923994
-0.000125280771997582363
0.000147246248753384311
-0.000176658529501602722
-0.000158133864985166039
0.000207061382188141352
-5.1582495412616608e-07
-6.72978013046045267e-07
1.6710054359345559e-06
-2.92582735736654041e-06
-1.12515824581374274e-06
-6.39985043923616975e-07
2.09632875135356886e-06
-3.43141154057880792e-06
-1.23306590239132761e-06
-6.6864105118016961e-07
2.0017715476241365e-06
-3.12214832022291333e-06
-1.69029758204170203e-06
-1.01728610896145184e-06
2.74872510965920759e-06
-4.61508131042723351e-06
-1.68096995779441171e-06
-1.61048194191319184e-06
3.04856237017539638e-06
-5.43279702517746484e-06
-2.2933333982777268e-07
-2.65941433117725891e-06
1.21230699498268759e-06
-4.01268417168749937e-06
3.59003485306627911e-06
-3.11017109198443921e-06
-3.31145546214623599e-06
7.95764747436881159e-07
1.00065505151462362e-05
-3.02773402098080697e-06
-1.21209748647854282e-05
1.01048923052915656e-05
1.59020769560216786e-05
-1.63517400950760914e-06
-2.62191396197778101e-05
2.48449692601170168e-05
1.61717548189363298e-05
-5.77300985826115509e-06
-4.48202179251621226e-05
4.52179189015178897e-05
1.15296283278987363e-05
-2.47506817406340909e-05
-6.21177089697189393e-05
6.46503276681759304e-05
5.68304529918613099e-06
-5.85873569227182418e-05
-7.92391467126197325e-05
8.39566141573910613e-05
6.31368858582986687e-08
-9.90670645196044134e-05
-9.68461384337565242e-05
0.000106732370933040164
-3.3782595791572338e-06
-0.000155054568589492421
-0.00011289366735299851
0.000129985660693770144
-2.42590619948948507e-07
-0.000240514999817725351
-0.000125354684339164593
0.000148868103105336685
-0.000211154238875185655
-0.000147933114857867542
0.000186008640551766019
-2.6869044712492517e-07
5.40278660978079626e-08
7.23832724288512205e-07
-1.237906970111908e-06
-5.5008835337632163e-07
4.98431173700210682e-08
7.64227149659700959e-07
-1.24101085140818108e-06
-9.59327049902119355e-07
8.47692800787497048e-08
1.03992053803242352e-06
-1.52014975266738606e-06
-1.70488215113965892e-06
6.65929050487916312e-08
1.40293753983477665e-06
-2.1878236733238002e-06
-2.89882517694413505e-06
4.73295869006062671e-08
1.3082586346846992e-06
-2.13619798956610154e-06
-5.58896427579802731e-06
-1.19839277536851303e-08
3.68562978367041309e-07
-1.07949163943347679e-06
-9.61863924176753473e-06
-1.38415478021902736e-06
-1.45832060584264253e-06
1.42941976411082149e-06
-2.03775914234616485e-05
-7.08035544877794658e-06
-5.99495490098519977e-06
5.39772656452288044e-06
-2.94405209077591229e-05
-1.79609248988262999e-05
-1.76465413332199154e-05
1.52705514296363393e-05
-3.10547522178479039e-05
-3.42111474420736614e-05
-3.62153091378946294e-05
3.23527949625431859e-05
-2.77650924187824075e-05
-4.42874309152681809e-05
-6.00150676668317738e-05
5.74469562841376294e-05
-3.00622760079865376e-05
-6.47556595192512496e-05
-8.41423943767624297e-05
8.7872420579236939e-05
-3.02278624676052349e-05
-0.000108760598226827337
-0.000103674677203423137
0.000118349106857165194
-2.55716085297520907e-05
-0.00016684926954826896
-0.000114571119137947823
0.000134717681195003363
-1.78008432589625343e-05
-0.000258715085918482092
-0.000120502500130996695
0.000143598566107317426
-0.000246466456461888505
-0.000128605206434007806
0.000153790647000206127
-1.30161425483403824e-07
1.66168251894416731e-07
3.00069974002637685e-07
-5.19988454085009646e-07
-2.84367587301253494e-07
2.42853815648401606e-07
3.4851861282088927e-07
-4.57819084628237156e-07
-4.45931489960470907e-07
2.98639353333695421e-07
5.00063517847692248e-07
-5.81625679335341876e-07
-6.0009718035832471e-07
2.97898774189849029e-07
8.51476229284255447e-07
-1.11160216762348211e-06
-1.04390979009933242e-06
4.32076572968799645e-07
1.38105316932975993e-06
-1.66892368843575925e-06
-2.84428675064769351e-06
3.17248342236872849e-07
1.00140563146430963e-06
-1.58233833481262352e-06
-4.58379639994507555e-06
-1.27748301591009927e-07
-2.65050995578296727e-07
2.58764538540113966e-07
-8.41366582664071174e-06
-3.89089758714922362e-06
-1.65606218061800936e-06
2.31255148201010094e-06
-3.09047075481643597e-05
-7.05638753189483407e-06
-6.82626052710453725e-06
7.3073932624158822e-06
-6.03934001942396746e-05
-1.51861247666045694e-05
-2.36846417435524625e-05
2.54216990114917958e-05
-7.1330967523595539e-05
-2.48368967774337323e-05
-4.6453119600809417e-05
5.25686051521873012e-05
-6.10213597710507167e-05
-3.33605507355048004e-05
-6.42408199178193706e-05
7.10354419240999077e-05
-4.50143628977814049e-05
-4.8181640057319325e-05
-7.53886875839549186e-05
7.93743171813168856e-05
-3.27392253609527786e-05
-7.28212214971990268e-05
-7.99070129019279586e-05
7.33149009328168714e-05
-2.9245580693768558e-05
-0.000127900362988053723
-9.14473927080833039e-05
7.8370374167764721e-05
-0.000249640603092796056
-0.000102679424915746602
0.000105442129005146895
-1.45359858509479293e-07
2.04469034979929419e-07
2.3716128618159417e-07
-3.83353471640598941e-07
-2.84186047846895794e-07
2.1838903552096537e-07
2.87216026047364161e-07
-3.19797774351684973e-07
-4.0048849293750278e-07
2.14436177133840796e-07
3.93969911601135439e-07
-5.90885096387481857e-07
-5.89820671679555445e-07
2.09280554769306587e-07
8.21387048947022656e-07
-8.99206499616152699e-07
-1.60999881365771375e-06
3.67963090824545023e-07
1.11459824214884451e-06
-1.16649654002944151e-06
-2.25547073090041779e-06
1.68129151269413442e-07
8.26192133233037263e-07
-1.19752852531524237e-06
-2.66136897574519995e-06
-1.15841612609642813e-07
-2.79611452257777815e-08
-1.26330003416473743e-07
-3.24932306126796234e-06
-4.70100460782649733e-06
-4.87981884495530961e-07
1.01349305873599638e-06
-3.86985073876721007e-06
-4.074849387496546e-06
-1.48989072861120781e-07
1.02234185743713194e-06
-9.77723225992427344e-06
-1.15233753219427521e-06
-7.30730399427137008e-07
8.14280738748349678e-07
-1.01190667808640274e-05
-5.96561017032104533e-07
-2.52936009014263457e-06
2.16024859858995292e-06
-1.17324788506268654e-05
-1.01578615300379401e-06
-5.85608793802238095e-06
4.58683516933112112e-06
-1.22700278533426752e-05
-2.56216944303075663e-06
-1.00719274478402137e-05
7.12795439370605303e-06
-1.02886656073213047e-05
-8.89530338217017058e-06
-1.57539833531015257e-05
1.38252881488202906e-05
-2.23030695008414492e-05
-3.26882089625231843e-05
-2.48328424073152731e-05
2.04266084224266374e-05
-0.000102071187643289611
-5.90192869081674156e-05
3.33104817414750173e-05
-1.04085847999130628e-07
1.14442148068979578e-07
1.67776184127926498e-07
-2.43887946214045817e-07
-2.22036235623444409e-07
1.58529471985253548e-07
2.26320178854599534e-07
-4.16102536180638896e-07
-3.47127407763733851e-07
7.96411988642839331e-08
4.65058587003803939e-07
-6.78726509689921761e-07
-5.5036749136935568e-07
5.64307256513294449e-08
7.07079513168351275e-07
-7.33515766357330868e-07
-9.30942497590828088e-07
2.36803661410292538e-07
1.09580114648404596e-06
-8.35903194536872623e-07
-1.25410695064699807e-06
1.9473256378801548e-07
6.79764807970678966e-07
-8.93107097447479233e-07
-2.5808335661828269e-06
-5.57613169426508706e-07
-2.70399987904152341e-07
1.6212936659568488e-07
-2.68880984363104909e-06
-4.45166115034458823e-06
-8.64118289909870164e-07
1.08684903568633493e-06
-1.22438363820014819e-06
-4.5387747322313195e-06
-4.70578347025262978e-07
1.08134572849622366e-06
-4.39007706449337057e-07
-3.31626825150789265e-07
1.52899575902784172e-07
-2.09882290862619035e-07
-5.56576853348422547e-07
3.11062340937586271e-09
3.01224936129356124e-07
-6.17007081795714229e-07
-1.13785674553404903e-06
6.17576262547786482e-11
2.30811182610893727e-07
-6.22592721488666584e-07
-2.40552076497591793e-06
-6.71181532070080281e-07
-1.80373149876772123e-07
-3.10978196043643177e-07
-5.04090566669544063e-06
-3.97807643081206692e-06
-1.95854783114870801e-06
6.77163173681009175e-07
-6.54886504989422607e-06
-1.54074142517558602e-05
-6.79939993201986613e-06
4.68077947587202414e-06
-4.16819961711859151e-05
-1.29409330881896183e-05
6.66539330105673586e-06
-2.98201178061051814e-08
1.12112307727979893e-07
-1.59592716623580859e-07
1.01951354711336255e-07
-1.0311798104215153e-07
1.58633033722677819e-07
-3.67150753019540819e-07
8.67455808278851452e-08
-1.70206687588559189e-07
2.90425413707769055e-07
-3.90933391613131403e-07
-1.42244431680357736e-08
-3.17447821785112573e-07
5.14978377308208884e-07
-4.60224192904507455e-07
2.30694840643533167e-09
-5.71073069216990313e-07
7.14884191610082748e-07
-4.07466510498635142e-07
1.71391735534309543e-07
-9.26807146261493942e-07
2.79687901271242708e-07
-1.80042113708351159e-07
9.13759001806999391e-08
-1.92048577868661163e-06
-1.82466718522947896e-07
2.80215804192737506e-07
-1.26242930350821434e-06
-2.03610611311859554e-06
-6.98866092626501483e-07
7.30860520063419899e-07
-4.36954631866715103e-06
-1.50553988598323328e-06
-8.55078711223893718e-07
7.75907200672860022e-07
-3.51105870486108084e-06
-3.73042607846912024e-07
6.35128098602731472e-08
-5.26557510990268553e-08
-3.44721881080252057e-07
-2.48278101367118311e-07
1.14562942779650133e-07
-2.05391687399324174e-07
4.60805017304743288e-08
-2.38290198350581857e-07
2.12817077193326913e-07
-2.76098976607250925e-07
3.40683206817771705e-08
-8.52117646776164791e-07
2.7126350030696061e-07
-3.58545804681509333e-07
-4.09893322060596876e-08
-2.21138608184894505e-06
-1.26080785100391288e-07
-2.11629253940400952e-07
-2.12171550703285808e-06
-4.4549163077071881e-06
-2.05949388079992793e-06
1.10711339566474124e-06
-1.15438942794692239e-05
-4.85343065085953769e-06
3.88390118041732872e-06
-4.47575030897649412e-05
6.18951296128947488e-07
-1.39758467662811333e-06
-1.00766667453234416e-05
7.02962754772211981e-06
-7.30661403792354252e-06
-1.14958152575167916e-05
1.55271214599554548e-05
-9.37495898831691898e-06
-1.25029969783029416e-05
2.39152447840845771e-05
-9.27027702406428268e-06
-1.40972457347313549e-05
3.01433849671112242e-05
-7.18315478417121033e-06
-1.63262371155710837e-05
3.36858555855997982e-05
-4.67257956998809851e-06
-1.93278196651792393e-05
3.52348471862887409e-05
-2.96401786275312634e-06
-2.32942424241852159e-05
3.55175472775891719e-05
-2.16039699352396367e-06
-2.84187555328604345e-05
3.52403292928266164e-05
-2.19623856128940432e-06
-3.47455630407124356e-05
3.5032423697106506e-05
-3.15613992146181721e-06
-4.24582449922652772e-05
3.55397348033174626e-05
-4.92141509045273774e-06
-5.15589751533277667e-05
3.71146949180198402e-05
-7.75591534095551404e-06
-6.24573643925161088e-05
3.96341638779121428e-05
-1.08312354264371056e-05
-7.51555261836221673e-05
4.18150999766008492e-05
-1.5620039926485962e-05
-9.08665757177104234e-05
5.24884876163774682e-05
-2.60721778193211713e-05
-0.000109386330893735968
-1.09761799032276521e-06
-0.000120211007399921962
2.05612088980528731e-06
-4.33726470137873863e-06
-9.95812328810406582e-06
9.00704681440553238e-06
-1.523457155742725e-05
-1.10165846263478981e-05
1.64098725288093811e-05
-1.77445901808504438e-05
-1.20789028060973655e-05
2.24565219531357518e-05
-1.62405891204491743e-05
-1.36658828828540839e-05
2.71328490702320752e-05
-1.28014800541421305e-05
-1.59440090862151467e-05
3.03625252621012956e-05
-8.98822763182646333e-06
-1.90374403598522384e-05
3.21202487137669726e-05
-6.1098800231567517e-06
-2.30951757483417033e-05
3.27831812622798722e-05
-4.69401746061657359e-06
-2.82427036637910043e-05
3.29507032740521613e-05
-4.91078072908346274e-06
-3.45568024376949172e-05
3.32383097858061409e-05
-6.91460739876286136e-06
-4.21203461801436567e-05
3.4296896029090448e-05
-1.06618792545003219e-05
-5.10224179609942654e-05
3.63602271284698786e-05
-1.63205475404341145e-05
-6.14685836900022713e-05
3.99755374001445628e-05
-2.34206516835501642e-05
-7.36084491952782949e-05
4.19498570540403754e-05
-3.18604975254538423e-05
-8.83794430132502589e-05
4.87555986239118913e-05
-5.13933786453004107e-05
-0.000103991748380136264
-4.10887362091801534e-06
-0.000127114385401254777
3.85087492597883322e-06
-9.19212994233607391e-06
-9.57878525532403253e-06
1.07536865919879456e-05
-2.32723057329052436e-05
-1.08567089249021624e-05
1.76160080064762892e-05
-2.56899497526596061e-05
-1.20302032248941461e-05
2.33344496809988148e-05
-2.2932185656856862e-05
-1.36851876182869634e-05
2.76909053311819505e-05
-1.80952307545676776e-05
-1.60110142442211485e-05
3.06172516209458963e-05
-1.29707532670011845e-05
-1.91539682067241327e-05
3.21253429810016675e-05
-8.98053774331061973e-06
-2.32658858905537534e-05
3.25480043961225726e-05
-6.98945813709479975e-06
-2.84678975949636137e-05
3.24680884948504262e-05
-7.4204131880152069e-06
-3.48312728823696336e-05
3.25057805560914024e-05
-1.05024939566540106e-05
-4.24340971879099422e-05
3.32947055728809204e-05
-1.62391103530421762e-05
-5.13665157244076059e-05
3.50936364595431675e-05
-2.47112387694381957e-05
-6.1837917181411885e-05
3.83686358049987065e-05
-3.56999133146573128e-05
-7.40129014045710166e-05
4.05058720117534e-05
-4.80727933649263499e-05
-8.88060992627771867e-05
4.51438675514771544e-05
-7.4360306244387108e-05
-0.000104755927633009424
-1.02970913323227132e-05
-0.000126143728449544312
5.55636313713747882e-06
-1.58240476519709884e-05
-9.19510563721791222e-06
1.24753245749891102e-05
-3.12923169595679445e-05
-1.08203412600821077e-05
1.89283609702776612e-05
-3.30999660319775048e-05
-1.21505626204146926e-05
2.42519278228259462e-05
-2.90588003819217149e-05
-1.38620054978936599e-05
2.82447140322051031e-05
-2.28588067343783328e-05
-1.61998339761203861e-05
3.08189181016275618e-05
-1.64741043888773286e-05
-1.93597170009862413e-05
3.1969890063188522e-05
-1.14328261566127678e-05
-2.35150906865741569e-05
3.20070343710839755e-05
-8.92269489581774079e-06
-2.87830409139525089e-05
3.15183100639789329e-05
-9.62853396944343625e-06
-3.52194239758321469e-05
3.1143451144875848e-05
-1.38552225225944622e-05
-4.28925078410557565e-05
3.15062614538879176e-05
-2.16011018998341707e-05
-5.18891427566197755e-05
3.29033433431418474e-05
-3.28977601030438748e-05
-6.23995197015092003e-05
3.57084029389761483e-05