/*--------------------------------*- C++ -*----------------------------------*\
| =========                 |                                                 |
| \\      /  F ield         | OpenFOAM: The Open Source CFD Toolbox           |
|  \\    /   O peration     | Version:  2206                                  |
|   \\  /    A nd           | Website:  www.openfoam.com                      |
|    \\/     M anipulation  |                                                 |
\*---------------------------------------------------------------------------*/
FoamFile
{
    version     2.0;
    format      ascii;
    arch        "LSB;label=32;scalar=64";
    class       volVectorField;
    location    "0.750000000000000444";
    object      U;
}
// * * * * * * * * * * * * * * * * * * * * * * * * * * * * * * * * * * * * * //

dimensions      [0 1 -1 0 0 0 0];

internalField   nonuniform List<vector> 
29184
(
(-0.00101703977840407293 1.09124329752204215e-05 -0.0316231243214125726)
(0.0119338095045996052 -0.00505543026480159436 -0.0365679156907619887)
(0.0359335982734027906 -0.0072758277166050855 -0.0394984145326099656)
(0.0683335106815649712 -0.00803813704300459717 -0.044003092566623353)
(0.0961219649697176437 -0.00690347255960723719 -0.0504432286514125625)
(0.113674548098271835 -0.00474576937904206807 -0.0594292316636987894)
(0.125023218332214636 -0.00289853985608056917 -0.0715874156554223984)
(0.131580508901999876 -0.00179226899617206245 -0.0878194562092957098)
(0.135404584806326195 -0.00137945305513408186 -0.108048320771564829)
(0.138715912216789417 -0.0017593214241745426 -0.13353106910646198)
(0.144210453927408194 -0.00273700426248230273 -0.163486960703189493)
(0.154237470613368566 -0.00456024265677059965 -0.202029785310938209)
(0.168845726749297931 -0.0069503975454881092 -0.244415923944889923)
(0.195024008511045316 -0.00997121327836027714 -0.316806160366652323)
(0.225347971924857504 -0.0170662511992383109 -0.379574048267954212)
(0.142317197793113692 -0.00380684845780049699 -0.647891726597052076)
(0.00234860841279618902 -0.00285203355426140925 -0.0319012208929276841)
(0.0180800465291956758 -0.0167903993046837965 -0.0357634021615473724)
(0.0435527004036633733 -0.0206766412880989049 -0.0388827642811366836)
(0.0677354877843877462 -0.0197021964598665354 -0.0431195776064926192)
(0.0874776898485886134 -0.0156004061638629777 -0.0494078621365224985)
(0.102852866688978056 -0.010485209913296184 -0.0584513997990372056)
(0.114078705809161407 -0.00651490889133279558 -0.0708903453749950702)
(0.121483980184263513 -0.00433431443005843561 -0.0872264801196662581)
(0.126404813557988327 -0.00396928201083018243 -0.107763932084124381)
(0.130974570895104891 -0.00567105016872070447 -0.132936888361172373)
(0.137544094660417032 -0.00924546588093579612 -0.163089207402699304)
(0.148826930551914705 -0.0151179504329004288 -0.200235520805185641)
(0.166204630976801521 -0.0229525124389763739 -0.244194821065089773)
(0.186747290845963809 -0.031683908593917634 -0.311104698631306464)
(0.22649927503316708 -0.0546975927999569303 -0.384514833914624932)
(0.135951842398862183 -0.0127431034668603754 -0.660396612171547104)
(0.00600575138244389094 -0.00867859464199512501 -0.0316710806296709169)
(0.0248949068740480089 -0.0282844482668965572 -0.0361668820110359474)
(0.0486490152700885248 -0.0325698218538980344 -0.0393492514487542439)
(0.0711901524333430069 -0.0297956615069968969 -0.0434545415617617892)
(0.0899641800692296406 -0.023861264707973711 -0.0496191502573050114)
(0.104474206206333867 -0.0171057668599547269 -0.0586655497531608297)
(0.114838382099761618 -0.0114493365088988788 -0.0712402330431189112)
(0.121462927809114968 -0.00799240120656115674 -0.0878183972540701324)
(0.125595100733740195 -0.00738899289733278147 -0.108664594801265793)
(0.129325443327208689 -0.0100927176144405394 -0.134130378387386895)
(0.134894301853341586 -0.0162273552869056856 -0.164528054447659416)
(0.145198275605507715 -0.0259798308352123704 -0.201747615349144399)
(0.161113342021242278 -0.039342968836318444 -0.245825028181838268)
(0.181240229499629424 -0.0538082314760478797 -0.311539008836560216)
(0.21928436938209675 -0.0916222397167064939 -0.385110981783894191)
(0.120636934633254492 -0.0252751463971772929 -0.655815430654398956)
(0.00907844167760003991 -0.0170032648389507671 -0.0311767644016642219)
(0.0309838584649106234 -0.0399925213872181357 -0.035821845050212707)
(0.0539301289708298687 -0.0440813442954370444 -0.0389222155621937668)
(0.0748949110216016734 -0.0398232530716709776 -0.0429911055438488982)
(0.0924470215797970896 -0.0320000552353974302 -0.0492387454548041462)
(0.106005180439003477 -0.0231497176437331954 -0.0585308881776233081)
(0.1153914245889993 -0.0154060906395496189 -0.0715171923273564131)
(0.120882902847247758 -0.0104896216581387147 -0.0886359843304789369)
(0.123711394366174843 -0.00964080776567886703 -0.110092929690811539)
(0.126006865937031004 -0.0134847936274444819 -0.136116323993436178)
(0.130005387737169992 -0.0222921435199949051 -0.16694947756318454)
(0.138728907005099961 -0.0361024724918571072 -0.204311201896873157)
(0.152849733301553187 -0.0549480072591123914 -0.248383984986007056)
(0.171443566334634118 -0.075998570892667705 -0.313142180827828243)
(0.208755789332508823 -0.124553724458042844 -0.385009133844887108)
(0.110136584002986898 -0.0410807935998866933 -0.650378005228627543)
(0.0120961436936195404 -0.0279503244032983204 -0.029635030182332163)
(0.037551887066672486 -0.0516574388360325279 -0.0336657141073415517)
(0.0601285511885547019 -0.0545178948191898036 -0.0367981653730417371)
(0.0797115141179389197 -0.0485790033093616291 -0.0412593012505442711)
(0.0961876445063604008 -0.0388939837739877003 -0.0480721630264336897)
(0.108900100707567574 -0.0280318698051298873 -0.0580465954780005761)
(0.117241897337274498 -0.0183159917339781805 -0.0718167941992426673)
(0.121275105859463841 -0.0120512169398696856 -0.089782626256393952)
(0.122288872768930038 -0.0111231598978499928 -0.112078514096401169)
(0.122524865751106424 -0.0162921065568049604 -0.13882739606515701)
(0.124275195719760728 -0.0279687765432379866 -0.170155076215794232)
(0.130705038844974503 -0.0460373499123241103 -0.207629572119429145)
(0.142234611035290864 -0.0703977338642770289 -0.251551756035333585)
(0.159008297560523343 -0.0985139219315161879 -0.315186414005984183)
(0.193737928889531175 -0.156557482940652221 -0.384886776110062057)
(0.0989219639858819055 -0.0597459750495034775 -0.642399138964103944)
(0.0160707756034147858 -0.0410252270965683757 -0.0264521606160125732)
(0.0453136752734753651 -0.0623862837021553693 -0.0298871076896639817)
(0.0674204852034994834 -0.0634323709112452755 -0.0335564656236201908)
(0.0854458099097290813 -0.0560846487531748081 -0.0388117372266105418)
(0.100910333257437007 -0.0449360429761849201 -0.0464820562602777376)
(0.112976733360510659 -0.0321744216398417368 -0.0573995852453349359)
(0.120315611165208711 -0.0202544692325817496 -0.072210958726869251)
(0.122682281763519141 -0.0122196097994936356 -0.0912482253811528199)
(0.121425288969780915 -0.0112611605121285679 -0.114543325172171306)
(0.118982119297380534 -0.0178297015770014083 -0.142109059366154533)
(0.117801907968496627 -0.0327442197430958051 -0.173941604098341362)
(0.121214980488092872 -0.0553415007100810444 -0.211470666112889005)
(0.129366766797756855 -0.0852974191887423128 -0.255161990311130071)
(0.143806460852679813 -0.120928003743172321 -0.317496343173519768)
(0.173850735255773575 -0.187501734828389444 -0.384943302389604392)
(0.0848735786736424247 -0.0821598000798529626 -0.631007695649775768)
(0.0214432594048970075 -0.0535816564769336645 -0.0215824046063857709)
(0.0537539459240958667 -0.0699637953343676122 -0.0267101928916333199)
(0.0746202405801652119 -0.0689071573551506139 -0.0312889391557931718)
(0.0909551680371002147 -0.0608595966573358543 -0.0371508979286030647)
(0.105818283780467454 -0.0491886763231577442 -0.0453198180265102293)
(0.117756531783277635 -0.0353124896475571284 -0.0569733980809655621)
(0.12435800455324994 -0.0216076253460323088 -0.0727067689786566329)
(0.124894143804203439 -0.0119753691013158251 -0.0927692595452258434)
(0.120884303796667619 -0.0104725689908196917 -0.117065225477492985)
(0.115152760802271409 -0.0183802005107229494 -0.145444483623290294)
(0.110427549069888997 -0.0364353257762699556 -0.17783118787574495)
(0.110356391751962823 -0.0637277281355993069 -0.21544498363356604)
(0.114596462190506482 -0.0993056631848798221 -0.258974058210336755)
(0.126170648164033006 -0.142824328399387301 -0.320193791614910184)
(0.149108749358640075 -0.217283097272794934 -0.385456478422075421)
(0.068364871449545575 -0.109023330856923034 -0.616898721974976194)
(0.0275115600930217544 -0.0688206829161452371 -0.0173899336081766581)
(0.0612584441204753194 -0.0782971510646108537 -0.0267163297556242199)
(0.0797878766698920661 -0.0732109672646419907 -0.0312178999221951504)
(0.0952764630759719011 -0.0640154818021266975 -0.0367852835921372787)
(0.110877891116245825 -0.0513888621940216117 -0.0447161870070652764)
(0.123338810696804649 -0.0358582375532396705 -0.0569506924081159896)
(0.12971116574216493 -0.0202793283025667105 -0.0732084564600322396)
(0.128091779506972953 -0.0101696412316425126 -0.0938775776951183694)
(0.120691186351567226 -0.00894110347187145917 -0.118967081527081811)
(0.111007535719177042 -0.0185097185871690197 -0.148156807010549063)
(0.102201178230848955 -0.0394894116734596234 -0.181267110284723032)
(0.0985598009998903679 -0.0712770624107921663 -0.219231333958073871)
(0.0985317647025973076 -0.112051105965090353 -0.263067808644163015)
(0.106604541856859095 -0.163740871672874461 -0.323817587974986276)
(0.119887732069110631 -0.245848875167677033 -0.387262494894286213)
(0.0537597456554504693 -0.142304126343183041 -0.601530576487786628)
(0.0308974452127645481 -0.096553182016651945 -0.0174120951226247878)
(0.0633338147623883074 -0.0996847576682097225 -0.0280529758800347369)
(0.0785274449027959925 -0.0910292222524336225 -0.0305208073920823393)
(0.0960082378489399701 -0.0801156855966271286 -0.0329531953453374438)
(0.115626174558376066 -0.0648746868236880769 -0.0406691273477662874)
(0.129882398640595781 -0.0444105252898048253 -0.0545274619962989177)
(0.137012443036979098 -0.0214401018397746695 -0.0717605169083577049)
(0.132452981214632087 -0.00469549446738059748 -0.0932099569319466831)
(0.120862996468208361 -0.00389312641402993903 -0.119133934193815391)
(0.106752357362994627 -0.0166919495865849518 -0.14955090825793721)
(0.09389128763104157 -0.0418808028049666575 -0.183755952717137155)
(0.0868071716332694115 -0.0787141082903325962 -0.22275819564406979)
(0.0813304199439805753 -0.124148817479925094 -0.268136645149944119)
(0.0844429105811618091 -0.183229605097936926 -0.329672274434051282)
(0.0862150031702388492 -0.273869291169911544 -0.392710355194810568)
(0.0410634145709667941 -0.184958885665971212 -0.584328663977567442)
(0.01895073857249574 -0.123298128551490721 -0.0130542888071190147)
(0.0443425753344105847 -0.116550832245803399 -0.0155800630596673421)
(0.0499722108874867885 -0.109400936721153336 -0.00636383779398312817)
(0.0718304260671855793 -0.101860628749252738 -0.00408745587738465477)
(0.0993309193256104866 -0.0898514248416117101 -0.0162014915665710177)
(0.127552776198977202 -0.0714946819733864591 -0.0327957283879626652)
(0.136639080749964309 -0.0450157841535938213 -0.0574117084558559421)
(0.132656169274606911 -0.014548367628939466 -0.0856466881767575933)
(0.118577416216194831 0.00292784661181918994 -0.115344821347777904)
(0.100008238943190053 -0.00907869288153162132 -0.148157289182194563)
(0.0841063861284066239 -0.0399667043934840496 -0.185448818284562805)
(0.0721880046075691201 -0.083111293373495751 -0.227664332588330631)
(0.0575108309739497392 -0.132851552547282786 -0.277294745778861096)
(0.0534976741591781935 -0.198574102848974171 -0.34143178874764113)
(0.0434362039589799992 -0.304030994180044811 -0.406652038130739801)
(0.0252089182228820291 -0.233481241993470173 -0.562439119537587517)
(-0.0352487783117642478 -0.0936151214175080515 0.197231932482063971)
(-0.0736940502183440621 -0.0702732835009775014 0.233556765224944701)
(-0.113476384748971065 -0.0706315374628645742 0.245074739833585575)
(-0.120298894130883058 -0.0734625723760400501 0.23618101045970738)
(-0.0909612263165589935 -0.0698100302191789479 0.162278861296878296)
(-0.0388950551570722974 -0.0612844558797164402 0.0526378059513148699)
(0.0107005449519645968 -0.0399894333821037562 -0.0270714188604271461)
(0.0514996219576278197 -0.0194102285492756092 -0.0775856321998835696)
(0.071698482066152841 -0.00661786679725418631 -0.113646072497986556)
(0.0718720450684960516 -0.008206948752601851 -0.152268244686693921)
(0.0528872466630172233 -0.0305153067713619733 -0.194727163797197955)
(0.0318971165945276247 -0.0757159537435601049 -0.243411854518058662)
(0.00510461108380737272 -0.131119970489400023 -0.300428954406020632)
(-0.00321373587953978097 -0.210982347580637219 -0.366618579422474111)
(-0.0156802653197881878 -0.34189937389896613 -0.432146225565671116)
(-0.00569160110164464508 -0.289394082791821494 -0.529275287052920484)
(-0.0901732232443705206 0.0682436363788608558 0.498333223206178066)
(-0.181186887335708896 0.0441253382601032862 0.472455490085732621)
(-0.303246212177382846 0.0306912142154316843 0.51043450782374733)
(-0.410053435774295705 0.0171640540024041305 0.509997268812963811)
(-0.497280517194214566 0.0210373072564687853 0.350830550175372013)
(-0.57770695899834934 0.00638705920138804648 0.0818619851581569025)
(-0.634563602635237478 0.000387405348389938814 -0.0909036574085539395)
(-0.538988342520935304 -0.0130185824866424146 -0.144040296456398098)
(-0.372515874462492791 -0.01263054360563301 -0.181871596368459204)
(-0.221246861275700757 -0.0275668559289550669 -0.216466063249827811)
(-0.119421444224495216 -0.0426666305535808518 -0.245727504216057435)
(-0.101164863601814273 -0.0737215060643405806 -0.29078491639547499)
(-0.114427594079875419 -0.138466116984415299 -0.349429892789606844)
(-0.103582283147724316 -0.240564513932465474 -0.408276529493254658)
(-0.0883201159825219434 -0.393869703415447636 -0.461963178959624021)
(-0.0515692410911818694 -0.359069694643647908 -0.485213844335199096)
(-0.0663718757289930017 0.152193252280253821 0.370524387745813866)
(-0.14399350264345509 0.132190108657779026 0.394665654107356656)
(-0.255402454705065396 0.111434901868811831 0.44679554461464166)
(-0.367168300591377561 0.108395043917520334 0.49276372622795811)
(-0.497438787080900502 0.108070400079777876 0.460984248020575027)
(-0.604097597473819525 0.0441793235121560809 0.241806110962098336)
(-0.69360076680142102 -0.0347748371995084751 -0.0110783976856331443)
(-0.723445573212903592 -0.101801284971566028 -0.115682914122752042)
(-0.706129808243560197 -0.112259459229755443 -0.175053892831629421)
(-0.610775187716110057 -0.107881659257426127 -0.246891348825440116)
(-0.484218951694959543 -0.106692494319021294 -0.30728698163996726)
(-0.381497029467178561 -0.133609094658488414 -0.349127976869669565)
(-0.315315744729392999 -0.198995771102730978 -0.398401666056351023)
(-0.23959122848878428 -0.304895658288260207 -0.445435458184204769)
(-0.156864582734157099 -0.464536586821454822 -0.478781133469616316)
(-0.120430867042722864 -0.44225239702283764 -0.432748021524581528)
(-0.0851644673670044899 0.31067360478629491 0.423298152817747186)
(-0.180716970144166517 0.274758964294663677 0.461814509150054453)
(-0.275043302496056352 0.208943797402723452 0.455293350619562331)
(-0.353683251682485822 0.194703149633047745 0.438815590469129713)
(-0.485322054919043844 0.204902725867898206 0.383250389656545398)
(-0.577672261245097407 0.137743589067613165 0.239248521719812479)
(-0.58420215750623572 0.005864624470201283 0.017216420664297967)
(-0.483392679162550687 -0.122395709542844094 -0.0888925660922617045)
(-0.472720151080848416 -0.134646665890744949 -0.0593668646868090316)
(-0.618642397147880052 -0.154487121718995646 -0.0633923115109500668)
(-0.696791242630472984 -0.174570903193893845 -0.161461050248261295)
(-0.655677518016225869 -0.205623475050742244 -0.27901153161867559)
(-0.563635158679892778 -0.282156167663880519 -0.354428768569259478)
(-0.39521217239018136 -0.400564144067291128 -0.428151534716007587)
(-0.222478939284358052 -0.567162949098910629 -0.471503791570753283)
(-0.219308245219636211 -0.538985136024648481 -0.378289565590717636)
(-0.085224772063791393 0.473057933641097828 0.449197169954602737)
(-0.179924119418926998 0.359408222808231148 0.451182845337272098)
(-0.25377772301782664 0.261563569480918412 0.417444436091878035)
(-0.304242493409291659 0.257875499492657589 0.359907321722533979)
(-0.43378565435316252 0.27115680432819711 0.291051188682955653)
(-0.564434554341135652 0.208892851303519977 0.177371164210357396)
(-0.563259750647741808 -0.018455970203270243 -0.0459552201274554747)
(-0.427054901313092705 -0.200493086770748341 -0.133148239586290934)
(-0.341996649692880905 -0.166440948427399094 -0.108032202398148702)
(-0.327851403757207893 -0.0491126190258798292 0.112869519911599145)
(-0.384682083177444678 -0.0758880183669152775 0.406200872520830814)
(-0.6280452146892197 -0.140933587911997033 0.314942992917043807)
(-0.679547450762975846 -0.283818077007623459 -0.0118518724625271375)
(-0.504031001179735538 -0.508922155853087421 -0.253313310257161639)
(-0.292033870054304145 -0.691828107608211562 -0.403920436041240782)
(-0.382832620617429398 -0.666471253852658485 -0.338076467826449345)
(-0.040109956854558329 0.569923988262961201 0.377234075875136687)
(-0.0975562973180296999 0.404750075261334774 0.372119318522756148)
(-0.184583267940394674 0.287916868439363705 0.351533543253168435)
(-0.21853584396990286 0.284642742717533037 0.30261125132336264)
(-0.351002176800546628 0.329874780505917231 0.22445840920652782)
(-0.553179227141893826 0.262681881058249023 0.0799586862405564924)
(-0.532215028121047373 -0.0773834040359840103 -0.076637569168381825)
(-0.404338753091598502 -0.272017995333325491 -0.134162484026967121)
(-0.321363982922517499 -0.233492856644636787 -0.132766612364865644)
(-0.302949844237759947 -0.0377809300834058837 0.0951051212387029055)
(-0.31138383774079792 0.0707878353308154795 0.469568255980498783)
(-0.50569151383884281 0.113506358659772127 0.550262032473210927)
(-0.63285996237226938 -0.062781205917267241 0.334132338562747655)
(-0.554794769527591325 -0.420659377581316218 0.0116536189267017407)
(-0.482428853487202491 -0.779085206367296501 -0.316282006129607884)
(-0.56503701513132143 -0.696662864072173038 -0.406128480339780884)
(-0.00167739273688594938 -1.87447951267216348e-05 -0.029887463164773042)
(0.0101365112826599813 -0.00496945889211434198 -0.0340428788937472068)
(0.0328421368359217633 -0.0071118283657300059 -0.0368664434634592211)
(0.0636906487116142284 -0.00777695575293281711 -0.0414226850149595621)
(0.0889719490101250066 -0.00656230376648841117 -0.0479457669139713855)
(0.103613106666145816 -0.00442387616097690301 -0.0568648115210312818)
(0.111703944536434452 -0.00269965244232722983 -0.0687371201871557896)
(0.114762230046772093 -0.00175560528535747065 -0.0841607436279260823)
(0.114691661014663229 -0.00152633764285508796 -0.103232701418744008)
(0.11370710154073628 -0.00203727251354121272 -0.126585632598038678)
(0.113943769352046809 -0.00315338754747700178 -0.154276312967475793)
(0.117081037079812406 -0.00507726009387948242 -0.187624981032640664)
(0.124442506601986747 -0.00708791587634836646 -0.22798791549954131)
(0.13165301215401265 -0.0109653916020895758 -0.27750038601311372)
(0.146313900323798568 -0.020159070786815985 -0.343247100387051085)
(0.156708557972458112 -0.000933994038520323598 -0.386538857055320761)
(0.00174419959769532952 -0.00299694799151088709 -0.0296010199829770983)
(0.0163069036834295328 -0.0164122015684170994 -0.0325922274768565209)
(0.0403539693374240505 -0.019925975246522086 -0.0355427966187602737)
(0.0627077964674189886 -0.0187182303562491541 -0.040055582289620667)
(0.0802410796929610426 -0.0145572733038763554 -0.0467169255611735307)
(0.0930018852982215233 -0.00966508277293196688 -0.055934632916003868)
(0.101223113885694202 -0.00616546670430378682 -0.068146450686889487)
(0.105314211458300888 -0.00456003303383381315 -0.0837137635431934868)
(0.10661186926272348 -0.00479438627603412555 -0.102856894934437906)
(0.107188062979590534 -0.00695871781231787324 -0.125878308616197837)
(0.108923160095927465 -0.0109027782001026221 -0.153126680380386487)
(0.114260070803901242 -0.016982315773210941 -0.185587826823231883)
(0.121891308935980214 -0.0241499512587819154 -0.223988485595353337)
(0.137154021305143814 -0.0337185079064296692 -0.273117114668745442)
(0.137790235661885446 -0.0560851227401726118 -0.322881869231142649)
(0.146504001314915089 -0.00318562606945417548 -0.404063600164373593)
(0.00546208323766893874 -0.00886919234563228118 -0.028369663011903367)
(0.0231051406735211656 -0.0274839826272428867 -0.03214588873716058)
(0.0453310598144289201 -0.0311189801453044881 -0.0354052476219367113)
(0.0660128250324892585 -0.0279906476878037346 -0.0400682122904872928)
(0.0825064401986859985 -0.0220445637025058309 -0.0468401059378638768)
(0.0943100625952245919 -0.0157187454299448949 -0.0562144283688940857)
(0.101610454096436029 -0.0108864200753707313 -0.0686322862066427036)
(0.104914794206210693 -0.00848507751849867341 -0.0844243485512324587)
(0.105470983478632721 -0.00894333360997515321 -0.103771702528953416)
(0.105283246997377233 -0.0125527884093374047 -0.126938779602836754)
(0.106123368652320887 -0.0192999406605886548 -0.154275129947003847)
(0.110664486780880866 -0.0293421001084137115 -0.186753313426194612)
(0.117025833949873426 -0.0422509989049713805 -0.225141272176732965)
(0.132052420623242517 -0.0567760092098104699 -0.27402765000769147)
(0.131670569790229869 -0.0896824306363776108 -0.325001440251949048)
(0.132042228187516708 -0.00937275036506596965 -0.401498028912787963)
(0.00854691858051339487 -0.0170869890673633826 -0.0270154044808124071)
(0.0291446944229480018 -0.0388038519536449272 -0.0319740365670440757)
(0.0505549032058345074 -0.0420511061492029603 -0.0356897096456142635)
(0.06962645178344605 -0.0372420769794950812 -0.0404888947841787264)
(0.084784286833722633 -0.0293531470457520649 -0.0473032279680022927)
(0.0954795196598744594 -0.0211178431365111816 -0.0567860625695247381)
(0.101674846920129708 -0.0146299050896099604 -0.0694311048511321027)
(0.103814315081266373 -0.0113694387977538482 -0.0855320072263732467)
(0.10313281899455852 -0.0121524902455988938 -0.105177267151056797)
(0.101647800940617428 -0.017355537890437589 -0.128579057298946253)
(0.101100934365020392 -0.0269670470512133886 -0.156061074376702275)
(0.104288583936533702 -0.0410384414744630749 -0.188572482388590784)
(0.109091764644569419 -0.0593455437900109531 -0.226906396887255862)
(0.123205907030407194 -0.0799667139467554189 -0.275369329264338158)
(0.12328965814482265 -0.121720931925975662 -0.324874637631447805)
(0.121160599412481737 -0.0207728656595019268 -0.400960477064699061)
(0.0114413902254346025 -0.0279304242929932223 -0.0260727849010087727)
(0.0355481844482502737 -0.0503047048992186774 -0.0320364466097400949)
(0.0567518282845194885 -0.0521790522444487009 -0.0361664423638386814)
(0.0745154575918900997 -0.0454315965711200864 -0.0411010675099424336)
(0.0885054372417451163 -0.0355795070144953179 -0.0479591992849273119)
(0.0981613093662139086 -0.0255447208029957427 -0.0575532145081871227)
(0.103123276204820993 -0.0176124598783668589 -0.0704466199165337259)
(0.103731233478767143 -0.013737842101488278 -0.0868972117353867535)
(0.101277916824487418 -0.0150553799110428807 -0.10686889680402796)
(0.0978467475897523975 -0.0219978134723789083 -0.13053607807875478)
(0.0951919073024193874 -0.0344948139520535463 -0.158194793324477528)
(0.0962397667520776129 -0.0525636440273486646 -0.190790561616158316)
(0.0987732879134987918 -0.0761677449226342562 -0.229025290650117369)
(0.111870471853745698 -0.103361288144940819 -0.276914516770810137)
(0.111613726972918659 -0.153011882880723815 -0.324426662151851009)
(0.109911102395558777 -0.0343681973694880613 -0.401135094084857979)
(0.0150156111629991644 -0.0411086356423203889 -0.0258314885151834164)
(0.0428905677194674623 -0.0612955453858756646 -0.0318798742147302638)
(0.0639421720777114261 -0.0612102045266624054 -0.0360810124931011181)
(0.0804244800267571447 -0.0527771777907933975 -0.0410684243395493115)
(0.0934616834163936316 -0.0413823345220707198 -0.0480180727138479896)
(0.102341782501220474 -0.0297207444425146503 -0.0578470933089699699)
(0.106108011124983664 -0.020212648783588541 -0.0711626911333179818)
(0.104890211529771987 -0.015509135722162469 -0.0881445815700082347)
(0.100087848309658223 -0.0172364957109939557 -0.108637501460495875)
(0.0939350778903118022 -0.0259253133737176109 -0.132719302462120603)
(0.0883054462887229996 -0.0412965251471118094 -0.160683767992319759)
(0.0864008584541036267 -0.0633849616885511641 -0.193396862450288642)
(0.0860485522224072319 -0.0923607065000587313 -0.231450053027142749)
(0.0977520232458929939 -0.126739635485709823 -0.278568483476302198)
(0.0966877100693301489 -0.184217101669484601 -0.32399291005356412)
(0.0981298055863636942 -0.0516784432408012653 -0.399702274718562345)
(0.0195694514867495381 -0.0543441666463323481 -0.0261862342016398152)
(0.050391857377308065 -0.0697878523976062926 -0.0311669470209790522)
(0.0705904136089805512 -0.067393887600324609 -0.0350575194073019028)
(0.0859105899665182776 -0.0580201595406933113 -0.0399238056327609683)
(0.0986309239324006937 -0.0460244241649451283 -0.0469039111628820615)
(0.107325557049084294 -0.0334849668578186752 -0.0570920556976698551)
(0.110137370940412566 -0.0227707359832305459 -0.0710945959337561384)
(0.10680802748178711 -0.0172243411098377402 -0.0889652789257509707)
(0.0990033020726680812 -0.019046247800946825 -0.110378602139880266)
(0.0893452201506658023 -0.0290314512833126162 -0.135235687913083102)
(0.0800710632001843114 -0.0470192158466144969 -0.163717531896773044)
(0.0748868670467744829 -0.0732395416632849461 -0.19645646878037476)
(0.0712600167840202608 -0.107739755008144242 -0.234155129076456636)
(0.0810845273432411751 -0.150002192802596634 -0.280441576412276072)
(0.077715097173435041 -0.215632168530082047 -0.324111255890096261)
(0.0844669849065368267 -0.0727537870489984861 -0.39644264378844063)
(0.0242321094090668931 -0.0709322989866575104 -0.026835991407186708)
(0.0562200185707745007 -0.0793480346473580539 -0.030242272803149714)
(0.0744819602292791511 -0.0728657088174233664 -0.0332826991676657899)
(0.0896560118547611723 -0.0622180093173707177 -0.0378683575287841606)
(0.103550496335020142 -0.0488915127948449935 -0.0447512178730280694)
(0.112657323504718077 -0.0345975945162611265 -0.0553527974052330021)
(0.114886619562041367 -0.0223438126786407489 -0.0700849261240786836)
(0.109016465327365392 -0.0166281025761174442 -0.0891423275549922123)
(0.0975217778843751187 -0.0195140676271319917 -0.111954291920830812)
(0.0838282115528928562 -0.0312361462660962728 -0.13813649403624817)
(0.0707865866609423827 -0.0518828516543758528 -0.167395286622295275)
(0.0625647766485752516 -0.0822247800990030531 -0.200028996880047383)
(0.0550957877883642075 -0.122091334684539726 -0.237381044876260883)
(0.0621664572371785351 -0.172828516290592177 -0.28304693026616079)
(0.0542756919927872075 -0.246552886509865121 -0.325904377097487263)
(0.0669843226254805829 -0.0992741700463242449 -0.392985863503957034)
(0.0257933329333144071 -0.0994305592276471667 -0.0270649756211691107)
(0.0558719694478450254 -0.101752064258465363 -0.0292014257490856369)
(0.0712988784257453656 -0.0919461298845385411 -0.029575880734448258)
(0.0889099526998202022 -0.0797611104578147684 -0.0325986291169389833)
(0.10690981023799967 -0.0630557277025795421 -0.0401465448312414708)
(0.118010578208707029 -0.0426884997844326486 -0.0516343175643779739)
(0.120424136567317777 -0.0224667239080266687 -0.0670975562539518483)
(0.11145212227926253 -0.0113031381609004101 -0.0875261381652355924)
(0.0956316614443167151 -0.0143081800376391212 -0.112428127369664205)
(0.0780256020044617637 -0.0300541220771514753 -0.140638595799013361)
(0.0619204526667320593 -0.0558253934944835106 -0.171094221430382942)
(0.0508476732305643414 -0.0910477694904269635 -0.203910286201435031)
(0.0377477572971127093 -0.135649773612421226 -0.241704303948118288)
(0.0404370118195079495 -0.194537906923890364 -0.287430375642031777)
(0.0258145416401160017 -0.275767161511692505 -0.330959493264780191)
(0.0443514889118894751 -0.132028133476821991 -0.390686238041115574)
(0.0139258824099806888 -0.125678370940051409 -0.0175255391655814892)
(0.0329801407806080416 -0.119713139188814918 -0.00251312739093137796)
(0.0398072373200325444 -0.112964463517091052 -0.00175020259172129671)
(0.0629868342936324849 -0.104096245859540582 -0.00905411994973281953)
(0.0885266890691804448 -0.0900719385954637658 -0.0222168012402732297)
(0.112701974343732206 -0.0696743901580673258 -0.0372711076962352061)
(0.117139563070070701 -0.0421747611722119997 -0.057226580850134004)
(0.107948697816211733 -0.0152906330399395704 -0.0816593423682247105)
(0.090142781549242601 -0.00656002158051260855 -0.109795170298101402)
(0.069425962461404811 -0.0233486948213247822 -0.14131941392151065)
(0.0513081634770095399 -0.0547254417587060074 -0.174282532424269859)
(0.0362070343650091886 -0.0965880407515718742 -0.208942415423726741)
(0.0145646020377551647 -0.145952703228785008 -0.249210560567216965)
(0.011048476967256712 -0.213364073914099478 -0.295941958763021817)
(-0.0101396803757115919 -0.304452952530005261 -0.341388571666148999)
(0.0219233687112684004 -0.178765258740287508 -0.389615618153315468)
(-0.0298856205522652768 -0.111717611878555528 0.122063922009582715)
(-0.0718852630577100915 -0.0835621458247553933 0.150773821420362664)
(-0.116705074936205161 -0.0821870975479473131 0.162313698720869926)
(-0.137802940306435084 -0.079570712455887288 0.140832414682892648)
(-0.129593294726676717 -0.0735257716000194128 0.0669397240712693714)
(-0.0963705383293573248 -0.0603730884080804359 -0.00181630887848687633)
(-0.0423246891722208196 -0.0388962263043436118 -0.0455009722358842988)
(0.0125034553108294699 -0.0205747138382426122 -0.0815808407877795239)