/*--------------------------------*- C++ -*----------------------------------*\
| =========                 |                                                 |
| \\      /  F ield         | OpenFOAM: The Open Source CFD Toolbox           |
|  \\    /   O peration     | Version:  2206                                  |
|   \\  /    A nd           | Website:  www.openfoam.com                      |
|    \\/     M anipulation  |                                                 |
\*---------------------------------------------------------------------------*/
FoamFile
{
    version     2.0;
    format      ascii;
    arch        "LSB;label=32;scalar=64";
    class       volScalarField;
    location    "0.300000000000000044";
    object      rAU;
}
// * * * * * * * * * * * * * * * * * * * * * * * * * * * * * * * * * * * * * //

dimensions      [-1 3 1 0 0 0 0];

internalField   nonuniform List<scalar> 
7248
(
0.000145259421539529993
1.33899930458972491e-05
0.000539140869141902022
1.8493268323688864e-05
0.00893525822294245764
0.00935929448333443041
0.00718194293277525306
0.00425499386844106417
3.68281083554052491e-05
0.00845966357193256129
0.0129282576949225209
0.0104277226641041627
0.00464070158098814616
0.000294767851084039377
0.00980340078015178897
0.0189245521849856664
0.0129276434048201452
0.00599812219700037244
0.00440271682497330851
0.0151234946286765443
0.0179783568870889345
0.0171452628574317381
0.0156834750078931502
0.0146363943048626616
0.0161277445248056185
0.0170945192650927454
0.0172670732584857545
0.0182470020122007213
0.0168280707106863228
0.0174316279279295785
0.0176195985634637411
0.0176240473893681041
0.0184450595182307324
0.0129252492050571533
0.0187400165502367502
0.0185202108910101568
0.0178811995850477849
0.0168865956231514826
0.0159755794045147136
0.0194832558479644709
0.0191558210074886312
0.0185923744556210878
0.0174787128007992155
0.0175234769611225458
0.0200135083298587368
0.0196353479094790208
0.0191587520170980775
0.0188780730739738084
0.0196030882261345012
0.0205150019536760632
0.0201879021914853005
0.0196979276235301724
0.0191505425328122487
0.0187582233800046468
0.0213825071959256111
0.02121293648024224
0.0210199709378412064
0.0207775256971738619
0.0204161614873671939
0.019896863199768796
0.0193773432014324523
0.0217355094687172352
0.0216574189205483679
0.0215601206338562786
0.0214342281575925012
0.0212600606305373453
0.0209808795897955952
0.0205522906587060836
0.0221148606111936027
0.0221129391863173208
0.0221114898533520295
0.0221082920664842225
0.0221006738890701729
0.0220840892740009134
0.0220207228754888025
0.016121523682823994
0.0162616630720759936
0.0164269468684526097
0.0166223802671302198
0.0168531183436852056
0.0171223137674997028
0.0174290298187977331
0.000104966742657689588
1.27145031112683671e-05
0.000370367243202085938
1.74438301752111226e-05
0.00994817789835914304
0.0105345147526495209
0.0085433335152800393
0.00235605171536331769
3.71149200484192907e-05
0.00883201333073066822
0.0148570303447752867
0.0117243330400946533
0.00678008619441212209
0.000240377188647985314
0.00971192663396240261
0.0169867828227710169
0.0153441794204119339
0.00910183575114639938
0.00129592265843048605
0.0151703650103013933
0.0173837738185930665
0.018922343667285374
0.0172684890892370636
0.0143329806005678545
0.0165419169766399844
0.0177608146204084189
0.0180741144605930555
0.0178056684135246938
0.0160578697173832489
0.0179950541323085252
0.0182512562962848651
0.0179329746793804486
0.0173043407812767044
0.0162171342515791163
0.0192685971720393361
0.0189200062024328826
0.0180875765145499558
0.0169816662483291726
0.0169906836039044294
0.0200166806517607307
0.0195476025599309322
0.0187445910054685923
0.0178397477377497532
0.017932165373667
0.0204150364072124627
0.0200380146892835849
0.0195752611230502402
0.0192566976642886689
0.0197463312325226771
0.0207411658103401515
0.0204425790897491341
0.0199814749114769
0.0194590969407451922
0.0192190211237816336
0.021161371657724859
0.0209295041648396435
0.0205811081314550004
0.0200691170341251758
0.0195827509403495512
0.0216203767885848885
0.0215010079931389972
0.0213336732083403077
0.0210499374859933995
0.0206071134471939241
0.0220991205165517283
0.0220931887695029784
0.0220897438555248855
0.0220879668206899991
0.022049166275909346
0.0162635172929009066
0.0164172875207300104
0.0165979697869381368
0.016807002664376975
0.0170228841493321216
8.07080753755809536e-05
1.23744819420716833e-05
0.000284364290460954662
1.68788787776248671e-05
0.0111366002269773761
0.0118268516504758722
0.00913958746915006191
0.00153760556085932604
3.0371294505624929e-05
0.0116779217483583535
0.0149378666213678801
0.0119717275951351648
0.00913889674049676859
0.000153831188151109599
0.0116445361884563638
0.0164599738015193918
0.0149519388669928643
0.0103568131461782478
0.000571804965598963068
0.0157703336744483974
0.0174937065098298393
0.019033973977956576
0.0166131327882530697
0.00982857622317600925
0.0175785487008056733
0.0184220762958545378
0.0186694839848811391
0.0175638309900541696
0.01556103196816549
0.0193940428221454457
0.0190402726576103833
0.018315162392364779
0.0177247534860569857
0.0158867724617067288
0.0200447488234109412
0.0193007735768739204
0.0184601839533814552
0.0177394243775006108
0.0170258058915354095
0.0203346631743232913
0.0197545626032398954
0.0189994738839224381
0.0183337044926396991
0.0182587569855682114
0.0206943965059795468
0.0204067578529014658
0.01996713688247026
0.0195401656938303213
0.0200513434641900537
0.0209591602583808351
0.0207017419234431892
0.0202960525526142896
0.0198018139049135275
0.0196066798848762054
0.021300945944880835
0.0210867083623660981
0.0207622788184183872
0.020273149212852306
0.0197402932879891663
0.0216950872462291743
0.0215835205269067666
0.0214244938985992776
0.0211473981044233324
0.0207219882226152424
0.0221028536106542273
0.0220976507416996114
0.0221019262528665342
0.0221210001156447664
0.0221243314634089611
0.0161254239022608908
0.0162452730332786344
0.0163860355479734307
0.0165471334103731472
0.0166268048177323317
5.78204863309905736e-05
1.25526323663620987e-05
0.000249499063650893453
1.64775171448179913e-05
0.0129354633621218459
0.00923692638151968684
0.00984216948151400359
0.00107450644267552929
2.62774908835271921e-05
0.0143056717850250266
0.0118970181805166612
0.0103398795175891258
0.00533725999113325317
0.000104420967724625755
0.01632767852665995
0.0150830425497794178
0.0131308275217593244
0.0110868111164400523
0.000395239459650863732
0.0177733740189237217
0.0186511277902159066
0.0195167916600853947
0.0135510670646664666
0.00318877637776450364
0.019860433377499178
0.019717327514758215
0.0195991857048310771
0.0176727064612961157
0.0164075006743563227
0.0205793372194535765
0.0195890546444759985
0.018865341248630256
0.0187361737821755553
0.0165894475927389901
0.0202503929724570306
0.0196339739249047456
0.0189264656665585791
0.0185890498035752409
0.0177075414469300592
0.0204886847581860661
0.0200370993271787798
0.0193478272973715212
0.018666166104065577
0.0190105088853801639
0.0209661408988352435
0.0206294240905010827
0.0201527634235167154
0.0197621635012044383
0.0206574514191768983
0.021195756847844107
0.0209466618250580029
0.0205430108461927725
0.0201176288820030837
0.0198773932268686872
0.0214470064188921963
0.0212475885118674039
0.0209249150042094059
0.0204233158583271429
0.0198820472614885495
0.0217790466807743638
0.0216759956961789201
0.0215261920788742227
0.0212566452861292186
0.0208688631640303393
0.0221197342607663654
0.0221178962398655282
0.0221336807692519635
0.0221763442507478363
0.0222420357287872461
0.016013100682265094
0.016106119003206805
0.0162154249673115425
0.0163039976951499174
0.0162667818965945322
4.75914186118741063e-05
1.26985421248349318e-05
0.000192308440951494911
1.58857333655761264e-05
0.0156070653994639565
0.0151712448628475612
0.00437445982855125433
0.000632875205424333225
2.36801187078845767e-05
0.0170916618622440793
0.0137906678625501385
0.0112580173196908384
0.00257207141094253347
7.76723089883008449e-05
0.0189591234575752603
0.0141101760065933633
0.0121638132887127888
0.0100054884287756919
0.000302707196887013624
0.0206687648364715024
0.0202462475550980563
0.016039995817634628
0.0145000051843172505
0.00139971400453209631
0.0211365928562540981
0.0204167547906705694
0.0206317526323259656
0.0192416833254666943
0.0152353815433278524
0.0207841286845937764
0.0202604523441095308
0.0198948972584096391
0.0192141191958813233
0.0175090487714544413
0.0205159066789745506
0.0201207244012896296
0.0195009708761482298
0.0190239808500669502
0.017920768276733369
0.0206573156753141057
0.0202367891335977074
0.0196125065164584993
0.0188835154894621861
0.0193281604216561306
0.0210781903374758842
0.0207443079240265636
0.0202862351365167976
0.0199650249378575464
0.0213946523190539188
0.0214091734950160907
0.0211635390273313476
0.0207475064290029466
0.0203500903069971512
0.0200098594087753448
0.0216009374149254557
0.0214056855667434619
0.0210630990760476353
0.0205487554672918286
0.0200320185775019269
0.0218702212075106775
0.0217761925243756017
0.0216296643748285326
0.0213558540919072358
0.0209672533768419482
0.0221486125110836804
0.0221520651272873945
0.0221812014286598795
0.0222440377129948727
0.0223542291739711879
0.0159265667153134019
0.0159989184410940025
0.0160775334888441541
0.0161008461305213561
0.0159764160821941753
3.98008622908643003e-05
1.29232674262344348e-05
0.000161008038330153424
1.5990251266623828e-05
0.0129521934880604747
0.0155424953380015728
0.00334861219630493969
0.000497342602312336735
2.32477303299115942e-05
0.0159514556116477635
0.0186548806709514216
0.0111371900227123077
0.00178230654713059321
6.72247501956830596e-05
0.0192423281218521355
0.0173894913443065069
0.0169414496688460349
0.00670856474001907659
0.00026959456489963039
0.0209759548324212411
0.0167132404469572844
0.0125031274694379912
0.0141802780877065826
0.00103327193827760242
0.021383116318344067
0.020663421748717551
0.0163458860871569973
0.019532057346338963
0.00761572894402020879
0.0211187260967677405
0.020964007524420427
0.0205929748791278816
0.019273861663180545
0.0180389241560482035
0.0208197474640421203
0.0205152828659388824
0.0200107642611982994
0.019615455891967809
0.0190712033466590818
0.0208158971143092182
0.0204147883862927405
0.0197394122161403188
0.0191789200967292031
0.0193364593879881592
0.0211520504305562906
0.0208309836740978478
0.0203614096560645677
0.0199327131624732479
0.0202601470747591945
0.0215270349364732154
0.0213356576770930284
0.0209537137741693767
0.020499221078176328
0.0202160246637391253
0.0217527374912343634
0.0215638076289413234
0.0212097727876395976
0.0207161828508494981
0.0203052873663187861
0.0219655984204827071
0.0218801545291403832
0.0217351473575585902
0.0214654178491176656
0.0211236004097643502
0.0221872197056894802
0.0221966178076562978
0.0222341399099752098
0.0223006373935110205
0.0224135735727698966
0.0158650614392382636
0.0159227186703849305
0.0159666383891808109
0.015941595124793248
0.0157709226945489112
3.70167828792529813e-05
1.33082266211982479e-05
0.000154248517903221751
1.68225749839839949e-05
0.0149316461767517224
0.0173877264394777277
0.00323196416073357265
0.000469686690578919111
2.3768646894972336e-05
0.0171675810745387826
0.0215055376824315712
0.0101210511670239024
0.00164504439561554664
6.23263842774705884e-05
0.019512523410454348
0.0209650608870499619
0.0194174419362365541
0.00601424751157766946
0.000246020600277868813
0.0202873271052806392
0.0185904296088324414
0.0170179215021278689
0.0142929524995581564
0.000853103224847596509
0.0209749453530153097
0.0208665796934253689
0.0192103781607440641
0.0191076660825906276
0.00644062936476303034
0.0212904168362432131
0.0216200016106558764
0.0210899488822754964
0.0197829691269911755
0.0184633141458621954
0.0210391738605121593
0.0207713156768057974
0.0201606642725251951
0.0193025366639409252
0.0193079079431365749
0.0209477765304370775
0.0205627919216328885
0.0198603563172151075
0.0193027468816255564
0.0191101197565271726
0.0212455079610394358
0.0209386230029919226
0.0204554839843234561
0.0198500268472813039
0.0191709526966047684
0.0216097703734248435
0.0214520636775187117
0.0211394528420080358
0.0206816264149984226
0.0204232738708527775
0.0219025407686474806
0.0217298682504396441
0.0213878138892106447
0.0208781636277961986
0.0206387358160870157
0.0220644675569328964
0.0219911857413928394
0.0218546746902007795
0.0215892339220087152
0.0212750675318101948
0.0222346608168321816
0.0222525797279628512
0.022299823473093023
0.022369927484318243
0.022470828363859368
0.0158279381281660921
0.0158745952662270595
0.0158959478188606639
0.0158415301114007145
0.0156437629608808422
3.78405172048901865e-05
1.35032888463759314e-05
0.000153726883616170222
1.65333687142792377e-05
0.0129672423228168621
0.0151526731864105313
0.00257804581453737218
0.000469496006971286902
2.31738962902301381e-05
0.0145234257608267241
0.0172466257411267275
0.00892940883332518816
0.00173608656891433076
5.78130564243884467e-05
0.0186022276099057256
0.0208566794434194742
0.0215045117848944312
0.00728913205368558314
0.000223914979182450208
0.0206152849771101404
0.0206614400519740393
0.0239367083161310806
0.0192469605081187489
0.00073931455349144986
0.0210611116566558308
0.0219718705814673301
0.0217926920847600104
0.0213565901909431241
0.00595828233673149389
0.0214245820022874942
0.0217392375394453337
0.0209305932309848015
0.0195597018320249234
0.0199523266424739554
0.0212650033137259838
0.0209614142978504364
0.020192747585575533
0.0194937815774318852
0.0198712359237399223
0.0210786373884602023
0.0207353157900582938
0.0200574707972063331
0.0193591122414697309
0.0188655873117973966
0.0213347741124321651
0.0210734234203408394
0.0205933265830537601
0.0199011277156496517
0.0192101800975309107
0.0217025115251866171
0.0215602675028473204
0.0213039845417759763
0.0209509051748657596
0.0204854301834933375
0.0220123192079145699
0.02188648659563577
0.0215864854924541598
0.0210833936720399642
0.0205303823877162686
0.0221461908876237935
0.022091428601591398
0.0219811149128936109
0.0217440985379248157
0.0213576455623028238
0.0222701490826232758
0.0223005551569210557
0.02236366936272682
0.0224518039930621457
0.0225759264895071671
0.0158048368196309734
0.0158441672639517937
0.0158556239960834337
0.0157917840684023286
0.015581038880646365
0.00575279781751155718
0.00469485217819418186
0.00394417074620145598
0.00238854884324476166
0.014333686824089302
0.0111452396365143494
0.00672694493959191675
0.00325198730681598323
0.0020162723878007693
0.0162521996407778389
0.0146488920220248474
0.00760180233531395234
0.00379502041999382062
0.00234923659475959421
0.0169307362105665625
0.0162713162946690297
0.0123245045743510459
0.00640162128312609172
0.0042033206706778084
0.0145750591635893552
0.0109336616169867108
0.0117308917476992777
0.00989975209520490076
0.00790316060936990632
0.0146013970702259313
0.0130249780287333226
0.0128618647251265584
0.0130309391275709712
0.0122991413385053847
0.0176618296246935681
0.017598726010543405
0.0182606625790194856
0.0177128899975156039
0.0147365903471128185
0.0184519446520205778
0.018247072320828079
0.0186400849666003426
0.0184864704120200028
0.0168946977023628243
0.0196205205774558945
0.019607414991441037
0.0196691891685574285
0.0192235386944287802
0.0179846123723690909
0.0201773959709521562
0.0200961848741394236
0.0200676324303856353
0.0197074849952320157
0.0188465190595309487
0.0208860562038988527
0.0208065497570318406
0.0207051550032300059
0.0204798872988126747
0.0200536837774546034
0.0215118068461784273
0.021506590463500154
0.0215071987575322573
0.0215013052934803599
0.0214690924519167388
0.0214027326035874516
0.0213525220511263172
0.0221182719607584538
0.0222100911970113078
0.0223048742653698985
0.0223893149065622632
0.0224573841899136026
0.0225287118978477335
0.022702030277767047
0.0225888254583798062
0.0227489028120259999
0.0229447675433687888
0.023173172942868768
0.0234268988916859697
0.023718162926229136
0.0241238924167439389
0.0169621125923566929
0.0173660527593348622
0.0178711640512613582
0.0185059870353341295
0.0193106144787792075
0.0203552674669608032
0.0217747239189750724
0.00664229606661163093
0.00872703465133346963
0.00850491885647254586
0.00546924185015862895
0.0107290149801428335
0.00948058394751861641
0.00736187990842686844
0.00456847019002301624
0.00336799816219237637
0.0127611514314455513
0.0115571788027637578
0.00658886643313847005
0.00419717524737083826
0.00348261973434523583
0.0162914283653562419
0.0140217363248405138
0.00734904014728594672
0.00504044100184115711
0.00417259348807789629
0.0180239678506622265
0.014412520922951047
0.00911452799367919002
0.00656476387978497701
0.00598434392713855998
0.017031796004492384
0.0162343492935090421
0.013717167802648261
0.0117736055065741276
0.011620076665720484
0.0168339467959134799
0.0174747178226299579
0.0179959292211764772
0.0165888924691456087
0.0150113080874143025
0.0178532604208287184
0.0176699827286373491
0.0176782611535256824
0.017209535244287661
0.0156857408489580429
0.0187740213825886709
0.0183970753867670582
0.0179343492672784689
0.0171478574890611794
0.015880307520127198
0.0197065757139446157
0.0193716485776220144
0.0188681243332919496
0.0180559868288740939
0.0168890306834963214
0.0204585298609604102
0.0202220282731163242
0.0198592851816159245
0.0192923695712274614
0.0184591921396891345
0.0213715127856676443
0.0213193196191977657
0.0212395490551193639
0.0211111774100295295
0.0209081214814873725
0.0206035105814941846
0.0201902575702427416
0.0219380985804124122
0.0219732278416291393
0.022006903912902321
0.022023598567196441
0.0220076565704575844
0.021954685109658565
0.0219030489540698835
0.0224811848771265844
0.0226106460521381773
0.0227669322631049026
0.0229474357492944307
0.0231457784045023714
0.0233627593199647356
0.0236356827222867008
0.0168918158289310082
0.0172768309901143377
0.0177581757041454409
0.0183639064673109496
0.0191344468251133971
0.0201308341241247316
0.0214480921937237404
0.00724368840982724232
0.0104422993554343958
0.0144548560368159256
0.011974774001688275
0.0113716068505729986
0.0109822782422028444
0.0117517253046811251
0.00925777003914421241
0.0061546471102687109
0.0132792969450281281
0.0114742466633420779
0.00850531108281575576
0.00660497122613901057
0.00657998509901019414
0.0160493621619286694
0.0109781152981793598
0.00676239241941498873
0.00559373856112604841
0.00553813945336114645
0.016388028908103789
0.0117375333315061139
0.00838437596937330505
0.00619949734978694853
0.00576761348725959421
0.017476361732141496
0.0147425235612518267
0.0121123712682255445
0.0105344773493339702
0.0105861556134473622
0.0174937622169696293
0.0174077464026240539
0.016536660373222805
0.0164497791747759241
0.0163856325974622991
0.0178905729823781168
0.0177040001616904676
0.0175159190357036046
0.0170819350902189429
0.0162245175109784028
0.0187258409310010546
0.0182746059216532288
0.0176669114129029206
0.016894345294937968
0.0160446187000004882
0.0195455536728400339
0.01914380923046205
0.0185260117586375575
0.017636402618041426
0.0165048397838905986
0.0202888260947097082
0.0199866205522875595
0.0195211772332376451
0.0187932074597738988
0.0178005596195760438
0.0212730361169366916
0.0211912088057381598
0.0210724679859947174
0.0208919280071980205
0.0206153754693946117
0.0201887800817839233
0.0195593619500502441
0.0218434160181108644
0.0218530098596765969
0.021853666367520088
0.0218275670012982141
0.0217541459293399998
0.0216203714379243732
0.021435005209709701
0.022400875038474502
0.0225070124708507263
0.0226330991061395141
0.0227747576238991299
0.022924118013709447
0.0230770521421674452
0.0232541156602258728
0.0168178704221591778
0.0171787999359285792
0.0176275229963223333
0.0181887855520759568
0.018898171381043341
0.019810177781601733
0.0210088942865925069
0.00822082629127391523
0.00503309454868983066
0.0140418575886621048
0.00418478410265020473
0.0123244889898091146
0.0135169737678341104
0.015826501870175199
0.0126503057472219533
0.00243110158679198021
0.0138604846932549545
0.0129688173677488926
0.0122162051384374273
0.0104253583023277245
0.0056181683153491398
0.0145866718884848715
0.0113252729704229615
0.0085818068485033136
0.00876418599496862905
0.00820651085644347363
0.015124751068557719
0.0117367686794110204
0.00906237416320525638
0.00737667444727291375
0.00756587428685055654
0.0157659484645268425
0.0135199906931576571
0.0119233151829834638
0.0115912923266404035
0.00925476380465826108
0.0165319992215579789
0.0162714100137736697
0.0159883753654499368
0.0162938805032439432
0.0131268341082768723
0.0176059784470980682
0.0173741560538941998
0.0172145173215323688
0.0170303102367587306
0.0157830326657401217
0.0185823482967838877
0.0181186077814774506
0.0175486211521513301
0.0169907086379752735
0.0166540848439788308
0.0193721897536945076
0.0189349752860013126
0.0182834283116266282
0.0174582457006288057
0.0165174138096557052
0.0201328223561065348
0.0197865009141150426
0.0192636423499450531
0.0184743739949868521
0.0174927864785576308
0.0211817931569049309
0.0210689148940154947
0.0209131247702503131
0.0206883942622869896
0.020353138097839004
0.0198390427664721716
0.0190541520079955534
0.0217581507631487113
0.0217401910517262542
0.021705242620392376
0.0216340046712699477
0.0215020178857206999
0.021284795090962063
0.0209452374860241708
0.022320538109575596
0.0224013005324327878
0.0224950416360876551
0.0225952262587234692
0.0226913852083326789
0.022773064246366416
0.0228426700776497536
0.0167188358039319224
0.0170471923212434893
0.0174521797753595734
0.017954261987924186
0.0185825709141108526
0.0193816815944840293
0.0204207501821302602
0.00749967550547531343
0.000845374205059313145
0.0125728152886354239
0.000744986936912317693
0.0129511202133794599
0.0149143037250281559
0.0156638867444583822
0.0113496844361220175
0.000776284685896360348
0.0144333720237082453
0.0161908208698466512
0.0142373614666725171
0.0125113297080667509
0.00514635229955277308
0.0153745858866684831
0.013517577612152748
0.00906058578927197537
0.0109853563139375929
0.0103545554735659899
0.0151096350262188706
0.0138812996339405283
0.0115009640832422749
0.0105110883191670557
0.00971526771720689422
0.0145159798452845663
0.0141703581628263471
0.0139523319575831622
0.0130267965362817588
0.0106159135745007519
0.0157786384420704195
0.0158368699521015538
0.01636613944179275
0.0168690260613140429
0.0121637980054770303
0.0174080448587863278
0.0170447888807016487
0.0169285031880264808
0.0172064407533659217
0.0144741176219822121
0.0184682471062950805
0.0179818623643427378
0.0175097005815093611
0.0173387110786729325
0.0165549423440358619
0.019277451212586158
0.0188086818186842114
0.0181849120719531493
0.0175235828058333265
0.0168900690301342915
0.020046717115653475
0.0196655069969987259
0.0190942372241199518
0.0183083272766711852
0.0174307315588978322
0.0211341609432219579
0.020996099867147025
0.0208134669263697926
0.0205611288702322974
0.0201920680806799042
0.0196247054896084849
0.0188061136384863013
0.0216969800029402707
0.0216565418590423213
0.0215940099338682474
0.021490119237300008
0.0213195340560035779
0.0210433243441799263
0.0205755201773408399
0.0222499163231545949
0.0223074369022845768
0.0223722071301522482
0.0224365002539696212
0.0224877007704670576
0.0225113663829404377
0.0224882154302036841
0.0166034802741556776
0.0168942656407348978
0.0172494510630784685
0.0176851330777216473
0.0182235979588390613
0.0188984649821043946
0.0197586293066617895
0.00507574639768976557
0.000155022647389522816
0.00863756436318772504
0.000185347294430647709
0.0131298078191146063
0.0108419997168068081
0.00832302222765266692
0.00655071233538271052
0.000251254731331221185
0.015281180186327287
0.0149166933916286305
0.00856020891110392118
0.0120376450917226655
0.00510604969170959291
0.0162914111358395813
0.0128338902932624826
0.00720170913806749986
0.00960217894759377369
0.0104610484979025965
0.0145778085678409889
0.0114616564287872928
0.00935403890494962593
0.0124298513769916467
0.0107727756474295788
0.014057683825349181
0.0138836340595558019
0.0141908567252585407
0.0134924833440085296
0.00940161049126580183
0.0156702595251247551
0.0155430218543578368
0.0161754956309135209
0.0160817929486586977
0.011760984409825842
0.0174709618200994156
0.0170451386325813428
0.0170392615856169681
0.0174577775444694182
0.0143619152067256291
0.0185086723646140615
0.0180238853052723143
0.0176040923110072495
0.0176643267196962273
0.0159426983651342023
0.0193119524555527278
0.0188491591018604236
0.0182888789112310331
0.017874492752235991
0.0176224296241700093
0.0200504720202365587
0.0196575929775211489
0.0190820673887004202
0.0183427328041609571
0.0175213622027202975
0.0211300651519009501
0.0209783791053920685
0.0207831424805823978
0.0205191814002416047
0.0201346205289443872
0.0195499639414122954
0.0187903985417028317
0.0216654864299558637
0.0216083420621755382
0.021527298929111819
0.0214057064743439808
0.0212214550379382985
0.0209291598642608115
0.0204230994946160184
0.0221929330328087537
0.0222304223887255549
0.0222711243536593238
0.0223072194551288613
0.0223255408117951602
0.022310361348186581
0.022229213780134368
0.0164795132625718474
0.0167303966788190546
0.0170336979847250797
0.0174015135360939613
0.0178498973290246582
0.0184019418398996826
0.019086889500325388
0.00155574162584951417
3.43132844654254465e-05
0.00704744977161624823
5.00737562523239944e-05
0.0117038738412732213
0.009738282393173028
0.0102305226205574602
0.00564537123958310742
7.46006180006653151e-05
0.011501695274913017
0.00763180353606057651
0.00811366439781992937
0.00767833914438154422
0.00135537918841317166
0.0115134779200184324
0.00676595881236484887
0.00747835145233337589
0.00954399928645183367
0.0104049159674870426
0.0141925190896829406
0.0103681545101681274
0.00828526126426454464
0.0102866220993695651
0.00806887190036869456
0.0144952135827169509
0.0144249015368971938
0.0147964987611071061
0.0137850414001912426
0.00423297077427816758
0.0160631670405559923
0.0159337378958476494
0.0167076358488457283
0.0165713463688660703
0.00930915100679935437
0.0177937937483948795
0.0174253029902602247
0.0176227803510171956
0.0172347252362919263
0.014243434302034657
0.0187155506656312247
0.0182627227320774008
0.0179236107546400791
0.0179920801530981077
0.0176769452169588843
0.019465882646459088
0.0190285721964430152
0.0185143122942836788
0.0182452414386384265
0.0184141460181348714
0.0201438109952205881
0.0197664028714823539
0.019228165165419496
0.0186016372687546373
0.0180501228436810435
0.0211739739131646468
0.0210145139114553924
0.0208159573649075585
0.0205532945836376969
0.0201697785184136377
0.0196096836317893632
0.0189679749064990792
0.0216650113822978996
0.021595766862675881
0.0215038074609972367
0.0213750017682443165
0.0211908164802011648
0.0209076647851904607
0.0204429567183331412
0.0221517406461098562
0.0221725814898156189
0.0221945102031693674
0.0222108831850027985
0.0222102505743360865
0.0221780439341259863
0.0220764200137100186
0.0163540510677764421
0.0165652501359163894
0.0168180531773947546
0.0171213380370534782
0.017486105579238808
0.0179267403818354487
0.0184572244694925572
0.000357441173384469605
1.58662585273227797e-05
0.00204910766931039887
2.22968298177883477e-05
0.0107613675454352169
0.00760232959228749911
0.00630669438176316693
0.00298554616427882226
3.75831602556432444e-05
0.00914762320628700366
0.00755770903130309913
0.0081924915946577602
0.00324925680041310543
0.000464015042023053299
0.0098717817911200649
0.00830898496136673638
0.00932426669425528466
0.00529658303298699215
0.00756499900290832309
0.0145099051600376741
0.0148850945818873384
0.0114511099143749413
0.00969955365217146231
0.00792978621962217058
0.01533842816781451
0.0159275967880323222
0.0164570256535560289
0.0171546906370661674
0.00524208704127714694
0.016730477803645373
0.0167276314381972421
0.0173776080130017448
0.0186499600364400976
0.00937521296981876952
0.0182462998453027901
0.0180118483207275873
0.0178246919818498516
0.0170407239006413573
0.0137153270797971769
0.0190604491407181942
0.0186648742773460261
0.0184240516715752298
0.0178862636156678738
0.0163509783664045408
0.019710515136177359
0.0193041675571676008
0.0188148192108745296
0.0185247429875438387
0.0190040071992803178
0.0203068853213664406
0.0199578187896888096
0.0194554518877079474
0.0188870686801934917
0.0185582001820774993
0.0212621050507537969
0.0210959421308141749
0.0208989331106471214
0.020644957637420875
0.0202720600308384721
0.0197396425769915847
0.0191763746603311504
0.0216903305342711072
0.0216144725572237663
0.0215177335373382857
0.0213885118417257297
0.0212089606205460544
0.0209320344287914212
0.0204905406162013831
0.0221262456741472165
0.0221340358711196415
0.0221421457176402339
0.022146110641646656
0.0221385264663778829
0.022109576449964672
0.0220203238802297724
0.0162331694380292331
0.0164069909005748853
0.016613278202358011
0.0168585915892050311
0.0171504149730355056
0.0174964749333919416
0.0179005642777631327
0.000409439529021011128
0.000287532008974293325
0.000697377253611224796
0.00043367220839514518
0.00185030880803302954
0.00112219759932761284
0.000628531484950219728
0.00379004338708386485
0.00205671500562051726
0.00093750988124291989
0.000581341636272843091
0.00019660910755456252
0.000147583765445909388
0.000307262561382605753
0.000196683469949665297
0.000943227575203090928
0.000442371535068953334
0.000243690325774516568
0.00366408811732806677
0.00174984627402194619
0.000621125896727924812
0.000286022995700655532
9.30766951336993285e-05
5.9596995910553383e-05
0.000123484448992468895
6.91759814211408624e-05
0.000333236682999043762
0.00015446010975306732
8.00100800469117273e-05
0.00156645739066724903
0.000457721545963115121
0.000182698743922557173
8.82282607608731091e-05
2.90540467351490725e-05
2.19501535582069367e-05
3.41433144784806183e-05
2.6977395111048889e-05
9.21063617193260299e-05
4.10957024229377188e-05
3.20236510588606404e-05
0.00035184102567509132
0.000104943332547348655
4.74030080899009212e-05
3.78597685372059731e-05
1.52181361201789651e-05
1.78136693909506051e-05
1.80496068443131555e-05
2.29113895860621526e-05
2.28967333072422458e-05
2.15837096624016988e-05
2.84732295271243339e-05
6.66407530052562109e-05
2.70677265013182586e-05
2.63986107224648048e-05