/*--------------------------------*- C++ -*----------------------------------*\
| =========                 |                                                 |
| \\      /  F ield         | OpenFOAM: The Open Source CFD Toolbox           |
|  \\    /   O peration     | Version:  2206                                  |
|   \\  /    A nd           | Website:  www.openfoam.com                      |
|    \\/     M anipulation  |                                                 |
\*---------------------------------------------------------------------------*/
FoamFile
{
    version     2.0;
    format      ascii;
    arch        "LSB;label=32;scalar=64";
    class       volVectorField;
    location    "0.0299999999999999989";
    object      faceForces;
}
// * * * * * * * * * * * * * * * * * * * * * * * * * * * * * * * * * * * * * //

dimensions      [1 1 -2 0 0 0 0];

internalField   uniform (0 0 0);

boundaryField
{
    inlet
    {
        type            calculated;
        value           uniform (0 0 0);
    }
    outlet
    {
        type            calculated;
        value           nonuniform List<vector> 0();
    }
    top
    {
        type            calculated;
        value           uniform (0 0 0);
    }
    bottom
    {
        type            calculated;
        value           uniform (0 0 0);
    }
    left
    {
        type            calculated;
        value           uniform (0 0 0);
    }
    symmetry
    {
        type            symmetryPlane;
    }
    interface
    {
        type            calculated;
        value           nonuniform List<vector> 
181
(
(0.0101006659598677495 -3.74614972313638328e-07 -2.42690916944758472e-07)
(0.00770169469522077963 1.8565829250304099e-07 -2.84636269646598805e-07)
(0.00541168845536011203 2.32110119322789102e-07 -2.30891083228816537e-07)
(0.00388576303409575528 2.1040184371947539e-07 -1.73519248995015221e-07)
(0.00299767119262573387 1.72995504237531302e-07 -1.15951591050788417e-07)
(0.00260174742409826146 1.18654727430286624e-07 -6.63073075229267631e-08)
(0.00249105608598612638 9.12539442905433518e-08 -4.70946253459575135e-08)
(0.0024252523108324168 9.72398707986921359e-08 -5.05972133506313513e-08)
(0.00236402003760741598 6.81231502927479758e-08 -4.1317662234538233e-08)
(0.00228493229966692272 4.53970703538498884e-08 -3.08275868857986577e-08)
(0.00209084261726434194 4.96660151630389111e-08 -3.37929949828546886e-08)
(0.00182848600120092287 5.13732829825664609e-08 -3.21026140824938116e-08)
(0.00159955167387603532 5.70159722596538175e-08 -3.32720517346938607e-08)
(0.00141179769662992086 4.3913783642855972e-08 -2.82225755814197675e-08)
(0.0012551382310284926 3.3675013780913651e-08 -2.33452738588911398e-08)
(0.00107527527945511822 2.11531407945736715e-08 -1.39285836039791637e-08)
(0.0135945805617717162 -1.76938993910444608e-07 -1.48692882650556153e-07)
(0.0109349976230090126 2.18397490877006291e-07 -1.46898573255121861e-07)
(0.00821677770315780258 3.03332427947576995e-07 -1.26414087665172678e-07)
(0.00601958467979172261 3.18125645089533323e-07 -1.00711825719642417e-07)
(0.00434206505962679828 2.91340677884553417e-07 -6.34938261769526638e-08)
(0.00341134491637765233 2.66382482143555075e-07 -5.71617692605844205e-08)
(0.00315045553125219971 2.58070703830545335e-07 -6.14123060281900564e-08)
(0.00303356453762185056 3.41842772382503184e-07 -9.7412426970492773e-08)
(0.00280596267897515904 2.18876963456972138e-07 -8.2478061771560077e-08)
(0.00257974530557855599 1.25018836131827341e-07 -6.34440273319153405e-08)
(0.00229709388048767371 8.18653257312640441e-08 -5.02742821360155329e-08)
(0.00195669933115415673 7.52417950651677409e-08 -4.85318585743470566e-08)
(0.00164549739659886627 8.53025653646224745e-08 -5.72817351215963983e-08)
(0.00137346578628400333 8.2393444482618844e-08 -6.54586844114908384e-08)
(0.00120060050439277583 4.50089482893155575e-08 -3.89863485709113379e-08)
(0.00106794055640622152 2.49040330758953132e-08 -2.07768969099939101e-08)
(0.0160329655685793847 -2.49339145109487323e-07 -3.41757459899923251e-08)
(0.0134075282660849528 2.21660620061221993e-07 -4.59308959541687705e-08)
(0.0103118128679172798 2.96117990383855263e-07 -1.69536748723931495e-08)
(0.00796588679362154536 2.79791797183137311e-07 -8.77081125661232777e-09)
(0.00629739716900737379 1.70454934416644494e-07 -1.42479234472670275e-08)
(0.00505824758957531834 1.1114675354071309e-07 -1.89993320580745742e-08)
(0.00419809293889041382 8.66874358119394627e-08 -2.17689298839455927e-08)
(0.00376068730952354218 8.85581149798916081e-08 -2.96577760601780196e-08)
(0.00333470405705226956 1.25973942931303052e-07 -5.31376620184499928e-08)
(0.00295648790176888335 6.54707031106809869e-08 -3.50498733593322232e-08)
(0.00264729636784297217 4.71159912998599041e-08 -2.9828240469140055e-08)
(0.00222894678110082105 6.11632189863886869e-08 -4.27130785361474357e-08)
(0.00184881650458344543 8.40450180809094953e-08 -6.82937797246484737e-08)
(0.00157287932980274296 7.46572955635855239e-08 -7.42489478474474623e-08)
(0.00131792091185554787 6.49437565820094578e-08 -7.00209329543687972e-08)
(0.00105544535671448273 7.18484993366752871e-08 -7.04862721515105243e-08)
(0.0156824714472842616 -1.86901814089488e-07 -1.7573537055896545e-08)
(0.0132881507912844914 2.13716223490187649e-07 -3.24594444384230381e-08)
(0.0105139607557832061 2.55150150950795615e-07 -4.64954173678365951e-08)
(0.0083475831783589062 1.93627445502880248e-07 -4.01692141459387171e-08)
(0.0068072625018159574 2.48686760925923622e-07 -6.25542927651399417e-08)
(0.00567366101622885245 1.23007590038261597e-07 -3.64259685895268988e-08)
(0.00492633460664802618 1.5131022058354752e-07 -5.17916716445029053e-08)
(0.00436988207612948494 1.15116047106020078e-07 -4.7615234203180402e-08)
(0.00396573535529769813 9.23536702864359189e-08 -4.40531649060441016e-08)
(0.00366009997548775957 3.54565169087409343e-08 -1.95302900693680941e-08)
(0.0033736818568054789 5.90554669256610881e-08 -3.73910644859691601e-08)
(0.00302960755254294339 9.71016778222012213e-08 -7.00530205154301282e-08)
(0.00271897814200401872 8.02130617611102969e-08 -6.82709822864899724e-08)
(0.00243607189597610119 5.92074653768569306e-08 -5.70094417103316658e-08)
(0.00204224277058965903 5.86401073056470467e-08 -5.63639498538381833e-08)
(0.00150482357578178507 7.83428155452907139e-08 -6.06372856402277394e-08)
(0.0151729514876968764 -1.6208637005569491e-07 1.46740789676404694e-08)
(0.0127202531561819883 2.09541272244549732e-07 5.13699125904811063e-09)
(0.00991632477676984529 2.62000545972977226e-07 -9.67084416092011104e-09)
(0.00779266250068850249 2.05763136834311629e-07 -1.5309166131347485e-08)
(0.00633099673796173185 1.90026546188631755e-07 -2.3553128521551025e-08)
(0.00527629690523422849 8.38209393942891356e-08 -1.52096593180603943e-08)
(0.00461749232766392979 7.06492986174998517e-08 -1.82776745574840932e-08)
(0.00415228519438478379 7.15206594405003473e-08 -2.53136553707918392e-08)
(0.00378144303610581604 6.36840613923472486e-08 -2.85754858477631047e-08)
(0.00356540890060773157 2.95732150665175555e-08 -1.43725509415583529e-08)
(0.00338992821742088203 6.64277844761743827e-08 -3.54092975385555006e-08)
(0.00312158971212925804 9.72929157281306236e-08 -6.00257708169173232e-08)
(0.00294034727737577106 8.50108582041086761e-08 -5.84185640681812175e-08)
(0.00276294772925310623 6.1646392012684928e-08 -4.23835700082891764e-08)
(0.0025494643517267046 5.80894005126949214e-08 -3.49264080404642021e-08)
(0.00211518869102481468 1.0190758596702004e-07 -3.03448998766123261e-08)
(0.0148730182586690116 -1.42128593820956053e-07 3.26828969941294785e-08)
(0.0125128228637737694 2.09893434060322111e-07 2.61604179140181205e-08)
(0.00980362210097313058 3.03745990089428695e-07 1.82306937382311691e-08)
(0.00765845315686923545 2.52786011893415159e-07 4.90964708259786423e-09)
(0.0061712663484958059 1.9877231548756657e-07 -3.79174425343140046e-09)
(0.00513372255538219885 1.59687454659320227e-07 -8.24388585907029854e-09)
(0.00451417777014962839 7.34854378516026201e-08 -8.82057005348988275e-09)
(0.00422445319438920653 3.89010880605407538e-08 -7.11774235976806439e-09)
(0.00399380539713661224 4.73037870311326293e-08 -1.09367743712161229e-08)
(0.00366697486959919423 7.7339407754159526e-08 -1.96717012214929182e-08)
(0.00345342231656470483 1.1086333677979299e-07 -3.02737724031588279e-08)
(0.0032572398565613456 1.03722307857538044e-07 -2.78658479693724871e-08)
(0.00296991463423939639 9.48691883837969756e-08 -2.69635865160816729e-08)
(0.00262761079697412109 8.43175561516692217e-08 -1.72203781578602063e-08)
(0.00236234495266278953 8.24248425507241673e-08 -5.71343967005023762e-09)
(0.00186328409912148033 8.85257889320092314e-08 -4.36522061601489136e-09)
(0.0150107719341748356 -1.88469584664318801e-07 1.15749362896597235e-08)
(0.0126631540724332879 2.20358239029139509e-07 -1.79775630442748884e-09)
(0.0100796493054367015 3.10956044670817718e-07 -2.31866106126825311e-08)
(0.00790470871400306314 4.01618988819493789e-07 -5.69408555499695229e-08)
(0.00639703428396689189 1.00086600975097003e-07 -2.03925518436599084e-08)
(0.00539414926515032356 4.76661767557088208e-08 -1.36850242102991522e-08)
(0.0046410142139516582 3.84943782284004326e-09 -1.49150296464312713e-09)
(0.00421857652752169032 7.01512162797974173e-09 -3.13081722927817574e-09)
(0.00390635521244693008 1.8674283484355548e-08 -8.89687157469363401e-09)
(0.00340586409931089131 7.05415811133131157e-08 -3.45053626241040133e-08)
(0.00299863149313794441 1.10689509849277849e-07 -5.39949443512461437e-08)
(0.00269217708409769324 1.05007042672045564e-07 -4.97236323404062536e-08)
(0.00238280559416511727 9.46900187119849476e-08 -4.41159682974692154e-08)
(0.00201442638360307827 8.20240300473126235e-08 -4.17780488861804285e-08)
(0.00163961013088469404 5.52829689027868752e-08 -3.56983654127823629e-08)
(0.00132362389658609195 2.56773932337324537e-08 -3.9323665641843945e-08)
(0.013945173111951318 -1.40032859371808512e-07 -3.27791839921880312e-08)
(0.0114962943301132447 2.29560670439867248e-07 -5.37925748401860099e-08)
(0.00888392008173815272 2.71516849180390903e-07 -5.720538155930201e-08)
(0.00682738655943320848 2.69849748174688565e-07 -5.11999891353666001e-08)
(0.00548548655445576377 1.87182097429764767e-07 -3.4343696513455281e-08)
(0.00469122331972341485 6.61082296989831775e-08 -1.46411686472949674e-08)
(0.00422681441381931623 3.70891913115864564e-08 -9.47864756297385909e-09)
(0.00394566436900710502 7.70282363600063559e-08 -2.41068836278159281e-08)
(0.00378983983876842422 4.29179031132150521e-08 -1.48212810085472368e-08)
(0.00364630239139211113 5.51302025431521114e-08 -2.01090577602769806e-08)
(0.00337865915697033604 6.74571794936002781e-08 -2.72725372521662977e-08)
(0.00307317405586849226 8.7949536092136976e-08 -3.30137113401326884e-08)
(0.00290575931130113456 1.14356224207042871e-07 -4.99169075257441088e-08)
(0.00273680591358286965 1.0388871346833643e-07 -5.11944578149209208e-08)
(0.00249720089853283644 9.68607600574765713e-08 -4.69812684496974167e-08)
(0.00218580633970508718 6.30105082005967211e-08 -4.75668920989356092e-08)
(5.43652318845024651e-07 9.76953250416582219e-08 0.000622879242664271392)
(3.35632278410822414e-07 4.47035957515713095e-08 0.000443519229723238065)
(1.47449812410946577e-07 2.07393130667043956e-08 0.000712059569881735898)
(7.76487209317748873e-08 2.58754304869459732e-08 0.000959681649671908382)
(4.87599023600679584e-08 2.92951087498461471e-08 0.00113199618501803466)
(3.55335409091273954e-08 3.27360577394585497e-08 0.00122502868082279524)
(2.78521967759462827e-08 3.63312346495751988e-08 0.00125021948902835026)
(2.23095255896928831e-08 3.47938847465448724e-08 0.00122986401836696268)
(1.9768527724251966e-08 3.21251223223270696e-08 0.00116410629527818909)
(1.67257640466332843e-08 2.84518011081424848e-08 0.0010712073236838818)
(1.46538238970054972e-08 2.55506770331871657e-08 0.000984130740921637789)
(1.3181327269321068e-08 2.14850093601225787e-08 0.000902604713363118678)
(1.2288218715764533e-08 1.93041123553285327e-08 0.000819848506226724468)
(1.15437665581318024e-08 1.64090701730849796e-08 0.000733107914678100066)
(1.2120439704483074e-08 1.46528249525462358e-08 0.0006417266817420013)
(3.03872817817912837e-07 4.98519247190096191e-08 0.00148634556048263277)
(1.57068299864688039e-07 4.73128951893791461e-09 0.00129270402968582779)
(6.35371908297683738e-08 -1.28755827280336836e-08 0.00128252529857971679)
(3.20921950261692547e-08 -3.51248842807859134e-09 0.00128419003355004723)
(2.20111573104194216e-08 2.71990652754654841e-09 0.00128772981533164209)
(1.7549297046306953e-08 8.14078949332518745e-09 0.00127610089953332181)
(1.64275086692521751e-08 1.30634488447023855e-08 0.00124188589913938152)
(1.52669284877801062e-08 1.58104670337559444e-08 0.00117587780762604859)
(1.4480113176648282e-08 1.89774206961640378e-08 0.00109030444632262193)
(1.3904739469968221e-08 1.98131513190735776e-08 0.00100141631578065638)
(1.24312311392996535e-08 1.87277282548139009e-08 0.000905615271768176345)
(1.09780928046118617e-08 1.82805853551995144e-08 0.00080914172207426885)
(1.02075242745680691e-08 1.71348055384256233e-08 0.00071430614805266556)
(9.79674186444181207e-09 1.55310042801240095e-08 0.000618272702722570786)
(1.80190689578640961e-07 1.38080099902653781e-08 0.00174292573421280512)
(8.75531795014014615e-08 -3.50340382877410595e-09 0.00151912760719091528)
(3.8226193941764761e-08 -9.27600516888779972e-09 0.00141154595705727929)
(2.41238197351205191e-08 -8.63958324248077382e-10 0.00133431497838483026)
(2.07768886467145674e-08 4.05728192718117898e-09 0.00127008765707117312)
(1.8750261627847912e-08 6.70081883102457608e-09 0.00120666147141687357)
(1.85667981085296287e-08 9.66302440879804659e-09 0.00113764077429578275)
(1.81562426102453385e-08 1.23842804092149346e-08 0.0010584569361753878)
(1.71763954895964896e-08 1.38327539850269571e-08 0.000972771856554805587)
(1.51404873724062359e-08 1.56579722048896645e-08 0.000882633500754308751)
(1.36695662108267718e-08 1.57282204440085011e-08 0.000789866278580092442)
(1.20404428493409888e-08 1.54781056153042859e-08 0.000697090570655818317)
(1.10414981832662196e-07 9.83058254149094707e-10 0.0014521467353037147)
(6.256206137620849e-08 -2.04367727093807095e-09 0.0013016636356757527)
(3.48085909031646023e-08 -3.42443364910019361e-09 0.00121952513474944679)
(2.63165836927131952e-08 1.47838479613103815e-09 0.00115924787521027857)
(2.34825949863491997e-08 5.06101811797136464e-09 0.00110243062815126402)
(2.1515235841759631e-08 7.33542984137562522e-09 0.00104034368638717496)
(2.02831699576584392e-08 9.38399943080123444e-09 0.000972785213653627875)
(1.92807346514055102e-08 1.11267870742295115e-08 0.00089856432387321679)
(1.76730707412070543e-08 1.20649306083371668e-08 0.000819624781444226627)
(1.59022687312940561e-08 1.24927757737953213e-08 0.000737711718561531184)
(1.42939029873322576e-08 1.27149656099379702e-08 0.000654336253765422783)
(1.32381530676266985e-08 1.24182888597866544e-08 0.00056968564262674284)
)
;
    }
    procBoundary0to1
    {
        type            processor;
        value           uniform (0 0 0);
    }
    procBoundary0to3
    {
        type            processor;
        value           uniform (0 0 0);
    }
}


// ************************************************************************* //
