/*--------------------------------*- C++ -*----------------------------------*\
| =========                 |                                                 |
| \\      /  F ield         | OpenFOAM: The Open Source CFD Toolbox           |
|  \\    /   O peration     | Version:  2206                                  |
|   \\  /    A nd           | Website:  www.openfoam.com                      |
|    \\/     M anipulation  |                                                 |
\*---------------------------------------------------------------------------*/
FoamFile
{
    version     2.0;
    format      ascii;
    arch        "LSB;label=32;scalar=64";
    class       volVectorField;
    location    "0.0299999999999999989";
    object      faceTraction;
}
// * * * * * * * * * * * * * * * * * * * * * * * * * * * * * * * * * * * * * //

dimensions      [1 -1 -2 0 0 0 0];

internalField   uniform (0 0 0);

boundaryField
{
    inlet
    {
        type            calculated;
        value           uniform (0 0 0);
    }
    outlet
    {
        type            calculated;
        value           nonuniform List<vector> 0();
    }
    top
    {
        type            calculated;
        value           uniform (0 0 0);
    }
    bottom
    {
        type            calculated;
        value           uniform (0 0 0);
    }
    left
    {
        type            calculated;
        value           uniform (0 0 0);
    }
    symmetry
    {
        type            symmetryPlane;
    }
    interface
    {
        type            calculated;
        value           nonuniform List<vector> 
181
(
(32.3221310715768126 -0.0011987679114036432 -0.000776610934223227484)
(24.6454230247064956 0.000594106536009731128 -0.000910836062869116209)
(17.3174030571523616 0.000742752381832925256 -0.000738851466332213084)
(12.4344417091064141 0.000673285899902321093 -0.000555261596784048647)
(9.59254781640234633 0.000553585613560100072 -0.000371045091362522876)
(8.32559175711442201 0.000379695127776916532 -0.000212183384073365272)
(7.97137947515559908 0.000292012621729738516 -0.000150702801107063941)
(7.76080739466372993 0.000311167586555814659 -0.000161911082722020249)
(7.56486412034374656 0.00021799408093679397 -0.000132216519150522616)
(7.31178335893415099 0.000145270625132319604 -9.86482780345556868e-05)
(6.69069637524588234 0.000158931248521724237 -0.000108137583945134812)
(5.85115520384294285 0.000164394505544212394 -0.000102728365063980019)
(5.11856535640332133 0.000182451111230892503 -0.000106470565551020514)
(4.51775262921574328 0.000140524107657139007 -9.03122418605431884e-05)
(4.01644233929117878 0.000107760044098923743 -7.47048763484516867e-05)
(3.44088089425636978 6.76900505426355852e-05 -4.4571467532733215e-05)
(43.5026577976694924 -0.000566204780513422721 -0.000475817224481779697)
(34.9919923936288484 0.000698871970806420276 -0.000470075434416390042)
(26.293688650104972 0.000970663769432246514 -0.000404525080528552611)
(19.2626709753335099 0.00101800206428650651 -0.000322277842302855656)
(13.8946081908057693 0.000932290169230571837 -0.000203180243766248739)
(10.9163037324084797 0.000852423942859375583 -0.000182917661633870003)
(10.0814577000070447 0.000825826252257745499 -0.00019651937929020827)
(9.70740652038991492 0.00109389687162400931 -0.000311719766305576626)
(8.97908057272051785 0.000700406283062311535 -0.000263929797668992531)
(8.25518497785137839 0.000400060275621847436 -0.000203020887462129057)
(7.35070041756055037 0.000261969042340044745 -0.000160877702835249579)
(6.26143785969329691 0.0002407737442085366 -0.000155301947437910457)
(5.26559166911637977 0.000272968209166792345 -0.000183301552389108764)
(4.39509051610880785 0.000263659022344380108 -0.000209467790116770532)
(3.84192161405688859 0.000144028634525809998 -0.000124756315426916475)
(3.41740978049989952 7.96929058428647838e-05 -6.6486070111980322e-05)
(51.3054898194539746 -0.000797885264350358574 -0.00010936238716797532)
(42.9040904514718022 0.000709313984195909602 -0.000146978867053339907)
(32.9978011773352691 0.000947577569228336028 -5.4251759591658032e-05)
(25.4908377395889154 0.000895333750986038331 -2.80665960211594139e-05)
(20.1516709408235926 0.000545455790133262232 -4.55933550312544788e-05)
(16.1863922866409915 0.000355669611330281291 -6.07978625858385325e-05)
(13.4338974044493149 0.000277399794598206086 -6.96605756286258407e-05)
(12.0341993904753135 0.000283385967935652675 -9.49048833925695016e-05)
(10.6710529825672733 0.000403116617380170174 -0.00017004051845904015)
(9.46076128566041419 0.000209506249954178892 -0.000112159594749862974)
(8.47134837709749533 0.000150771172159551436 -9.5450369501248015e-05)
(7.13262969952261461 0.000195722300756443466 -0.000136681851315671564)
(5.91621281466703408 0.000268944057858910824 -0.000218540095118875455)
(5.03321385536876242 0.00023890334580347296 -0.000237596633111831183)
(4.21734691793775518 0.000207820021062430363 -0.000224066985453980251)
(3.37742514148633122 0.000229915197877360002 -0.000225556070884832773)
(50.1839086313096345 -0.000598085805086361554 -5.62353185788689461e-05)
(42.5220825321103746 0.000683891915168600463 -0.000103870222202953716)
(33.6446744185062627 0.000816480483042546137 -0.000148785335577077132)
(26.7122661707484959 0.000619607825609216727 -0.000128541485267003882)
(21.7832400058110984 0.000795797634962956777 -0.000200173736848448112)
(18.1557152519323246 0.000393624288122437012 -0.000116563099486486054)
(15.7642707412737 0.000484192705867352567 -0.00016573334926240946)
(13.9836226436143409 0.000368371350739264008 -0.000152368749450177186)
(12.6903531369526608 0.000295531744916595557 -0.000140970127699341417)
(11.7123199215608373 0.00011346085410797105 -6.24969282219779379e-05)
(10.7957819417775305 0.000188977494162115446 -0.000119651406355101284)
(9.69474416813741691 0.000310725369031043873 -0.000224169665649376359)
(8.70073005441288316 0.000256681797635553613 -0.000218467143316768467)
(7.79543006712350994 0.000189463889205941855 -0.000182430213473061005)
(6.53517686588692204 0.000187648343378070935 -0.000180364639532282569)
(4.81543544250170097 0.000250697009744929719 -0.000194039314048728337)
(48.5534447606299935 -0.000518676384178223663 4.695705269644949e-05)
(40.7048100997823639 0.000670532071182559138 1.64383720289539528e-05)
(31.732239285663514 0.000838401747113527414 -3.09467013149443621e-05)
(24.9365200022031956 0.000658442037869796893 -4.89893316203119278e-05)
(20.2591895614775517 0.000608084947803621883 -7.53700112689633203e-05)
(16.8841500967495222 0.000268227006061725075 -4.86709098177932342e-05)
(14.775975448524564 0.000226077755575999375 -5.84885585839490534e-05)
(13.2873126220312958 0.0002288661102096009 -8.1003697186533816e-05)
(12.1006177155386307 0.000203788996455511523 -9.14415547128420741e-05)
(11.4093084819447412 9.46342882128561712e-05 -4.59921630129867315e-05)
(10.847770295746809 0.000212568910323757755 -0.000113309752123377463)
(9.98908707881362368 0.000311337330330017914 -0.0001920824666141354)
(9.40911128760247273 0.000272034746253147918 -0.000186939405018179998)
(8.84143273360993298 0.000197268454440591639 -0.000135627424026525271)
(8.15828592552546361 0.000185886081640623937 -0.000111764505729485561)
(6.76860381127938293 0.000326104275094462963 -9.71036796051591037e-05)
(47.5936584277407917 -0.000454811500227058946 0.000104585270381214233)
(40.0410331640760262 0.000671658988993030157 8.37133373248579094e-05)
(31.3715907231140108 0.000971987168286171676 5.83382199623397272e-05)
(24.5070501019815303 0.000808915238058927825 1.57108706643131516e-05)
(19.7480523151865874 0.000636071409560213315 -1.21335816109804874e-05)
(16.4279121772230212 0.000510999854909824293 -2.6380434749024932e-05)
(14.4453688644787981 0.000235153401125128166 -2.82258241711676004e-05)
(13.5182502220454399 0.000124483481793730204 -2.277677555125777e-05)
(12.7801772708371679 0.000151372118499624515 -3.49976779878916151e-05)
(11.7343195827174149 0.00024748610481331037 -6.29494439087773005e-05)
(11.0509514130070379 0.000354762677695337025 -9.68760716901080995e-05)
(10.4231675409963014 0.00033191138514412162 -8.91707135019919201e-05)
(9.50372682956606418 0.00030358140282815021 -8.62834768514613262e-05)
(8.40835455031717416 0.000269816179685341076 -5.51052101051525704e-05)
(7.55950384852093116 0.000263759496162317524 -1.82830069441607727e-05)
(5.96250911718871546 0.000283282524582428483 -1.39687059712476008e-05)
(48.0344701893594674 -0.000603102670925820001 3.70397961269111088e-05)
(40.5220930317865182 0.000705146364893246397 -5.75282017416796401e-06)
(32.2548777773974464 0.000995059342946616595 -7.41971539605841036e-05)
(25.2950678848097894 0.00128518076422237952 -0.000182210737759902383)
(20.4705097086940668 0.000320277123120310601 -6.5256165899711747e-05)
(17.2612776484810198 0.000152531765618268105 -4.37920774729572455e-05)
(14.8512454846453092 1.23182010330881405e-05 -4.77280948685800728e-06)
(13.4994448880693962 2.24483892095351548e-05 -1.0018615133690153e-05)
(12.5003366798301929 5.97577071499378332e-05 -2.84699890390196672e-05)
(10.8987651177948557 0.000225733059562602045 -0.000110417160397132882)
(9.59562077804141289 0.000354206431517688799 -0.000172783821923987505)
(8.61496666911261144 0.000336022536550545532 -0.000159115623489299859)
(7.6249779013283856 0.000303008059878352232 -0.000141171098551901687)
(6.44616442752984486 0.000262476896151400143 -0.000133689756435777257)
(5.24675241883102839 0.000176905500488918255 -0.000114234769320903712)
(4.23559646907548171 8.21676583479436125e-05 -0.000125835730053900258)
(44.6245539582442134 -0.000448105149989787212 -0.000104893388775001694)
(36.7881418563623726 0.000734594145407575067 -0.000172136239488595194)
(28.428544261562088 0.000868853917377250822 -0.000183057220989766423)
(21.8476369901862597 0.000863519194159003095 -0.000163839965233173054)
(17.5535569742584556 0.000598982711775247647 -0.000109899828843056972)
(15.0119146231149134 0.00021154633503674597 -4.68517396713438508e-05)
(13.5258061242218162 0.000118685412197076703 -3.0331672201516358e-05)
(12.6261259808227244 0.000246490356352020137 -7.71420276090109037e-05)
(12.1274874840589746 0.000137337289962288355 -4.74280992273512237e-05)
(11.6681676524547591 0.000176416648138086806 -6.43489848328863582e-05)
(10.811709302305065 0.000215862974379520687 -8.72721192069320729e-05)
(9.83415697877916628 0.000281438515494838071 -0.000105643876288424504)
(9.29842979616364218 0.000365939917462537604 -0.00015973410408238133)
(8.75777892346517461 0.0003324438830986763 -0.000163822265007746804)
(7.99104287530508728 0.000309954432183925455 -0.000150340059039031937)
(6.99458028705626589 0.000201633626241909131 -0.000152214054716593659)
(0.00173968742030407492 0.00031262504013330561 1.993213576525664)
(0.00107402329091462823 0.000143051506405027717 1.41926153511435715)
(0.00047183939971502881 6.63658018134540305e-05 2.27859062362155385)
(0.000248475906981679494 8.28013775582270691e-05 3.07098127895010498)
(0.000156031687552217441 9.3744347999507658e-05 3.62238779205771033)
(0.000113707330909207412 0.000104755384766267115 3.92009177863293568)
(8.91270296830278072e-05 0.000116259950878640244 4.00070236489070741)
(7.13904818870169359e-05 0.00011134043118894314 3.93556485877426487)
(6.32592887176061772e-05 0.000102800391431446438 3.72514014489019862)
(5.35224449492264167e-05 9.10457635460557886e-05 3.4278634357884159)
(4.68922364704174501e-05 8.17621665061986884e-05 3.14921837094923163)
(4.21802472618273386e-05 6.8752029952392124e-05 2.88833508276197426)
(3.93222998904464268e-05 6.17731595370511787e-05 2.62351521992551318)
(3.69400529860216189e-05 5.25090245538717209e-05 2.34594532696991065)
(3.87854070543458123e-05 4.68890398481479182e-05 2.05352538157440279)
(0.000972393017017322229 0.000159526159100830984 4.75630579354443039)
(0.000502618559567002358 1.51401264606013451e-05 4.13665289499465416)
(0.000203319010655259291 -4.12018647297078837e-05 4.10408095545510321)
(0.000102695024083741842 -1.12399629698515169e-05 4.10940810736016005)
(7.04357033933422551e-05 8.70370088814896772e-06 4.12073540906126112)
(5.61577505481823045e-05 2.60505263786406259e-05 4.08352287850663398)
(5.25680277416070145e-05 4.18030363030476781e-05 3.97403487724602478)
(4.88541711608964676e-05 5.05934945080191499e-05 3.7628089844033652)
(4.63363621652746222e-05 6.0727746227725076e-05 3.488974228232399)
(4.44951663038983732e-05 6.34020842210355416e-05 3.20453221049810555)
(3.9779939645758954e-05 5.99287304154045777e-05 2.89796886965816869)
(3.51298969747579733e-05 5.84978731366384767e-05 2.58925351063766174)
(3.2664077678617903e-05 5.48313777229621381e-05 2.28577967376853586)
(3.13495739662138795e-05 4.96992136963969559e-05 1.97847264871223172)
(0.000576610206651650514 4.41856319688491709e-05 5.5773623494809712)
(0.000280170174404484448 -1.12108922520771282e-05 4.86120834301092497)
(0.000122323820613647077 -2.96832165404409231e-05 4.51694706258328793)
(7.7196223152385592e-05 -2.76466663759384503e-06 4.26980793083145294)
(6.64860436694865653e-05 1.29833021669797642e-05 4.06428050262775109)
(6.00008372091132149e-05 2.14426202592786063e-05 3.86131670853398878)
(5.9413753947294782e-05 3.09216781081537328e-05 3.64045047774650277)
(5.80999763527850386e-05 3.96296973094877628e-05 3.38706219576123857)
(5.49644655667086703e-05 4.42648127520861879e-05 3.11286994097537262)
(4.84495595916999803e-05 5.01055110556469544e-05 2.82442720241378931)
(4.37426118746456389e-05 5.03303054208271663e-05 2.5275720914562938)
(3.85294171178910593e-05 4.9529937968973575e-05 2.23068982609861255)
(0.000353327941864518629 3.14578641327709981e-06 4.6468695529718822)
(0.000200198596403866516 -6.53976726700180545e-06 4.16532363416239448)
(0.000111387490890126612 -1.09581876771206086e-05 3.90248043119822574)
(8.42130678166823116e-05 4.73083134761932675e-06 3.70959320067289511)
(7.51443039563174427e-05 1.61952579775083673e-05 3.52777801008404479)
(6.88487546936306978e-05 2.34733754924019595e-05 3.32909979643895415)
(6.49061438645069687e-05 3.00287981785639345e-05 3.11291268369160745)
(6.16983508844976637e-05 3.56057186375344516e-05 2.87540583639429537)
(5.65538263718626613e-05 3.86077779466789911e-05 2.62279930062152911)
(5.08872599401410019e-05 3.99768824761450472e-05 2.36067749939690108)
(4.57404895594631442e-05 4.06878899518014331e-05 2.09387601204934937)
(4.23620898164053629e-05 3.97385243513172264e-05 1.82299405640557399)
)
;
    }
    procBoundary0to1
    {
        type            processor;
        value           uniform (0 0 0);
    }
    procBoundary0to3
    {
        type            processor;
        value           uniform (0 0 0);
    }
}


// ************************************************************************* //
