/*--------------------------------*- C++ -*----------------------------------*\
| =========                 |                                                 |
| \\      /  F ield         | OpenFOAM: The Open Source CFD Toolbox           |
|  \\    /   O peration     | Version:  2206                                  |
|   \\  /    A nd           | Website:  www.openfoam.com                      |
|    \\/     M anipulation  |                                                 |
\*---------------------------------------------------------------------------*/
FoamFile
{
    version     2.0;
    format      ascii;
    arch        "LSB;label=32;scalar=64";
    class       surfaceVectorField;
    location    "0.0299999999999999989";
    object      Uf;
}
// * * * * * * * * * * * * * * * * * * * * * * * * * * * * * * * * * * * * * //

dimensions      [0 1 -1 0 0 0 0];

internalField   nonuniform List<vector> 
20789
(
(0.0237492968119238819 -0.00535356116013369684 -0.00105396425505663652)
(0.0117827761997708648 -0.0105857856274852394 -0.00101744025570886737)
(0.0117887072408538775 -0.00524264795675955225 -0.000965923673878979353)
(0.0118191235856196959 -0.00524649820389420062 -0.00102700887607963661)
(0.048393152762625409 -0.00556456270272158698 -0.00120463765822560807)
(0.0358184717994818602 -0.0109903630375899654 -0.00113034200157051531)
(0.0358591425294996283 -0.00545963541663762111 -0.00107167786149411459)
(0.0359521904025080566 -0.00546382110017828038 -0.00114668991847309424)
(0.0739372539262607986 -0.00585934943190189166 -0.00143636100526531069)
(0.0607712704368782997 -0.0114012113423539729 -0.00131843565925713929)
(0.0609137765114804233 -0.00566438874953883748 -0.00124776420900608344)
(0.0610816218987057027 -0.00566900594963081709 -0.00134419835005251758)
(0.101191332982033214 -0.0063341700097786233 -0.00176837790696743953)
(0.0870373291936054477 -0.0121761324618609654 -0.00159563813647423613)
(0.0873385322231843009 -0.00604927449240303186 -0.00150694784749363497)
(0.0875959950913494656 -0.0060542374175964371 -0.00163336182548799139)
(0.13096501425414786 -0.0070340556798871804 -0.00223255123854409349)
(0.115313440401949685 -0.013317089697406255 -0.00198606411227619014)
(0.115701866556225871 -0.00661390575587502035 -0.00187206257452095866)
(0.116075657496996359 -0.00661967378359400605 -0.00204090960124941488)
(0.16446698529077311 -0.00806905779319176328 -0.00288370343324283705)
(0.146687902941562587 -0.0150019981511121288 -0.00252773045210856907)
(0.147214294649807398 -0.00744752728299950904 -0.00238084489278878649)
(0.147752066246552877 -0.00745509156505241161 -0.00260531925161732467)
(0.203494326613739562 -0.00959436462611681917 -0.00381460083622143717)
(0.182433569282148766 -0.0174884281927119925 -0.00328935396089383072)
(0.183144224437740255 -0.00867952569345985595 -0.00310497663159408103)
(0.183936100439062028 -0.00869147390439766084 -0.00339086568937105488)
(0.250729228779230817 -0.0120169932950395259 -0.00520118178587625213)
(0.225469988956468415 -0.0211564890399992614 -0.00438654918398829769)
(0.226616431715590566 -0.0104860705701353921 -0.00417459412667075397)
(0.227826993542806833 -0.0105124528148470547 -0.0045012004422398319)
(0.311707659705927898 -0.016358568995957154 -0.00756928383989226468)
(0.274936234592088824 -0.027235665985907747 -0.0060403079466037346)
(0.276116841277990299 -0.0134912167225450987 -0.00585157473892704803)
(0.278201598831454067 -0.0135615150953154236 -0.00611983426362482964)
(0.398456676168807811 -0.0242848199448446496 -0.0125491718794287412)
(0.359511288404760099 -0.0384809059532889991 -0.00898674931872769749)
(0.363254675147443029 -0.0190674822483539209 -0.00907843165597667541)
(0.366582319861830486 -0.0192735580017632767 -0.00892989740098814114)
(0.540035338925932362 -0.0691350069956798152 -0.0264032685942459516)
(0.336016284026738332 -0.061445945570004018 -0.0151640932854562645)
(0.335101325248326254 -0.0293165954495830001 -0.0175895371486814965)
(0.338966363491108535 -0.0296492371311024572 -0.0146338459288613883)
(0.973756372083435351 -0.0957949320855724373 -0.0690798840891760912)
(0.636745158547147416 -0.190999982660048501 -0.0340696646094755598)
(0.673262896969130997 -0.10528880892824341 -0.036332493993459572)
(0.682696062290790384 -0.110950287462755301 -0.0328024333399918946)
(1.26098047577642181 -0.0609290659715030006 -0.162165514410012368)
(1.05143260209860867 -0.124193722619977923 -0.109767450053594354)
(1.18781309308992267 -0.0792589887381270064 -0.10079158517521869)
(1.22638078013326401 -0.0927681799559470083 -0.09386823052124324)
(1.4297712397154092 0.000800792916232211018 -0.26545056271330425)
(1.20939140133218226 -0.0874678124706293469 -0.247120686894390595)
(1.39265075243683145 -0.0283036562992534935 -0.197660843003445941)
(1.47389158018246946 -0.0469448021263403625 -0.222560455096155047)
(1.255231125735083 0.101562443180036946 -0.494624850491392598)
(1.22794766473832695 0.0377246398741548292 -0.361826484771546608)
(1.41082183116070903 0.0605315568096874146 -0.26998404220072264)
(1.58984147539910747 0.0320993169970689163 -0.349681280546921214)
(1.11262984404299914 0.339127532055684466 -0.85075990852025396)
(1.12486633289476878 0.17598202044553285 -0.456170302971472374)
(1.4535980642433648 0.129227736415224781 -0.893675257822892699)
(0.0236716510306443396 -0.0160928615595651858 -0.00109381800222274617)
(0.011719239634110052 -0.0211404616187319538 -0.00105208810057011285)
(0.0117474547545686654 -0.0157814034548431001 -0.00100250275359246182)
(0.0117793993982334855 -0.0157930149256929782 -0.00107016922053897396)
(0.0480724812707709337 -0.0166898304046699912 -0.00124414000260204653)
(0.0355686436823378221 -0.0218758497577966581 -0.00116298434939602225)
(0.0356880292412597722 -0.0163914764622932543 -0.00110710930060696944)
(0.0357854147487348395 -0.0164038403224633922 -0.00118821446180923944)
(0.0733160824646143378 -0.0175575240660752058 -0.00147771279046606495)
(0.0602410323292173269 -0.0226715972157854155 -0.00135137905460749712)
(0.0604677130478060848 -0.01697409473886188 -0.00128401894745614788)
(0.0606416856529840287 -0.0169876873600587619 -0.00138612789470745896)
(0.100243173859147286 -0.0189852342483328822 -0.00181332434178298673)
(0.0861553144749297728 -0.0242103023180520877 -0.00163097631954363278)
(0.0864890259679038653 -0.0181256354121220389 -0.00154581017372600678)
(0.0867550397678168439 -0.0181401530012521746 -0.00167935698791469592)
(0.129674175924912038 -0.0210798692592473504 -0.00228124332584066659)
(0.114083395474658178 -0.0264871682219635501 -0.00202432084719855309)
(0.114565994222791109 -0.0198274929710166546 -0.0019134532848649338)
(0.114950451923658409 -0.0198440043858539375 -0.00209280698898289558)
(0.162676053695981704 -0.0241455985871063435 -0.00293338097975956447)
(0.144943290028095056 -0.0297898848982842031 -0.00256790943349838839)
(0.145640956085609063 -0.0223092064497991197 -0.002422710489864352)
(0.146192305109901333 -0.0223306608828429745 -0.00266351737462575556)
(0.200860886591328419 -0.028688553309414562 -0.00386130230866069211)
(0.179920668625366237 -0.0346142604689099187 -0.00332580785952430336)
(0.180941858567071151 -0.0259451770761606505 -0.00314225327936623958)
(0.181749396725103152 -0.0259793123198903166 -0.0034522608769875689)
(0.247043728349457037 -0.0358714505778341894 -0.00522567534471577756)
(0.221489234606024626 -0.0418598341698878454 -0.00440800189253638328)
(0.223094995538128532 -0.0313619481185677812 -0.00420072077904035546)
(0.224319186258040204 -0.0314327549359969885 -0.00455608186466357253)
(0.306182286562888983 -0.0485476102153558353 -0.00745777342543915093)
(0.268922418227832749 -0.0536744430294978578 -0.00600120260993522447)
(0.271573750963443605 -0.040227891630874632 -0.00582834062494016255)
(0.273613673609764074 -0.0404050438209174675 -0.00613813036312819364)
(0.388710638961386856 -0.0695500615571146424 -0.0116016707247552277)
(0.345780875391871745 -0.0750996186531370791 -0.00871338545906547544)
(0.352095025719092292 -0.0564617830252336014 -0.00885916033632826345)
(0.355322506966986751 -0.0569665354298418899 -0.00873820134736019022)
(0.49421165628744379 -0.171746269918722688 -0.022830489300685871)
(0.322007523031417164 -0.107302251488212125 -0.0138531699652753911)
(0.333158051232798125 -0.081838271382599484 -0.0153835657994021834)
(0.336222040234370634 -0.0829480817664715042 -0.0133173445500665132)
(0.740066600636063554 -0.226370946564974473 -0.0747572305738938986)
(0.56761123806376057 -0.301890144853824871 -0.0279760674755978288)
(0.590691686631252266 -0.253277297144856472 -0.0260352632416235366)
(0.598527527658184733 -0.265885287861015174 -0.02927761198240314)
(0.936144502073626095 -0.160535821447781529 -0.19472262253797254)
(0.796486365897184134 -0.227346733123023281 -0.118269043707951535)
(0.88595384111519504 -0.185294215967901327 -0.0892275274860024892)
(0.925894826479274013 -0.200334149939643491 -0.121242446890699393)
(1.02194053386801031 -0.0356483819096066051 -0.343496608952633176)
(0.89692493633988446 -0.143571333604434026 -0.281207231776053224)
(0.98483585223816017 -0.134469642405189577 -0.242163921561846934)
(1.05342250054069142 -0.132209378028903118 -0.278107275509426488)
(0.96262461442219116 0.279887852478592825 -0.717961542800406805)
(0.805196732618424726 0.0447115926682810708 -0.417339479636425092)
(1.01199724959105275 0.0940932771394028949 -0.413443081468616802)
(1.09796039246722588 0.00619069139024295331 -0.452193435911652342)
(0.84553089859357855 0.578854126805149471 -0.995770610072709617)
(0.995648986029205485 0.522515667682078466 -0.764360642549350766)
(1.21117626459225414 0.351690437192235084 -1.14057262329275977)
(0.0234963186293179853 -0.02677241653525924 -0.00112125444774338894)
(0.0116047714273258672 -0.0316203781026576508 -0.00107558500493615977)
(0.0116601619759243904 -0.0263169543318928466 -0.00102769969415176621)
(0.0116934721575588253 -0.0263371911266081019 -0.00110181824494170956)
(0.0475838759315090204 -0.027710262407263514 -0.00127022340140147284)
(0.035162307355355818 -0.0326249409680071101 -0.00118364252025718536)
(0.0353553757868183549 -0.0272060012826328863 -0.00112973823615321952)
(0.0354565396107655861 -0.0272273450333285275 -0.00121680046755729939)
(0.0725757389052165275 -0.0291535865377061422 -0.00150464258368506495)
(0.0594955963264812288 -0.033833188537507379 -0.00137185370383747412)
(0.0598475785706924363 -0.0281910099559822096 -0.00130661918063567218)
(0.0600268577721362953 -0.028214272903272157 -0.00141500971802146613)
(0.0991671104726877112 -0.0315109744566740638 -0.00184197282495919957)
(0.0850388668347607235 -0.0360996496726325791 -0.00165252228355508958)
(0.0855679335087121129 -0.0300901546262635836 -0.00156898036913173037)
(0.0858399656031832575 -0.0301150194246278778 -0.00171109187937515416)
(0.128123593452461909 -0.0349497221775473751 -0.00231098695485627576)
(0.112470398430708773 -0.0394528073024953754 -0.00204684504212689121)
(0.113235569090618909 -0.0329010965186313717 -0.00193626404223021437)
(0.113626021817784431 -0.0329290547105034817 -0.00212839532532522373)
(0.160429128458099396 -0.0399334567784602051 -0.00296033631326312772)
(0.14261926436411429 -0.0442779633115375909 -0.00258939124380043982)
(0.143720262387494663 -0.0369568083078112425 -0.00244226924148944992)
(0.144275536207557842 -0.0369923780061564289 -0.00270248785845689579)
(0.197506340462045876 -0.0472972290340117549 -0.00387250744339999453)
(0.176509634624727241 -0.0512628725222816911 -0.00333843775391610758)
(0.178118160509817269 -0.0428447380640385941 -0.00315012846658734242)
(0.1789213966295993 -0.0429002309423550249 -0.00349015533432496874)
(0.241593981755735265 -0.0587436519082425793 -0.00518352915775583019)
(0.216210451576686669 -0.0616548638388910372 -0.00438912598124854749)
(0.218666325106986276 -0.0516312192868806294 -0.00417508084486420405)
(0.21986145013952102 -0.0517408862962595931 -0.0045760701308906488)
(0.295789273043846113 -0.0781564661731115051 -0.00725681464356154465)
(0.260236256053795911 -0.0779445567827143776 -0.00589026693124748181)
(0.264165370994792426 -0.0656152962677445939 -0.0057150838851143795)
(0.266113134365661808 -0.0658752347034747415 -0.00608162631422428691)
(0.36484686790356935 -0.108859229550087228 -0.0109648846995856336)
(0.329383148371560963 -0.105793753753543815 -0.00835944797080338288)
(0.335849976773918146 -0.090135859707446947 -0.0084621990064019173)
(0.33898258634782924 -0.0908036933772262134 -0.00846603825401382598)
(0.452942781524509952 -0.231926700685894216 -0.0189987481401873194)
(0.29624450846068584 -0.145358639738152939 -0.012729732381739441)
(0.308059461447177829 -0.126314937617954787 -0.0144746586367713766)
(0.310146144557460368 -0.128023420989888725 -0.0122799168071968477)
(0.584263454536889881 -0.306499432897467339 -0.0714878806096556629)
(0.515797663962604958 -0.363050626910218222 -0.0216108027749635848)
(0.536646850553725074 -0.324795377009188757 -0.0182340438975790962)
(0.543226698136180408 -0.34472153852106463 -0.0238256441579860929)
(0.744595219419520338 -0.219120561515790763 -0.204753652946032233)
(0.638385681510470926 -0.322706399981617764 -0.126918270267149552)
(0.672837341670861955 -0.272396560091576867 -0.0801394032982821886)
(0.727667586672352207 -0.27431520501315193 -0.128341836403131154)
(0.723745396633315052 -0.0821813213592166719 -0.355050102459845529)
(0.749786368045451068 -0.160507795809783887 -0.33124067148448022)
(0.727621066001740147 -0.182344803506630376 -0.255188140023470289)
(0.827996259629105724 -0.158813806307046862 -0.307593916335473339)
(0.559594566183331033 0.30178228019497122 -0.69514854690872796)
(0.537742732608953 0.0867926631468551313 -0.443613236756976781)
(0.535541356948050495 -0.0148616954600123002 -0.406758825962044324)
(0.740481650612665465 -0.0392517619172359084 -0.468508849545207606)
(0.539751816569814635 0.640004990546725105 -0.966903301792903513)
(0.603700038396327576 0.629126292265856257 -0.739529394235345916)
(0.844970665904870133 0.38414614629484739 -1.11464483951721793)
(0.0232075414885544833 -0.0373130001362739008 -0.00113797307744995619)
(0.0114358652883941835 -0.0419751829260065837 -0.00108860205589944711)
(0.011517258997004131 -0.0367382755312282636 -0.00104227319338092588)
(0.0115517925966841344 -0.0367677344385629046 -0.00112312619609759379)
(0.0469027330186269284 -0.0385806420477728118 -0.00128527282269318643)
(0.034609087819974467 -0.0432028992340683649 -0.00119373707534148289)
(0.0348719645762086763 -0.037855634505791845 -0.00114140373449202821)
(0.0349764197557524553 -0.0378864948523153916 -0.00123517037002680938)
(0.0715115461398966451 -0.0405933236646168066 -0.00151973340370749831)
(0.0585031310407789426 -0.0448284106952707567 -0.00138138759178161371)
(0.0589724018152970667 -0.0392714910440355586 -0.00131754088737555983)
(0.0591561851092327479 -0.0393047382312033469 -0.00143361302084439525)
(0.0976134654909939503 -0.0438240121241460293 -0.00185739450072278209)
(0.0835420279868376026 -0.0477766562981242066 -0.00166224646421244066)
(0.084252288520319768 -0.041877511497652356 -0.00157922847905399614)
(0.0845291519254836587 -0.0419128945258216007 -0.00173159041180765685)
(0.125895008881790643 -0.0485121402191077689 -0.00232524933107105527)
(0.110313860783715134 -0.0521258713407454013 -0.00205625879113752576)
(0.11133845326139824 -0.0457260287532525456 -0.00194423725964507489)
(0.111732858755226802 -0.045765352303690901 -0.00215119388466520354)
(0.157211790427368797 -0.0552489429866917722 -0.00296749268445342012)
(0.139532698215162343 -0.0583381647863964667 -0.00259554395920153294)
(0.140996882443307686 -0.0512386736899006837 -0.00244312771185756618)
(0.141551861767453796 -0.0512873481029630929 -0.0027265729974414901)
(0.192725989231368439 -0.0650908191727103819 -0.00385505629176466098)
(0.172020376647698869 -0.0672362000084849865 -0.00333173005740958466)
(0.174137177085078393 -0.0591677642252254818 -0.00313134535314145597)
(0.174926731539720298 -0.0592402176486592491 -0.00351004437868616135)
(0.234070454633954816 -0.0800113184141266059 -0.00509586375474020171)
(0.209428537550881616 -0.0802627140760701768 -0.00434408693320332672)
(0.212584879610583449 -0.0708535219709918312 -0.00410669894070413415)
(0.213730288879235397 -0.0709886169115768878 -0.00457166451709351603)
(0.283322415760100088 -0.104038749255181195 -0.00699290025848932004)
(0.249536341715894394 -0.100063221498412597 -0.00574125394473211023)
(0.254329092023717007 -0.0888578330224309709 -0.00553019267607413739)
(0.256135828318071912 -0.089163068489079858 -0.00598802208460413442)
(0.341688166167191221 -0.140272964108375808 -0.010124295652957185)
(0.311936606217889656 -0.13181338790885222 -0.00798112551634138148)
(0.319412533499057183 -0.118582611548855493 -0.00798160331603051457)
(0.322193875437623622 -0.119265900648084469 -0.00814038058539112534)
(0.413182423555098266 -0.2714496860497152 -0.0153417870165156473)
(0.271261614305939425 -0.175992363131043106 -0.0113371510087554809)
(0.282437218113830102 -0.160705698547337461 -0.013178815940491459)
(0.283566302355635347 -0.162527617822183834 -0.010895879128539605)
(0.490506407101199637 -0.378350559008642784 -0.0770411924324572867)
(0.469204334614065133 -0.399419093891323962 -0.0164968777638796055)
(0.488559054440300899 -0.36503710775889614 -0.0138956190825058005)
(0.493232132682855207 -0.39423565981005454 -0.0179000991751430624)
(0.658070932750721593 -0.279980668352423301 -0.253405288805597706)
(0.560692480610417099 -0.417229710370218942 -0.165420352920498004)
(0.539599530177618303 -0.365327190713253036 -0.102494596107626526)
(0.604003034783424986 -0.361377399667087817 -0.14259484945786266)
(0.636846059887867355 -0.0291613999232616938 -0.419803805781611583)
(0.693021928684268707 -0.153934517081556366 -0.447432720177481036)
(0.631235345256226932 -0.174696003704192637 -0.368665418728809313)
(0.73784307034691976 -0.182161537342804269 -0.37438596532214935)
(0.381343853666579302 0.390090433958648675 -0.715367991641152834)
(0.330916914359262737 0.178535759982174996 -0.529701931690447991)
(0.331690459363937817 0.134894469947911377 -0.447378650732909777)
(0.593925515827634976 0.00859153515609989427 -0.491005721155603092)
(0.335297692359897537 0.652399233838148906 -1.01701487783160927)
(0.376403738565201873 0.732148830179090049 -0.779123410336941213)
(0.659147394427230915 0.415027782969094483 -1.09330608042648292)
(0.0228109176207780748 -0.0476920796059888338 -0.0011443660537909738)
(0.0112174113776728375 -0.0521571610496310706 -0.00109152166651534728)
(0.0113212869451514916 -0.0470070393296740038 -0.00104636057542262131)
(0.0113569038609264567 -0.0470463393193107995 -0.00113427338785987712)
(0.0460413340864351261 -0.049269535778977129 -0.00128985184442990996)
(0.0339187579988277019 -0.0535779952286459873 -0.0011937092756369339)
(0.0342461348941002983 -0.0483336137739503249 -0.00114250341289822235)
(0.0343534766691662441 -0.0483744074275982983 -0.00124361453651306475)
(0.0701464184729654466 -0.0518156015352751811 -0.00152390065228655584)
(0.0572802814579852493 -0.0556042181996522986 -0.00138070996413983734)
(0.0578592840167671402 -0.0501595946194200379 -0.00131744593812816412)
(0.0580469715616356713 -0.0502029018121020396 -0.00144233174113989429)
(0.0956197286646808808 -0.0558495563252758287 -0.00186111075462718476)
(0.0816963851885602749 -0.0591801367066474085 -0.00166132709627000844)
(0.0825721699143499299 -0.0534214955778555961 -0.00157769392279566651)
(0.0828530430080805097 -0.0534671547534736405 -0.00174179583788390806)
(0.123050483696854354 -0.0616673764783482459 -0.002326553419268003)
(0.107666904709610017 -0.0644293169284987088 -0.00205428422833819424)
(0.108923951661274998 -0.0582191239650955983 -0.0019390672470406085)
(0.109320949669652986 -0.0582692018564270747 -0.00216317486320506984)
(0.153138194165631847 -0.069947402451725274 -0.00295978133215769835)
(0.135775735679928983 -0.0718661823982363751 -0.00258927066016859499)
(0.137556571810217937 -0.0650392913696641317 -0.00242805307713350781)
(0.138108857820741754 -0.0650992869542638408 -0.00273971519550858045)
(0.186754085227601452 -0.0818707559343286317 -0.0038207606988482491)
(0.16662615389057131 -0.0823908877079811558 -0.00331214140546213804)
(0.169167769421685654 -0.074742658738366094 -0.00309151088648981992)
(0.169939759447833183 -0.0748257047758645877 -0.00352023863845781111)
(0.224976978353609802 -0.0995174979225597472 -0.00498947712319523611)
(0.201463965746936979 -0.0975278372919192449 -0.00428963599135227976)
(0.205170988563429552 -0.0888104854820067624 -0.00400890460245502921)
(0.206258748997532521 -0.0889488875183531286 -0.00456315140234261375)
(0.268950878721700148 -0.126638888984743014 -0.00672947920258416907)
(0.237508933789846582 -0.119906231273811406 -0.00559109363195989598)
(0.24292264935630678 -0.109876601123799114 -0.00530353298916996611)
(0.244590092578113955 -0.110171818245463918 -0.00590173129976228651)
(0.318445973648943725 -0.16609551619017493 -0.00919398087213967735)
(0.29293027964853724 -0.153996179123120386 -0.00766517671384371168)
(0.301179817482548018 -0.142763633872334428 -0.00749900742432459046)
(0.303616869191623784 -0.143330708119025041 -0.00786915342971071345)
(0.378530026219418558 -0.305340645101827401 -0.0124922417561194061)
(0.246921347086703658 -0.201531090270809954 -0.00984842788265750946)
(0.258249349163897302 -0.188471401134566091 -0.0117004401601221997)
(0.258661306395429391 -0.189804710168746366 -0.00936993977283277421)
(0.439849985235231722 -0.447627324604946419 -0.104876038251920198)
(0.425714049126056315 -0.424399910550816717 -0.0155534314968645646)
(0.443429274917479244 -0.401869308549444471 -0.0155136117386620812)
(0.448306256325793462 -0.433508824720822694 -0.0109685669429488812)
(0.631122045013671085 -0.305354004610546292 -0.359447784292381445)
(0.535349535872918114 -0.515332510665826748 -0.242262703354160946)
(0.497094040185213581 -0.442619868557730611 -0.164912013693614939)
(0.552681986373591116 -0.448121645028431326 -0.191097211663288552)
(0.518194669895134186 0.0507482708993777787 -0.557330846086317333)
(0.601523451471076331 -0.0993839463131674788 -0.603383911992092736)
(0.554248418842616442 -0.143237881741127893 -0.517425766473234461)
(0.702454199295249881 -0.151143715227300635 -0.508703557270271611)
(0.0896297927336627276 0.455206900442987394 -0.8313488178809052)
(0.219122946148089554 0.383220014871050951 -0.855275467894344499)
(0.154481029118114205 0.308252456949764886 -0.654233640712270859)
(0.352653855678147388 0.0320021918728893018 -0.625809527457303449)
(0.167926217497708752 0.576745127003904678 -1.06159606863277745)
(0.217482818238607212 0.748231828511722319 -0.940359094672008511)
(0.494751116152374271 0.403620817447075342 -1.17133817449990585)
(0.0223210306671433913 -0.0578641374921067334 -0.00114086488836130694)
(0.0109555766888744261 -0.0621251736400466326 -0.00108463458716306178)
(0.0110794050001844814 -0.0570819586297408796 -0.00104021013695953309)
(0.0111159914635520288 -0.0571317122486445714 -0.00113556167677622728)
(0.0450079323703307388 -0.0597265160596636424 -0.00128456739534686085)
(0.0331026777865201863 -0.0637156413451284154 -0.00118403512479251937)
(0.0334888934010581091 -0.0585904197790094519 -0.00113337477279067621)
(0.0335988459648943749 -0.0586415810393990378 -0.00124249217202468789)
(0.0685047241832945908 -0.0627658536979765758 -0.00151813640812328995)
(0.0558450944828264989 -0.066114530134161964 -0.00137057021984413659)
(0.0565241324303094733 -0.0608042660997561366 -0.00130704528412566023)
(0.0567152998461077848 -0.0608577004221066697 -0.00144168767716325091)
(0.0932284246877595341 -0.0675231672469366051 -0.00185450056998101858)
(0.0795367273935600472 -0.0702568889054713264 -0.00165077450491314627)
(0.0805601961630734997 -0.0646644740489012299 -0.00156547579633521824)
(0.0808444111608773303 -0.064720360342810937 -0.00174262668735621659)
(0.119662304077625598 -0.0743342579851655749 -0.00231700146923878667)
(0.10458869986695575 -0.0762995785441636515 -0.00204218974203013116)
(0.106048091807105421 -0.0703098274025995285 -0.00192214500285195207)
(0.106446766476095828 -0.0703705305022670063 -0.00216614692489933754)
(0.148336987621338207 -0.0839243327912676668 -0.00294163073347303555)
(0.131449311231516236 -0.0847834022602772797 -0.00257280347189697313)
(0.133495932933589273 -0.0782676773682686455 -0.00239935628032491612)
(0.134045000559005589 -0.078337781173145743 -0.00274546049727514068)
(0.179830115680688685 -0.0975200636396249682 -0.00378101669796616913)
(0.160503610689840592 -0.0966339513573629405 -0.0032850629807918549)
(0.16338265471715635 -0.0894520457683683767 -0.00303598168924630119)
(0.16413934702317573 -0.0895398872422913106 -0.00352829894292648822)
(0.214715463968159159 -0.117174976969146777 -0.00489125250011694136)
(0.19262541149031831 -0.113368584016411089 -0.00423988587032073268)
(0.196734490751528907 -0.105386643068799468 -0.00389644404552377116)
(0.197771087775001519 -0.105507767252453658 -0.00456870098873536634)
(0.253317558939868015 -0.146217227326837396 -0.00652679114321942991)
(0.224636318255572537 -0.137461997746747333 -0.00547166355118623368)
(0.230431294282575888 -0.128617349577867218 -0.00506709527179028708)
(0.231989153785008645 -0.1288505646298857 -0.00586572771810108494)
(0.294309345762513441 -0.188190989435025519 -0.00831962372436154639)
(0.272835861529220514 -0.172579159144749666 -0.00748462266641666558)
(0.281541179564687216 -0.163314272515201669 -0.00704116550447203299)
(0.2837574496817305 -0.163638811416162766 -0.00777010604116704605)
(0.344576478246752194 -0.323297978789750029 -0.0129096176234026576)
(0.2224534530495762 -0.222874846920727815 -0.00901498389994961381)
(0.234358235036574769 -0.212715379765916923 -0.0102545620928068768)
(0.234032262844461408 -0.213101420915145556 -0.00826025744355527412)
(0.398282974236880749 -0.502553406851235174 -0.152940096599106151)
(0.385645542481838799 -0.440149141576556269 -0.0211730133878528445)
(0.398647862997004054 -0.418836445872640961 -0.0251448520832702818)
(0.406033308386043179 -0.458624886326082337 -0.00890389485993998281)
(0.590245325787628117 -0.3548081022221381 -0.486198831053872627)
(0.523885121189814451 -0.619800331940770888 -0.362090773058882431)
(0.468002983704565612 -0.548228490002924396 -0.241970976932468301)
(0.53500026530957312 -0.537407542347241085 -0.280271903692083768)
(0.56627711306156514 0.136902578098317462 -0.901328533800120679)
(0.624509282655287601 -0.0900291726711677509 -1.04383719797680863)
(0.35989335987755311 -0.161094885619358391 -0.678079646919704127)
(0.624022193302980921 -0.151048475631669676 -0.680673420508431382)
(-0.0675636980107260088 0.462010494713673781 -1.08552271864621774)
(0.228271287769616138 0.644557257433536201 -1.43242420556849726)
(0.0270190114259026455 0.565987480956948508 -1.11686481902882062)
(0.53925250056187346 0.182315493089295039 -1.15760179501346738)
(0.16530396765197708 0.440572028278319427 -1.07980766674502782)
(0.0935697038193286923 0.613377296286252816 -0.967905071420292029)
(0.418197253728959162 0.283131272385869548 -1.18019788764787226)
(0.0217485854212236158 -0.0677924556101132392 -0.00112780482359427399)
(0.0106551745135848204 -0.0718430697066109736 -0.00106802965966256574)
(0.0107966911107001424 -0.0669238761131729504 -0.00102377089435439915)
(0.0108341657211942083 -0.0669849073854114213 -0.00112747743622225558)
(0.0438155639056182905 -0.0699129663047356881 -0.00127003794928979468)
(0.0321727860324045739 -0.0735823704231538533 -0.00116506501710859087)
(0.0326117462691745685 -0.0685921093544257093 -0.00111425233599640847)
(0.0327241647052629245 -0.0686543086529886465 -0.00123246751721285122)
(0.0666137956554449379 -0.0733979997472541668 -0.0015032083166339927)
(0.0542186695292289772 -0.0763196861963429951 -0.0013515359532748079)
(0.0549868184480987038 -0.0711625916138362014 -0.00128681748963090092)
(0.0551811347556162637 -0.0712265304487368078 -0.00143229813759439663)
(0.0904869551608000894 -0.0787923547790526507 -0.00183846367696225907)
(0.0771006253992764234 -0.0809628125488598693 -0.0016312303890011347)
(0.0782528382227576091 -0.0755574919055886501 -0.0015431812608954962)
(0.078539716318919775 -0.075624088356029906 -0.00173485967457397312)
(0.1158103775041876 -0.0864524120591140255 -0.00229799174468831848)
(0.101141987966851338 -0.0876878690554635104 -0.00202075261362270539)
(0.10277234984849061 -0.0819419339460109586 -0.00189415439127534491)
(0.103172101557421597 -0.0820137669672164199 -0.00216131360452036583)
(0.142945050279101732 -0.0971125028544134183 -0.00291623571921579292)
(0.126657894368301965 -0.09703683531502659 -0.00254759427695771656)
(0.128918503324012362 -0.0908580711289594667 -0.00235859215569393568)
(0.12946539792333403 -0.0909380475627183799 -0.00274589871831699452)
(0.172190658900239935 -0.111979630230373675 -0.00374393215314641889)
(0.153826986275268529 -0.109917206570708248 -0.00325358105659856629)
(0.156957265035117088 -0.103223898887154497 -0.00296867362793602112)
(0.157705759098741738 -0.103314001801743063 -0.00353905508012372465)
(0.203671589602628322 -0.132979730405399926 -0.00482029692139002413)
(0.183199417161157008 -0.127769946120085881 -0.00420223506880783391)
(0.187569743740458567 -0.120527162365718643 -0.00378031135266878801)
(0.188573551305550202 -0.120620918323386617 -0.00459991570143897938)
(0.237035618175387958 -0.162963342639953684 -0.00642949507438345634)
(0.211338720589398843 -0.152815393610557876 -0.00540271759701632399)
(0.217283131484763387 -0.145106731187496202 -0.00485126874385746667)
(0.218789914044536266 -0.145244589117003886 -0.005901124887256636)
(0.270657026717285309 -0.206153692040242725 -0.00817998284200473734)
(0.252372144199706883 -0.188058794090493142 -0.00739937431759931513)
(0.260998372758457775 -0.180488856477852427 -0.00673963250000469798)
(0.263134844499402554 -0.180539991470107047 -0.00781332344941881342)
(0.309166130427423302 -0.336375203681999635 -0.0172783796643998441)
(0.198323745543578928 -0.239382642983140603 -0.00940487149799737986)
(0.209588790803524105 -0.232370400981636804 -0.00967752939659337862)
(0.209650365498759428 -0.231687581926115355 -0.0084629925123627537)