/*--------------------------------*- C++ -*----------------------------------*\
| =========                 |                                                 |
| \\      /  F ield         | OpenFOAM: The Open Source CFD Toolbox           |
|  \\    /   O peration     | Version:  2206                                  |
|   \\  /    A nd           | Website:  www.openfoam.com                      |
|    \\/     M anipulation  |                                                 |
\*---------------------------------------------------------------------------*/
FoamFile
{
    version     2.0;
    format      ascii;
    arch        "LSB;label=32;scalar=64";
    class       volScalarField;
    location    "0.119999999999999996";
    object      alpha.water;
}
// * * * * * * * * * * * * * * * * * * * * * * * * * * * * * * * * * * * * * //

dimensions      [0 0 0 0 0 0 0];

internalField   nonuniform List<scalar> 
7236
(
-2.2744179663377882e-06
3.18680020291950633e-05
0.000154481084100625268
0.000166154520340736707
0.000398469261709143868
0.00130290816313938934
0.00260814335284735186
0.00346171430839137175
0.00383003046738685828
0.00450819960004224512
0.00461229737949494286
0.00460622570825065109
0.00439259349958371487
0.00328856837943471581
0.0025663495506089381
0.00191031295959997777
0.00124415207582404073
0.000451263977206742858
0.000228618130461167679
0.000116647577738991938
5.08731403935689888e-05
1.84813063615286528e-05
5.18838263108681786e-06
1.24750204146055321e-06
2.5990879862383112e-07
4.7134791730737707e-08
7.45997520581590755e-09
1.03047027212513703e-09
1.25482182253647641e-10
1.43524744322970839e-11
2.60938915333214358e-12
2.55687776271229807e-13
1.56550150174088801e-14
8.03501690246310214e-16
3.20235955040282669e-17
9.16283841088773142e-19
1.58970741501527871e-20
5.62309676795261869e-22
-4.83314064841070638e-06
1.14774926439680684e-05
0.00010184009591397838
0.000192249649075792756
0.000153255157510150738
0.000194314942438973361
0.000284916312811489894
0.000369442703323657985
0.000426237304288180799
0.000484910077407063795
0.000539301394405526094
0.000594238371176666739
0.000662283376837471006
0.000744351658480913868
0.000722235693790849315
0.000741762094350020829
0.000649805961344388579
0.00049992072010319002
0.000361038012475946865
0.000184952224181340484
6.30487552772567218e-05
1.60800563191267628e-05
4.76191286668031227e-06
1.17899267424984842e-06
2.51120016253790017e-07
4.64098953174351456e-08
7.47809652324769623e-09
1.05167480694081651e-09
1.30508432473944528e-10
1.51823296501960436e-11
2.78648128941229092e-12
2.78667587842709181e-13
1.74107822573756172e-14
9.11428351022162576e-16
3.70776542883851373e-17
1.0834125904258716e-18
1.91119343500941472e-20
7.17442554489507612e-22
-7.78379212495475323e-07
1.62459205738991752e-05
5.06863725811342955e-05
6.11975143571465055e-05
5.33447037112364211e-05
5.68123060365742673e-05
6.93427741440198449e-05
0.000102836520287804108
0.000138679539898142474
0.000172760568562973767
0.000200039764712117252
0.000216648059600430904
0.000220437255175737396
0.000214959562625111511
0.000206536836153353698
0.000169998481112886924
0.000148730834730382221
0.000175688745321594199
0.000138434478775999149
9.28474861595694978e-05
5.04346927111066411e-05
1.60891391759099236e-05
3.9582384541956769e-06
7.23918019573802248e-07
1.56383575892230784e-07
2.92711352087346216e-08
4.7708823780263688e-09
6.77963190001732889e-10
9.08303899879710526e-11
1.55948788130046719e-11
2.37491154198903255e-12
2.0671527137027263e-13
1.34590012674976387e-14
7.21878123089606918e-16
3.02498134355979036e-17
9.22373555884352739e-19
1.76422302292902712e-20
4.87894341371054341e-22
3.49469861692831596e-07
1.27174947398539687e-05
3.32560300186340101e-05
5.41486737864481143e-05
4.13250651870944799e-05
3.66141094387156365e-05
4.38031075803013166e-05
4.73442658213371772e-05
5.50851028756875206e-05
7.51872524575526084e-05
9.26807921925764847e-05
9.78867561325811399e-05
9.76675628771509884e-05
9.00622193833943915e-05
8.46193938067516915e-05
7.75513708953598383e-05
6.75610086648549925e-05
5.43246566806091858e-05
3.84152899255842023e-05
2.34262728428030542e-05
1.46459295122458337e-05
7.44910899974137289e-06
2.27676812672656004e-06
4.07554120868513315e-07
8.51834548500957737e-08
1.61400910087507505e-08
2.66102397240570683e-09
3.82179876732923354e-10
5.31790108490424481e-11
1.13592980032481964e-11
1.51817499940328435e-12
1.22163246858066211e-13
8.12030026468650489e-15
4.41754430408516718e-16
1.87806077539589483e-17
5.82132596886102463e-19
1.13984140322186187e-20
2.95233388831465385e-22
5.33087681997880115e-07
1.00095444851194926e-05
2.34356811748974954e-05
3.10660194013745943e-05
2.64421635209316876e-05
2.21262911673063143e-05
2.53094699215894385e-05
2.94773733624785979e-05
3.51051445243534259e-05
3.89015703988169505e-05
4.6154865151559048e-05
4.91116566789990449e-05
4.47076292835405908e-05
3.86722764722233347e-05
3.69030938214857254e-05
3.43114711015777825e-05
3.03682739288753896e-05
2.48169202080135152e-05
1.78548097922323772e-05
1.08926724200955108e-05
5.53763965458104871e-06
2.39093562079526641e-06
8.25733550576346347e-07
2.02807777304672494e-07
4.30334637477071947e-08
8.23910282895703382e-09
1.37231017048674691e-09
2.1297414508938728e-10
3.85234935803194801e-11
7.52250863206922449e-12
8.49336797378014228e-13
6.81462082805664019e-14
4.60874110343549774e-15
2.54564796599020674e-16
1.10045053059490842e-17
3.47972210737601879e-19
7.0078350902886837e-21
1.65192779693418116e-22
5.67739613209472518e-07
9.1385294565515209e-06
1.79885765366440123e-05
1.95441243263173766e-05
1.95814478377696802e-05
1.60042730657085044e-05
1.51917888663070698e-05
1.77819098409394985e-05
1.9707389040758338e-05
2.12854035637025671e-05
2.33987009451522377e-05
2.19595850830725848e-05
1.95504754753681005e-05
1.69507093667806599e-05
1.63305880156164988e-05
1.5259202569905888e-05
1.35498617352930627e-05
1.11194672844491514e-05
8.05693418886430207e-06
4.94888829503718618e-06
2.59558425759529194e-06
1.0771145672459513e-06
3.65120665487386153e-07
9.45274506813105288e-08
2.0608450519807344e-08
3.97904503373075849e-09
6.77462824853470772e-10
1.09236184934778053e-10
2.67593319563228688e-11
4.44156144362324965e-12
4.40496201746906972e-13
3.60271907852712221e-14
2.47357684869406486e-15
1.38707064259255173e-16
6.09915744378636798e-18
1.9687285248176342e-19
4.08306655116629277e-21
8.69121069810309881e-23
6.62965713799926242e-07
8.57490512049675072e-06
2.40227259561154372e-05
1.75166218240464298e-05
1.47379572563885358e-05
1.19476710408457598e-05
1.06993519437440696e-05
1.15699022356636475e-05
1.14703636678928243e-05
1.18574927816066327e-05
1.11633597453803675e-05
9.96238976455520917e-06
8.79753408733615067e-06
7.77020991333899997e-06
7.31366021677526687e-06
6.80154175815264051e-06
6.00530842750762948e-06
4.90775594461973261e-06
3.552984871976554e-06
2.1845507962047296e-06
1.13197230393323732e-06
4.86383556823052995e-07
1.66791927808424738e-07
4.30774466517922094e-08
9.45988402253333733e-09
1.83869233713988662e-09
3.38064399758154749e-10
7.55648889013235505e-11
1.68280551029573485e-11
2.22479307722520553e-12
2.18086323799594255e-13
1.80989899757245651e-14
1.25986917354463352e-15
7.16732623608285856e-17
3.20313392928916151e-18
1.05402623012191025e-19
2.24469296584588061e-21
4.34533674894243639e-23
4.8771007639041689e-07
9.09746023672119678e-06
1.82614266116311262e-05
1.80211804986271556e-05
1.10385398248891524e-05
9.16062567030607044e-06
8.36623307670146754e-06
7.69807480449229863e-06
7.17284807762827819e-06
6.5082127363704103e-06
5.57980245027217087e-06
4.77785452538075796e-06
4.09936071780365956e-06
3.56601016327172134e-06
3.31184230083579824e-06
3.03283249971497187e-06
2.64165708782902706e-06
2.13562707856401775e-06
1.53546481427447193e-06
9.40616946472967317e-07
4.78356848951482914e-07
2.05850670915884023e-07
7.19459669766562225e-08
1.89650124655235923e-08
4.18933405537433316e-09
8.63672588676743597e-10
1.84828778228986317e-10
4.88632538713632795e-11
8.7783494475630691e-12
1.04762939972167181e-12
1.03497137601149312e-13
8.69986349480258311e-15
6.13436810910435067e-16
3.53816963964953938e-17
1.60585371351617278e-18
5.38058267879551788e-20
1.17384913588554511e-21
2.07964504297394561e-23
9.15222559689413593e-07
7.17522105887493281e-06
9.49111885516522983e-06
1.42568921314512858e-05
8.83376777782512394e-06
7.13716192431418864e-06
6.25799978105604224e-06
5.29569970058406155e-06
4.47528473254824996e-06
3.63060455113260609e-06
2.88188925235254683e-06
2.35583567730374569e-06
1.97120645807717846e-06
1.67015921873040031e-06
1.51299708850113813e-06
1.35024888626038374e-06
1.15235622709599795e-06
9.16396053979009895e-07
6.51314840508485268e-07
3.96117685795433443e-07
2.0071513417559405e-07
8.50912779893330693e-08
2.98029134419770018e-08
8.09796240495443009e-09
1.86128659792890399e-09
4.01645462020731299e-10
1.13350960794048255e-10
2.7071635760569545e-11
4.04063266674925128e-12
4.73675686615248537e-13
4.72775038751209234e-14
4.0213836153988544e-15
2.87037546259677276e-16
1.67750154880174554e-17
7.72614849500412796e-19
2.63293646871043306e-20
5.8720903413995058e-22
9.57733485861475246e-24
1.01989207226544976e-06
5.12364963269703866e-06
9.51823239033627944e-06
1.02734153907348145e-05
6.99538341527109253e-06
5.65737454786976088e-06
4.55901398227952002e-06
3.52987246873151411e-06
2.73391447978554968e-06
2.03983711894247038e-06
1.52446676700701197e-06
1.18740238633163926e-06
9.62518920876933547e-07
7.9053152535837138e-07
6.94484835748334999e-07
5.99226827029551951e-07
4.98255145665722878e-07
3.87967903556530943e-07
2.71565272342207337e-07
1.63517448806817601e-07
8.23898509910186589e-08
3.44852438630523872e-08
1.08643539131591877e-06
1.27682922416494425e-05
9.09805669232817127e-06
7.39920891509985806e-06
5.21040905208185253e-06
4.22198269828272954e-06
3.18694878559316253e-06
2.35052124535568319e-06
1.66393092577592063e-06
1.16079409746701844e-06
8.25789925136858161e-07
6.13698322632225389e-07
4.75394962793004498e-07
3.77165718630799531e-07
3.18953979301986266e-07
2.64921630048631393e-07
2.13704712011306521e-07
1.62317223940624104e-07
1.11543618097557682e-07
6.63145275381167624e-08
3.31106024319096073e-08
1.37944358426703792e-08
7.01387278071684804e-06
2.40844931137661272e-05
9.17118142751067027e-06
4.38750399174739275e-06
3.84396950880255852e-06
3.06237888410098851e-06
2.20278577761687956e-06
1.63253264959837202e-06
1.11527435637548916e-06
7.22883867543210299e-07
4.66189415861640735e-07
3.20981526622229221e-07
2.37424359935170115e-07
1.81432094685110215e-07
1.461545674744687e-07
1.165750523288231e-07
9.0868815870502849e-08
6.70754344704102255e-08
4.50909762893877101e-08
2.6382625413536111e-08
1.30456489824543085e-08
5.40940518713112682e-09
6.03514048328363283e-06
2.23056895010013727e-05
9.45737448799129088e-06
2.8062078818318732e-06
2.75168541651667558e-06
2.25143617058240066e-06
1.70177511268726844e-06
1.19917901506312926e-06
7.70643589112669378e-07
4.72968144764655999e-07
2.83016685462152764e-07
1.74789671891825945e-07
1.18994812540091548e-07
8.72708684253650026e-08
6.66463467531716889e-08
5.09398662981723414e-08
3.8232240957860212e-08
2.73539513173015287e-08
1.79512507746537503e-08
1.03270775720461247e-08
5.05328751676349719e-09
2.15418013441383374e-09
3.1010004926621549e-07
1.72698216699584726e-07
9.8216054728026388e-08
6.10731170434260636e-08
4.18798146639860258e-08
3.02327858152868847e-08
2.21113268840225948e-08
1.59606359080792397e-08
1.1043586412512513e-08
7.05799732690385027e-09
5.52324129107228635e-08
3.15397278341714456e-08
2.00746373267302137e-08
1.36627958076916704e-08
9.56255733203036445e-09
6.60565844612357609e-09
4.29689527373820676e-09
2.717164963100186e-09
8.65417628458461666e-09
5.01303555949192123e-09
3.04837629355399679e-09
1.87167453890697178e-09
1.36785135850311387e-06
1.5702414186784872e-05
0.0001282274147310226
8.34141505761792359e-05
8.84388897508516186e-05
0.000161677460366692403
0.000232956542281864307
0.000310592782411096412
0.000393526600951265041
0.000479654646011758558
0.000529724052856844199
0.000531860218475206994
0.000512863552986787992
0.000473330439325851898
0.000388092250019368744
0.000295213956385978341
0.000210430982984093621
0.000135235051602904365
7.54325555288055526e-05
3.58833279023815119e-05
1.45081567429263003e-05
4.99102586347366808e-06
1.46690058357930826e-06
3.57118607951821498e-07
7.06114788951893342e-08
1.21885982358778657e-08
1.84146545601098197e-09
2.43414960993896858e-10
3.09642619439701008e-11
5.65478880236406411e-12
6.7282613398820336e-13
4.95127491705655856e-14
3.02654861523967418e-15
1.50778430007416839e-16
5.82219083756004528e-18
1.61587976111100664e-19
2.74867399850535321e-21
7.46405103064990301e-23
3.90461044038035742e-07
7.78303848217501342e-06
4.57476859397763818e-05
6.18599767207154202e-05
5.86942870386935654e-05
6.70586064176771082e-05
9.19904903144438637e-05
0.000123388318809897256
0.000174817319287528562
0.000220990941055752268
0.000263202942119761035
0.000303949921478847843
0.000334907835252514733
0.000346401410718085443
0.00034868414994016064
0.000311122566589803118
0.000247742842697414359
0.000174879612200756849
0.000106543319799126118
4.27941989027272394e-05
1.20659649177079e-05
4.37381580558774346e-06
1.34571929740052662e-06
3.41054498832848068e-07
6.90111955737961072e-08
1.21244754888536628e-08
1.86333995178000364e-09
2.50593836361035569e-10
3.24440112450399863e-11
5.98094014294874233e-12
7.24695948883596591e-13
5.43934379919897882e-14
3.388938645233678e-15
1.72175071110182041e-16
6.78477338316038165e-18
1.92238110024817387e-19
3.32432839033824959e-21
9.64397048686997268e-23
1.65111307077342609e-07
5.23006404438590114e-06
2.096809500023105e-05
2.82809416921278882e-05
2.60794284149548912e-05
2.79418166330402082e-05
3.30681324827782498e-05
4.42412723163027933e-05
5.79247620489978617e-05
7.17856549929499514e-05
8.06157595926120624e-05
9.05840663144285836e-05
0.000100195591084803755
0.000101334797991850268
9.32685206449261812e-05
9.56248830247583936e-05
9.66013838029040959e-05
7.93404753455287631e-05
5.62755656583611538e-05
3.39210605050664749e-05
1.26133001507606431e-05
3.79423578397769193e-06
9.18591308301396877e-07
2.07915951099137293e-07
4.28875707282462861e-08
7.63391943867421231e-09
1.18728230005656837e-09
1.70578160311162927e-10
2.77065329828644907e-11
5.10244753969071528e-12
5.51296425300880122e-13
4.13262597183101057e-14
2.63175870432040799e-15
1.36840012458438117e-16
5.55666774167492574e-18
1.64374583756322963e-19
3.0753455213338668e-21
6.57234525966598121e-23
1.06837731842848469e-07
3.31252473820960953e-06
1.26379091576056495e-05
1.6638207642661585e-05
1.47491581201913234e-05
1.55242943178736198e-05
1.63522354742446041e-05
1.9248343225302769e-05
2.35711312276564863e-05
2.89436851618706705e-05
3.22642895203495634e-05
3.37167662021422741e-05
3.32319931728692098e-05
3.29429339879965595e-05
3.15929076339146935e-05
2.87737859456040428e-05
2.45757381693907701e-05
1.90991602084112426e-05
1.28168383073412933e-05
8.86905208608948095e-06
5.59870173549532487e-06
2.13184267866411881e-06
5.01061990853225533e-07
1.10937878848160922e-07
2.3308946865209255e-08
4.2020006289952939e-09
6.61249486522365479e-10
1.00106413943730394e-10
2.0843105286534432e-11
3.35618782879126724e-12
3.20869070690298734e-13
2.4613140353905789e-14
1.59018655417161237e-15
8.38158044241024156e-17
3.45334373465348586e-18
1.03859449962065222e-19
1.98810711378483356e-21
3.98379450115754753e-23
8.99970605332426315e-08
2.44997608712254578e-06
8.05860560883017893e-06
1.0975600682770718e-05
9.35870236711197826e-06
9.10555604490877478e-06
9.23867678753958871e-06
9.6389188091307769e-06
1.08005490765976723e-05
1.31907403216519136e-05
1.47672889244259484e-05
1.50598797784882532e-05
1.43950972094538199e-05
1.34217030019496213e-05
1.30955453248592852e-05
1.22405133221389725e-05
1.06954389314765365e-05
8.4911047862434882e-06
5.81638070698956743e-06
3.3319478298558929e-06
1.60745762925719626e-06
7.38474952066493342e-07
2.2844569477412298e-07
5.48672229404435642e-08
1.17325272352383968e-08
2.13906186249099762e-09
3.57138693765171027e-10
6.31960438908541802e-11
1.40122449962404695e-11
1.92462773190487032e-12
1.76468468185145985e-13
1.37800695296400861e-14
9.03424836767297621e-16
4.8337000498105287e-17
2.0253138938819669e-18
6.21443514319570798e-20
1.22263491419595154e-21
2.23304805252708498e-23
1.01496103397277247e-07
2.0650070624232176e-06
5.67765035536249822e-06
7.1604895741891077e-06
5.93170700601855394e-06
5.34123665263461505e-06
4.85742991380508687e-06
4.72381423993461369e-06
5.49247517202765528e-06
6.28839102770320121e-06
6.71056546565802194e-06
6.58119500606153406e-06
6.11746097014787243e-06
5.63935140514432548e-06
5.50524605555124578e-06
5.20659543965146862e-06
4.59681228849178254e-06
3.68658093324358102e-06
2.55618799255909536e-06
1.48139429325065935e-06
7.07067096690583466e-07
2.89580609522730411e-07
9.77026663818778072e-08
2.59497342244486816e-08
5.58917197110561905e-09
1.0433044045338957e-09
1.82894208504955869e-10
4.42018300336745321e-11
8.55580627192904749e-12
9.90096501053760439e-13
9.2043052761597277e-14
7.29604001203956134e-15
4.85197023158241335e-16
2.63573611500872925e-17
1.12359543764098553e-18
3.51985903329054665e-20
7.1265863722337175e-22
1.17710472059921153e-23
1.07320832199703222e-07
2.33217282237896315e-06
5.06145198204577476e-06
4.64862414365196197e-06
4.00262786624861824e-06
3.1524103348108461e-06
2.64534643732648768e-06
2.66854326280781148e-06
2.97935204653111138e-06
3.1154540579746543e-06
3.07563462522809958e-06
2.90204653231239606e-06
2.65938586525855106e-06
2.42449421813464375e-06
2.34758460491932407e-06
2.22000158179621779e-06
1.96015512699508875e-06
1.57428619682948604e-06
1.09672169523923011e-06
6.39544783417722564e-07
3.0976684211445933e-07
1.2343145341979214e-07
4.22770111358343216e-08
1.15569105757485502e-08
2.60241513222382691e-09
5.12816293433510927e-10
1.156930599672133e-10
2.81679882671519244e-11
4.35981964011454473e-12
4.84502836226495294e-13
4.56371468277068123e-14
3.66713091146079835e-15
2.47223161289166574e-16
1.36282974124550477e-17
5.90630567291583669e-19
1.88655725244054709e-20
3.92003224579274216e-22
5.89701011459145687e-24
1.1447811381774198e-07
2.7101616443800803e-06
4.4049321062860398e-06
3.43649096753113963e-06
2.92947952005945568e-06
1.97829032395678885e-06
1.68544101107242873e-06
1.7398643600006581e-06
1.70717269766364766e-06
1.61130047624665109e-06
1.47424648160111488e-06
1.33090686284378558e-06
1.18823933109089528e-06
1.064814636287143e-06
1.01452065595048029e-06
9.4878293580050496e-07
8.3050739531257238e-07
6.63250170211866916e-07
4.61326779471297792e-07
2.69410877764967876e-07
1.29805557099723491e-07
5.2848869507066745e-08
1.79923797261793898e-08
5.01042753644131333e-09
1.19760235774018046e-09
2.65752095866611861e-10
7.26267489546806252e-11
1.50243322521660614e-11
2.04267260376094196e-12
2.27078812862330856e-13
2.16592687716251766e-14
1.76269791404277035e-15
1.20400672075738054e-16
6.73150618610890766e-18
2.96370118970785707e-19
9.64110225424138905e-21
2.05130691838038483e-22
2.82819397494315357e-24
3.26913941871708032e-07
2.90718022257349205e-06
3.97048743134280628e-06
3.18844762251266499e-06
2.05833708985266108e-06
1.45599073327059935e-06
1.25401327224475869e-06
1.13660239778598682e-06
1.01157500163352668e-06
8.63434071011736906e-07
7.31813645091173965e-07
6.29658387852014573e-07
5.45623588256982838e-07
4.76549247973445981e-07
4.43515533114117611e-07
4.05981228983241345e-07
3.49735808257048024e-07
2.76044083633870399e-07
1.90721524544697956e-07
1.11088246674782287e-07
5.35191569574785603e-08
2.15780583861048829e-08
7.43595458835015283e-09
2.15015372446271643e-09
5.32011198069258269e-10
1.5460604932713208e-10
4.07686588912626364e-11
6.94165674881005451e-12
9.13799196136013123e-13
1.02445936253908155e-13
9.88874412264541337e-15
8.14587962241377535e-16
5.63462006564603397e-17
3.19330124992815853e-18
1.42719928277050264e-19
4.72316051169849785e-21
1.02695853942710667e-22
1.30837906500948489e-24
5.14239860851683952e-07
2.71288017547169537e-06
2.71413629879097265e-06
2.49457034020100705e-06
1.47806999075201837e-06
1.06314402186078596e-06
9.05193392408691058e-07
7.54211317770797535e-07
5.99818275593757678e-07
4.7147525911569908e-07
3.73720629946503513e-07
3.05365410809520465e-07
2.55588407210833296e-07
2.16394741595119539e-07
1.95545911904512779e-07
1.73665621864126591e-07
1.46340850729377621e-07
1.13581375655311394e-07
7.7613903262088089e-08
4.49209110420348807e-08
2.15715999092268881e-08
8.65209837224004885e-09
3.05189505074666311e-09
6.58900842212741471e-07
2.59087616776385695e-06
2.0924014311313823e-06
1.79435575159476136e-06
1.04059785918928286e-06
7.97079664898447304e-07
6.42882914700372666e-07
4.89506621820916399e-07
3.60476440755048782e-07
2.64353419255255148e-07
1.96484813281439414e-07
1.51711414489748409e-07
1.21562839572211268e-07
9.91924430987381125e-08
8.66347916998847598e-08
7.41783491393879929e-08
6.08534609355570853e-08
4.62266998238931066e-08
3.11076334395784039e-08
1.78274581488382987e-08
8.52284021406647098e-09
3.47764149320924345e-09
1.10533683332648813e-06
3.20107050183075994e-06
1.96673919848898518e-06
1.13712963249737352e-06
7.19307973670319487e-07
5.85227296586437271e-07
4.45942510305549806e-07
3.1453029687397549e-07
2.15647164561102799e-07
1.48716150909214358e-07
1.05467559946196157e-07
7.72232234206037434e-08
5.85752862024495948e-08
4.59159960226834143e-08
3.84500264617098958e-08
3.15806408811733921e-08
2.51147794515898745e-08
1.8597848807063322e-08
1.22874921595728686e-08
6.9605658562050201e-09
3.31923877189667831e-09
1.41383305629646119e-09
1.52937080884085438e-06
5.60377159600814964e-06
2.29128882068508542e-06
6.73822971537285292e-07
5.12799008521752695e-07
4.29033480545584769e-07
3.03751322927034873e-07
2.15370012024193371e-07
1.45846971142950412e-07
9.38515111033586116e-08
5.9238319284296977e-08
3.92923715547092059e-08
2.85938943528434728e-08
2.14437204565784096e-08
1.70349943158210003e-08
1.34185458851315907e-08
1.03019485259173788e-08
7.40989646322403133e-09
4.79265426854608509e-09
2.67789399743221525e-09
1.34444670123934861e-09
5.6926884624075351e-10
6.05072136166353721e-08
3.52132271134551617e-08
2.11696195250951078e-08
1.40808199694106105e-08
1.0032462531702493e-08
7.55837810546040154e-09
5.6922212257717806e-09
4.20203911608985346e-09
2.92564121231076177e-09
1.87478548238252379e-09
1.16248747171671704e-08
7.12342024254804429e-09
4.84838333658568603e-09
3.44175713491338682e-09
2.51290345451956033e-09
1.81410410795042706e-09
1.24473767873239244e-09
7.83025195138008501e-10
2.34285662699837538e-09
1.47544140873226868e-09
9.51826177574611683e-10
6.01036741846871258e-10
3.20336908795413147e-07
5.16753486892298208e-06
2.3933801143593078e-05
3.40370098208256166e-05
3.12534962576029572e-05
6.29627481616239465e-05
8.59755861278576098e-05
0.000114563007935469374
0.000143278157470075844
0.000171478095227084221
0.00018324032650882959
0.000178051296380407636
0.000163008097630951414
0.000139219202561973891
0.000111457175684608748
8.37042307492966744e-05
5.83034759216138391e-05
3.61832842708449505e-05
1.91887958489974585e-05
8.58666944057866029e-06
3.25124305713650964e-06
1.04789538651480942e-06
2.89470066485191257e-07
6.89309006978825203e-08
1.424901167237827e-08
2.49639940183229935e-09
3.6230871533155268e-10
5.00631041213740867e-11
9.28897462483115943e-12
1.28308713177675158e-12
1.09937786539789551e-13
7.77796729067392638e-15
4.62660366835106852e-16
2.23318416109068058e-17
8.35283693691244878e-19
2.24625957161655868e-20
3.72446166782871186e-22
7.99749348151690923e-24
3.91092825146522956e-08
1.73521321781879341e-06
1.26486228327570841e-05
2.50792322862417262e-05
3.88445128462527249e-05
5.55207416207212452e-05
7.12976954770976566e-05
8.47263423178692835e-05
9.6332063100326815e-05
0.000107695737918547343
0.000119491940588018847
0.000130928247266070619
0.000131578667654313352
0.000124940779615675057
0.00010258892505303992
7.60798968883017872e-05
5.04365397637295581e-05
3.01530799946814459e-05
1.39267051091024196e-05
6.65500006070312081e-06
2.72690738993549888e-06
9.32624333661169187e-07
2.68538913430644543e-07
6.59085081085999869e-08
1.39560022830922646e-08
2.51103340157584939e-09
3.71320272260037272e-10
5.21986515026043507e-11
9.79261081462398845e-12
1.37422626839523318e-12
1.1998707181391377e-13
8.64689735095172423e-15
5.24107978295357293e-16
2.57922907788294631e-17
9.84163142342361882e-19
2.70063194431192635e-20
4.54995689774146523e-22
1.04900260762097484e-23
2.47292159725914849e-08
1.11384943805304481e-06
4.45939508678887756e-06
7.39653200706222727e-06
8.78650063695902663e-06
8.84339853966299026e-06
1.08902524400008902e-05
1.39643175838681124e-05
1.82814662334146989e-05
2.25230360327803609e-05
2.68224165494965305e-05
3.1081039062126705e-05
3.47357048848009379e-05
3.69533834612936258e-05
3.64716829105311813e-05
3.23927842989960257e-05
2.54181352137995681e-05
1.7304368196378252e-05
1.12881575171454056e-05
5.22939671792555387e-06
1.87324778106178313e-06
5.99923441943714535e-07
1.58709626987112334e-07
3.97008819194649227e-08
8.54771250002742023e-09
1.5772790586443063e-09
2.5031896067109467e-10
4.02897604230631861e-11
8.2555306980814443e-12
1.05723975420134858e-12
9.00936389024051759e-14
6.62775762332871601e-15
4.09625374920958264e-16
2.06377188663151143e-17
8.12154468773448518e-19
2.32950323731465762e-20
4.24714212352266135e-22
7.17108011641467926e-24
2.26434306669930944e-08
8.04480285470760414e-07
2.46823040961899899e-06
3.74789556997951193e-06
3.80320112765100647e-06
3.61944680964192423e-06
3.93391345967892438e-06
4.57197690431204745e-06
5.80073171285553382e-06
7.38191996738673206e-06
8.46429496087467834e-06
9.11455405057534789e-06
9.50729203431225713e-06
9.72485485226997055e-06
9.33728169308920096e-06
8.37182743450722475e-06
6.95039849965448726e-06
5.19858027988749297e-06
3.82367949389644246e-06
2.31728652721627014e-06
1.06661888982585299e-06
3.3299228699135365e-07
8.33699093327001278e-08
2.09211191834075816e-08
4.57790780197625534e-09
8.74504895780939788e-10
1.45903718771641401e-10
3.02993471436172039e-11
5.50156223018817849e-12
6.09705801157024469e-13
5.30939243763162289e-14
3.96420134741848479e-15
2.48304986718251022e-16
1.26822077613552574e-17
5.06519876914883566e-19
1.47756620070515896e-20
2.75646727275720207e-22
4.35815845906462795e-24
2.43568212240566161e-08
6.01269528160512815e-07
1.74950143033928311e-06
2.3859801946040743e-06
2.243988468498839e-06
2.11011142200894007e-06
2.13646372668791413e-06
2.16532885272253043e-06
2.50292485706022834e-06
3.2015522866243445e-06
3.6864005888686488e-06
3.91720388862882802e-06
3.94885607718956197e-06
3.84214462136552606e-06
3.74758523451868097e-06
3.47145211274671001e-06
2.96080076295633207e-06
2.26907785741034389e-06
1.4793137310931676e-06
7.98507315595159252e-07
3.82077757013788751e-07
1.48371334194016066e-07
4.14721498828384066e-08
1.02916585109562892e-08
2.30692536244910687e-09
4.71748954976769198e-10
8.66476511409254689e-11
2.0301886909122058e-11
3.19915501890473167e-12
3.3177417482379962e-13
2.93994419646099445e-14
2.22705879016273349e-15
1.41479613900467949e-16
7.33582707946879508e-18
2.98011220828755313e-19
8.87093843001878667e-21
1.70037148699561991e-22
2.44956121955756585e-24
2.33020125961283711e-08
5.0299859486703698e-07
1.26443164412521046e-06
1.5363841505084109e-06
1.27591443786753294e-06
1.1911164176375444e-06
1.10772597861994426e-06
1.04078135672151767e-06
1.19338474528860182e-06
1.44830203045368919e-06
1.60917645711470904e-06
1.65035548028615333e-06
1.6096286608996625e-06
1.53967826755738102e-06
1.51942726328865773e-06
1.43394721900378986e-06
1.24236648081256603e-06
9.65606920349621557e-07
6.39150140854595821e-07
3.50141909129444661e-07
1.57362422377781378e-07
6.18548604979399271e-08
1.85975232279443803e-08
4.85800070881626198e-09
1.13659196341856226e-09
2.34336420342665789e-10
5.87707873151414828e-11
1.24841548428545823e-11
1.63846072212576233e-12
1.71193358067213715e-13
1.53962679283038867e-14
1.18259301088125348e-15
7.62005418761369081e-17
4.01235599699655947e-18
1.65877640808758156e-19
5.04236457216556518e-21
9.94406027886452396e-23
1.2949157570920117e-24
4.31260737617683462e-08
5.05968534060120175e-07
1.02710338621110695e-06
1.04260686283749164e-06
8.19533863520878111e-07
6.75668101905246089e-07
5.48312854093532707e-07
5.16093945819893245e-07
6.18266806021062054e-07
6.88055956289082528e-07
7.16986472766591952e-07
7.07397142229768914e-07
6.73576156862786072e-07
6.34093743453447396e-07
6.24002829484019899e-07
5.92411194890714951e-07
5.16140861091512395e-07
4.03460920675775316e-07
2.6924682361240516e-07
1.48898938748750155e-07
6.75480963572290198e-08
2.55030782415175005e-08
8.08664167108715386e-09
2.22169369840006514e-09
5.35043931932498821e-10
1.4104971933902157e-10
3.69083510921776435e-11
6.37738014691313777e-12
7.94299925948842013e-13
8.3962940607079563e-14
7.65480834769557138e-15
5.95872105612286198e-16
3.8929445311418225e-17
2.08069130357748448e-18
8.74744900054076489e-20
2.71187025721810764e-21
5.48739670716493639e-23
6.51575083585353953e-25
7.86405804444184751e-08
5.12797483701734571e-07
8.1340986366530606e-07
7.30835714908197635e-07
5.7321682011597395e-07
4.04089761558928237e-07
3.03942670074748333e-07
3.17492284135712724e-07
3.389195638106321e-07
3.40507950717712931e-07
3.30876600842049439e-07
3.12511620658895002e-07
2.89042889754607833e-07
2.66935642045523469e-07
2.59575954290175422e-07
2.45083139756933708e-07
2.12837526530234649e-07
1.66139593759122028e-07
1.11110959555797693e-07
6.1723622092210332e-08
2.81623669643760199e-08
1.07390461491762241e-08
3.47394039136883128e-09
9.88189732074927056e-10
2.88070687099605996e-10
8.66792844521934604e-11
1.95106375338915594e-11
2.96829108090787366e-12
3.6832033951198394e-13
3.94200234119558746e-14
3.64027853046942542e-15
2.87033621144536486e-16
1.90052640901900643e-17
1.03056451748378552e-18
4.40274801356583375e-20
1.39043963941307722e-21
2.88037937391574398e-23
3.16838295205159225e-25
1.16423295018450344e-07
5.57246116200995766e-07
6.93815669776626736e-07
5.39460222091229683e-07
4.14796366095882523e-07
2.67551832358242485e-07
2.07472020890154349e-07
2.03770106558114765e-07