/*--------------------------------*- C++ -*----------------------------------*\
| =========                 |                                                 |
| \\      /  F ield         | OpenFOAM: The Open Source CFD Toolbox           |
|  \\    /   O peration     | Version:  2206                                  |
|   \\  /    A nd           | Website:  www.openfoam.com                      |
|    \\/     M anipulation  |                                                 |
\*---------------------------------------------------------------------------*/
FoamFile
{
    version     2.0;
    format      ascii;
    arch        "LSB;label=32;scalar=64";
    class       surfaceScalarField;
    location    "0.119999999999999996";
    object      alphaPhi0.water;
}
// * * * * * * * * * * * * * * * * * * * * * * * * * * * * * * * * * * * * * //

dimensions      [0 3 -1 0 0 0 0];

oriented        oriented;

internalField   nonuniform List<scalar> 
20390
(
3.32004716909633039e-07
8.53361419803598235e-08
-2.50808599541028801e-09
-4.12406728293490101e-07
3.25034610661108514e-07
5.2249746760461144e-08
-1.04667920342697026e-08
-4.09050258109243755e-08
7.35428741449646435e-07
1.45379906632864301e-08
-2.26123339759271531e-09
-4.3939262591717274e-07
8.84456884294290632e-07
1.1325156434835258e-08
-3.88603155110085926e-09
-1.24408401813015426e-07
1.15811075330144962e-06
-2.55284332266325269e-08
3.98359255960605453e-08
-2.14526919733027391e-07
1.47530253402607291e-06
-7.7063750238034854e-08
1.09068124867223282e-07
-4.34878550647855765e-07
1.75056523025354882e-06
-1.18107806634277235e-07
1.424853283976097e-07
-6.65456810459994848e-07
1.99796153652823049e-06
-1.36918977726641222e-07
1.66081774493443641e-07
-8.49187685846310391e-07
2.30044293335169467e-06
-1.39978646514950026e-07
1.8231888929551402e-07
-1.038852595914713e-06
2.3791330487759773e-06
-1.27332029847190169e-07
1.67261557518452178e-07
-1.01881343643713287e-06
2.2802271432973328e-06
-9.67549556493313189e-08
1.53329480651253726e-07
-8.79662477112386306e-07
2.02840767671329262e-06
-6.09572929918835436e-08
1.32078338890674052e-07
-7.79430898570836004e-07
1.56410050044180698e-06
-1.5577854876593347e-08
1.13753480106599831e-07
-6.17871007347420529e-07
1.09487028570534761e-06
1.90780091488179119e-08
9.72226593871847857e-08
-4.41205280744849323e-07
7.32055940789351269e-07
3.48541236084860346e-08
7.54517333589459383e-08
-3.88654299670351834e-07
4.31244936211282999e-07
4.27652727607982369e-08
5.88844879714406263e-08
-2.85864304067195325e-07
1.98862858291360236e-07
4.25529630455653255e-08
4.44551346739181796e-08
-1.73788236436997562e-07
8.95008458806107581e-08
3.53167401756810069e-08
3.10168327514074788e-08
-7.29718123968833287e-08
3.71497463964677307e-08
2.2918203617293808e-08
1.80514191379405118e-08
-4.77627408728278389e-08
1.27770446347079809e-08
1.1403363523290638e-08
8.62330541176040423e-09
-2.5941469362344331e-08
3.79520301404903116e-09
4.33191688554527306e-09
3.32319923105443561e-09
-1.19032809756919372e-08
9.45950888188413103e-10
1.28947397107477707e-09
1.07798081632054178e-09
-4.32772247565693152e-09
2.09145018731235393e-10
3.35042211769618849e-10
2.98914927984936013e-10
-1.2477478290512408e-09
4.22214051994378863e-11
7.18819434136093107e-11
7.15163444453814794e-11
-3.01264436161836701e-10
7.55245512105417755e-12
1.42333219448234816e-11
1.44992014085919891e-11
-6.17364483802299341e-11
1.19530382557707516e-12
2.48253905927109029e-12
2.54069505108958734e-12
-1.09384721999459635e-11
1.70789017460772611e-13
3.82246568002805845e-13
3.79355788276962513e-13
-1.67945135013498256e-12
2.36860584163253731e-14
5.02783560596724246e-14
4.65347805882826221e-14
-2.18028510299429117e-13
3.31631563757194314e-15
5.53550038395001987e-15
5.12345408636483676e-15
-2.29640278159197918e-14
6.42321160493196568e-16
5.99282105564294159e-16
5.32636017133363819e-16
-2.19533242407970587e-15
6.30850605155764086e-17
6.20651425062796806e-17
4.8781427848140652e-17
-2.11124678492042817e-16
3.85645274346882162e-18
5.14946727941483939e-18
3.3586911730136727e-18
-1.58641004136889341e-17
1.97489835443849512e-19
3.59132060011758625e-19
1.99237444829173095e-19
-9.76194769071835119e-19
7.8243504585348589e-21
2.085409046471834e-20
9.92133698324299822e-21
-5.0353669191517452e-20
2.21093987958924755e-22
9.7338282525819987e-22
4.01873489397085755e-22
-2.11143227290693068e-21
3.83614774844786767e-24
3.43077632605550921e-23
1.25470942059474229e-23
-6.82116058328771246e-23
1.36837789689248208e-25
8.11936116186349011e-25
2.71044838091629473e-25
-1.52352084211139281e-24
1.18534576574948785e-26
4.23197283810202768e-27
-2.5681861836458765e-26
-4.04735633740227176e-09
2.17401399511314596e-08
-9.88841545564093571e-10
7.29172989679909589e-08
-3.62908959084279071e-09
3.47968224016881616e-09
-3.8946149660588877e-09
6.12282716300514167e-08
-3.36387317609078494e-09
-6.48278690132738619e-10
-2.82063057108178708e-09
2.92959003520909242e-08
1.04630744079559663e-09
-6.18454762753855999e-09
3.81485800891134597e-10
5.53494996849322338e-09
1.6874221099362044e-08
-1.25681892392677075e-08
2.2967259397669157e-09
-1.88399919506855228e-08
5.17422947628888684e-08
-2.67764447398301912e-08
7.77222951123654097e-09
-8.28181623502083656e-08
8.66228430359204773e-08
-4.28531892691633048e-08
1.60562080405448153e-08
-1.26040400996475239e-07
1.27236651726961574e-07
-5.62662186242266139e-08
2.68205953533867967e-08
-1.5856166177359371e-07
1.74988736928303086e-07
-6.41913423671856513e-08
4.11396995544935586e-08
-1.76775113718509494e-07
2.21661711697126301e-07
-6.43980526673162285e-08
5.67929223873637105e-08
-1.93066668166257246e-07
2.56545089485521645e-07
-5.31710939138882255e-08
6.72046366395744631e-08
-1.9393180406643684e-07
2.78585031914772855e-07
-3.48108204841139538e-08
7.5349761937879272e-08
-1.85810016838453244e-07
2.99155708541991113e-07
-1.21941175285880528e-08
7.79624939857924109e-08
-1.88200256698041129e-07
2.99430359272331264e-07
-6.4571706346506357e-10
7.4780475703883798e-08
-1.82135789692753505e-07
2.79388776756564398e-07
3.43257837692557146e-10
7.01371435456727104e-08
-1.61984489449569278e-07
2.26721399429564078e-07
3.8230529766073704e-09
5.78310206389422869e-08
-1.42418841599845922e-07
1.63962167892602651e-07
9.67169528760989255e-09
4.27215591990812493e-08
-1.11515165287870678e-07
9.53929226733669146e-08
2.12214144940544839e-08
2.54983290090726725e-08
-7.17949363053434344e-08
4.02328810890497306e-08
1.56462627088415575e-08
1.38376707944084763e-08
-4.51006250315732897e-08
1.14870490588930457e-08
9.43008241342351232e-09
5.59671754848717571e-09
-2.29664248094910357e-08
2.62208728718511649e-09
4.34331373382818674e-09
1.75626703608631676e-09
-9.30595487092560196e-09
7.2772090228280231e-10
1.41997871747822821e-09
7.47213120422090507e-10
-3.16795795196755171e-09
1.78679733588556317e-10
4.1443864331876743e-10
2.35587726627757658e-10
-1.00553960134495359e-09
3.78033982086976668e-11
9.94814636667183915e-11
6.19015007799992134e-11
-2.55581119489075285e-10
6.96309264131902572e-12
2.2094319158149605e-11
1.32512164507520854e-11
-5.56568866446627617e-11
1.14665193705696266e-12
4.01951005971632695e-12
2.40960477980365358e-12
-1.02138050774470132e-11
1.71053470825141547e-13
6.55712874687723954e-13
3.69535318143135977e-13
-1.61449448013672868e-12
2.49675671840389924e-14
9.04771556862967169e-14
4.67425318633990501e-14
-2.14696633373315691e-13
3.57035519493664892e-15
1.1094964091689531e-14
5.28739416962119703e-15
-2.34334047090741598e-14
6.92872580743837147e-16
1.25346056446815348e-15
5.61458793012496579e-16
-2.29166969426826374e-15
6.93857244496761964e-17
1.32406852932985083e-16
5.24071308729578501e-17
-2.24893562185138339e-16
4.33952335514966025e-18
1.12094857190577745e-17
3.67809693170828257e-18
-1.72607515544781714e-17
2.27350009383663004e-19
7.97883779774152353e-19
2.22518020373907369e-19
-1.08311284588922195e-18
9.23596634811538514e-21
4.73397402148206715e-20
1.13122887909322441e-20
-5.70333733231516659e-20
2.68653429251827653e-22
2.2617900116317597e-21
4.68544404771909961e-22
-2.44522612621751523e-21
4.82409947789465452e-24
8.19931902685101388e-23
1.50009033353004167e-23
-8.09945212135602998e-23
1.77856358077430318e-25
2.00980384247206139e-24
3.33673067514621575e-25
-1.86234731938820838e-24
3.01197109180618408e-26
5.42889459497932348e-27
-3.26720750041770496e-26
-2.24355141098059206e-09
5.87050162940049544e-09
-6.93250450033260104e-10
2.01752533433791711e-08
-2.43872509176080878e-09
6.55372130502483849e-10
-2.0255125371722042e-09
1.20854341113144839e-08
-3.41674069232497671e-09
-1.10711028430403447e-09
-2.46799865855957331e-09
1.20128765583213949e-08
-2.95741494126788725e-09
-4.71039488250688265e-09
-1.4739239383686532e-09
6.61420011557549144e-09
-2.7687403007833605e-09
-6.25902109791211352e-09
-7.47598843475495695e-14
2.60755490746823435e-10
-2.65412993731210271e-10
-1.08753418198289879e-08
3.62235027467579699e-10
-1.02692518932814208e-08
7.03029045094737974e-09
-1.64192310131297523e-08
1.22241619809066121e-09
-2.33939144296672497e-08
1.94054183889599861e-08
-2.17084160518121899e-08
4.17684758265871863e-09
-4.34756969177012773e-08
3.49559740356910009e-08
-2.50796256818786814e-08
7.81104976184763321e-09
-6.23411134461011928e-08
5.012882535470341e-08
-2.49706144005802658e-08
1.27195125112226861e-08
-7.72588833675612683e-08
6.1380070271509966e-08
-1.89326630573451926e-08
1.93967002821923833e-08
-8.60218802024806079e-08
6.48635491843451763e-08
-6.73860937190456024e-09
2.36514163936494547e-08
-8.5673736943568113e-08
6.13154598097193336e-08
3.20766111082403427e-10
2.64040860804845978e-08
-6.75342634173628874e-08
5.72997782788195217e-08
1.50046013283395921e-09
2.68625523585594623e-08
-5.67369417947221494e-08
5.13193720301130575e-08
3.76314672284189195e-09
2.36229538987011935e-08
-5.72775243064430594e-08
4.45954228993562425e-08
5.50360412765890753e-09
2.22330116502716321e-08
-5.12716134933904282e-08
3.6895971920672108e-08
6.12125161913400839e-09
1.92080996441393974e-08
-4.29017174607917351e-08
2.65813519927710383e-08
5.12419534025306564e-09
1.38509877063747406e-08
-3.22340706325250282e-08
1.55506435902028632e-08
2.85384201741499197e-09
8.60423873558678611e-09
-2.06432210642322249e-08
7.70367884169100555e-09
1.01311697523363859e-09
4.52950128908355159e-09
-1.23999717692420428e-08
2.32067390541499603e-09
9.24035268018921114e-10
1.55379741519400768e-09
-5.87617600916102511e-09
4.32366667896786307e-10
6.63039931251092392e-10
4.08409083195917943e-10
-1.95128294103193322e-09
4.75280663813703657e-11
1.99357082869875442e-10
1.00423016403937428e-10
-5.30997002190301265e-10
9.82929847862387469e-12
4.40266361130439295e-11
2.72693454572254955e-11
-1.22588615849371641e-10
2.08860166007884998e-12
1.09285585376556037e-11
6.26761174908577558e-12
-2.80776167243818131e-11
3.58683507065822376e-13
2.23081054065940885e-12
1.21192701915306856e-12
-5.31425301150755898e-12
6.3437160243813378e-14
3.92889444051161938e-13
1.96024645483863876e-13
-8.80139035116758838e-13
1.28022571960643828e-14
5.79347942876976673e-14
2.68946536605164967e-14
-1.20247517315956492e-13
3.22606378507804942e-15
7.89603037812257866e-15
3.33420412420853001e-15
-1.42108091097103851e-14
5.14690781949692846e-16
1.026821597037218e-15
3.97722259992129357e-16
-1.52071843678724807e-15
4.53286298622092359e-17
1.04421511810740897e-16
3.44531731579306345e-17
-1.55561349187652153e-16
2.91883241776998718e-18
8.84099157230201368e-18
2.45089975332484141e-18
-1.15040665096599243e-17
1.54145036530340842e-19
6.35859126138296285e-19
1.49514661741426462e-19
-7.27718733096326735e-19
6.29391148645879594e-21
3.8140379985963057e-20
7.65616163191814148e-21
-3.8593452826473901e-20
1.83616408542268085e-22
1.84038630342605377e-21
3.19106508390663201e-22
-1.66492072961909766e-21
3.29972096217636333e-24
6.72597125940049789e-23
1.02668634033598015e-23
-5.5417130765247191e-23
1.0390409024777393e-25
1.66095988003343754e-24
2.29196142942252948e-25
-1.27885065073962464e-24
2.46964096389233047e-26
3.48698861872188004e-27
-2.1214920622214824e-26
-1.37190032104987745e-09
1.67283905648881903e-09
-5.16920738988536986e-10
6.96345385610247861e-09
-2.01150413390811937e-09
2.66022714818507035e-10
-1.47698720286233466e-09
7.02617367071987208e-09
-3.36007962687598041e-09
-1.00180390834597858e-09
-2.24693540835835598e-09
9.56608142910111118e-09
-3.27340273101804866e-09
-3.51345250885688676e-09
-1.41668680438377043e-09
5.10560222967044756e-09
-2.78143598358892755e-09
-3.95068456267030807e-09
-2.14315472202628218e-11
5.03393665079200626e-10
-3.28310342364849051e-09
-5.01639840188778298e-09
-8.01986744753603177e-11
2.03235484262825904e-10
-3.37064593256001274e-09
-6.74710673816991277e-09
-1.28480649669834328e-10
-3.52100610672175653e-09
-2.37437753176141554e-09
-8.38917139821646121e-09
1.02280052150503224e-10
-8.18971713484148271e-09
7.14979282613694843e-10
-9.58673885027307917e-09
5.44198144414538469e-10
-1.4428941454463872e-08
6.56101660534988192e-09
-8.85246122830207422e-09
2.56471854062188919e-09
-2.55439285326906036e-08
1.13744975405629632e-08
-3.68172675948706024e-09
5.46677628608546973e-09
-3.32758372526900756e-08
1.29721076917821011e-08
4.31094916232208341e-10
7.37314355547254538e-09
-2.82151004314466015e-08
1.26547020140218835e-08
1.09693726352130532e-09
8.34706576442543317e-09
-2.39221961157703096e-08
1.21620536374453568e-08
1.93636330621472203e-09
9.10043603380454108e-09
-2.5227464145822248e-08
1.15717083105356909e-08
3.12420198244363273e-09
9.51316011208377563e-09
-2.58594387017711254e-08
1.08172820482330611e-08
3.83572519599272401e-09
9.00504350926508547e-09
-2.41013015774117112e-08
9.56680598557943275e-09
4.14467864809576425e-09
7.77667692580300122e-09
-2.07472612913144408e-08
7.60056566867957396e-09
3.64303020430354077e-09
5.7772364941044376e-09
-1.60021132251702917e-08
4.83377280669527268e-09
2.43629842602233513e-09
3.39242431416760737e-09
-1.01112017857572487e-08
2.47700839107447574e-09
9.99137590902044327e-10
1.63717187604112945e-09
-5.34341911564117957e-09
9.95425060752433741e-10
3.12037946647617001e-10
6.9434997088339142e-10
-2.40979075916983976e-09
2.82228038901450506e-10
1.29584994644657893e-10
2.3386258187405194e-10
-9.26127414473497936e-10
4.4217853719621269e-11
6.09986897106688971e-11
5.51612160568252506e-11
-2.71537791761520461e-10
7.32535878545508543e-12
2.11327093724140815e-11
1.41080489668788321e-11
-6.04280045222300524e-11
1.34397332586042766e-12
5.61854525509252715e-12
3.19312035201562815e-12
-1.40787472997939436e-11
2.2155396881997544e-13
1.25746207899845352e-12
6.25769849798972273e-13
-2.73202560748104277e-12
4.02375485438244832e-14
2.35577093016573151e-13
1.01657932432486781e-13
-4.55870794017934634e-13
8.11675106903120368e-15
3.8410540156246866e-14
1.46746634034675125e-14
-6.25423223871030607e-14
2.3293880324013937e-15
5.57775929626031758e-15
1.97558497041238013e-15
-7.71746236057360773e-15
3.22148087742361901e-16
7.32424361890871567e-16
2.35815630047250502e-16
-8.92234735903361147e-16
2.57832777204233708e-17
7.38904228048868281e-17
1.94814847584015228e-17
-8.79371195415464527e-17
1.69263713752036554e-18
6.30722261678492172e-18
1.40332560956904916e-18
-6.59187026214645404e-18
9.02980989445216047e-20
4.5818307988311789e-19
8.64811840003956778e-20
-4.21107823723079712e-19
3.71818341844225213e-21
2.7748494874941473e-20
4.46933759452921391e-21
-2.25369292681325558e-20
1.09308441870899192e-22
1.35109022293648377e-21
1.87876043783464668e-22
-9.8046119275371111e-22
1.97806370057704461e-24
4.97901029186193948e-23
6.09244936963680345e-24
-3.28888338759444145e-23
6.02777072756427018e-26
1.23779930725763077e-24
1.36988881423513756e-25
-7.64368972516417881e-25
1.86307813580427958e-26
2.06686135159437767e-27
-1.26069115335081986e-26
-1.19792891066176199e-09
6.8897728001907025e-10
-4.03378467622056242e-10
3.83263227242627067e-09
-1.87529253532704764e-09
4.61068220673025008e-11
-1.12729079496336693e-09
5.68773284479901612e-09
-2.85181309061907832e-09
-8.21907121758158847e-10
-1.73666585094977445e-09
7.2221305860169381e-09
-2.85786680390087168e-09
-2.04520194080958347e-09
-9.54957751460456736e-10
3.07263496872813741e-09
-2.56410535263421903e-09
-2.44309750369545089e-09
-2.07883221821696446e-11
5.92352826183125527e-10
-2.85911190417011965e-09
-2.55475334711272186e-09
-1.27885124602238164e-10
1.12084766779881767e-09
-3.49544529768831237e-09
-3.37018835015228665e-09
-2.026480513589006e-10
3.63656826753786147e-10
-4.01774093342320304e-09
-4.25883870789221971e-09
-3.30068941944984425e-10
-1.11303011088259417e-09
-3.59017481838897827e-09
-4.26274174993441558e-09
-2.98069154104538983e-10
-4.36563150305925554e-09
-2.11540290305646095e-09
-2.56401534113606177e-09
5.80232771383989079e-10
-8.79099148970338614e-09
-4.29472128387184121e-10
1.18530565747252205e-10
1.80422064905716899e-09
-1.08591467984377225e-08
5.16378478872539467e-10
4.70709042305394745e-10
2.54238783116362557e-09
-9.48829463350139377e-09
9.22980956089667009e-10
8.07622450392301473e-10
2.96767705052529621e-09
-9.594086432884083e-09
1.38745156655900554e-09
1.1972699587135085e-09
3.18497376047399994e-09
-9.44750369912110926e-09
1.86533905027123438e-09
1.73603364337176967e-09
3.42333765839211372e-09
-9.98556748071143553e-09
2.27056948895257629e-09
2.17122955547160952e-09
3.38224220586821363e-09
-9.94869334589253141e-09
2.42935004693397121e-09
2.22312556835041313e-09
2.96442643365480726e-09
-8.61135447349206652e-09
2.23046472795602383e-09
1.88639650660744609e-09
2.27210111064317989e-09
-6.59559911991115921e-09
1.69271910301938175e-09
1.24751995136184269e-09
1.45476664241436966e-09
-4.32789801425557412e-09
9.64079569407848067e-10
6.04839069367606923e-10
7.00449002323068391e-10
-2.40235613398043394e-09
3.9831980607505323e-10
2.29160175945385515e-10
2.61248989088023088e-10
-1.05216804703162959e-09
1.19183824082667015e-10
7.35233027575035721e-11
9.30627497148113479e-11
-3.80016584240214221e-10
2.43916127831460655e-11
2.86018024224378074e-11
2.54266866282465537e-11
-1.13184259963901613e-10
4.09798213615506844e-12
9.9370920929375788e-12
6.43938299566738152e-12
-2.77477503180580747e-11
6.74211315210501697e-13
2.7865488225999809e-12
1.45985648333832811e-12
-6.40665890304682271e-12
1.11997849414978328e-13
6.59476817868869596e-13
2.89851820829361072e-13
-1.27460546869377087e-12
2.35968982411012388e-14
1.31327548201479512e-13
4.9305753088209279e-14
-2.13954653562936646e-13
6.70463791974207996e-15
2.32517734391143062e-14
7.62234808886813453e-15
-3.10259438885980785e-14
1.4714265569855388e-15
3.74157852152009534e-15
1.11345782670853935e-15
-4.07555647994523269e-15
1.7194366704749375e-16
4.67743347288932645e-16
1.20931730171666446e-16
-5.15700845704683159e-16
1.36354567832309585e-17
4.69334620517902353e-17
1.01847242871220011e-17
-4.60972494716369111e-17
9.07895782678229576e-19
4.03674001844939889e-18
7.42172185148311643e-19
-3.4903091468585501e-18
4.89093518256495895e-20
2.95954987670420017e-19
4.62029757416196752e-20
-2.25169766780627557e-19
2.03167973787148293e-21
1.80863688898949875e-20
2.4104887172904669e-21
-1.21631131788049614e-20
6.02319229099693678e-23
8.88405143559251061e-22
1.02249555333041618e-22
-5.33856769695936247e-22
1.09881616000419798e-24
3.30219834271158774e-23
3.34470889452084825e-24
-1.80608366831064082e-23
3.09969715397961051e-26
8.2805369101481189e-25
7.58402143875463735e-26
-4.23225854426243158e-25
1.23335391319561863e-26
1.11542160708009034e-27
-6.83998031901209457e-27
-1.28420284363446825e-09
3.37499504177531877e-10
-3.83705609909582436e-10
2.7189642730136759e-09
-1.74411097115567147e-09
-1.13330353463732006e-10
-9.77396513123892375e-10
4.94690255997354902e-09
-2.19878916526423945e-09
-1.09447669112573229e-09
-1.33522382912117164e-09
6.85579389183257907e-09
-2.31442844883795616e-09
-1.42098246839890738e-09
-5.95146831551728791e-10
2.020291793395936e-09
-2.11270550149003771e-09
-1.67486862304735538e-09
-2.26420119752356474e-11
5.32727516912789689e-10
-2.20965059103548626e-09
-1.69253506563014936e-09
-1.09387037797899374e-10
8.33668493896255368e-10
-2.79215392468912084e-09
-2.06481498434701143e-09
-2.14719518477044135e-10
1.09288620129813048e-09
-3.49201422414162178e-09
-2.36519650363694336e-09
-4.08486769682050577e-10
2.3289484636594835e-10
-3.27214473021420712e-09
-1.80665489773858837e-09
-2.41062029525310658e-10
-2.03986171348840013e-09
-2.45215543096770831e-09
-2.79874246807247389e-10
2.66432567803934892e-10
-3.86215340870186332e-09
-1.60261839924357693e-09
2.62036333277265232e-10
6.87052279832283696e-10
-3.49772302381203415e-09
-9.94306378146396046e-10
4.22342105263442633e-10
9.90972496949385521e-10
-3.87515927456914629e-09
-5.73621589794523146e-10
5.58853569718998649e-10
1.12312966712033262e-09
-3.8784669778105699e-09
-2.04396414770833687e-10
7.1570437603845109e-10
1.20667797976671947e-09
-3.81755360299947832e-09
1.80128640771127332e-10
9.37678397302591649e-10
1.31755403236760642e-09
-4.12798580054965928e-09
5.2276005239721406e-10
1.091036782241575e-09
1.33339213934518284e-09
-4.03944329172360434e-09
7.41958281001739069e-10
1.0741551795813345e-09
1.18676304605692585e-09
-3.5564048259182707e-09
7.82309975879146738e-10
8.87651039119744906e-10
9.17576441129626498e-10
-2.77135311133449126e-09
6.34350965220142895e-10
5.84873834457089817e-10
5.79338915818073057e-10
-1.84336205870965181e-09
3.91837509759937747e-10
2.89181940095847885e-10
2.86080994001021104e-10
-1.01102279055005723e-09
1.73337670262833568e-10
1.13366109344096913e-10
1.11602413214189952e-10
-4.52012369944496526e-10
5.44022183751415507e-11
4.06672089304584135e-11
3.66065341699574265e-11
-1.65074841235247298e-10
1.18266715806654842e-11
1.47337135197326991e-11
1.08248975133297387e-11
-4.94189386894011606e-11
2.05951447935430836e-12
4.65131451190443529e-12
2.83799330901228948e-12
-1.23899657898028486e-11
3.33882994449859269e-13
1.3403797195915626e-12
6.43064867735062991e-13
-2.83558868207932519e-12
5.9330935743440781e-14
3.33359841336656807e-13
1.29251430615114391e-13
-5.64456597602894659e-13
1.34863363994686671e-14
7.31295162668071709e-14
2.32957579664898822e-14
-9.56373959016832796e-14
4.81545796324674631e-15
1.39907740002818663e-14
4.04280444630363537e-15
-1.45539208417225783e-14
8.46657347852308258e-16
2.26622453602937981e-15
5.90466170310878454e-16
-2.11452821397197066e-15
8.39632005107467144e-17
2.6906284045768552e-16
5.85572426922926726e-17
-2.53810108645294055e-16
6.7862117382620026e-18
2.70748964616158527e-17
4.99512717259316069e-18
-2.2670060419551465e-17
4.57093320234289244e-19
2.34923832592749966e-18
3.68063204003680663e-19
-1.73339750296363508e-18
2.48552078035306357e-20
1.73817196178128484e-19
2.31462171855307838e-20
-1.12924383200732178e-19
1.04147767857267943e-21
1.07163768036951236e-20
1.21917940891370331e-21
-6.15680734269883489e-21
3.11350097608294752e-23
5.30889279927142279e-22
5.21925838864300303e-23
-2.72646757154089455e-22
5.72603410116269609e-25
1.98965420288240859e-23
1.72242232547332626e-24
-9.30330510515273804e-24
1.47940769262928442e-26
5.03008982814945953e-25
3.93901660772600058e-26
-2.19830704431139105e-25
7.40456768433880552e-27
5.63234835921292901e-28
-3.47344774251929966e-27
-1.27013355299058582e-09
1.71388317776405804e-10
-4.370182238716038e-10
2.86365344645945191e-09
-2.0805701088676475e-09
-2.63070188652306186e-10
-9.85300307892905491e-10
4.75513226087588008e-09
-2.09837862197416166e-09
-1.25674678887600113e-09
-1.18659524098049059e-09
5.29162155453150514e-09
-2.15549972448682725e-09
-1.29204826486042953e-09
-3.63274014432322361e-10
1.20667565396223988e-09
-2.00044065992010036e-09
-1.38845300395879214e-09
-4.74924497673083435e-11
5.79409533066411722e-10
-2.05997189664394799e-09
-1.3695414016367843e-09
-1.29760930064696361e-10
8.09505969268353234e-10
-2.55128132308740696e-09
-1.46525778573703211e-09
-2.56357282765038464e-10
1.07778481932959611e-09
-2.74961450603270944e-09
-1.34046366809415617e-09
-3.01681856499823909e-10
-4.78830618120841236e-11
-2.2959371430939536e-09
-6.05688662055639911e-10
-3.45679472085674916e-11
-1.47046027763347257e-09
-1.63932211876064358e-09
1.41514887042051453e-10
1.40168504332968587e-10
-1.62763915918067963e-09
-1.08968145565516807e-09
2.84740893363002585e-10
2.95493647905972691e-10
-1.61718003958759583e-09
-7.06613405168590444e-10
3.21613841263216085e-10
3.8627095725349276e-10
-1.60223008534766569e-09
-4.4082702694173809e-10
3.60215660232528561e-10
4.38001769829558466e-10
-1.59501744731618909e-09
-2.23689015073238842e-10
4.02835470288364995e-10
4.73522330515839625e-10
-1.6074513545833268e-09
-2.3447900905805742e-11
4.77087911493555504e-10
5.21976309560934592e-10
-1.69674726306642879e-09
1.55299827145462974e-10
5.16581496177146285e-10
5.30618682286451277e-10
-1.66445472174737222e-09
2.75614466629828526e-10
4.8983999177086878e-10
4.74614299213313294e-10
-1.46871484189413735e-09
3.12177867265024472e-10
3.95909073840196307e-10
3.67909140258819043e-10
-1.15293339701292127e-09
2.61826890955792532e-10
2.59804529484734606e-10
2.34467170737423994e-10
-7.73491042657397607e-10
1.63525622250576785e-10
1.3064205242186092e-10
1.16894169100770573e-10
-4.26312226001409339e-10
7.44849254300761618e-11
5.19125794566221941e-11
4.59035197571247996e-11
-1.89617255177924985e-10
2.44604699227614887e-11
1.89197869556818349e-11
1.52842282032582539e-11
-7.00541089140968476e-11
5.59368610732968006e-12
6.85127223828029771e-12
4.61482779488881139e-12
-2.12725535703297378e-11
9.97643973248300307e-13
2.16022987221943874e-12
1.21637331533982422e-12
-5.33995106318584651e-12
1.70138691688540653e-13
6.3997701614370723e-13
2.81786481728747483e-13
-1.21610549841514859e-12
3.59464485707720752e-14
1.71529884863488937e-13
5.89836071154812396e-14
-2.41620062839622134e-13
1.18680027883225558e-14
4.06498115616001869e-14
1.18173314129015294e-14
-4.32774333173022166e-14
2.90639731498459606e-15
8.34244325195565337e-15
2.12101981678075482e-15
-7.18743562196703403e-15
4.0200213180551687e-16
1.21839929217319067e-15
2.69884345589213538e-16
-1.09978470505317774e-15
3.91848740081630762e-17
1.43218448791982829e-16
2.69259020657141548e-17
-1.17622296578048455e-16
3.20924522688776879e-18
1.45080460917789397e-17
2.32388802511902344e-18
-1.05736362209548165e-17
2.18370638370124147e-19
1.27029388812895619e-18
1.73082771870255478e-19
-8.16475117244546238e-19
1.19811788441155383e-20
9.48286003996050402e-20
1.09939296165759269e-20
-5.37032728270281072e-20
5.06316043509374779e-22
5.89678536586047871e-21
5.84631277177414741e-22
-2.95493598016088192e-21
1.52609453467123843e-23
2.94556834945919522e-22
2.5258643944498162e-23
-1.32015288773901363e-22
2.82906055277140671e-25
1.11283205419787242e-23
8.40953455506856707e-25
-4.5431568438040347e-24
6.62842081989907746e-27
2.83580308362155785e-25
1.93963588951245666e-26
-1.0824321542962714e-25
4.11724103916569042e-27
2.69208184445224022e-28
-1.66938897755981865e-27
-1.20800774863902687e-09
3.67026360393664007e-11
-4.90601146908413284e-10
3.07055711386750109e-09
-1.72216135417457271e-09
-3.66976315643210508e-10
-1.01906529656177749e-09
4.36851795121135006e-09
-2.21816924548999103e-09
-8.60949785171741186e-10
-8.46960925248195982e-10
4.37716870745360879e-09
-2.12555363336859027e-09
-1.2829022033635923e-09
-1.83982633424927626e-10
9.81498542818094598e-11
-1.9716874671414085e-09
-1.21493107830122364e-09
-7.92880786282041455e-11
6.85705288901307702e-10
-2.11737305814905691e-09
-1.12950043005721932e-09
-1.67971690186395479e-10
9.87828927021320422e-10
-2.26425555535382976e-09
-1.06454043301007218e-09
-2.47431657342460385e-10
5.88086685083369467e-10
-2.01371946605526568e-09
-6.85331006321628734e-10
-8.87041906324141033e-11
-5.40123035399640906e-10
-1.50998668328425959e-09
-3.8689811359714571e-11
2.17008533696956646e-11
-1.10820736968789226e-09
-9.54561097467370453e-10
1.93323929684076012e-10
1.02841326090906355e-10
-9.59773611540866915e-10
-5.98007523810945574e-10
2.2321799024666011e-10
1.37351961952342329e-10
-7.89967625060330191e-10
-3.75584360863610674e-10
2.17084967494073732e-10
1.61046514464051238e-10
-7.16680792060365514e-10
-2.25700329725207088e-10
2.18823754213607408e-10
1.7742803763543146e-10
-6.87508609893685731e-10
-1.11350845772767753e-10
2.19551038894343774e-10
1.91602876361755985e-10
-6.85761967318354699e-10
-1.45169528963487722e-11
2.36439628159123576e-10
2.11113841086283025e-10
-7.19694898454465276e-10
6.61389401363613178e-11
2.37991597421279863e-10
2.13192734193825275e-10
-6.982466912050124e-10
1.17558404036407723e-10
2.16975293468574372e-10
1.89443120882470436e-10
-6.09525813410207184e-10
1.31848813010765105e-10
1.71411935178079984e-10
1.46207472564357821e-10
-4.75524303035751146e-10
1.09856995613136552e-10
1.1199064743608004e-10
9.33092077234682419e-11
-3.18518320682708053e-10
6.79311386244441917e-11
5.72014069948332988e-11
4.70523074667897316e-11
-1.75445106862688947e-10
3.11992944729677338e-11
2.33459051169753458e-11
1.86351891747221988e-11
-7.76358964489016116e-11
1.05591391572637453e-11
8.57627101415492501e-12
6.25481771335019757e-12
-2.88162772651500182e-11
2.53875134367017872e-12
3.08751290614637533e-12
1.9193915788475075e-12
-8.85323622872734389e-12
4.73294820059925167e-13
1.01321389748194419e-12
5.13286117517903076e-13
-2.23556536661174729e-12
9.1763247608003165e-14
3.15176572982805539e-13
1.23630045622096402e-13
-5.07650730456618259e-13
2.45286959684987254e-14
9.01585011564213761e-14
2.76197726656978791e-14
-1.03847720651822274e-13
7.69568867505082992e-15
2.31394814711460603e-14
5.94626927375643929e-15
-1.97259892152480165e-14
1.48241409294513016e-15
4.38417797182820383e-15
9.92399123008172632e-16
-3.54467773315765387e-15
1.78636224707369009e-16
6.0941607235287948e-16
1.17619421699344028e-16
-4.9079472777470106e-16
1.75365835662642859e-17
7.16640119139779081e-17
1.18393735044277994e-17
-5.19978443057619253e-17
1.45203524444305635e-18
7.32072837206289645e-18
1.0332949005661046e-18
-4.71325786481713205e-18
9.97289887411494292e-20
6.46781970540446251e-19
7.77644332532510091e-20
-3.67501269380532531e-19
5.51924142958790136e-21
4.87019771995123869e-20
4.98831994967958788e-21
-2.43992910599150367e-20
2.35183187207798564e-22
3.05380016150521399e-21
2.677913802305223e-22
-1.35465119703956884e-21
7.14583231702062153e-24
1.53780094704321328e-22
1.16759985685743316e-23