/*--------------------------------*- C++ -*----------------------------------*\
| =========                 |                                                 |
| \\      /  F ield         | OpenFOAM: The Open Source CFD Toolbox           |
|  \\    /   O peration     | Version:  2206                                  |
|   \\  /    A nd           | Website:  www.openfoam.com                      |
|    \\/     M anipulation  |                                                 |
\*---------------------------------------------------------------------------*/
FoamFile
{
    version     2.0;
    format      ascii;
    arch        "LSB;label=32;scalar=64";
    class       volScalarField;
    location    "0.119999999999999996";
    object      p;
}
// * * * * * * * * * * * * * * * * * * * * * * * * * * * * * * * * * * * * * //

dimensions      [1 -1 -2 0 0 0 0];

internalField   nonuniform List<scalar> 
7236
(
-2.02705627484060802
-1.93134924540003494
-1.90762986531373002
-1.85960197075266431
-1.7946772802338018
-1.67294064636363848
-1.49496886120856987
-1.30634264670087519
-1.10755993180593526
-0.878978273855282266
-0.670071567969533266
-0.469391488999423401
-0.257880564939585888
-0.0362033048930770762
0.224761496327376381
0.487439023120293691
0.697501011600382692
0.819898249782448407
0.8727625554497771
0.86278327996335813
0.81403858515308003
0.750178743091613587
0.686361887307698204
0.629131899950127638
0.579759097080938979
0.53774796191917229
0.502186969452848464
0.472106444166764394
0.446671188583497414
0.425215779464983457
0.407204747621051577
0.392208527043753696
0.37988682903119686
0.369974458004705742
0.362268843442089761
0.356618739319098654
0.352911279678907563
0.351073122199379029
-2.14958214945997561
-2.10027688153628933
-2.08617230048999103
-2.0457121358270034
-1.97809178606853608
-1.88522772653394965
-1.77063484027199869
-1.63543925130797785
-1.47849414935636214
-1.3027165656896198
-1.11100675446877295
-0.909349602787253408
-0.694046073912532924
-0.448241772906843916
-0.175760940447729053
0.103292257879970484
0.357983940942081635
0.558832290682765409
0.668547131256717941
0.695548767087464048
0.66830380267103473
0.615276814184725573
0.55626461509466063
0.501206693340613074
0.453172879492646175
0.412134893504422783
0.377267636606445467
0.347681524889455917
0.322604562621646274
0.301410098555059069
0.283590242981515139
0.268734984310529113
0.256517594953405759
0.246682208478430004
0.239032610257328304
0.233422595614808576
0.229743285153100135
0.227919734722605349
-2.32213765962634477
-2.27953175488132898
-2.25604535057739719
-2.20890299777564181
-2.13471830119336126
-2.03875198323979223
-1.92263089955008182
-1.78758056084617101
-1.63132833421681056
-1.4543681656137788
-1.26046000972176642
-1.05534786394273183
-0.839231006567181304
-0.605978717827611035
-0.354905395964745685
-0.103803223428873492
0.126137496638413282
0.315999916501336353
0.4414109358351479
0.497045195434983933
0.496562123269991773
0.462141075897581521
0.4143296109968857
0.365863400996852772
0.321775618218357595
0.283189516877055292
0.249906129910673902
0.221385317990342168
0.19705238178829787
0.176390473847390483
0.158958078114187662
0.144388218738867813
0.132382691929715191
0.122704364517705056
0.11516906016495343
0.109637653979654859
0.106007502863405823
0.104207731246099833
-2.53670666326017402
-2.46850002350463305
-2.42193129642076599
-2.36167826823416505
-2.27698619893692378
-2.17047900680699124
-2.04472477720983292
-1.90296634372497331
-1.74300511251601842
-1.56467450097281691
-1.3706074890408515
-1.16570746326612307
-0.951588904967062055
-0.725715910030644396
-0.490808275635387758
-0.259646918226267509
-0.0503627633861828405
0.120573680106940029
0.240741914593623318
0.304507032139698708
0.319294541654723485
0.300845236651519909
0.265501975994434702
0.225390254731337114
0.18660432917260128
0.151410511664741676
0.120362926702405004
0.093366653289322532
0.0701060248081149529
0.0502158817853617934
0.0333481760896524038
0.0191965291346272715
0.0075027806316980139
-0.00194387218738806267
-0.00931041294400364317
-0.0147248142784413005
-0.018281079219151064
-0.0200418849220496131
-2.77723374477833884
-2.65781508652640719
-2.58625103781035293
-2.50764311866210887
-2.40890753796409118
-2.29068771535976801
-2.15471685675232738
-2.00198710600402352
-1.83370023387505343
-1.65114663795523908
-1.45771332406277354
-1.25620424818876808
-1.04833399686581141
-0.833326973548131678
-0.614837281608075048
-0.403606354830532532
-0.213305174962999555
-0.0571171342175789132
0.0556446445478580021
0.121442068276811255
0.1450769376716603
0.138120220751996814
0.113536449447828036
0.081639895181564337
0.0485735432726738248
0.017276423920874362
-0.0110934358356826746
-0.0362140973433802138
-0.0581330064480681807
-0.0770460263778131593
-0.0931921800021178748
-0.106805654589642751
-0.118096320492535101
-0.127242713447021927
-0.1343901704649485
-0.139651936698256929
-0.143111200799798999
-0.144821400546640888
-3.00383843911457848
-2.83990552350432957
-2.74639745032218041
-2.64822443772115612
-2.53471250675356519
-2.40330218464629386
-2.25472129735460225
-2.09084332132478368
-1.91495401648472252
-1.72918008087105379
-1.53701220639134539
-1.33979922544315544
-1.13907483481212268
-0.935709576713721569
-0.733797232145835698
-0.541413183573374091
-0.368950697167065689
-0.226614124953456952
-0.121302514136744088
-0.0555807086583690602
-0.0260572442194511034
-0.0241763042412792561
-0.0397688961547743025
-0.0641533810540914073
-0.0915524154238948062
-0.118749950506479074
-0.144179837543992106
-0.167178993108399787
-0.187548728811455789
-0.20531664408298822
-0.22060765187360587
-0.233578036261444189
-0.244384425169458075
-0.253168901707604865
-0.260051611569907692
-0.265128267432570563
-0.268469736281056526
-0.27012100948258394
-3.20238027510375822
-3.01028406545873528
-2.90020819005621089
-2.78397869711002155
-2.65489378565619827
-2.50863579606036602
-2.34693227720516839
-2.17339493643255732
-1.99117004673582154
-1.8035238921390162
-1.61301748653524069
-1.42110223588799034
-1.2290710228415791
-1.03801591721185837
-0.851576226328678132
-0.676115858775275802
-0.519649510077121013
-0.389794639641181773
-0.291681913885554089
-0.227186044640277585
-0.193826989292731122
-0.185204513820473315
-0.193363384287088214
-0.211081735402914306
-0.233119455397329811
-0.256229116845671734
-0.27860692046535962
-0.299336503282651323
-0.318011700983142631
-0.334506041594349657
-0.348833936024032454
-0.361073351020079425
-0.371325832976069969
-0.379694635412544168
-0.386272236588861728
-0.391134754720814604
-0.394339694214463798
-0.395923659892097379
-3.3759241800914026
-3.1701667225762189
-3.04849488832207349
-2.91456188663778537
-2.76905976247735186
-2.60783477410784137
-2.43394126433172131
-2.2517119289397094
-2.06492242021382255
-1.87663376206757704
-1.68932595709292377
-1.50368694637232458
-1.32075652867953242
-1.14180036827868436
-0.969632457696704253
-0.809272068275287637
-0.666816785661396905
-0.547949952981909183
-0.45652223595458058
-0.393874954208879746
-0.358129160938356783
-0.344436343085104624
-0.346543622459236977
-0.35847618497471867
-0.375592084214946609
-0.394768494563508487
-0.414098081374570604
-0.432493842695714781
-0.44938651642702826
-0.464517592970376647
-0.477800706130116659
-0.489239135963146998
-0.498880269220336903
-0.50678805488501677
-0.513025972497778371
-0.517649136572684854
-0.520701073712938389
-0.522210009393874186
-3.53194479250649085
-3.31978833813456742
-3.18883894900834797
-3.03910616325137362
-2.87685997597310283
-2.70120558157106094
-2.51642003740915365
-2.32720189967701296
-2.13763575729830624
-1.95032166729332701
-1.76704369017869301
-1.58845490754288354
-1.41492877751045132
-1.24750205214555532
-1.08839923405790495
-0.941463364617294074
-0.811268651663750506
-0.702064901267044128
-0.616737086301638371
-0.556245680889448035
-0.519128870528800523
-0.501655282336088804
-0.498878139469387194
-0.505857618686514798
-0.518544415123548652
-0.534029189009782357
-0.550398436932066248
-0.566463750644664144
-0.58153639260615364
-0.595251122284451983
-0.607433666852966181
-0.618018874476283786
-0.627003426894133575
-0.634413543669520297
-0.640283445351738423
-0.644646234701971688
-0.647531246112164727
-0.648958627477538963
-3.67611180803901139
-3.46052188745719302
-3.32122191486979634
-3.15628885921679725
-2.97801761410307808
-2.78909199364894445
-2.59512039083661294
-2.40088664023972509
-2.21014892192515688
-2.02506332863492533
-1.84689630343761446
-1.67578700151463966
-1.51166676029252045
-1.35517416657210088
-1.2079886299732483
-1.07296894825372524
-0.9535312210284701
-0.852840445589810536
-0.77305182898820779
-0.714850305564773914
-0.677073063039051903
-0.65680578142230428
-3.81104045968817751
-3.59623556086451668
-3.44602913367448682
-3.26577854715551563
-3.0725454169426305
-2.8718873093166386
-2.67060879724349931
-2.47326673316967094
-2.28300158460450175
-2.1014742029663509
-1.92918564472890108
-1.76582142857939739
-1.6109256362085671
-1.46472465092753845
-1.32837289018944094
-1.20394386705065282
-1.09396784339535236
-1.00079276314254551
-0.926026225246528778
-0.870148143577532451
-0.832212303513829577
-0.809909459351971561
-3.94023873069510699
-3.728266298885063
-3.56388110877691755
-3.36812326299746623
-3.16075186428944299
-2.95006125131193953
-2.74342175643609121
-2.54481275323691847
-2.35664057363133006
-2.17974683525734703
-2.01396651399162074
-1.85850419992100657
-1.71255402682232516
-1.57597106124313147
-1.44945347162162141
-1.33445839229244956
-1.23283578764791635
-1.14632080750852405
-1.07610906330883682
-1.02252739855189922
-0.984788352585028948
-0.961037430262700387
-4.06674734951613726
-3.8567809144215941
-3.67576182727967993
-3.46363288430031169
-3.24300995988007656
-3.0240874009944787
-2.81400732394402242
-2.61597589083398407
-2.43126250434465563
-2.25996098590497363
-2.10118504871260159
-1.95366872618645293
-1.8163241415253224
-1.68869250822269645
-1.57110146384863092
-1.46453382410623556
-1.37032143939802853
-1.2897374870860594
-1.2236659006937729
-1.17232003501167559
-1.1350289892167964
-1.11028805792339247
-2.34216544335427557
-2.1907114166761672
-2.0510810059520943
-1.92196585776767259
-1.80265412356559951
-1.69318090264735077
-1.59416997926526216
-1.50656513133523573
-1.43129045782825282
-1.3689942225251539
-2.15049829374966128
-2.0292015099424261
-1.91762493364882647
-1.81555849014166992
-1.72335619591743705
-1.64167441940936887
-1.57117546128318342
-1.51233366694247628
-2.03340574408554842
-1.93810980856882176
-1.85207722327034463
-1.77573620325879178
-1.87901181618308755
-1.86843260186573557
-1.84412568782736153
-1.80423989620252279
-1.73839152031271027
-1.63531670779967442
-1.50790185513135233
-1.36844850393992234
-1.21244038937236009
-1.03235782237918294
-0.840057524565026137
-0.639462039015585293
-0.42445128752822453
-0.195904312494009802
0.036589542879015502
0.254597586030323675
0.437513521585132403
0.563234005128906423
0.629082672822040112
0.648716867787081708
0.639103716375556186
0.61385931615435041
0.582047681226892211
0.549172504707787001
0.518030010134047481
0.489764832506179582
0.464613904669208266
0.442475540907269149
0.423152766791802859
0.406421680701421817
0.392067583010300147
0.379898609172665658
0.369749694795904138
0.361485731206539096
0.355000360595356224
0.350211558034238313
0.347053978616766179
0.345483291087471445
-2.02161204762505076
-2.01317359650201722
-1.98992375218780038
-1.94124540799612655
-1.87037958964739937
-1.77424865027986134
-1.65634562118537798
-1.52328046877457468
-1.37554824155955702
-1.21006656650361166
-1.02874311403011087
-0.836011834063949077
-0.631216218716895261
-0.411788558208242783
-0.182297684069007038
0.0409554263629259563
0.237419384230436264
0.385528563132880864
0.473034967048623689
0.507252241139494076
0.505541497788080441
0.484128934478139983
0.454183058173703469
0.422493414679882107
0.392279220941184448
0.36471056504428323
0.340067482851009073
0.31830244752420217
0.29925685267421831
0.282733802875498874
0.268536213483639763
0.256484846455119153
0.246424398004546796
0.238226781459047549
0.231790389908062
0.227036964356779225
0.223904204885451763
0.222345834696674599
-2.18615282492880514
-2.16710059386736953
-2.13504370023316703
-2.07991329056608931
-2.00263910312869076
-1.90476038667561065
-1.78764131555398276
-1.6538669405358819
-1.50439702634195016
-1.33897803666876003
-1.15980057608838338
-0.971077096571407505
-0.772979870788246481
-0.564694460821795974
-0.350059100011351154
-0.140968230620808044
0.0466368037954767445
0.196452253608860095
0.295649144758860116
0.34490304067954286
0.355640486794955357
0.342744599637697156
0.31850687241381942
0.29060611857210672
0.262887813656261349
0.236981259303017666
0.21347690719108936
0.192515569167479417
0.174049518226369548
0.157952275886642624
0.144072028127855967
0.132259158862842674
0.122378777665597238
0.114316530817013928
0.107979637213822421
0.103294947991211916
0.10020512955513039
0.0986674921862395471
-2.35850580555257139
-2.32254280300251814
-2.27817496303004052
-2.2149478114067489
-2.13065242412508304
-2.02633130417763851
-1.90376043743529744
-1.76561931614091905
-1.61316413539985937
-1.44724435098819026
-1.26975788552540925
-1.08392043942501104
-0.89121809137902841
-0.691575623653300386
-0.48928717597443272
-0.294813785515822158
-0.120593134442559868
0.021189719406382812
0.120940889645425709
0.177508708455438313
0.198345989144290358
0.19477240900720999
0.177694533159549917
0.154818929277996675
0.130510861538824963
0.106927861681663572
0.0850397131816230112
0.0652301843853708707
0.0476020980403383254
0.0321245441359171435
0.0187082892222947827
0.0072457336704496722
-0.00236928353318455187
-0.0102318008303015073
-0.0164218490496249037
-0.0210041667740326621
-0.0240291143942333862
-0.0255320766999344584
-2.53075826511551449
-2.47825936814516101
-2.4216245581182223
-2.34864481207456688
-2.25589825180104064
-2.14373840209787847
-2.01392959067096866
-1.86938500657309059
-1.7124900207135203
-1.54532016572403075
-1.3697990036173997
-1.18769323595753429
-1.00096959295189358
-0.810588063515768065
-0.620441848025106157
-0.439381607401507335
-0.277575392584795577
-0.14463915066298566
-0.0475902324561425782
0.0122147514266823798
0.0398409893338236287
0.0440352949615675504
0.0338042525446006215
0.0162019605897082419
-0.00427676312594416075
-0.0251243024417309169
-0.0450490885017702514
-0.0634301618652869936
-0.0800037715475650502
-0.094693223541186311
-0.10751468185476637
-0.118525435672861834
-0.127796913151763669
-0.135400405388049372
-0.141399728616520837
-0.145848319596184939
-0.148787835877376984
-0.150245657133826316
-2.6993071086761109
-2.63225981638020468
-2.56414807911643061
-2.48031544982606977
-2.37770950629324496
-2.25660216576157957
-2.11897054709113286
-1.96821819849522273
-1.80733396908575283
-1.63891038198865102
-1.46532773281383744
-1.28747109583778663
-1.10703128566314168
-0.925866270439104633
-0.747716502118029647
-0.579540530559307987
-0.429497191994896721
-0.305092606132072786
-0.211710649801310102
-0.150576781906663681
-0.118151266539127553
-0.107722338524237182
-0.111882589037007762
-0.124402938796386864
-0.140945489050541606
-0.158843810270080321
-0.176578037932905496
-0.193326653898201473
-0.208674342256802314
-0.222435718802360627
-0.234549818363099793
-0.245019370558384353
-0.25387742612745734
-0.261168354770557221
-0.266936958148393244
-0.271223125639461937
-0.274058706704186972
-0.275464126289016842
-2.86083088690866738
-2.78306560582163698
-2.7046299658053341
-2.60940450405271518
-2.49615705049942127
-2.36534394714501639
-2.21973936915839865
-2.06318382943047496
-1.89907950773048828
-1.73022459369693316
-1.55852050583166601
-1.38511102050279566
-1.21150332007341199
-1.0395679278923311
-0.872717336498976426
-0.716455561126237206
-0.577237386347842718
-0.460959601144708853
-0.371729617228162834
-0.310553095762258979
-0.274873505057732781
-0.259518658053526474
-0.258459334489221315
-0.266300239848864084
-0.279006753013156028
-0.293899212613255134
-0.309323674552514749
-0.324307094391944495
-0.338303923190559686
-0.351027715315863298
-0.36234213867401488
-0.37219485105239164
-0.380579120515664338
-0.387510533356352105
-0.393012878400969434
-0.397110852704133654
-0.399825782817967934
-0.401171400641673503
-3.01370854632833529
-2.92990229942108771
-2.84249920593863337
-2.73577201556015126
-2.61112477224385398
-2.47048927773263349
-2.31705491939508246
-2.15523078954429392
-1.98862325095254833
-1.81988063357073226
-1.65072079714449549
-1.48216837176296279
-1.31558070666383586
-1.15267753480529711
-0.996362052954314237
-0.851006763723338944
-0.721670682414831011
-0.612972557244306104
-0.528036569373097731
-0.467638252208578298
-0.429871620610154936
-0.410717866711518553
-0.405279328444389741
-0.408938984468087297
-0.418036782357775416
-0.429981506020465531
-0.443065965036812504
-0.456215297694779864
-0.468780546257237085
-0.480387629107494052
-0.490831007559185462
-0.500005762380794083
-0.507866003275437738
-0.514398038478880881
-0.519603492774805886
-0.523490754376282008
-0.526070274322485432
-0.527349233279241103
-3.15994083616092336
-3.07273422218748227
-2.97715354197629001
-2.85896759628190011
-2.72284298822563642
-2.57215051829009989
-2.4113336715317395
-2.244968948024197
-2.07664714119565996
-1.90872088030417686
-1.74265635428516719
-1.57937357225852848
-1.41990610635434988
-1.26572754735185899
-1.11922600381181625
-0.983840327867314346
-0.863500185424431854
-0.761789041322700422
-0.6810844107102767
-0.621969122088778525
-0.582977110022000922
-0.560948630172953489
-0.551896461725262855
-0.551895217993828791
-0.557680460229697306
-0.566813640245383388
-0.577596553458273765
-0.58889663174080531
-0.599989543697273975
-0.610429850853069333
-0.619951586883471961
-0.628401925159741914
-0.635698254013167263
-0.641798483739668635
-0.646681713043580686
-0.650339305095109177
-0.652770867067342664
-0.653977351531514595
-3.30163905487409037
-3.21166553994329096
-3.10804537443541573
-2.97828120410086283
-2.83057939854280249
-2.67026771500934146
-2.50280338335776253
-2.33279458006412277
-2.16360052351295051
-1.99722259396947099
-1.83484409600048126
-1.67714481231579304
-1.52482802658485328
-1.37903577773548003
-1.2416641884653985
-1.1153785845802715
-1.00320734138346923
-0.907904974328622383
-0.831277481321140987
-0.773751232491070917
-0.734165417903575923
-0.710003508466173106
-0.698007044035660607
-3.44051635963690661
-3.34786856202903671
-3.23523976861600548
-3.09345283528763737
-2.93419604876926554
-2.7648808704005976
-2.59165023955659546
-2.41900741146001685
-2.24985546160607441
-2.08578979250008345
-1.92763163527087711
-1.77575651242556476
-1.63053637331036483
-1.49276420900583506
-1.36387385187191557
-1.24589266597545811
-1.1411344572416291
-1.05169974250408926
-0.978954215742585232
-0.923195655540371307
-0.883479160291067434
-0.857774785051494626
-3.5791201594962132
-3.48248165994150582
-3.35918643422628138
-3.20454561477521516
-3.03375601889115654
-2.85613805952907995
-2.6781355784242975
-2.50389342227775424
-2.33571586891598226
-2.17468957251325934
-2.02122348352845638
-1.8753477230994009
-1.73711106837499374
-1.60697325965137972
-1.48595373089759142
-1.37555913825110299
-1.277538424382334
-1.19347803956772913
-1.12440233149721336
-1.07050531091676415
-1.03099733129233417
-1.00421956410472291
-3.72089813765390076
-3.61747096512636279
-3.4806186426365846
-3.31168756042991141
-3.12936025772866877
-2.94421126372866482
-2.76251926274680804
-2.58771647476062583
-2.421403409673899
-2.26409113145427643
-2.11572368595602089
-1.97596055605899346
-1.84455680433158919
-1.72166327242235262
-1.60794683792154336
-1.50449681191961804
-1.41261562289785392
-1.33348531274943372
-1.26786552488034032
-1.21586835252109315
-1.1768168567018249
-1.14934117052044948
-2.35411401593856295
-2.21115984910306995
-2.07756630841597012
-1.95282010845350085
-1.83679551129052032
-1.72986348737189499
-1.6327860254517963
-1.54651596468786323
-1.47191849360644866
-1.40954740784045041
-2.18011188489119867
-2.06181158863063407
-1.9523013525346069
-1.85168940343549671
-1.76048120227152194
-1.67935642439650512
-1.60893804624851766
-1.54961744397532386
-2.0681150141272755
-1.97339648941167822
-1.88761492432950373
-1.81122888105877489
-1.80938153118648448
-1.79387408761649358
-1.7599215722128958
-1.70611187918885787
-1.63099075087076106
-1.53141276075341093
-1.41166504617039879
-1.27730950649494912
-1.12863366023034506
-0.966095420848854913
-0.793238056681339954
-0.613236804639246791
-0.426623268762838237
-0.236375273184173396
-0.0508477942799251403
0.119885138914983758
0.266069225155212474
0.377620196856379875
0.450736698314912809
0.490903059490989391
0.506470221193995318
0.505883536030083514
0.49590829953808474
0.481047439203856508
0.464264102676985202
0.447259108362652147
0.430896543367417451
0.41562459519858902
0.401675298143285509
0.389153092637477105
0.378090782222141486
0.368487476115646029
0.360323226960346965
0.353572606490041408
0.34821147444684597
0.344217722063275777
0.341567977454758698
0.340244150471593176
-1.94061572986970132
-1.92472289231470106
-1.89109631246058418
-1.83661625399860995
-1.76027860886296117
-1.66302063834842651
-1.54697715525928947
-1.41581560295659559
-1.27094348862333417
-1.11256676975066671
-0.943320419033325308
-0.766149815107395327
-0.582036125484153954
-0.393079081304840039
-0.206421855872785359
-0.0326514840211890311
0.117929876827223556
0.235366726810754184
0.314542841024689324
0.359076019113991229
0.377416791862263068
0.378444925827081557
0.369413162689081698
0.355318879292813583
0.339171130382231567
0.322652907176647741
0.306658565337803335
0.291665204731849648
0.277927678144808399
0.265569006925875262
0.254633654246827545
0.245127999889336257
0.237038463445420539
0.230344623912696472
0.225025809339157751
0.221062757800413373
0.218434560503958652
0.217121337699954231
-2.07906900542395379
-2.06118858318584763
-2.02446305118584657
-1.96681190899077651
-1.8877432730741277
-1.7887981701702782
-1.67207814302684232
-1.54037691892797612
-1.39549690378722646
-1.23852338103858428
-1.07218186432700979
-0.899062776914770545
-0.720107553643742238
-0.537518232126512507
-0.356673726986062145
-0.18681310105777299
-0.0377612749283929849
0.081578015300126705
0.165591850326479273
0.215718219366729247
0.23901716206783391
0.243959790398764809
0.237864810684045747
0.22591480093862365
0.211311383431549538
0.195900235265575817
0.180710018495634062
0.166311639222837315
0.153019742138212511
0.140997909986364245
0.130320268560796648
0.121012503023736451
0.113074877387546291
0.106496737806367148
0.101263796029156583
0.0973604463724086489
0.0947696806456059804
0.0934745154061203398
-2.22225696457455513
-2.20061081870515629
-2.15855237080645246
-2.09589020928610248
-2.01212771561482695
-1.90926499417821338
-1.78957058137583935
-1.65567928124007491
-1.50978653294388754
-1.35339308994496177
-1.18895065907919517
-1.01918990372909857
-0.845553722231897287
-0.6699072869629219
-0.496922505404880366
-0.33437635578205227
-0.190753760764913072
-0.0736312246974381024
0.0119748775735494806
0.0664651890349700625
0.0950007848949071532
0.104768317270341305
0.102569747428250424
0.0935499208649466785
0.0810901201340681332
0.0672397870359688898
0.0531966316721088073
0.039653683990938382
0.0270076536525037381
0.015477875735049107
0.00517799859507578342
-0.00383872465801182727
-0.0115523085139567772
-0.0179596112813892872
-0.0230656466402260896
-0.0268798372294365984
-0.0294137373540538927
-0.0306780382212974989
-2.36835777797934544
-2.34155755376977393
-2.29326522245289732
-2.22469343990486168
-2.13533745160710442
-2.02750311279806184
-1.90362690797911571
-1.76661110089795481
-1.61901412753829899
-1.4629341056648113
-1.30057760244128384
-1.13421931957078281
-0.965523088737089585
-0.796616138698681642
-0.631640562461082911
-0.477012135201492049
-0.339874947721648724
-0.226641158015203292
-0.141426544141745658
-0.0843272551085080257
-0.0515466725099313905
-0.0372293606725850879
-0.0353914443602773021
-0.0411640029457872592
-0.0511333566320143484
-0.0631084056826864415
-0.0757405184744170956
-0.0882140945614831029
-0.100043149564829126
-0.110944692278112045
-0.120759054868834703
-0.129399777777967351
-0.136822916916457926
-0.143008357278580078
-0.147949296483411707
-0.151646778278686001
-0.154105598775153507
-0.15532968495172278
-2.51488250900934673
-2.48283756569010228
-2.42833403236587531
-2.35280906701016601
-2.25684988176688472
-2.14314215957240606
-2.01449196956621046
-1.87404494682623213
-1.72466230921109775
-1.56871753330176689
-1.40843287439303744
-1.24563865184081157
-1.08205818067560688
-0.919917248442720714
-0.762868211401514618
-0.616245086746110338
-0.485939311443719935
-0.377207341321062373
-0.293475750808804392
-0.235038036728125066
-0.199069244105313681
-0.180832559886645705
-0.175183078334175679
-0.177675843301822123
-0.185001288914340811
-0.194910043779349285
-0.205944682144438673
-0.217184213985985142
-0.228057343844912885
-0.238215854154221029
-0.247451092102951797
-0.255640407870764141
-0.262713356041044288
-0.268630599022244676
-0.273371479344127422
-0.27692698760685297
-0.279294391033851397
-0.280472035979425161
-2.66015550345980811
-2.62356170763617413
-2.56315772767665795
-2.47980086242900821
-2.37645267379190894
-2.25621311412971171
-2.122402737179792
-1.97845437754143472
-1.82742516437622049
-1.67177570792430408
-1.51358199254594394
-1.35450078893428927
-1.19620474543170641
-1.04080867060917237
-0.891501410370737823
-0.752695328139470599
-0.629197017389960034
-0.52528281113561448
-0.443742775206505402
-0.384919174626899951
-0.346677864524288171
-0.325201123035258166
-0.316127025916746018
-0.315486153523309387
-0.320161406777186852
-0.327920262299460363
-0.337245399183466132
-0.347136759271435946
-0.356949208088138348
-0.366273033128463266
-0.374851288888216616
-0.382524723792459165
-0.389195441168921297
-0.394803579448665287
-0.399313188854457324
-0.402703994226213668
-0.404965240160925
-0.406090011089227099
-2.80409122079487894
-2.76322040974578931
-2.69659180967757939
-2.60534298596630087
-2.49405039869696665
-2.36684467492877948
-2.22767132304766147
-2.08029402506917682
-1.92784216577518674
-1.77270804881847677
-1.61684263655796379
-1.461687435793801
-1.30878761531371413
-1.16006104140302879
-1.01823907362596033
-0.886932079617348768
-0.770035516693813649
-0.671006683897160339
-0.59207234827891364
-0.533552420047134879
-0.493802989575067908
-0.469741081643725744
-0.457694864966081971
-0.454169186784688761
-0.456290465317199578
-0.46190128761508259
-0.469470079811349639
-0.477946411267831994
-0.486626855047194551
-0.495047743103299243
-0.502907564786119643
-0.510012255691276839
-0.516236971473725159
-0.521501003265938845
-0.525752303956155798
-0.528958515528748063
-0.531100608409850627
-0.532166511170387491
-2.94684580545361641
-2.90212046536497859
-2.82904576710246936
-2.7292437481980989
-2.60948966140641581
-2.47502746650302807
-2.3305156505059097
-2.17993023646032213
-2.0263678968255685
-1.87210461411431672
-1.71883377965481676
-1.56782307074275407
-1.42039868025898985
-1.27822468343770779
-1.14358933660009177
-1.01941436105346717
-0.908827339923442779
-0.814596254434609035
-0.738481644576113205
-0.680750574884085746
-0.640107425790407469
-0.614047479166935695
-0.599486864146896448
-0.593373933492737704
-0.593103024096442333
-0.596631628997105423
-0.60245082387904092
-0.609486779720352034
-0.616994974617195435
-0.624467376265259611
-0.631563695495788613
-0.638058570871200326
-0.643802035575860687
-0.648693212578651202
-0.652663741552666599
-0.655668638888377675
-0.657680594361894411
-0.658682556232642158
-3.08934923557576147
-3.04135157840300607
-2.96045312335381716
-2.85129598157603281
-2.72255702337257821
-2.58071876435440917
-2.43105769154133089
-2.27762569653814584
-2.12338380672815497
-1.97037450026073224
-1.82001590779283617
-1.67335340837595581
-1.53145166856733983
-1.39568117687099047
-1.26791248901745046
-1.15047868168578571
-1.04586483605142799
-0.95626642124513217
-0.883062163736279326
-0.826456027413525862
-0.785402113600413565
-0.757848521793141661
-0.741204379567514282
-3.23355447593276812
-3.1805979026982083
-3.0908470654902267
-2.97134353271380336
-2.83309039964503295
-2.68388274721858222
-2.52938798556690969
-2.37358897975345373
-2.21917170817331666
-2.06785207155501993
-1.92073524725899958
-1.77859910673773491
-1.6422292338888882
-1.51268787633600055
-1.39145667310686161
-1.28036913316445267
-1.18137947348787087
-1.09621137892271059
-1.02593101962701594
-0.970678638706469754
-0.92958887581314853
-0.900964825688167936
-3.38315398887284946
-3.32159917385272951
-3.22059265809490558
-3.08930699566693745
-2.94099826656828522
-2.78451074284564282
-2.62560306785492248
-2.46800025512411825
-2.31396085311394906
-2.16478941924041424
-2.02123589060196007
-1.88377925615041897
-1.75291644898537835
-1.62941115777340606
-1.51439049668191728
-1.40926708911761023
-1.31555960907342318
-1.2346038818206484
-1.16721173876462436
-1.1134644499627866
-1.07262737407943742
-1.04328285691947453
-3.54216852275899052
-3.46589163979622228
-3.3501348898732668
-3.20512952664121098
-3.04618338028234703
-2.88258169667589348
-2.71978805743753149
-2.56100572309860919
-2.40792597998314317
-2.26136322010619706
-2.12167672261525375
-1.98902634789678645
-1.86362789941958185
-1.74595698738355787
-1.63682910172975826
-1.53730866721033199
-1.44855758580830618
-1.37159354473254891
-1.30702373904330615
-1.2548775330719133
-1.2145136283582989
-1.18474047025931206
-2.35769657063883287
-2.22214502143564729
-2.09440492317760629
-1.97441643382672494
-1.86238194328555329
-1.75884708282934987
-1.66459341973143093
-1.58049408807890712
-1.50730785396817968
-1.44547624001670139
-2.19995502272771581
-2.08528758582328289
-1.97870154517424268
-1.88048945536047429
-1.79119748576847471
-1.71146957971017089
-1.64185777693957435
-1.58266832569579319
-2.09492820204623165
-2.00177610787118798
-1.91717227107755406
-1.84156157038868096
-1.73778791458034432
-1.72087013282102785
-1.68434036939041687
-1.62589531665262976
-1.54661597917715543
-1.44696177035265339
-1.32999583809512889
-1.20015134592101291