/*--------------------------------*- C++ -*----------------------------------*\
| =========                 |                                                 |
| \\      /  F ield         | OpenFOAM: The Open Source CFD Toolbox           |
|  \\    /   O peration     | Version:  2206                                  |
|   \\  /    A nd           | Website:  www.openfoam.com                      |
|    \\/     M anipulation  |                                                 |
\*---------------------------------------------------------------------------*/
FoamFile
{
    version     2.0;
    format      ascii;
    arch        "LSB;label=32;scalar=64";
    class       volScalarField;
    location    "0.119999999999999996";
    object      rAU;
}
// * * * * * * * * * * * * * * * * * * * * * * * * * * * * * * * * * * * * * //

dimensions      [-1 3 1 0 0 0 0];

internalField   nonuniform List<scalar> 
7236
(
0.00978240490568082696
0.00983617869283893477
0.00638442814798123506
0.00545111130418824731
0.00417458415638690024
0.00302563170976216439
0.00235945096320107697
0.00201684647318453678
0.00179796403527474275
0.00168815852872133596
0.00170979406264022975
0.00181325335994083096
0.00207151862892840334
0.00259188054343170889
0.00319930806786168686
0.00405474610464117823
0.00539394465325092765
0.00757196500458864538
0.00971785825374932299
0.0121143530544889078
0.0145595655510878698
0.0167815442753038689
0.018645482090132285
0.0201510334049182747
0.0213935529497209301
0.0224473252015081406
0.0233558852860493125
0.0241487756105259535
0.0248478251874493551
0.0254702612947884516
0.0260305243655145242
0.0265404551430965009
0.0270095234521662009
0.0274453364135620603
0.0278541537508263798
0.0282412345255005012
0.0286104718110745393
0.0289452109010395094
0.0153138118781403678
0.0178563622672379234
0.0208718828867695758
0.0220976973500039281
0.0182683357275416278
0.0128768723956977672
0.0101352571663572786
0.00862359249453507198
0.0076291775177661867
0.00693121649863113771
0.00656540439738494044
0.00636972828977795408
0.00629737830003690609
0.006135182761337875
0.00609415875022563999
0.00622767976664796458
0.00665459294653870156
0.00744240846786805698
0.00876376480012815498
0.0107268070323566864
0.0130301410469546575
0.0152983406070978933
0.0173756166890419797
0.0191649865524824436
0.0206233993549562455
0.0218146688836451039
0.0228116880459052832
0.0236657529426437946
0.0244104466775055054
0.0250686846987016147
0.0256576266072247143
0.0261907422529740509
0.0266786184442252966
0.0271295488325474995
0.0275501325828488991
0.0279463219568621794
0.0283238353398143003
0.0286680643279709838
0.0139147396079051071
0.0172942241154991419
0.0186447657135019387
0.0192804382884845978
0.0201648870851811532
0.0187193760880063585
0.01673617729807126
0.0144033270103953587
0.0127551010334127583
0.011646555687998033
0.011079906258060367
0.0110330954585769348
0.011224141085451186
0.0111388100767319028
0.0108175728962756103
0.0106061089580065243
0.0104305098617072187
0.0103314445668354089
0.0108587702955100038
0.0118828906583970332
0.0133799194762742549
0.0152096453830506927
0.0170722616107301106
0.0187694407648682886
0.0202098730036206521
0.0214104377701664142
0.0224227140333277571
0.0232922439112307547
0.0240507833431832067
0.0247208179327652114
0.0253193895745122757
0.025859938225335305
0.0263530818147550312
0.0268071208596824817
0.0272285721501031412
0.027622552201621884
0.027993534688630882
0.0283282256679473939
0.0128514572431107435
0.0164388788627734851
0.0173762467873241483
0.017855156347766455
0.018976642954237604
0.0182510725342206817
0.017794889281879632
0.0176569719659958949
0.0175988170656231069
0.0168006227890440431
0.0160376154250830918
0.015877042735990065
0.0153563589297139071
0.0145665210731909731
0.0138314095822890115
0.0132243186050465811
0.0128027445722035584
0.0126262389187090946
0.0127705414018740686
0.0133169165697523319
0.0142600599058998467
0.0155632066438621246
0.0170764740447684298
0.0185736279101263273
0.0199194422023410665
0.0210835892973422027
0.0220858988285105064
0.0229560542526163168
0.0237190348625479532
0.0243944814519377121
0.0249981099294748661
0.0255426845373266688
0.0260384629119593224
0.0264935101418872672
0.0269141547448525607
0.0273054189092956749
0.0276716023098388872
0.0279993879995584193
0.0122773036115729692
0.016147220825830897
0.0165590702250109634
0.0173855081579998502
0.018226022431434289
0.0178979814801456805
0.0176981213845272718
0.0175711007144093295
0.0177031216993884209
0.0183980955978997086
0.0195544425819751573
0.0191097825065871842
0.0178842607004913896
0.0167750036866764866
0.0157240949587410458
0.014871598622886421
0.0142898518458338068
0.0139807682800010859
0.0139419346175154758
0.0142457043019868484
0.0149313695700237694
0.0159543208854209077
0.0171980978224977633
0.018499179264499805
0.019729296794326643
0.0208334710818574784
0.0218073420678282955
0.0226648129839212356
0.0234227620643735722
0.0240967955747958124
0.0247004684636071142
0.0252453249087983
0.0257408938247858099
0.0261947612238732641
0.0266129273755006772
0.0270002406576303061
0.0273608267236338347
0.0276817430154817357
0.0122872418899379471
0.015947160891353767
0.0159797804394256858
0.0171914633240108292
0.0179934486317283766
0.0177895254811448432
0.01758744734126318
0.0175063296783996916
0.01791596442953668
0.0189261278115329355
0.0192354907150579964
0.0184036947438869641
0.0176926369441612955
0.0171317792816473788
0.0165249465798617233
0.0157968065816128343
0.0151643494902120521
0.0148087599282337775
0.0147157997394755692
0.014920490225087478
0.0154575592269463567
0.0163009997950807201
0.0173572202664607558
0.0184981664257721501
0.0196152092338181851
0.0206494956932885901
0.0215828063326707412
0.0224170894299972091
0.0231617876031983763
0.0238281484601168443
0.0244271108371701511
0.0249686182969901943
0.0254611760302861714
0.0259116854451815898
0.0263256897627272175
0.0267077373454586778
0.0270616348215203806
0.0273753753237988146
0.0125724809582875297
0.0154971224079450375
0.0156744243643554965
0.0171638601071740643
0.0176839661140590562
0.0175098155393232438
0.0174234750114550148
0.0176248800093565874
0.0183340701579521696
0.0191906587636055947
0.0185952387924975815
0.0179150984913272644
0.0173751940414810235
0.0169760477580505088
0.0166959135454123157
0.0162592999374415841
0.0157021157138572294
0.0153595512604418963
0.015264897952724862
0.015436369386905166
0.0158944668672787413
0.0166171670403701954
0.017532975558445494
0.0185423386268859444
0.0195559391013989115
0.0205182157395073679
0.0214043097568396706
0.0222081945753127077
0.0229333089425814915
0.0235868193639647353
0.0241769613105506515
0.0247118839754255568
0.0251988718428475637
0.0256440016241192316
0.0260522728321766761
0.0264278529207370647
0.0267741764489234195
0.0270803325813787632
0.0131977160174233023
0.0151290403752191507
0.0157748368164625057
0.01739003375004404
0.0173486533268590939
0.0172288135918688239
0.017341168091822113
0.0178440677331111602
0.0188584393598198834
0.018813882906165879
0.0182265138743708602
0.017706671260651563
0.0173046807397452818
0.0170259623945006391
0.0168556709923631323
0.0165318074720709751
0.0160644225564225904
0.0157693393561040597
0.0156980144300320305
0.0158617327036157871
0.0162715214047130241
0.0169076444486906327
0.017714366287181614
0.0186145933697267653
0.0195358131091366537
0.0204280489667480018
0.0212640931293782975
0.0220331424893599262
0.022734114369710394
0.0233706896072848821
0.0239486152661731178
0.0244742021704592201
0.0249533755654992792
0.0253913025065566449
0.0257924102280200976
0.0261604518363877901
0.0264984608347764473
0.0267966010095731962
0.0135372087304737859
0.0150408726771222769
0.0161273637406466781
0.0173925134151331102
0.0170796685422227625
0.0170891697927896546
0.0174152978897268926
0.0181892437412343629
0.018983795743807777
0.0184486713623245244
0.0179989809763596402
0.0176320001723907181
0.0173466116923378932
0.0171594534415713366
0.0170684712717208281
0.016775865771580193
0.0163403717565018397
0.0161036070473743777
0.0160642122367408678
0.0162298527627813965
0.0166061695319964717
0.0171759150503267913
0.0178953054821194002
0.0187039985355243049
0.0195435211478076805
0.0203696612767006943
0.0211553507887394729
0.0218872907180846545
0.0225610954800789833
0.023177634928456245
0.0237405411905790183
0.0242544166607299369
0.0247238327605315139
0.0251530132323286616
0.0255457655280192861
0.0259053788517119819
0.0262344619195290611
0.0265241592944495085
0.0134354757831273569
0.0150504021404984367
0.0163905604880250702
0.0171787313681230312
0.0168802525004381442
0.0170469694080468692
0.0176134760317602189
0.018621893167831513
0.0186450765475560387
0.0181938176487306327
0.0178689440388995584
0.0176201963620857063
0.0174326085781523268
0.0173214135745557302
0.0172190372708629046
0.0169282873163124938
0.016572954085876189
0.0163925188706330917
0.0163852971731870203
0.0165561721671155654
0.0169074353181392044
0.0174242905673913685
0.0134209004071695771
0.0150731536213620336
0.0165959192810879834
0.016880437111934498
0.0167076206808999921
0.0170513460366931227
0.017855707379668944
0.0187245915935785948
0.0183579436652466753
0.0180284207142749793
0.0177991398758441666
0.0176406750465646633
0.0175334008548215896
0.0174884837855854292
0.0173645689557889969
0.0170646665617841982
0.0167806024717458563
0.0166503432159076648
0.0166722154634865449
0.0168489446961171928
0.0171804723391424212
0.017654243630932525
0.0135939403374446231
0.0150991384061537216
0.0168081621636551014
0.0166156858365123609
0.0165930400033091653
0.0171350209791915307
0.0181493912459272239
0.0184610648863313201
0.018151410072387561
0.0179183849470564358
0.0177692711633738835
0.0176820889912127736
0.017640339971749186
0.0176526969025793366
0.0175050106413650632
0.0171928150630876672
0.0169710890063330226
0.0168844108220606234
0.0169315223743446534
0.0171136112438201697
0.017428954164715342
0.0178670645570725081
0.0141388993589913123
0.0154697461325338011
0.0170154453372502942
0.0163825874267480298
0.0165231485807250181
0.0172497482590627214
0.0183228687448540976
0.0182201675438238286
0.0180060907232056505
0.017852089183743116
0.0177684867103347841
0.0177388044641607276
0.0177512092071287625
0.0177754766141195245
0.0176046751334979386
0.0173157489970082144
0.0171481055340283774
0.017098970605942676
0.0171676739629703194
0.0173542896066035679
0.0176559590974378379
0.0180640512996221546
0.0178198389697796708
0.017790876028063337
0.0178074301426042227
0.0178645609078210386
0.017853963140821081
0.0176617760144292431
0.0174345866910862457
0.0173136945288013648
0.0172968060023537713
0.0173840340580771503
0.0178850024875066536
0.017980843847911529
0.0179367397647563903
0.0177245582553080122
0.0175506023915425191
0.0174696624604143182
0.0174801667590613122
0.01758317738258822
0.0180197173454674647
0.0178034769048949111
0.0176754225440360763
0.0176291770387690568
0.0197070873579301351
0.0203151208251353896
0.0212947430239171336
0.0224034838063208695
0.0185188671051698533
0.0124648872465088385
0.00914250846995558718
0.00733379446519195118
0.00629608984109143559
0.00578127993357517144
0.00563439257646631241
0.00575863718979043558
0.00608217436997547482
0.0066251075855389592
0.00745761911826914054
0.00854293239541096226
0.00990105634415304123
0.0116129035921028311
0.0136296869298416692
0.0156511682082876823
0.0174243437609911955
0.0189047060947265984
0.0201587274239456542
0.0212586789534776818
0.0222369010592061746
0.0231042605774014441
0.0238731244233500138
0.0245581238025110588
0.0251729966138285327
0.0257294849977870166
0.0262374397778897851
0.0267052925090902199
0.0271400867670105114
0.0275476134280195351
0.0279327004366793329
0.0282994232717538215
0.0286506630336898632
0.0289688369117636173
0.0180368336589492306
0.0190241220355626892
0.0202850519280631351
0.0213267960037123831
0.0203611325103573888
0.0197570131638581843
0.0195588631092833906
0.0186023222402395272
0.0165303371246428021
0.0141454619159898376
0.0122834238511140108
0.0109645872077432042
0.0101141658846393805
0.00964585326915712131
0.0094913309105429354
0.00967310600338006782
0.0101366661120697518
0.0110022666956289279
0.0123336259251689406
0.0140653866799595236
0.0158745884201178869
0.017567379951477672
0.0191046985202993173
0.020429865159933832
0.0215575123014691075
0.0225242198259350337
0.0233631092965313515
0.0240997832539504263
0.0247541160741395587
0.0253418044390238961
0.0258750917885312536
0.0263637416761991136
0.0268156360227977536
0.0272370562791982539
0.0276330444086073171
0.0280082877598711241
0.0283674043795573184
0.0286947396977318865
0.0167379817342557351
0.0180910788258154959
0.019333005572375165
0.0204341654245285588
0.0212119240985476215
0.0203091899827315993
0.0199674175491756402
0.0199022237578056344
0.0197867743367669928
0.0194500638730023302
0.0185564232386128888
0.0171302053091060627
0.0157032786154946286
0.014692274470173159
0.0139909878556983835
0.0134060600631731291
0.0130031420753979627
0.0129782237444611304
0.0134509921343205201
0.0144301704411547126
0.0157882854115180202
0.017272241515837547
0.0187163128690279457
0.0200180084679339385
0.0211497070405636672
0.0221281146263269009
0.0229808774082495108
0.0237316856486259505
0.024399025758730767
0.0249977532920120718
0.025539952940380712
0.0260354571122085217
0.0264922013988435068
0.0269164578095509657
0.0273131755015961139
0.0276862381588040066
0.0280390764706402035
0.0283574385688269912
0.016047113387555708
0.017597965924719329
0.0190345004802247517
0.0201014981097198189
0.0211478022704752501
0.0203265228098923022
0.0201192021657320939
0.0201304926926711841
0.0197071934763595677
0.0190199918710695151
0.0184241375159648439
0.0180433280689191108
0.017721765886733562
0.0172583943810022573
0.0165087571052150196
0.0156943235947017944
0.0150778145776906073
0.0147160525452251553
0.014763518372776863
0.0152549662900350377
0.0161406615611674152
0.0172991069022766265
0.0185466081585724148
0.0197449531781327091
0.0208307524000771425
0.0217927844337112292
0.0226427509996824962
0.0233965947301976
0.0240691630677385277
0.0246734490808279069
0.0252205782018612365
0.0257199197031872939
0.0261791424890176413
0.0266043129062508814
0.0270002099015187839
0.027370643246045271
0.0277189091146917907
0.0280307811062524628
0.0157872388668190457
0.0174532213779617987
0.0189306084699249234
0.0198874119224335573
0.0210754054489434885
0.0205052036324018284
0.0203759766147510943
0.020179575341323152
0.0195089158827040886
0.0188446477175547057
0.0182674376391308048
0.0178404048428065093
0.017508920288899249
0.0171971352224304583
0.0169421206496131911
0.0165775412264966594
0.0160495665235732485
0.0156472723994300136
0.0155605567988414684
0.0158555388080397069
0.0165105148623771077
0.0174333393390851271
0.0184972866885793341
0.019576732351211077
0.0205946113226889195
0.0215214774969573683
0.0223545132031024302
0.0231009812684085346
0.023771085379435633
0.0243752319213789113
0.0249230371047343795
0.0254229938600264715
0.0258822121717559826
0.0263063597752637712
0.0266999395294664696
0.0270666318331445645
0.0274096059795502951
0.0277150586231808861
0.0158150390551934361
0.017479286498262029
0.0188907363938005529
0.0197666057164347618
0.0209072048676178859
0.020443416914212871
0.0203722091364466965
0.0200071180183534481
0.0193407307598025269
0.0187243395639023306
0.0182322468596070424
0.0178287473964277056
0.0175240277782221093
0.017278215200929134
0.0171063885316705792
0.0169304361353508105
0.0165649374461107994
0.0161970017276514139
0.016094718561733036
0.0163042458861939639
0.0168249307580493716
0.0175952479985199903
0.0185158217764136573
0.0194843141882581582
0.0204274823222765321
0.0213081265323202367
0.0221136707753802862
0.0228440504653817239
0.0235048541443692825
0.0241035828545876005
0.0246480068405899727
0.0251454445049790302
0.0256022061018982491
0.026023396941954012
0.026413147455462159
0.0267749066119721789
0.0271115826359320591
0.0274103576974767879
0.0160457243992102698
0.0176051704449007272
0.0188548509044726594
0.0198394844897186867
0.0205747369381864345
0.0201932623382156257
0.0202294887731088759
0.0197764309395636675
0.0191580764471432387
0.018647108985151279
0.0182393964006830368
0.017892871685684951
0.017627849065814459
0.0174437268120234551
0.017347557716275705
0.0172231355171377082
0.0168988507002163398
0.0165746602991776737
0.0164875572453816593
0.0166642420446580508
0.0171051814693515374
0.0177669733794998258
0.0185740775014260548
0.019444481959623533
0.0203136941635409761
0.0211430267746253488
0.0219143462509406896
0.0226222260808495099
0.0232682609345616145
0.0238571140250603553
0.0243946055562555379
0.0248867046207803463
0.0253387503623602288
0.0257551753488549813
0.026139677870062817
0.0264954133595731202
0.0268249827125146313
0.027116714063276752
0.016373537636377767
0.0178422351585450813
0.0189837200872821112
0.0201021364050024652
0.0202630439687145822
0.0199840592376330332
0.0200765289685671568
0.0195658681970708355
0.0190377023286565465
0.0186118638719929529
0.0182754702427116514
0.017985655970118461
0.017769398401803152
0.0176375579503592131
0.0175976760904423893
0.0174752980366921877
0.0171549661682504385
0.0168761247268765062
0.0168103149653580711
0.0169723275084454964
0.0173600948300687147
0.0179405218333997495
0.0186558698121891409
0.0194408909197132419
0.0202403482561654413
0.0210171266684081662
0.0217505041329150162
0.0224315626477779896
0.0230587045163958351
0.0236340870475129777
0.0241616800695841766
0.024646009898885643
0.0250913183175011205
0.0255013182861129374
0.0258792731970353129
0.0262280183431276431
0.0265498145659024062
0.0268341116723778902
0.0166972355111044482
0.0181509547004489284
0.0192368624723467628
0.0204703440498749424
0.020025046591541331
0.0198618388640674215
0.0198428843926183665
0.0193662760727033104
0.0189348493960020993
0.0185849513386320518
0.0183085933004289367
0.0180793398892606545
0.0179149682569344805
0.0178293501473454352
0.0178331083967039304
0.017695876347159023
0.0173691187413424972
0.0171350852460075212
0.0170912935741378176
0.0172457604288469533
0.0175944836081786439
0.0181112471621715683
0.0187511734731699645
0.0194621284641876315
0.0201974200711650502
0.0209227465510878861
0.0216166665020104919
0.0222683212634817301
0.0228736534544371518
0.0234327272327124643
0.0239479013015119063
0.0244223260429901438
0.0248591364934592253
0.0252613035020545808
0.0256316248323905198
0.0259725735310373483
0.0262860430983813398
0.0265625066805131003
0.0170374046421123415
0.0184510807971711502
0.0196093283743927482
0.0205892061665757763
0.0198571876954821668
0.0198095029549646348
0.0195733380583272554
0.0191826916512143793
0.018836691914338944
0.0185538741218485674
0.0183341204596246775
0.0181631689878878448
0.0180497826143862436
0.0180071538728313919
0.0180485438940373166
0.0178916690118178894
0.0175555329043873762
0.0173637726365620942
0.0173412794657273502
0.0174919275923420305
0.0178106458711032763
0.0182762868231667736
0.0188534544404499529
0.0173701071217409568
0.0187635815874090568
0.0200305079507068738
0.020318619477282026
0.0197130959672523268
0.0196498657340957311
0.019323589414744536
0.0190159581426561086
0.018744468235344057
0.0185217154518731303
0.0183543920703633026
0.0182362324119260122
0.0181708587604565569
0.0181690077332469328
0.0182001421173094147
0.0180239944295876552
0.0177214671378635759
0.0175682742027429215
0.0175656591787079451
0.0177147654279323878
0.0180099265999699581
0.0184338957719865186
0.0175149300514600946
0.0189238100908715769
0.0203607395134866899
0.0200537275944682458
0.0195827077534642922
0.0193770652665264734
0.0191043548044624902
0.0188686632926081919
0.0186595564545132056
0.0184916633901687222
0.018373480496685364
0.0183026534684230524
0.0182810070319337249
0.0183170002641461112
0.0183181600604165676
0.018124022921088518
0.0178712818194757816
0.0177527395780108961
0.0177682616333607636
0.0179171782091867259
0.0181934929998569597
0.0185831278064685357
0.0173347420421918717
0.0189296500597981379
0.0204837774024848977
0.0197383985357210759
0.0193731133593020438
0.0191150605835229172
0.0189135142780012429
0.0187401712699737238
0.0185864210892043406
0.0184680744439536595
0.0183949877817803746
0.0183666774743266349
0.018384195583277415
0.0184540927410522214
0.0184269450513703109
0.0182159706499185545
0.0180079994452495423
0.017920335964036669
0.0179521981551229275
0.0181016796172394183
0.018362627778615942
0.0187236216725220721
0.0184546627805693662
0.0184227881789280276
0.0184308525724019949
0.0184827438932057553
0.0185825960414277118
0.0185285260503247201
0.018301705061864279
0.0181337664031768139
0.0180735026864510574
0.018120074542008105
0.0184966385634027612
0.0185798044995345857
0.0186946644338680107
0.0186154047975079333
0.0183833799691346111
0.0182506367667230746
0.0182143461276348152
0.0182740423446774922
0.0187712752485322473
0.0186653490323875001
0.0184745873450658168
0.0183732672272298933
0.0217716538063682727
0.0211391874979224847
0.0211981256036674059
0.0214837437317639199
0.0203960871108588675
0.0190659206233743453
0.0184405400239579069
0.0182321983453618622
0.0168283692011668706
0.0148901198495768571
0.0137270740744654032
0.0131776410111204972
0.013077959085158207
0.0133730752714880038
0.0139557509360236191
0.0147109079184660624
0.0155763727678113664
0.0165912282822889938
0.0177270052352290729
0.0188257710420257733
0.019806213682243879
0.0206899343102459089
0.0215198534066860063
0.0223196157071597658
0.0230740789310711729
0.0237694468382351198
0.0244041657590213235
0.0249834556208488427
0.0255143977966745227
0.0260040531473482057
0.0264585193509534085
0.0268831409094076948
0.0272826520344407498
0.0276610990536689076
0.0280219576354931478
0.0283682036231758354
0.0287017770060358501
0.0290042467115225085
0.0207430643128759459
0.0201404987374180083
0.0203310737992948368
0.0211562754233743169
0.0203543920290528216
0.0193250392920091899
0.0185588493075576622
0.0181373121000619267
0.0179017549247263499
0.0178053333514998496
0.0172673602588709306
0.0161094233790903055
0.0151396410411756398
0.0145909514831144647
0.0144748796828527634
0.0146168730628714032
0.0149283677035787678
0.0154758349378099416
0.0163358859007001478
0.0173821406069737429
0.0185168300205427253
0.0196326477822892538
0.0206679226193525918
0.0216117547407788241
0.0224654047650011159
0.0232331316612429117
0.0239233485556494159
0.0245461262538902367
0.0251113176151548517
0.0256283359223776104
0.0261053089744964564
0.0265487200382585782
0.026963896174603149
0.0273551842347301982
0.0277261669088051804
0.0280803552650487898
0.0284213635489607049
0.0287325914724320328
0.0200780207096498374
0.0196032790869113405
0.0198879875840604695
0.02067515801994943
0.0213185158025170282
0.0204337868461135393
0.0197510175242299468
0.019214562157980751
0.0187490704335307665
0.0183558528614168395
0.0180901129496536389
0.0179307846310465258
0.0177947222877886876
0.0174777836271361488
0.0169104305223796367
0.0164140585436530866
0.0161363215990350979
0.0161355039932833538
0.0165018847690455821
0.0172389284546621072
0.0181915349321340181
0.0192249308655638163
0.0202435831448095627
0.0211945529071847459
0.022060529557749925
0.0228417586112397014
0.0235456685522525168
0.024181715676434179
0.0247591985656318396
0.0252867477642666691
0.0257721853895095873
0.0262220916500860539
0.0266418571409820122
0.0270358129937429761
0.027407454944609267
0.0277595545770700225
0.0280945961217001251
0.028397374746702158
0.0195146312411423224
0.0193130218059141406
0.0197648640280422873
0.0205658293222944905
0.0214263963002376961
0.0205331927464287509
0.0199064380880765758
0.0194013019829651634
0.0189303148486381877
0.0184858049727369481
0.0181416456102045688
0.0179221796819410313
0.0177666289934706109
0.0176653303335020384
0.0176716482779393017
0.0175354206318043826
0.0171505513373426573
0.0168861633767833016
0.0169682290862260866
0.017414842567294888
0.0181407836917673905
0.0190270776418540247
0.019962172474369641
0.0208723796657235769
0.0217216833246519671
0.022498964679748705
0.0232052592413120422
0.0238464445067148277
0.0244299542105842343
0.0249633607865284816
0.0254537960798524969
0.0259075164275879739
0.0263297178437636899
0.0267245679770373792
0.0270954277079317428
0.0274450180749343034
0.0277757200833488281
0.0280724035825875087
0.0191629451192694422
0.019206711144422229
0.0197156375609182088
0.0205394457685495122
0.0213996969957058816
0.0205910035642859895
0.0200152562291273026
0.0195203922440255924
0.0190434862055322389
0.018604350282018043
0.0182580040566291263
0.018038575382101487
0.0179037418720557756
0.0178154069554550751
0.0178134194569943803
0.0178656776659579727
0.0176635981946186502
0.0173518248392961934
0.0173316398819844744
0.0176288867870656694
0.0181965241525415995
0.0189476321940268561
0.0197862039149228376
0.0206356352838118137
0.0214502666607607577
0.0222094968215053173
0.0229074588422911174
0.0235456987152453945
0.0241291039755465141
0.0246636818043096048
0.0251555445606896771
0.0256103251118093567
0.0260328017304328821
0.0264268378232672546
0.0267955871040606031
0.0271416827489128383
0.027467410653940854
0.0277581074896281511
0.0190347818159665137
0.0191944324319410463
0.0197282938486030117
0.0206093931760452966
0.0214057935277244989
0.0206406923905197298
0.020093755794447974
0.0196083504053189799
0.0191532988464747922
0.0187542389384780725
0.0184460701035473532
0.0182382790769543765
0.0181115104254648447
0.0180436724551334034
0.0180606452978154669
0.0181282009532938819
0.0179516607800758662
0.0176546128709899608
0.0176051664830912113
0.017825699832183458
0.0182907036308874657
0.018936620769894455
0.0196856476339076596
0.0204688367426758729
0.0212389691724024082
0.0219700962582236245
0.0226509952902701414
0.023279212875029251
0.0238569255300233804
0.0243882874324285216
0.0248781488247166623
0.0253312930769020554
0.025751898684645138
0.0261434090479510696
0.0265087034268701137
0.0268502397407160871
0.0271700771484613829
0.0274545759264514661
0.0190515592410924611
0.0192298845069938454
0.0198283756627008062
0.0207567780916136403
0.02130014819551641
0.0206065300302670715
0.0200941973615201726
0.0196375952527766372
0.0192233773504787465
0.0188795016838975149
0.0186169310469053023
0.0184291835834122855
0.0183127593993090525
0.0182653264560184748
0.0183045844541033786
0.0183471042331501549
0.0181540077971180727
0.0178825097068819674
0.0178293827953473726
0.0180084949411228636
0.0184031348051666883
0.0189665594159987121
0.0196369616690997388
0.0203553144126453062
0.0210769784903810445
0.0217739891513518656
0.0224316550352042544
0.0230443460026228605
0.0236117400881109517
0.024136103992155062
0.0246209180059842256
0.0250699677808397178
0.0254867043718847337
0.0258740788026158644
0.0262346542753796284
0.0265706567670338685
0.0268838730364076295
0.0271618471076664168
0.0191176527660751362
0.0192916143380497535
0.0199764589223504138
0.0209232835626207148
0.0211001682530415867
0.0204910885209184761
0.0200317034406036799
0.019625715291638781
0.019265445681490273
0.0189726706798921708
0.018748422756368479
0.0185846023134792274
0.0184861029436442573
0.0184597427927343863
0.0185201143265159365
0.0185337723724416543
0.0183204808105825491
0.0180754952944261367
0.0180263949967071416
0.0181802241617360742
0.0185237385896247948
0.0190212383456268043
0.0196237212058699498
0.0202815882070627694
0.020954451336103963
0.0216143963547583452
0.022244887539795373
0.0228380630184574322
0.0233914964855041242
0.0239057390764360715
0.024382917175222122
0.0248257166168120887
0.0252367734689725592
0.0256185279341837567
0.0259732267099426241
0.0263028319418748269
0.0266088253154618919
0.0268799133495603165
0.0191647847963517109
0.0193176603035759634
0.0200763917713487616
0.0210698456616953619
0.0208358811941958474
0.020316505753971207
0.0199208383612095585
0.0195770109423474142
0.0192741111155141157
0.0190277117975236956
0.0188405648139842036
0.0187055393364770894
0.0186312783215785878
0.0186275063819128506
0.0187076054249076286
0.0186946558916134126
0.018464499983839925
0.0182463477389994758
0.0182045691467215415
0.0183417773051352297
0.0186464592427230402
0.0190904696533833809
0.0196345893465959161
0.0202373689249517597
0.020863171610899546
0.0214852639980889736
0.0220864266085715119
0.0226574333443692599
0.0231941696724689977
0.0236957153882750293
0.0241629893239027095
0.0245976256798319248
0.0250014380987354651
0.0253763255471849726
0.0257241801142272936
0.0260466602091085041
0.0263449237681953469
0.0266087470539750487
0.0191273599137269552
0.0193122131258197938
0.0201214234557738972
0.0211643482362775109
0.0205329994178641943
0.0201092404702661563
0.0197843277636165354
0.0195032746841496442
0.0192555633714401632
0.0190539500308862311
0.0189024394941228191
0.0187995627510108738
0.0187532279865422653
0.0187732399338885053
0.0188723393634095474
0.018834886372189337
0.0185904752606200936
0.0183992057171186406
0.018366753686312666
0.0184929622193207507
0.0187674775793706151
0.0191676297259958002
0.0196616465989919616
0.0189031282179601759
0.0192381476927303736
0.0201088805890758081
0.0206990775251783832
0.0202108958822839815
0.0198863451689843644
0.0196356520789551028
0.0194151085054448808
0.019219380552310851
0.0190599365632495299
0.0189442306144540287
0.0188744605943461027
0.0188573159751823129
0.0189014980063226222
0.019018974945807933
0.0189585789673713395
0.0187014312048407703
0.0185364361589402289
0.0185144701934802057
0.0186336246227168448
0.0188844215450808262
0.0192483458952715202
0.0184554496171514988
0.0190027046175137299
0.0200258140930371087
0.0202029004909347921
0.0198868448243739379
0.0196640881892696621
0.0194850305737560847
0.0193217076152619217
0.0191739729854558082
0.0190551529620930846
0.0189746648745873318
0.0189371951359500156
0.0189485651755177328
0.0190162377384790124
0.0191510097350556831
0.0190689455174552179
0.0188000654877635807
0.0186601485086669294
0.0186491320065958165
0.0187639830453676174
0.0189959314812842006
0.0193297468189290063
0.0177408823509730799
0.0186324689355223672
0.0198548134150042417
0.0197139627613058983
0.01957379733573196
0.0194520760058057053
0.0193418208337941752
0.0192316019827155592
0.0191280109389037334
0.0190467882162621664
0.0189999497376196029
0.0189933569993321859