/*--------------------------------*- C++ -*----------------------------------*\
| =========                 |                                                 |
| \\      /  F ield         | OpenFOAM: The Open Source CFD Toolbox           |
|  \\    /   O peration     | Version:  2206                                  |
|   \\  /    A nd           | Website:  www.openfoam.com                      |
|    \\/     M anipulation  |                                                 |
\*---------------------------------------------------------------------------*/
FoamFile
{
    version     2.0;
    format      ascii;
    arch        "LSB;label=32;scalar=64";
    class       surfaceVectorField;
    location    "0.119999999999999996";
    object      Uf;
}
// * * * * * * * * * * * * * * * * * * * * * * * * * * * * * * * * * * * * * //

dimensions      [0 1 -1 0 0 0 0];

internalField   nonuniform List<vector> 
20390
(
(0.285695486778777985 0.0250560861747757616 0.0289509078045064282)
(0.158597662742120976 0.047984126555537715 -0.11832636967389909)
(0.106930349928814353 0.0240321420723220887 -0.313539153572200857)
(0.891511259323625405 0.0156816345239945351 0.0681245638606876314)
(0.383449844159207132 0.0237655627588825059 0.0851345311515086522)
(0.0819393986292402676 0.0375535079502072461 -0.0837893301204360591)
(0.0352490104625551373 0.0209607447671623717 -0.1224906687231129)
(0.868780838967160962 0.0161226563366341606 0.0503680035679215932)
(0.523054104883315496 0.0188789888162161079 0.188811343269361803)
(0.204914391255663603 0.00702228127391291233 0.00543897417457922527)
(0.151777612192387529 0.00988323790383154044 0.00409268393935714042)
(1.00856933010183214 0.0107817494827036533 0.157741060131144917)
(0.613320761285499838 0.0158286441595306381 0.292954600274871191)
(0.269901670367613589 0.00581021037425586556 0.119203343091097869)
(0.233995715710089314 0.00958678448230657065 0.122701546201138406)
(1.10253900058825005 0.0106662513720352098 0.224587949808374987)
(0.742202662442018157 0.00696632395442146283 0.401953521680890269)
(0.357399951089494516 -0.0225536692691479211 0.244372461223591464)
(0.345546793684991638 0.00856197107999407195 0.238343068615087444)
(1.21130294719338494 0.00537612712798905389 0.322116820751620736)
(0.910504010852579926 -0.00617404261351206605 0.483370453215562268)
(0.490812944947938368 -0.0569428716460559717 0.351373610196296482)
(0.495328539330223527 0.00279249023480658857 0.35576116524039858)
(1.3377764415632829 -0.0052646818373678194 0.410175999006624437)
(1.09059551522472842 -0.0177432024362824577 0.529762459744774095)
(0.621502128229795003 -0.0752154322145150711 0.407242404865166774)
(0.655826259006783818 -0.00527482936195047825 0.434903694969546395)
(1.467474483787788 -0.0158479373977120884 0.464563754801405826)
(1.26165280410480007 -0.0242509588622622958 0.564158490687967307)
(0.75003690322234895 -0.0766045550067029485 0.450318203169636444)
(0.813095503010478282 -0.0112555577859939655 0.486751628788067658)
(1.58736548217527895 -0.0230324233066894687 0.504599383039094462)
(1.40461083900897732 -0.0266926272116842986 0.589634277782019378)
(0.873414118751681401 -0.0666203127973059445 0.490474532529651397)
(0.961879184469731197 -0.0140025466567272276 0.527131091964158305)
(1.69202922394506894 -0.0271330755049633415 0.536847836429620751)
(1.50731977158152297 -0.0259722851918754022 0.606804788527318562)
(0.983111602898343095 -0.0537028462905221812 0.527170384719026996)
(1.0774637816546635 -0.0136206716662812238 0.560918571968055057)
(1.7715379755995766 -0.0286269570437899697 0.55622127637167107)
(1.57022852015398229 -0.0225006615768225463 0.617468033318248621)
(1.07262357760032478 -0.0382149972424750128 0.556715819184817717)
(1.15662353039191257 -0.0103751375576543233 0.584786272746926405)
(1.82282122857362072 -0.0270495091665175352 0.571264867995733616)
(1.59956949501834789 -0.0166611011648135493 0.622675114956531495)
(1.14306389030216682 -0.0235738078002848336 0.577254038528074109)
(1.20737836518978603 -0.00507200464038401119 0.599523484418962527)
(1.84805371580350131 -0.0227577849472482274 0.581717313591630814)
(1.59518273792888698 -0.00830212417124274495 0.624666358767872465)
(1.18927591830687951 -0.00639405761839117407 0.588647941331587932)
(1.22555849195835864 0.00259719224596312564 0.606034271121026702)
(1.84594705909067858 -0.0162212600431879163 0.58886015029422023)
(1.5471565883430114 0.00432623893038092469 0.621774988867639045)
(1.21265704876267444 0.0197070549506832768 0.593377923436681942)
(1.20471261066702273 0.0124591519930204956 0.603155791341502656)
(1.81428267157193002 -0.00760122395186509352 0.594543620531384764)
(1.44682046028274836 0.0220481454877868022 0.611247821158214188)
(1.20285540354978537 0.0484590136352871584 0.591142518730621402)
(1.14236688321875723 0.0254722548985874681 0.595606388678646015)
(1.73794363289074183 0.00684267193891390305 0.592186360435890125)
(1.28385209761928687 0.0427866561810887613 0.591474981172676717)
(1.14951481474966966 0.0793857169975658861 0.582327031283322638)
(1.03442378787971467 0.0400517054285428123 0.58427164376601548)
(1.60349527210608733 0.0256918017102493144 0.580071917887658106)
(1.06046914529797287 0.0607595341809331474 0.558888737018403248)
(1.0449442918349674 0.108912503340209299 0.564750958655708124)
(0.880891796888465306 0.0545282998631696769 0.562533889194950953)
(1.40549664399771879 0.0467882344304326181 0.556975166808305833)
(0.809348508249324028 0.0651401445625162667 0.512050050981820104)
(0.886091249177600737 0.126246070483766071 0.532732562396366016)
(0.686753969422618793 0.0616463072374932933 0.522038900903624037)
(1.15078916306443091 0.0616064261730069965 0.523412182535712533)
(0.592820417333213889 0.0547815446362735908 0.453298340814918932)
(0.700567960634624454 0.114485792431724562 0.484981938387728628)
(0.507259535371975212 0.0536634601100326111 0.466969565623305716)
(0.891295351809413994 0.0609941454284350856 0.479412980489740848)
(0.436382079999498462 0.0398417256005784495 0.384732735706492079)
(0.530128408899871451 0.0910319719765482066 0.424277428394791489)
(0.378214776103553918 0.0391712077730891617 0.399597652572944051)
(0.661312714862535844 0.051208538292006299 0.425220222289755923)
(0.335634454518702274 0.0271225706761371727 0.310473841150588903)
(0.400817594996584203 0.0667344490106469568 0.353158390831228408)
(0.298632730183763351 0.0266624911061171636 0.325504703247051996)
(0.481961584625551775 0.0390880983196313578 0.358224261128047783)
(0.274274965399424697 0.0181995719607523539 0.239418270333229793)
(0.314277030734700646 0.0461325164604481572 0.27849990548261333)
(0.252012812890504756 0.0180653602500895349 0.253803741018400197)
(0.360674828676868731 0.0273295398867456352 0.28470885915426003)
(0.234770047782154045 0.0127667493794063735 0.17997064021525333)
(0.259984349069902865 0.0314746704051109411 0.21066431874087424)
(0.222413793306849877 0.012831360894266201 0.192743395855363209)
(0.288301035566194408 0.0178125968024014959 0.216185223093947415)
(0.204382918392604501 0.00970409249597486631 0.13511786590986169)
(0.22259369923868827 0.0227940761459176251 0.156961511995758973)
(0.198101410926785099 0.00986419319847462416 0.145752894167234331)
(0.24256877345767186 0.0121781992332509331 0.160949910585898054)
(0.178413796658029172 0.00778162184301589479 0.102843203136225456)
(0.193070553352215346 0.0176135577958159845 0.118048601627676317)
(0.175763917874262487 0.00796273396637404464 0.111367388243408708)
(0.207830639532684991 0.00924001636577718825 0.120623635394728451)
(0.155914798039155034 0.00641133507961660822 0.0794596432269402131)
(0.168340490581901897 0.0141619548535315172 0.0903501643919947528)
(0.155508999764048944 0.00657760118740312576 0.0862135195369947982)
(0.179133583110774874 0.00743873457637347392 0.0920402227014870955)
(0.136319917470646812 0.00540244914569457807 0.0620611626166125349)
(0.147163384037902301 0.011729339054998407 0.0701352236841887716)
(0.137357854795267575 0.00554763528559055769 0.0674236972379557292)
(0.154984716340257955 0.00613677123589412288 0.071291367720912463)
(0.119003809365046273 0.00465795353320066618 0.0488685913197235075)
(0.128641131555095073 0.00997693432542416658 0.0549840449794987973)
(0.121011217219805747 0.00478308862668322919 0.0531316354350667014)
(0.134313932839759148 0.00517481067479096633 0.0557740806839130548)
(0.103456649709417217 0.00410513691322028466 0.0387696641090366084)
(0.112150934999234286 0.00869275452891814585 0.0434517421805563422)
(0.106136114304115403 0.0042104681145457238 0.0421469333089748502)
(0.11628090409882777 0.00447209075423208365 0.043990740025086468)
(0.0892830112132659143 0.00369049276119474967 0.0310015006408361597)
(0.0972251683196573291 0.00773986398506943275 0.0346041920661753905)
(0.0924437254872134129 0.00377709396409750498 0.0336642009096951439)
(0.10023469805130937 0.00395646180714982493 0.0349758583455063235)
(0.0761817457404575099 0.00337605877368938332 0.0250167385878379694)
(0.0835161643259184211 0.00702377100609767515 0.0277909285403476133)
(0.0797017247133784551 0.00344640260829673448 0.0271016781974919331)
(0.0856991173494683345 0.00357284953015614675 0.0280515823512107916)
(0.063924129516142833 0.00313582532596914498 0.0204179578096477625)
(0.0707622034586467968 0.00647925696195710606 0.0225443886973882533)
(0.0677209205517963625 0.00319236497476125917 0.0220308918665016486)
(0.0723270337531344287 0.00328363414525920496 0.0227320859659523311)
(0.0523309222413107372 0.00295227314564656821 0.0169150303136170743)
(0.058759082047909153 0.00606235754052371952 0.0185251711565613958)
(0.0563485462503043044 0.00299656759212713498 0.0181367202068149075)
(0.059856497281776222 0.00306371303552936377 0.0186661063738814033)
(0.0412547015251995761 0.00281371472715258265 0.014295136119579218)
(0.0473428001859720338 0.00574455460807033955 0.0154851985846422308)
(0.0454578465945229201 0.00284648689610637147 0.0151864707508568095)
(0.0480825406670979533 0.00289677450888828998 0.0155972735632671413)
(0.0305689367239712212 0.00270684839980280543 0.0124030647419360318)
(0.036377300212394513 0.00550772455462756466 0.0132428824363254056)
(0.0349405865652031508 0.00273393788370228938 0.0130083135808796921)
(0.0368385090555485642 0.00277257311784101686 0.0133380722581506964)
(0.020179267911654801 0.00261951823752471251 0.0111282535299647434)
(0.0257501991846011795 0.00533166796112068478 0.011667332011213118)
(0.0247062114437267104 0.00264272888140858328 0.0114776461445451235)
(0.025988281801687059 0.00267334567013085243 0.0117537192197702065)
(0.010016309117881466 0.00256296691210836395 0.0103871835688024352)
(0.0153390844201614553 0.00520170685923173042 0.0106674549530859624)
(0.0146875565500866473 0.00256640495167797123 0.0105073640691169118)
(0.0154264102807620644 0.00259174901030740854 0.0107504221821526722)
(0.00507829547355169355 0.00512107946361134176 0.0101659196905944781)
(0.00485986885888412077 0.00253469527607431532 0.0100240558974290812)
(0.00510102495727894883 0.00255737742660258182 0.0102502507763226457)
(-0.0834879059241822319 0.0694717507283715424 -0.231066607598841789)
(-0.0604523857029385867 0.155255253787634717 -0.435695032602747723)
(-0.0679421377333053744 0.0873188928524060992 -0.349511115855138055)
(0.260425433207640167 0.0671566431863887259 -0.218455528288008738)
(-0.0769138539739313148 0.0159382183000463216 -0.163484887097365528)
(-0.160949998937966188 0.0507328744591783801 -0.255557239639636669)
(-0.161678011689267986 0.0367850877332129983 -0.195002647073981544)
(0.0588907878370609691 0.0226910490533267818 -0.162075985093576957)
(-0.0548841783458146812 -0.017870253319626165 -0.0641690260036852228)
(-0.142427453389010528 -0.00702419152803359596 -0.165487320957611095)
(-0.163247203379227324 -0.00584607929717838662 -0.0891260925293915068)
(0.041290191377279864 -0.0541763275032986144 -0.0951949576291939992)
(0.00837839204459945967 -0.0449289667855491959 0.0706212040398176977)
(-0.102233160650950242 -0.0432507972997655532 -0.0383048115308947043)
(-0.133663860448299726 -0.0206172229529232205 0.016661498573529436)
(0.226786175353247021 -0.0792125589068537889 -0.0182067223837896891)
(0.102330837936950608 -0.0828726933985953346 0.193792549738997955)
(-0.0320692496670580834 -0.0669859978445469934 0.0938794386510355128)
(-0.0791042184195973608 -0.0419958589999208723 0.108512541576360685)
(0.389541691853694749 -0.0984230319743557569 0.113594580044482363)
(0.200032946540662449 -0.110064758640010238 0.27524556184590071)
(0.0587551609504924979 -0.086336528925445466 0.190978657820153386)
(0.0102004858198864665 -0.062640132803513382 0.187643830247420623)
(0.489951360256441149 -0.11750536974820798 0.226556391753247488)
(0.280515569861097769 -0.116446910774424053 0.327798148290029068)
(0.133802462822848411 -0.0962381939908133893 0.256548277334999131)
(0.0901492851900146663 -0.0709522132024131141 0.251120928453301695)
(0.552643110233273394 -0.124978673190490816 0.289556512914336539)
(0.361029724159685927 -0.107394468877888186 0.376634245011319979)
(0.209329828187361622 -0.0970276227382170647 0.312538176319584304)
(0.166915295989903817 -0.067512730555508077 0.305446471039141465)
(0.627511906022109267 -0.12242575081152221 0.345113953666279782)
(0.450522542289874428 -0.0905224990532670359 0.428010639466659293)
(0.285155369955881532 -0.0908566659845100044 0.366368686034423852)
(0.242847833342907937 -0.0547613366842490262 0.358020015119982438)
(0.71646989382203774 -0.112688210579902234 0.399040422412901497)
(0.547942328048222405 -0.0700207763202022743 0.47708141537652643)
(0.366077173484010365 -0.0794330866759194038 0.422232754502894048)
(0.33445938512958312 -0.0380559298584437558 0.408853010370296421)
(0.815339650555113371 -0.0966729863893563274 0.454813942925035075)
(0.64506053677121733 -0.0474477924000588636 0.516501824394643094)
(0.445965446196505577 -0.0624492472836664647 0.467838102808511014)
(0.428600112238306297 -0.0187760455978175818 0.451378497141342538)
(0.911239806409322783 -0.0772588793042694177 0.500031485083199723)
(0.732617263587862166 -0.0242090911214125071 0.543226864903130768)
(0.51930803471132303 -0.040489884790038809 0.498807791673421763)
(0.518708426820587376 0.00136880693839868252 0.482681645644355506)
(0.998409008780655638 -0.0566562909531339032 0.536409351873702978)
(0.807187847699418093 0.00385554083410074439 0.557359506000397409)
(0.578448713287793903 -0.0140190232137326082 0.516642208853990925)
(0.5952364341143771 0.0235061408583992007 0.502148594003764992)
(1.06854569367779906 -0.0337505971601588864 0.561468764842845247)
(0.867632848741159868 0.0385314258471901039 0.562745453299664189)
(0.625172295375377884 0.0192091828033189686 0.520259201420482431)
(0.658552215625261228 0.0512941120008018267 0.51311599945957731)
(1.12004138925431151 -0.00413600209231412743 0.572559719791916999)
(0.903207241128438421 0.0763810955419866044 0.562221728855729852)
(0.656061228767443105 0.0603441089208788875 0.519946185724558863)
(0.697848134803415343 0.0810944627189458395 0.517161111071545498)
(1.14846080889809832 0.0321220379979958448 0.576499308520516229)
(0.907551088273303996 0.114813249275153947 0.555603008766354045)
(0.672656027314670224 0.104104529741317106 0.517756420162776454)
(0.71167772316842226 0.110119552871314266 0.518003880253161575)
(1.14702062208272149 0.0719422295743138429 0.571783685773501804)
(0.867704154214906875 0.147245347302508545 0.538594784033670559)
(0.672548766532674036 0.150796341312652488 0.507916171246102666)
(0.695631204522723756 0.13660857532907561 0.513789659450823222)
(1.10955071228224345 0.112372041252281174 0.557711891317433039)
(0.776491455270910125 0.159737599464152613 0.505664449802274429)
(0.648292203419328694 0.186329811451655947 0.485893525654910285)
(0.641221952951511631 0.151066715078926578 0.498483854208347121)
(1.02265247582727947 0.144070226690586001 0.527435827408268554)
(0.640618411794657394 0.147580109623419858 0.45596102596760163)
(0.579009702474748034 0.19272216610576301 0.448705451116777621)
(0.546814889394881543 0.141812693285572722 0.462093558777199487)
(0.878450135304697288 0.154027204757298336 0.482686680850197669)
(0.499315821507228141 0.12072128540449259 0.392703083519527485)
(0.480734478778828356 0.172852188508696603 0.397932182420359493)
(0.439043672343441937 0.11699592683558889 0.405750606004092462)
(0.702312926343582999 0.144315814653660862 0.428085134414273316)
(0.383900552186574096 0.0901076412462194498 0.321184455163252891)
(0.385161120582976746 0.138374959052228436 0.336539828179617861)
(0.347536512392499941 0.0882906224324894046 0.336497971324907996)
(0.534086271100849164 0.12048770117969558 0.364362797436230901)
(0.302589237675172262 0.0632375693927980376 0.249745953890257805)
(0.310743627029024527 0.101569344253776034 0.269938122126743341)
(0.281443942644808431 0.0630434323630514326 0.264724927700684176)
(0.402327549042411026 0.0898630875112077648 0.294282930841402113)
(0.248599946801166066 0.0438751303762369843 0.187655190521379661)
(0.258658922845339423 0.0708385705290777851 0.206941512018151225)
(0.236861355398615914 0.04444967102379771 0.200891854825972355)
(0.312709234778779432 0.0612186282670433915 0.225623910320117915)
(0.211132429041802794 0.0317990949622741076 0.139892247713573448)
(0.22139476859762397 0.0499674971514044441 0.155421276474764308)
(0.205243446679838737 0.0325521722838363892 0.150807460956392719)
(0.25408857372009902 0.0414308400558768414 0.167684490900220501)
(0.182525059947245938 0.024433883463919899 0.105555562883445753)
(0.192289553342327418 0.0370782243687401564 0.117283844820277358)
(0.180142910558139135 0.025131809819682327 0.114258574129305193)
(0.21351429498721386 0.0298868398984787516 0.124584718694511279)
(0.159043402467638595 0.019669649816505503 0.0810257448492433391)
(0.168059438016946755 0.0290569955812017486 0.0898710100325123412)
(0.158782171078988399 0.020258531284414634 0.0878989931718791445)
(0.18280037700180804 0.0231037165867738099 0.0942159325884598248)
(0.138987257791993557 0.01640476373735969 0.0630581060470748328)
(0.147244885181712026 0.0237836021081298914 0.0698286369650040067)
(0.140090518390027258 0.0168894431492818756 0.0684949889547471213)
(0.1579260852759026 0.0187148511958344366 0.0725585042692803717)
(0.121376893543440001 0.0140839251176728547 0.0495671958403316737)
(0.128955779675738375 0.0201392861398971626 0.0548034241828859736)
(0.12342254393089995 0.0144813664850709147 0.0538780812810754281)
(0.136887276096783639 0.0156830243190502205 0.0566058836784549338)
(0.105583748700921076 0.012390834432101509 0.039286270137695041)
(0.112588432372692407 0.0175253400378045238 0.043354238729016302)
(0.108305346359109905 0.0127165999664787567 0.0426989952735779832)
(0.118573969260769158 0.0135231407151996455 0.0445846515208438085)
(0.0911838361991468976 0.0111315623716250339 0.0313936199656868475)
(0.0977123988875789329 0.0156018255184320644 0.0345564750738017873)
(0.094396755365374771 0.011397544314748622 0.0340844012802494489)
(0.102280478712404629 0.011951806312207422 0.0354174693732494453)
(0.0778705161875260232 0.0101805428994140648 0.025318578649897918)
(0.084009412393338076 0.0141601286160123168 0.0277713062318255266)
(0.0814500405246021963 0.0103964810439791597 0.0274264414821379851)
(0.0875194193464665926 0.0107871362088284815 0.0283872559336077399)
(0.0654115778340737253 0.00945466822897508483 0.0206516020443018172)
(0.0712343409982037629 0.0130641801586429303 0.0225394857849621141)
(0.0692731611076783937 0.00962830384242531132 0.022283858919593294)
(0.0739371351139164051 0.00991006065884882451 0.0229905969793227534)
(0.0536245594798642686 0.0088995395197997082 0.0170953394275865297)
(0.0591919958994108972 0.0122241966455653422 0.018526565820441581)
(0.0577105010724872636 0.00903553825553680273 0.0183334389811493012)
(0.0612660809250666141 0.0092428148241883723 0.018865942384052134)
(0.0423601205469489803 0.00848043491256685739 0.0144329449013884878)
(0.0477240676155592444 0.0115830009773710257 0.0154876725526731217)
(0.0466335620250402372 0.00858081100959746761 0.0153378113426647193)
(0.0492977216469830531 0.00873624667178320331 0.0157508603293314044)
(0.0314904935999044122 0.00817460712227117622 0.0125071497056025056)
(0.0366989702318335359 0.011105616351169802 0.0132435944536886795)
(0.0359338224722409311 0.00824069586637923152 0.0131229790802181584)
(0.0378640278459119323 0.00836025229458995343 0.0134547164914523478)
(0.0208815737403535359 0.00796417635660807283 0.0112065334343343231)
(0.0260067233176286723 0.0107719609185717453 0.0116651594605383293)
(0.0255209540414975088 0.00799879755441543563 0.0115634688530951886)
(0.0268286116564994889 0.00809453444187278881 0.0118411311908012649)
(0.0104037641059598202 0.00782351567848858093 0.0104461910748779967)
(0.0155194735807742592 0.0105618964580014799 0.0106627598277615442)
(0.0152552737716032845 0.00783953586104749883 0.0105720783557327874)
(0.0160112224432433191 0.0079206062752824203 0.0108159881337956329)
(0.0051475048801112545 0.0104373853616624504 0.0101582182724786908)
(0.00505625897392918654 0.00772953056535128583 0.0100729932325089987)
(0.00530322081120993254 0.00780329331582362701 0.0102991722108972152)
(-0.179325199201577135 0.121015829933886945 -0.460185664643544989)
(-0.0928446609975957515 0.208213031717544739 -0.698177318350291398)
(-0.105771383818035886 0.151700872659124048 -0.425627928879531769)
(-0.120725776831847986 0.191213529329595594 -0.499039207645060046)
(-0.19727264295346264 0.0176847857444737203 -0.257559673499882458)
(-0.251650868228169344 0.049096922630014514 -0.339892120480066062)
(-0.219465560808458665 0.0505163082917601744 -0.266353963665517057)
(-0.167668948442208615 0.0542063686917611254 -0.287584108030334629)
(-0.196188562391695104 -0.0362923027496619005 -0.139623106484821208)
(-0.236048685908044731 -0.0252033035300031523 -0.205463194827145396)
(-0.233319492287786617 -0.00152447032783739134 -0.173922807342491575)
(-0.0663382736112676785 -0.0645112934922306147 -0.209208552508684809)
(-0.153205923286037687 -0.0699578019430020653 -0.0150465769196775796)
(-0.211403616078425283 -0.069992149718599489 -0.0755278497298154661)
(-0.228887969808047542 -0.0326575830554016108 -0.0680947736435037615)
(0.0215741739970112326 -0.126711137192966228 -0.0786053632951098091)
(-0.0806860526416481177 -0.0885902661549054504 0.0910655467321909995)
(-0.155058631491093585 -0.090548509351949566 0.0433190540353489903)
(-0.189575865680394806 -0.0490291687289163766 0.030193739128548145)
(0.0858150495814426484 -0.137219541670942385 0.0555822263583020323)
(-0.00799526404425518478 -0.0989329447421174457 0.172281373309251029)
(-0.0969107500299585534 -0.0991107685834552304 0.124845067687844369)
(-0.137516516293876623 -0.0571282263313838828 0.10855919588786582)
(0.161679041023930603 -0.141489092396092031 0.155696314242628475)
(0.0622468817876954267 -0.10245293214112762 0.241288305364554645)
(-0.0447112126938431081 -0.100119114141294305 0.187947989509174185)
(-0.0827520966929492091 -0.0583998676591562932 0.172797503588229429)
(0.253916393580685629 -0.145788850885073179 0.235274986998889851)
(0.131684569466832602 -0.0988511778449359252 0.302272617342687955)
(0.0103812890710686112 -0.0942449278453177941 0.241958725672916319)
(-0.0240476472938262915 -0.0548097809651733256 0.228282134278883941)
(0.3465847876610606 -0.147022696460104713 0.303285148937961324)
(0.198988302657532645 -0.0892029128010966704 0.360590801070658939)
(0.0713587602519838438 -0.0826071239072944941 0.2972001624481867)
(0.0348124998568298677 -0.0472467950616870247 0.28106785890159619)
(0.425403885173689211 -0.140840748954790762 0.364872685531542729)
(0.262313833962322274 -0.0740050236927080884 0.412989441934878743)
(0.13619124349942846 -0.0666636610293380727 0.355886687112706157)
(0.0925035002173798249 -0.0360640216967778107 0.333890335360840673)
(0.495545932998001648 -0.129260292452047648 0.422758643159418968)
(0.319814636496752625 -0.0527009300149100107 0.450144070087289627)
(0.19887589144540091 -0.0442317080443843449 0.402751664908455986)
(0.146988755446901792 -0.0195369873672619002 0.375976803399932169)
(0.556568320372725189 -0.110070433078210919 0.469916565759231075)
(0.366438735960405881 -0.0246595256281861679 0.472223135624282142)
(0.245180146760679063 -0.0154112984468270792 0.426945162196214589)
(0.197945465021527184 0.00213560304697442502 0.403225366629195947)
(0.605621196800976147 -0.0828529127980612151 0.500007415326001237)
(0.396004779556125619 0.0111776028873790886 0.479541904274076003)
(0.273483841184646415 0.0188852347247496187 0.435911418299565367)
(0.241161499348421959 0.030434405843441939 0.419864052474115679)
(0.639191455259158103 -0.0480812044239904632 0.515235729931967423)
(0.411486391508238847 0.0534293535284326229 0.477459933845377216)
(0.288993738076553264 0.0576277849386250679 0.435897091854590635)
(0.271598453349246705 0.0647004603247914728 0.42262900764683653)
(0.655532915976737018 -0.00549872511681598862 0.514944440520668789)
(0.422980011305607695 0.0986599918435186879 0.475480877031605464)
(0.300384353216915367 0.0994646745612359495 0.435928550927264902)
(0.293133361211204924 0.101183135687153786 0.423730348523331246)
(0.660115688421972435 0.0425693142039783243 0.513463388549308397)
(0.43538225504071304 0.144648852819896562 0.470069582642525075)
(0.312564994327063472 0.141156981824882011 0.435493481257444359)
(0.312332420891371587 0.136707741295682444 0.425572046264539705)
(0.653134032451869073 0.0938450297520527776 0.512077112112080512)
(0.448738988581404596 0.185600352015004855 0.455214912867342059)
(0.327590045282988629 0.18052789352976123 0.426234023837694376)
(0.333316954777372387 0.170498106546429162 0.423406666604977611)
(0.63700309195148741 0.147068637928619683 0.496221941187207971)
(0.449963187273757448 0.208538309706596814 0.428934526969413255)
(0.345784042949507819 0.211817498217811651 0.406831558675582794)
(0.35291282553600245 0.193468611878501257 0.413535165709659036)
(0.613058530159905968 0.191081429688465004 0.465730238638097427)
(0.421473099618538849 0.205409210761660327 0.390676607569535983)
(0.34786150517679898 0.224545368188517169 0.377808492791305572)
(0.349056382785509989 0.193484879741979171 0.389261164417543215)
(0.563437370475114441 0.213642863415300449 0.424416112389321865)
(0.371040501942156709 0.179763946462917185 0.341768927080449036)
(0.328834216168571003 0.211396653768593124 0.339502664668131504)
(0.321210473331623392 0.172187447117811865 0.349390947504150451)
(0.490224792453057556 0.210036197937952696 0.376047945208372314)
(0.316801506410004596 0.142155123560203406 0.285293495143108256)
(0.297551152857430945 0.177946311198570989 0.292630366740253611)
(0.283934798359051388 0.138847062247441033 0.297371407024708545)
(0.409756697063961783 0.182563308061742369 0.322274891540801078)
(0.270179206332103128 0.104324684737993112 0.227133680254637177)
(0.265081559522754417 0.136984228078171261 0.240504090265967113)
(0.249431053972890171 0.104105483547630329 0.240254751286722107)
(0.338417230124829826 0.141758315778602539 0.264460759515470878)
(0.232860020584595484 0.0741966322488047947 0.174707597971536038)
(0.235776709379119292 0.0996450106755231019 0.189443576187132229)
(0.220837761854690617 0.0753344985141654877 0.186746430218592413)
(0.282511599317257112 0.100937610286559024 0.207039164198514508)
(0.202728053710995698 0.0538135747054360597 0.132812873581468205)
(0.209328488361082615 0.0721947198865401096 0.145859808760718718)
(0.196475776733321783 0.0551933824635878617 0.142949057565309401)
(0.239596200366689993 0.0701614370309800589 0.157271852639733367)
(0.17752394885828035 0.040957599337953024 0.1015992919693436)
(0.185307194378665357 0.0542513504098582899 0.11209912448629232)
(0.174847694702267076 0.0421821903503773604 0.109815594964183444)
(0.205726365438493486 0.0505333651005590717 0.118959643768092718)
(0.155834345137258273 0.0327618583137490663 0.078673902148273106)
(0.163695007758198285 0.0427929303721085869 0.0868945485333272316)
(0.155387831839223667 0.0337724570890962153 0.0852488169897409331)
(0.178085944013481517 0.0386344470428029649 0.0910361052069021404)
(0.136797456214595881 0.0272754615832186097 0.0615739551008151406)
(0.144341818023249996 0.0351989826322980509 0.0679957679626840977)
(0.137799358863387206 0.0280973521618551048 0.0668214413366067655)
(0.154841254710858911 0.0311216544444451043 0.0706245443868655093)
(0.119808367854046527 0.0234257755062824251 0.048590467071570595)
(0.126931283336695844 0.0299228276190590808 0.0536152070622437013)
(0.121792782851111628 0.0240939224267511555 0.0527738003996863769)
(0.134768180217827882 0.0260682932366893688 0.0553634552941304967)
(0.104417126142403505 0.0206309436303271712 0.0386244436651229234)
(0.111123314984641883 0.0261196820821873663 0.04255755029857302)
(0.107092997403052573 0.0211754800643623453 0.0419495735240479825)
(0.117056750922463787 0.0225051296276411045 0.0437569916616055224)
(0.0902879348814408372 0.018554041236122424 0.0309341613399403484)
(0.0966207811353795021 0.023306978179909614 0.0340083865363785542)
(0.0934651089683888048 0.0189977939596390998 0.0335646610831141501)
(0.101152809311063893 0.0199155594412406822 0.0348505625207039885)
(0.0771632140899888991 0.0169847179559235867 0.0249922133668897227)
(0.083177840632024172 0.0211884692437920782 0.0273852505174705212)
(0.0807149699394783537 0.0173450232166898095 0.0270582222204174272)
(0.086654446833886456 0.0179934393544406573 0.0279895897603951241)
(0.064839728037137806 0.0157857531291600919 0.0204144495611017912)
(0.0705898345791791254 0.0195714771773049037 0.0222610952417905024)
(0.0686794364470060953 0.016075406864446036 0.0220172267552718424)
(0.0732553686499102796 0.0165437229075982711 0.0227055156306079954)
(0.0531526974816074679 0.014867852517195284 0.0169188989455281887)
(0.0586858571193559428 0.018328810114366538 0.0183207478513794653)
(0.0572204292171307957 0.0150944417151419041 0.0181358572014755047)
(0.0607153571190533967 0.0154396012281034743 0.0186569879532834104)
(0.0419637840050785318 0.0141746572461028553 0.0142983221049733638)