/*--------------------------------*- C++ -*----------------------------------*\
| =========                 |                                                 |
| \\      /  F ield         | OpenFOAM: The Open Source CFD Toolbox           |
|  \\    /   O peration     | Version:  2206                                  |
|   \\  /    A nd           | Website:  www.openfoam.com                      |
|    \\/     M anipulation  |                                                 |
\*---------------------------------------------------------------------------*/
FoamFile
{
    version     2.0;
    format      ascii;
    arch        "LSB;label=32;scalar=64";
    class       volVectorField;
    location    "0.600000000000000311";
    object      faceForces;
}
// * * * * * * * * * * * * * * * * * * * * * * * * * * * * * * * * * * * * * //

dimensions      [1 1 -2 0 0 0 0];

internalField   uniform (0 0 0);

boundaryField
{
    inlet
    {
        type            calculated;
        value           uniform (0 0 0);
    }
    outlet
    {
        type            calculated;
        value           uniform (0 0 0);
    }
    top
    {
        type            calculated;
        value           uniform (0 0 0);
    }
    bottom
    {
        type            calculated;
        value           uniform (0 0 0);
    }
    left
    {
        type            calculated;
        value           uniform (0 0 0);
    }
    symmetry
    {
        type            symmetryPlane;
    }
    interface
    {
        type            calculated;
        value           nonuniform List<vector> 
352
(
(0.46106952965432485 -4.92902857552775208e-06 -1.58312551033266276e-05)
(0.424907955355496469 2.16805255294594261e-07 -1.655067382326688e-05)
(0.389223497205731683 3.78832054401758524e-07 -1.63299737567378432e-05)
(0.354466121756873809 1.94630117288609156e-07 -1.62066235171597246e-05)
(0.321051327457294422 1.37600752266588231e-07 -1.56644051806145419e-05)
(0.289143642561979719 1.05643690288204605e-07 -1.51748133321088315e-05)
(0.258376596774514355 -1.17836471494577904e-08 -1.46546600989319162e-05)
(0.228518911042319972 -1.21803290462738561e-07 -1.41896413535926309e-05)
(0.199364040956006017 -1.41371098139493132e-07 -1.39100918602125017e-05)
(0.170918072717659714 -1.03306144737811336e-07 -1.35053149126646371e-05)
(0.143407025555791712 -3.36835004437590243e-08 -1.30173625196646263e-05)
(0.117055146836383683 3.71244533904688918e-08 -1.25705051117071181e-05)
(0.091951190748114392 1.8696860070497863e-07 -1.23425678696727496e-05)
(0.0686231179581828499 4.56470832747843971e-07 -1.20765735632239602e-05)
(0.0480637766442724157 1.09169586658755467e-07 -1.20556535655251304e-05)
(0.0337902514887315347 -1.32935139539370738e-06 -1.2154769168100686e-05)
(0.504557429713859973 -2.9069967005932989e-06 -1.04863277506395378e-05)
(0.4677645006489069 4.06033160095259196e-07 -1.13275064610843882e-05)
(0.43113275472449275 6.23664943663506899e-07 -1.116982930255064e-05)
(0.394724817803323358 6.60154293039558292e-07 -1.12333070145296564e-05)
(0.358974311368456533 7.31230730129628087e-07 -1.08058169853364068e-05)
(0.324573070550289777 8.49190227615718492e-07 -1.06092699723712301e-05)
(0.291072335666362925 9.21484508642012551e-07 -1.04108448512171112e-05)
(0.258451855213779835 9.49340969072073316e-07 -1.01821286540429652e-05)
(0.226704983733758053 9.6541421697372939e-07 -9.93432508582620711e-06)
(0.195886654829278528 9.75886049599148279e-07 -9.69338269835703533e-06)
(0.166147124908352595 1.00703194166243989e-06 -9.47000776112420092e-06)
(0.137724189416994214 1.01710564905492567e-06 -9.22495609463199665e-06)
(0.110986332433568202 1.03283450833700658e-06 -9.0160888682851382e-06)
(0.0863419965461015432 1.13673384877248094e-06 -9.0665173265281622e-06)
(0.064347601325321524 1.117758448164916e-06 -9.0295169250222363e-06)
(0.0469305359143865342 -1.0865946340051346e-07 -8.82371094548506115e-06)
(0.524725736657072561 -2.83733302246322206e-06 -8.468526957894918e-06)
(0.487880788041125169 5.26879231009374359e-07 -9.21781967509048215e-06)
(0.450895478141051187 9.81755029970725054e-07 -9.19931285914669373e-06)
(0.413952361668830648 1.14559935007743561e-06 -9.11437859985302604e-06)
(0.377543993694314073 1.28810953232927988e-06 -8.93273987047565478e-06)
(0.342104223003439289 1.3862319033238916e-06 -8.75668679830571719e-06)
(0.307502622218917609 1.46176828354067549e-06 -8.62464432258957477e-06)
(0.273696082158825849 1.5015037651843124e-06 -8.46218991663257385e-06)
(0.240789152653437338 1.52076946990636508e-06 -8.29576165087336536e-06)
(0.208887028306122602 1.53454373935153269e-06 -8.14383208631201262e-06)
(0.178144643850513956 1.56141658124139158e-06 -8.01453787189105064e-06)
(0.148816261450486154 1.55943852526677783e-06 -7.87074693545275815e-06)
(0.121272118515138638 1.54315315639266394e-06 -7.72947085121990129e-06)
(0.0958903772475718508 1.50701970537387351e-06 -7.66312921227731778e-06)
(0.0730607876982026783 1.57564033510663837e-06 -7.69452051080565523e-06)
(0.0541093822677474814 3.32665706811430314e-07 -7.65506605454466557e-06)
(0.532636205535311991 -1.88143517627482282e-06 -5.20176272112028173e-06)
(0.495614591262824589 6.27922021211977406e-07 -6.09692554322597572e-06)
(0.458538533301852902 1.0795775497652951e-06 -5.9811163875880099e-06)
(0.42174180438682235 1.31846297999488024e-06 -5.87487250271823635e-06)
(0.385447119044334263 1.53698761844357341e-06 -5.87149501925187484e-06)
(0.349765353780360888 1.69614101403776016e-06 -5.85280252150620323e-06)
(0.314798567629169856 1.80686832641061436e-06 -5.78841192980478284e-06)
(0.280655640619082769 1.8740430105249649e-06 -5.71664619710934624e-06)
(0.247434529992571844 1.91483426430051719e-06 -5.65147417336211022e-06)
(0.215246859824683334 1.93896109541585463e-06 -5.59372925202473943e-06)
(0.184230465635818047 1.94438607750052931e-06 -5.55097108079547067e-06)
(0.154594543678966384 1.91289284253243264e-06 -5.51763109623372651e-06)
(0.126664463098921987 1.86115376085966586e-06 -5.47794785093382951e-06)
(0.100850143461723718 1.74449201953756432e-06 -5.45674991779405221e-06)
(0.0775411418649618045 1.84497581265689422e-06 -5.5709475232681681e-06)
(0.0577983201792948501 7.43950404100167758e-07 -5.47183030752304687e-06)
(0.536898098824332148 -1.49520969998171037e-06 -4.2415635210276949e-06)
(0.500004136297531265 6.72391321984875571e-07 -4.71451183624649218e-06)
(0.463004387541079199 1.13346717959153444e-06 -4.74282403258837754e-06)
(0.426264417711490762 1.44851610945199761e-06 -4.73382291756127147e-06)
(0.390000138910310601 1.71128621481633435e-06 -4.73023060367929098e-06)
(0.354286642815079933 1.89816813964529811e-06 -4.72759386907905269e-06)
(0.319227939155934171 2.03271532417047865e-06 -4.70046822426369329e-06)
(0.284973968090950935 2.13670956785304846e-06 -4.66322696582131361e-06)
(0.251639465428470099 2.1939362480473221e-06 -4.63262640898049865e-06)
(0.219340467787224519 2.21337002247259076e-06 -4.60902677004671192e-06)
(0.188223600915321143 2.19368563004062119e-06 -4.58115403448580747e-06)
(0.15842160507062461 2.14003056017673655e-06 -4.56088087664393171e-06)
(0.130282394800416784 2.04527614443411073e-06 -4.51239259681255873e-06)
(0.104279074600868882 1.88247167617977188e-06 -4.50301833228650797e-06)
(0.0807409625282513033 1.94068050870147661e-06 -4.59910225701545557e-06)
(0.0605818618481061347 1.02310561810399981e-06 -4.59382641971617756e-06)
(0.538777031244094151 -1.12796297268630038e-06 -2.28848162828586646e-06)
(0.501949012429307118 7.3029677340301665e-07 -2.96362812645142753e-06)
(0.464936686280892908 1.19996439551563942e-06 -2.97560601847557338e-06)
(0.428202631013610557 1.49328797995361963e-06 -2.92136758624726971e-06)
(0.391993050379555064 1.78832564451552898e-06 -2.90464684738145653e-06)
(0.35633637153374742 2.00075311454355156e-06 -2.90770645838789794e-06)
(0.321314463432139485 2.15369781803936389e-06 -2.90671645659203668e-06)
(0.287077289884515419 2.26885761430985162e-06 -2.90163526580339403e-06)
(0.253762745099490372 2.34668200582812014e-06 -2.89952157944704914e-06)
(0.221490681748598678 2.36271114159362432e-06 -2.9017795874147019e-06)
(0.190421014396099597 2.30261631675529852e-06 -2.87619960971609674e-06)
(0.160537686969461552 2.24654337585384723e-06 -2.88068897395208063e-06)
(0.132322672869181812 2.08971445705722757e-06 -2.81278659138224326e-06)
(0.106370399312768329 1.91442353338809013e-06 -2.80884505521633536e-06)
(0.0828611351566214405 1.91624571307990621e-06 -2.86993476777055715e-06)
(0.0626837132614356668 1.00002767888833892e-06 -2.84328099904842842e-06)
(0.540047569713295372 -1.00399819783907016e-06 -1.3693088332899465e-06)
(0.503155435008460494 7.97638178452428351e-07 -1.76872148118587968e-06)
(0.466152306079411993 1.26755993250714919e-06 -1.76765956541109579e-06)
(0.429519167128071644 1.59814830343182268e-06 -1.75270525829029405e-06)
(0.393413748133002505 1.85681820605841915e-06 -1.76556430234561843e-06)
(0.357830939417277116 2.08635005063148711e-06 -1.78526850584855282e-06)
(0.322863430336511603 2.26134223140460587e-06 -1.79778175391396332e-06)
(0.288684463852058204 2.37963158368720244e-06 -1.80656580416324044e-06)
(0.255449334048278964 2.43525324712077009e-06 -1.81904382577248846e-06)
(0.223324849363510297 2.40146801114904678e-06 -1.82159093156995988e-06)
(0.192016487350092441 2.40072857033872152e-06 -1.84540764385755334e-06)
(0.161907251306262712 2.23190094151026588e-06 -1.7563305479539865e-06)
(0.13382694623802352 2.13345624566770927e-06 -1.72515171368817031e-06)
(0.107868861393567703 1.96088728007922697e-06 -1.71233184800789351e-06)
(0.0844115400361244855 1.96400598713344493e-06 -1.72086911126020808e-06)
(0.0642877557851724291 1.04276994391726163e-06 -1.68268816899643544e-06)
(0.540514900327117465 -7.7043576465462242e-07 -4.3955697820752958e-07)
(0.503577389522833596 8.39155963968108867e-07 -5.61773202313542747e-07)
(0.466559516369539018 1.33180369806962036e-06 -5.58907512806073922e-07)
(0.429972386518961913 1.67878983464972477e-06 -5.57304204158734554e-07)
(0.393925217218634383 1.9338760509659394e-06 -5.6326369073317877e-07)
(0.358397200902315416 2.1163654591200156e-06 -5.71865085105622001e-07)
(0.323469536836796079 2.29011404947575208e-06 -5.79284793188126235e-07)
(0.289333203446941911 2.39765048286038397e-06 -5.85328511000039611e-07)
(0.256156609784354616 2.41839366984261844e-06 -5.93245002668869913e-07)
(0.223997229837351847 2.40213323183962924e-06 -5.94890905325709423e-07)
(0.192565868022334358 2.3898456881569947e-06 -5.89846440468857149e-07)
(0.162418107866024009 2.22457473166798731e-06 -5.56626762727415466e-07)
(0.134362200060471171 2.16231746156470602e-06 -5.50103415013625408e-07)
(0.108332570281183163 2.02967931389518301e-06 -5.40695717681904819e-07)
(0.0847783930820616705 2.08484955096782947e-06 -5.31893145177941036e-07)
(0.064474469043409241 1.1875753833477276e-06 -4.81916951796690888e-07)
(2.24435982906186382e-05 1.19783064502662704e-05 0.127215156777606586)
(2.15473152477064004e-05 -8.10681202768544886e-07 0.0914666836014591811)
(2.08870747243846407e-05 -2.31962191841822409e-06 0.0617611671170317442)
(1.98942107190296407e-05 -3.68710890563888417e-06 0.0376686044866256162)
(1.7821581819704761e-05 -5.42971182163572732e-06 0.0202729067324920603)
(1.45829033964576678e-05 -7.24135449925744808e-06 0.00939522210750441851)
(1.12379705445323413e-05 -8.7811858119441912e-06 0.00380815252557208323)
(8.83484209222366361e-06 -9.824335607090886e-06 0.00283925668412339603)
(5.30381361525254021e-06 -9.00697479797565942e-06 0.00467684059652570885)
(3.99950801585219345e-06 -7.66342328886789617e-06 0.00510717864039892701)
(2.87855440944510984e-06 -6.09023061305871773e-06 0.00284395508426802963)
(1.81233371325789125e-06 -5.03001523007947762e-06 -0.000966130403830110459)
(1.110537222382783e-06 -3.89419357695949469e-06 -0.00573445952064139969)
(2.00119736227092768e-06 -3.32881416185719969e-06 -0.0147599596301714597)
(4.19372810843125166e-06 -4.5574660643905073e-06 -0.0325360510156238528)
(5.95463385017715217e-06 -6.50140421469709918e-06 -0.0408954457886900324)
(1.73294345119310569e-05 7.08109591638727094e-06 0.162028367650749766)
(1.60672841596433936e-05 -3.022831585614e-06 0.129303430131667868)
(1.47003715358730238e-05 -5.85225250290244048e-06 0.0978553429370297295)
(1.2436029561210968e-05 -9.08733290255573952e-06 0.0654365448930076254)
(6.84445145233195977e-06 -8.58300764334794558e-06 0.0375511139502394883)
(2.45321672796370441e-06 -5.52281651308221467e-06 0.020885688999598355)
(3.33807999299569656e-07 -2.1858869132766045e-06 0.0143174552104941965)
(-4.67717525984858367e-07 -1.89611648558614015e-06 0.0109413170944858505)
(-4.24313353604400683e-07 -4.70340499562598726e-07 0.00841689981797685144)
(-3.84053573680742425e-07 -2.4618322299998739e-07 0.00676621398000106736)
(-3.14936204048598655e-07 -1.69323524803045555e-07 0.00497448709487255045)
(-2.94933737005538019e-07 -1.43413312540111891e-07 0.00296088311984518031)
(-3.54376803804486877e-07 -1.10712363332902754e-07 0.000338981141211788383)
(-3.02137764716452515e-07 1.20595481028254452e-07 -0.00369825737737813562)
(1.13866435582370669e-06 -1.80179970541039036e-06 -0.0140622071140334946)
(3.85395966832154947e-06 -6.92097845341855368e-06 -0.0282777563134894057)
(1.51388003202942941e-05 1.90207650636126556e-06 0.196464725324985601)
(1.28557933240665663e-05 -4.98136636182065689e-06 0.157407648966243263)
(1.0713630346144558e-05 -8.11983658178353617e-06 0.113938468926706296)
(6.91458810504236455e-06 -7.12727421781596155e-06 0.0732355345982982492)
(4.2307662111289715e-06 -4.63613207558989741e-06 0.0455461063080286749)
(1.03551298188540465e-06 -1.1889890479670979e-06 0.0312779150852230819)
(3.53606094669276539e-07 -1.02242827478502147e-06 0.0239466284714563715)
(3.52856292249575909e-08 -7.83449103330222272e-07 0.0180277523055489379)
(1.53998525818403059e-09 -5.42865573216477453e-07 0.013027814440941813)
(9.44912835680010573e-09 -3.79559283396081221e-07 0.00915600975671750951)
(2.72740530595471907e-08 -3.25352641918589268e-07 0.00614880303178871965)
(7.22584772140760837e-08 -3.19050188976995418e-07 0.00375113655691032815)
(1.97188902519129733e-07 -4.13755820328506904e-07 0.0012144943496284566)
(3.43951184016181042e-07 -7.6699241812147114e-07 -0.0030863586450339325)
(5.09642683701625443e-07 -1.51786964750345798e-06 -0.0109196005864634713)
(3.47052034946119851e-06 -1.07775472657381998e-05 -0.0219745101048367912)
(1.76646790394488075e-05 -2.18483965465719241e-06 0.155937798903125507)
(1.64518260039751884e-05 -6.50438268901802669e-06 0.116364288549045153)
(1.516475788908599e-05 -7.23826248792328432e-06 0.0795947935730813849)
(1.08342220184372939e-05 -4.58875653335307191e-06 0.0523808033922479321)
(3.63790577470236641e-06 -1.64027197468899415e-06 0.0370671131776107929)
(2.9216747878641926e-06 -2.03902778788489742e-06 0.0274038804644407205)
(6.38990673728587446e-07 -6.83871424249960719e-07 0.0211146390505454334)
(3.3605539718913466e-07 -4.8693622859372877e-07 0.0171460604731138756)
(2.0493524198264843e-07 -3.16752296427398311e-07 0.0132494541778782737)
(1.00086167745783245e-07 -2.11381556175046913e-07 0.00960327625595606277)
(5.08087528012705519e-08 -1.08631213090495578e-07 0.00679875532522547597)
(1.78389935887960435e-08 -1.36418821273834275e-07 0.00496753953266052678)
(6.06379139266113722e-09 -2.46870694337972038e-07 0.00332702454461647219)
(1.19373758885395589e-07 -8.62823538587605459e-07 5.8973378210162403e-06)
(3.51573442715668311e-07 -1.79012951527141989e-06 -0.00621872777105225531)
(8.94648472533166738e-07 -3.31793484948879023e-06 -0.0107777065297667632)
(-0.012984182595037785 7.50516621086075465e-06 1.92153576161622935e-06)
(-0.00033038705047989497 -6.86463332214411128e-07 9.6980983605082612e-07)
(-0.00107444908853188397 -3.20259303827132964e-06 2.06096622574245321e-06)
(0.00099764062897997937 -8.07301816148309652e-08 5.13690048682110701e-08)
(0.00107995050016161122 -1.12080395565238028e-07 8.42228530756941947e-08)
(0.000417907037959643372 -1.0127553454759337e-07 7.77875048367774385e-08)
(-0.00080667139672705411 -5.42440768775843043e-08 4.16895138808107468e-08)
(-0.00179787199370835338 -3.3813622603140338e-08 2.4359964898862466e-08)
(-0.00236819762632584129 -6.11622340632821959e-09 4.39087643124438741e-09)
(-0.00247083248403370988 -7.45777951957962536e-09 4.71950327476759399e-09)
(-0.00235258258127506691 -9.25142246907401342e-09 3.72685508036554486e-09)
(-0.00221514295448595753 -7.14223642120922071e-09 -5.3312110123333669e-10)
(-0.00215995602797303121 8.39454889705120057e-09 -1.46816428425936128e-09)
(-0.00211868878924664772 2.38356832496274659e-08 -1.99356241717915628e-08)
(-0.00166143122232184203 -3.96015680171425315e-08 -5.06858306909228958e-08)
(0.000413935299315191976 -6.68869079939743907e-07 -3.55064862234337765e-07)
(-0.0106191583494179651 -1.76615009151219302e-06 1.7003651980152896e-06)
(-0.00282812821076835249 -5.58538172591706707e-08 -5.454511756824056e-08)
(-0.00288403447090427234 -1.75367929190082154e-08 -3.50177092385537663e-08)
(-0.00290260506574699026 -1.2788396752879601e-08 -1.12453348181859992e-08)
(-0.00288559978067221088 -7.47887949351211968e-09 6.88709467453678763e-10)
(-0.00275253406955102949 -6.08335266911589963e-09 1.26681943107078998e-09)
(-0.00258552196777255602 -8.43518029488824252e-09 7.63830049707761591e-10)
(-0.00250838043194146279 -1.18949297332761632e-08 -7.41938932454243403e-09)
(-0.00252259812875104024 1.09206915068411752e-09 -2.12684211787159224e-08)
(-0.00251784985885712253 7.15965290597957396e-09 -1.66893823173719236e-08)
(-0.00246078792907759294 1.12923483808998484e-08 -1.52109937053185424e-08)
(-0.00237843379792930304 1.00861473462363612e-08 -1.47959865541607851e-08)
(-0.00231241618526501283 1.06898261950361745e-08 -1.42525767431779307e-08)
(-0.00226990702406698391 1.71003982992781762e-08 -1.55099084805942173e-08)
(-0.00215310578798297726 1.33648337885633885e-08 -5.84474903409990098e-09)
(-0.000861007024813126602 -3.81026890616353807e-07 -1.50401984221216227e-07)
(-0.00484768411498690942 -2.98676039611594425e-07 4.25585621756231636e-07)
(-0.00332325247167239608 2.85625698458619207e-09 6.65845652417028837e-08)
(-0.00304080138126297007 4.56115097282582443e-09 -1.19559788052696777e-08)
(-0.00297460096690587827 1.74553847232498194e-09 -1.8427456953976111e-08)
(-0.00292441269339184517 -4.84237506262885102e-09 -1.24498872981342588e-08)
(-0.00285453253848188095 -1.77541034918447693e-09 -1.36988678455087062e-08)
(-0.00278489781178970853 4.71053397337425498e-09 -1.71083795705996108e-08)
(-0.00271549196555091743 8.99893722059755979e-09 -1.76812666072633078e-08)
(-0.00264039262800785457 1.06404511575273853e-08 -1.51911102258731596e-08)
(-0.00258010226639000632 1.11160671807519687e-08 -1.34852700810741288e-08)
(-0.00252005897477507309 1.19377611643984731e-08 -1.27184842218628177e-08)
(-0.00245471513515890458 1.07767491839011534e-08 -1.27807910154772656e-08)
(-0.00239442546514003407 9.58577723718023897e-09 -1.19900718367408381e-08)
(-0.00236324384428816944 1.32037232044222959e-08 -1.31757855176755108e-08)
(-0.0022886754573120411 1.14675371270705611e-08 -2.35010491867420771e-09)
(-0.00145277360981090238 -2.26928643714514281e-07 -7.85282261886306369e-08)
(-0.0044433502626078725 -2.88729556156809829e-07 6.21852802779975598e-07)
(-0.00342726006844335353 1.89978043506128999e-08 1.48346628904611069e-07)
(-0.00312030072169509638 7.46323831100458116e-09 5.37342359211908774e-09)
(-0.00301742188074704404 6.8574759313063668e-09 -9.37999663132774105e-09)
(-0.00296490125732932434 2.24903675819023425e-09 -1.03773443611990467e-08)
(-0.00291074356024839231 4.05545168075761982e-09 -1.13048566936457987e-08)
(-0.00284855151562783161 7.08605904028837305e-09 -1.1189433811601464e-08)
(-0.00278162387383470641 9.12629152778350825e-09 -1.08371497691883968e-08)
(-0.00271556764121216355 1.01156548985158761e-08 -1.10007959178963055e-08)
(-0.00265448788320137019 1.07166562160806812e-08 -1.12074941174650809e-08)
(-0.00259715293107211321 1.12922729999417157e-08 -1.14715803043830203e-08)
(-0.00254161735317862732 1.08536626673346847e-08 -1.1917271291325556e-08)
(-0.00248524739202798028 8.81892081159166308e-09 -1.18357099671877331e-08)
(-0.00245180184517128016 1.26894277718977491e-08 -1.23250146125780778e-08)
(-0.00237817315011476732 8.65321191555092555e-09 -1.11318776277374805e-09)
(-0.00159486522523260513 -2.2228567506262752e-07 -5.2426054228115442e-08)
(-0.00466545870255905687 -3.34612620316346773e-07 8.20404890622412374e-07)
(-0.00349078173448419751 3.24843773810625464e-08 2.44339823834622243e-07)
(-0.0031664248269874227 9.50584539957767921e-09 9.92068549016634185e-09)
(-0.00307938132582291548 8.51384305749258522e-09 -4.5947422307081576e-09)
(-0.00302202769934173084 6.5475485555380852e-09 -1.00840770679083627e-08)
(-0.00296616548569959533 6.6529802999959704e-09 -1.15266940339139531e-08)
(-0.00290318548460785858 8.0634501709233131e-09 -1.14865884868288478e-08)
(-0.00283797127543028134 9.43391669332042744e-09 -1.13677083183159287e-08)
(-0.00277489133079174494 1.04663039636087847e-08 -1.11959296519184764e-08)
(-0.00271574187647426104 1.11618251198620539e-08 -1.09036183775634128e-08)
(-0.00266195613991980625 1.16464827401733405e-08 -1.06410416022017306e-08)
(-0.00261204196097993132 1.11932768937603288e-08 -1.05017048743800696e-08)
(-0.00256109850916394922 8.72812821024632096e-09 -1.04177374833377089e-08)
(-0.00253574007473706536 1.3630251926617497e-08 -8.89676824077244782e-09)
(-0.00247274691529511407 8.80613305721875869e-09 -1.92313445782095457e-09)
(-0.00163030933788777216 -2.12551104101277759e-07 -6.89940043693470526e-08)
(-0.00463575230884624104 -2.82943325927254017e-07 8.8284656980406719e-07)
(-0.00348319357427846407 2.18994625264255783e-08 1.6799679459303806e-07)
(-0.00321197406105540404 1.54534106423531012e-08 1.89738554776476313e-08)
(-0.00311261141376702926 1.34803008959974688e-08 -2.69656310886165652e-10)
(-0.00304946769525045675 1.14483461686837383e-08 -9.87452886062189104e-09)
(-0.00299956033463267885 1.02839926286737086e-08 -1.32130232669087336e-08)
(-0.00294190019434414614 1.08586445312562311e-08 -1.32155364042439826e-08)
(-0.00287900372315624429 1.21361696916644627e-08 -1.29091286447636246e-08)
(-0.00281872221664950353 1.31759517852300511e-08 -1.24594437847139836e-08)
(-0.00276214510203173867 1.37148343015746351e-08 -1.1869419303841569e-08)
(-0.00270910055931031755 1.41127302502788968e-08 -1.11896220804445403e-08)
(-0.00265720107863749635 1.30778880122084004e-08 -1.08638817149456921e-08)
(-0.00260682372869384558 1.12729870257763527e-08 -1.04792657032931063e-08)
(-0.00257502168470124344 1.69654552763647215e-08 -6.5311014935244513e-09)
(-0.00247362446874527936 1.44531785503683124e-08 -9.84901181556816845e-10)
(-0.0015036838788158426 -2.10600076541086054e-07 -4.34408174845662174e-08)
(-0.00493943031996210962 -8.47595247857953568e-08 5.24865725664593715e-07)
(-0.00379573388066023563 6.06850187101608168e-08 1.71921106805007363e-07)
(-0.0033379803074190229 4.39149072408075957e-08 1.51349576384721133e-08)
(-0.00317038547998744384 2.9381278993935856e-08 -8.9435653165634159e-09)
(-0.00310729745748821113 2.378737389563625e-08 -1.53622255358111993e-08)
(-0.00306308223014412247 2.29064520752949146e-08 -1.9162853656654997e-08)
(-0.00300287120081424224 2.40705642643630733e-08 -2.08254644809081921e-08)
(-0.00293704011997803155 2.16096041653021878e-08 -1.7543897415052942e-08)
(-0.00287752700825565739 1.91614844645574838e-08 -1.44821392055756622e-08)
(-0.00282184820407630496 1.86846561849314868e-08 -1.35067628373813377e-08)
(-0.00276394311651581397 1.74953372429949693e-08 -1.31288352255114909e-08)
(-0.00269954492169282223 1.49799293767721065e-08 -1.32531947132328323e-08)
(-0.00263916812117591338 1.67339603729326586e-08 -1.23719837662458211e-08)
(-0.00255288013296629335 2.12709785375628842e-08 -3.64331882431451152e-09)
(-0.00227031089522652897 3.32273025575606889e-08 1.78373547537654015e-09)
(-0.00120500646118967109 -3.19987737686992522e-07 -2.11887448374625964e-08)
(-0.00553499676720894777 -8.27812597632820535e-09 1.1011071668483723e-07)
(-0.00472396659992526703 1.50369532422417222e-07 1.57358790581223426e-07)
(-0.00387909576469826125 1.85569666984949333e-07 6.99557774369521826e-08)
(-0.00348967635526522147 6.63098229351371114e-08 1.19822421524767786e-08)
(-0.00336315305717677787 4.69354339397910013e-08 3.3782136338425905e-09)
(-0.00328198770338013462 3.79187990951045441e-08 -8.02259642980324228e-10)
(-0.00318829704990704951 3.84210424355001342e-08 -3.75510428834773141e-09)
(-0.00308840916107772957 3.2094951141445944e-08 -4.9347317447867915e-09)
(-0.00299709066917696948 2.92125761615569221e-08 -5.37516250753868737e-09)
(-0.0029255873847634159 2.64208634260316865e-08 -5.64830326835427032e-09)
(-0.00286817882134731209 2.09907713161492794e-08 -5.90986499159140099e-09)
(-0.00282264103530660993 1.87593102554242103e-08 -5.15916004129406944e-09)
(-0.00280655525850979611 1.18786792492094961e-08 -6.44593888053339186e-09)
(-0.00278398804028930731 1.2548334123190814e-08 2.83386688552630311e-09)
(-0.00170263432455107413 -1.09872308663577507e-07 1.08003546560651501e-08)
(0.00114740348721804864 -1.13942745659828533e-06 -2.54086442786864046e-08)
(6.17929362836899766e-06 -0.163756443932189188 -1.20042192716219648e-05)
(5.2291624292681857e-06 -0.189698635842297181 -9.69059918565565679e-06)
(4.82790226544763662e-06 -0.203671889582015597 -7.83598986595004655e-06)
(5.15265830813871497e-06 -0.209122233334046781 -6.17339661048582023e-06)
(5.1441869241530252e-06 -0.213341930793347484 -5.28784937972460543e-06)
(4.97166491092300773e-06 -0.21762469111660443 -3.49850888217055588e-06)
(5.39026363095935743e-06 -0.222127386161535739 -1.99677282843688498e-06)
(4.97009566473757385e-06 -0.222981611728948287 -5.40626309679463886e-07)
(1.64139759248703528e-06 -0.153070244167126418 -1.08303072666516362e-05)
(8.87267087443806193e-07 -0.186060388931474946 -8.93455356152323043e-06)
(6.52455679314434991e-07 -0.207597893669826061 -6.88932455369090176e-06)
(7.76843825394780105e-07 -0.217460435394429219 -5.51228965238321876e-06)
(9.73407575119394082e-07 -0.220328179803287505 -4.75391786928119444e-06)
(6.16118083934537666e-07 -0.220167346336862024 -3.19189900646966736e-06)
(-1.79836945317388681e-07 -0.227706811348073329 -2.15113061678365935e-06)
(-4.29370027846842555e-07 -0.24492307711786554 -8.0798921917965145e-07)
(4.82837096111673154e-06 -0.0986609763592078831 -7.79917237021290189e-06)
(7.71813780291858475e-06 -0.136672392153532579 -6.65324872038483821e-06)
(8.17166523470354888e-06 -0.1540764398525378 -5.2146183096986144e-06)
(8.13897472217113275e-06 -0.15977072785514207 -3.83259696522029998e-06)
(8.12549198256967486e-06 -0.158743530252032389 -3.26016587179284963e-06)
(8.09702705747548442e-06 -0.157711020611007086 -2.76826866673332457e-06)
(8.33451802505681902e-06 -0.172752268585408458 -2.32379460766852426e-06)
(8.04126215199450055e-06 -0.196992868494538842 -8.02272783319409435e-07)
(1.59952211222625018e-06 -0.0430974662890113644 -1.45257433319898417e-06)
(1.93325874882019307e-06 -0.0568603803529527246 -9.0375813188726075e-07)
(2.18549140298042329e-06 -0.0635859060559119948 -6.39054521799799356e-07)
(2.79808613434437336e-06 -0.0665792888010117156 -5.90037677662935576e-07)
(2.72951816810102702e-06 -0.0665790549945161625 -6.24702687399405504e-07)
(2.39395177201528369e-06 -0.0677909960845426846 -6.1498191110047374e-07)
(2.45721375541348928e-06 -0.0747332839716517566 -4.64305449212280765e-07)
(4.25568769444548026e-06 -0.087576126457549433 -2.96580142606472902e-07)
)
;
    }
}


// ************************************************************************* //
