/*--------------------------------*- C++ -*----------------------------------*\
| =========                 |                                                 |
| \\      /  F ield         | OpenFOAM: The Open Source CFD Toolbox           |
|  \\    /   O peration     | Version:  2206                                  |
|   \\  /    A nd           | Website:  www.openfoam.com                      |
|    \\/     M anipulation  |                                                 |
\*---------------------------------------------------------------------------*/
FoamFile
{
    version     2.0;
    format      ascii;
    arch        "LSB;label=32;scalar=64";
    class       volVectorField;
    location    "0.600000000000000311";
    object      U;
}
// * * * * * * * * * * * * * * * * * * * * * * * * * * * * * * * * * * * * * //

dimensions      [0 1 -1 0 0 0 0];

internalField   nonuniform List<vector> 
29184
(
(0.0131195714649086845 -0.00547687634202834953 -0.031391833644159893)
(0.0515805837381814458 -0.011215313999547713 -0.0356500601264137101)
(0.10003484431971825 -0.0132010750662073847 -0.0380726905430188375)
(0.160457684971358011 -0.0137205826455353928 -0.0419044860573680664)
(0.212041646412079371 -0.0122682155641153454 -0.0474458614755682156)
(0.254022221748480048 -0.0100197543061773062 -0.0553623937423000506)
(0.289678203643591925 -0.00799015132181204492 -0.0662769599759872596)
(0.31900685841541937 -0.00634982184734730892 -0.0817090575598949098)
(0.342214073323224288 -0.00482752202913953529 -0.10169419071263458)
(0.358855491542189708 -0.00364808256942829139 -0.129384206262822599)
(0.370236295467112453 -0.002571485852772986 -0.163340929458400175)
(0.376153353987524086 -0.00254324359162506376 -0.212060172726611068)
(0.379718348164305164 -0.00265469566974241419 -0.267469792155766717)
(0.376424423981611578 -0.00494141523353850212 -0.36566193610144071)
(0.378850241509429919 -0.00813828170820527809 -0.464794339157674874)
(0.189825728231803798 -1.22582546554874695e-05 -0.836451326206144152)
(0.0158612477021132098 -0.0196926480490854164 -0.031744531965306487)
(0.0564953501532881389 -0.035077937324661114 -0.0349545569117747298)
(0.106639830162398933 -0.0379839911459446955 -0.037520769467145311)
(0.155717297781516745 -0.0364877657567645661 -0.0410814954288553566)
(0.200513466647391947 -0.0320502489031496002 -0.0464302670442258703)
(0.241117589402686655 -0.026904475098814027 -0.0542110859410253956)
(0.277260195077203286 -0.0223936188791022742 -0.0651799143167483275)
(0.308143822573192172 -0.0184621849684567831 -0.0802325993580553093)
(0.333299961266807332 -0.0146734258680154602 -0.100358524556655559)
(0.352513076891630917 -0.011491019572690532 -0.126962298522851652)
(0.36607493575715544 -0.00894875884741016051 -0.161479763101949669)
(0.374411980499302299 -0.00869163942159205394 -0.207537270193803886)
(0.379157532969756239 -0.00998430816661095323 -0.266233888985596689)
(0.37461464157667429 -0.0151335263622823547 -0.358004912437589917)
(0.378729801983868852 -0.028766359551052955 -0.468473228579255219)
(0.191315815018731183 -0.00111153140980423332 -0.857206004199121296)
(0.0187853525656154763 -0.037140479401113799 -0.0318652771021532)
(0.0619160601487915158 -0.0577984102859088467 -0.0355458475798943532)
(0.11037297772010797 -0.0608379155453150564 -0.0381420515435267338)
(0.158175906942566974 -0.0575121609196544287 -0.0415532873265050326)
(0.202470542908260526 -0.0514913554419218419 -0.0467220259492284046)
(0.242837939449671913 -0.0447339543175513318 -0.0543665667190176422)
(0.278977928458591651 -0.0381596766844563354 -0.0652311253114494782)
(0.31008449964876017 -0.0317941030115540188 -0.0802110691097394218)
(0.335411671255947397 -0.0255715000370843812 -0.100305937001154741)
(0.354526122638024022 -0.0200584842771645219 -0.126911868222702839)
(0.367436045215844054 -0.016006911458215884 -0.16145755825184771)
(0.374794609565907766 -0.0149096529507997105 -0.207407182173838578)
(0.377633000220405468 -0.0178179376777721291 -0.266105604752809144)
(0.371853459256155428 -0.023959743834596009 -0.356189916512178628)
(0.373085576377184813 -0.048757418487938263 -0.466940418338877394)
(0.173591829808346199 -0.0054755155656223773 -0.845890649119750315)
(0.0210127451753600765 -0.0566487982284862024 -0.0320932176805882458)
(0.0661864403018053021 -0.080499399549983891 -0.0360834199815103021)
(0.113879698715845454 -0.0837464154241595177 -0.0385729127340177988)
(0.160495005271418578 -0.0790675605465664122 -0.0417477466026060298)
(0.204172700839911098 -0.0713481887966031514 -0.0467082270208751815)
(0.244420962328376734 -0.0625846157690030658 -0.0542325180992306588)
(0.280737157693475348 -0.0536391313438927542 -0.0650575236811783003)
(0.312151428396209296 -0.0446919482314764097 -0.0800573766759728606)
(0.337640789248817907 -0.0358710532450107061 -0.100238197925572342)
(0.356482724634322623 -0.0278784699429475528 -0.126965155137163638)
(0.368434203366920177 -0.0219880767441476346 -0.161647176456228336)
(0.374137670977092607 -0.0199970263863007008 -0.207548512314006589)
(0.374689712688561327 -0.0239303612610677723 -0.266112162428304821)
(0.36588747467431415 -0.0325815013529798247 -0.354854693099651952)
(0.365616442269288078 -0.0632126572217353577 -0.463672530065208421)
(0.163792786939223001 -0.0123197842712824881 -0.828562211729365172)
(0.0227728985587267521 -0.0780881021356371885 -0.031840109909974379)
(0.0700064405632977865 -0.103458902103745837 -0.0357926477665605758)
(0.117516605254020023 -0.106266567976303086 -0.0381255638126915472)
(0.163429181456276135 -0.100166921979630535 -0.0412280144541714022)
(0.206822821648478261 -0.0907739074331536944 -0.0462238638466611618)
(0.247223104209549543 -0.0801378675632293674 -0.0538552290780089371)
(0.283926371485387796 -0.0689810286087425145 -0.0648133384492459858)
(0.315766688876048918 -0.057484861955769545 -0.0799597379485852272)
(0.341422139644776745 -0.0459232673647118755 -0.100319552981347732)
(0.359804213385415073 -0.035233014546055666 -0.127237331907027407)
(0.370392977090902187 -0.0272364926402366564 -0.16206825772422756)
(0.373742875436559541 -0.0242593102190018124 -0.207891135432495211)
(0.371250546963706463 -0.029069231993942686 -0.266074564164347105)
(0.35875112516623775 -0.0401033095736592071 -0.353200744581557258)
(0.355321078212999519 -0.076217980562931012 -0.459043441745008329)
(0.155032404947010594 -0.0194778620552164793 -0.814298594813668286)
(0.0247314631630143403 -0.100964156968432833 -0.0304944612786865431)
(0.074349730164126604 -0.126344783805920707 -0.0338289515425714629)
(0.12201877888893306 -0.128191709679208427 -0.0362147424849516841)
(0.167453007011104577 -0.12074668879287348 -0.0397593991819166076)
(0.210711839555824121 -0.109806595030772211 -0.0453129332971188223)
(0.251418483881929555 -0.0973588765222597741 -0.0534400041039500909)
(0.288680169605866177 -0.0839750897065869167 -0.0647525843664580464)
(0.321084816416764507 -0.069814034895067309 -0.08013540174148924)
(0.346955789579263763 -0.0552996165144608448 -0.100675364784913707)
(0.36476274779267287 -0.0416596343881841524 -0.127727000056310519)
(0.373626834795223017 -0.0312943025533676394 -0.162611443799680538)
(0.373957115567359166 -0.0272345705397738676 -0.208254632163865833)
(0.367452352149785277 -0.0327679041124807682 -0.265891730458093445)
(0.350588310717081908 -0.0461463079886777136 -0.350982403535813836)
(0.341460475031973687 -0.0867259711822960661 -0.45349681618552018)
(0.142115460847340253 -0.0260071238617341528 -0.792059686440890087)
(0.0277518417677513583 -0.125166927187803478 -0.0275988993013334613)
(0.0799547124081882721 -0.149063642187989231 -0.0302307188693095447)
(0.127645014853898758 -0.149359538764398392 -0.0332616639349204157)
(0.172507966083892239 -0.140602222662197018 -0.0378847394473802376)
(0.215635737703387287 -0.128256110454828681 -0.044489350941081772)
(0.256766645121046133 -0.114144051538545108 -0.0533970621396159875)
(0.29482011620291404 -0.0986632425004670549 -0.0651265573633450917)
(0.328085951137513709 -0.0818728649855361562 -0.0806142671852529691)
(0.354457700148536503 -0.0642577948907761959 -0.101055130983266531)
(0.371844051413058263 -0.0472889165136239908 -0.127903902189239499)
(0.37876568581423764 -0.0340703106146122078 -0.16260563383545662)
(0.375442909535948055 -0.0283725846447104545 -0.207922809045611695)
(0.363910628594690644 -0.034834510827661723 -0.265077399566368666)
(0.341696597401097812 -0.0507406696805493829 -0.348093207319512876)
(0.325847570187638158 -0.0940722592858499324 -0.446986521371184553)
(0.129161161222086485 -0.0333336588848227797 -0.765735840986030092)
(0.0320423331122461144 -0.150519456731687512 -0.0227245656331145074)
(0.0863950011908702353 -0.171196856952421567 -0.0263463133446274339)
(0.133352257455996021 -0.169527147892798935 -0.0307128754652063254)
(0.177341997415054242 -0.159637262702323035 -0.036573223660709378)
(0.220383420122623325 -0.146201457391574419 -0.0442728029201912635)
(0.262237527966296624 -0.130825088979891091 -0.0539198710107104962)
(0.301601073919548546 -0.113655374797681022 -0.0658680870716122913)
(0.33639644058263074 -0.0945328036586417647 -0.0810276260477055393)
(0.364002432909342755 -0.0738718802736210572 -0.100735496356225002)
(0.381526891384329714 -0.0531423206661391714 -0.126756895972328643)
(0.386461105598154719 -0.0359422737474582171 -0.160998502839908714)
(0.378674416439267192 -0.0279223606680574707 -0.206146536180756013)
(0.360855329013040738 -0.0344097595065871037 -0.263265349402868054)
(0.332342137616112254 -0.0531113244573930623 -0.344506924039879703)
(0.309138570217898423 -0.0988752483350550104 -0.439605895292479509)
(0.119092995841381902 -0.0403525439400577307 -0.736982973915609074)
(0.0365085361033615149 -0.176854118205599403 -0.0175983471709481032)
(0.0917094515124049353 -0.192516967731297423 -0.0243687691471824938)
(0.136843663793936893 -0.18864918956319876 -0.0299607742064829756)
(0.179831737538695691 -0.177873833849529955 -0.0362297333292571147)
(0.22320495694989384 -0.163788867689641182 -0.0445380595327659196)
(0.266512094163826152 -0.147674321667756236 -0.0546198807450405249)
(0.308156766196878318 -0.129251567635256082 -0.0664284265962427345)
(0.34555733982212844 -0.10795076571611624 -0.0806316614676347992)
(0.375512287730952188 -0.0841005231769943323 -0.0988412995400528988)
(0.393966765249801953 -0.0591193603734254877 -0.123458351871672548)
(0.396917864402734022 -0.0370926198205325172 -0.157200713632698941)
(0.383547024691928695 -0.0253710821905540791 -0.202895201459530938)
(0.357798740271501492 -0.0311098569527598033 -0.260885181924722209)
(0.322163473057794969 -0.0529928938926975401 -0.340566876183449441)
(0.291854955660220239 -0.101367257863791194 -0.432063279188395155)
(0.110140740189503622 -0.0471601626063680099 -0.708331862644888011)
(0.0391113501216929921 -0.205917903522831847 -0.0162329517592022174)
(0.0933750050036312729 -0.214974069780289628 -0.0261599533328370319)
(0.135648602745679636 -0.208904738679875163 -0.0306936460981793897)
(0.178057856045780977 -0.197600174086585145 -0.0357843038186609688)
(0.222682590046580586 -0.183591873537807704 -0.0441706020559399642)
(0.26849913511706841 -0.167480365322756813 -0.0543598549661946859)
(0.313663050275740707 -0.148336403674466433 -0.0655123760562616453)
(0.35502318278796291 -0.124725805783140797 -0.0780009219847355023)
(0.38866808312617368 -0.0961521314325568255 -0.0943003617631146263)
(0.40851804089081728 -0.0635653885166160837 -0.117807675528409248)
(0.408895500725556749 -0.0335677797310984793 -0.152092908173184799)
(0.388853392665465258 -0.0183388537887900181 -0.199428102561651832)
(0.353829568727014099 -0.0245872054663860903 -0.259222339168481697)
(0.310787899063763529 -0.050666509494168635 -0.337178128071754291)
(0.27427415086991791 -0.101617615099348621 -0.425080464437707917)
(0.101562720185352867 -0.0543519698339993695 -0.681016116584915565)
(0.0376265593765515022 -0.238462396025022061 -0.0218583592410874078)
(0.0893917142462213737 -0.241447226206324833 -0.0306848527289844616)
(0.127669099770577027 -0.233770699540084337 -0.0299795083278583951)
(0.170345859788338494 -0.222880862650213563 -0.032682310853363622)
(0.2166934126030092 -0.210406511876287394 -0.0409357781363551623)
(0.264835202303323691 -0.196134238895059154 -0.0505620495544900905)
(0.313541415784406974 -0.178474933100853911 -0.0594364820763635462)
(0.360258588089452325 -0.154748119481132623 -0.0689641830564238639)
(0.40019532335649427 -0.121997960925801299 -0.0835817268454454171)
(0.423265885767630246 -0.0779393494283157073 -0.107702284788231253)
(0.419904915012171587 -0.0294315975984940498 -0.14624798924867638)
(0.390656638256401068 -0.00290549154557531372 -0.198057361044444824)
(0.346519262638121661 -0.0128986106939227279 -0.260318380470179578)
(0.298831507602119073 -0.0470013480995322558 -0.334765156115114815)
(0.257379973798899986 -0.100448968658261806 -0.418609735466638599)
(0.0923707117960130414 -0.0615826661795473088 -0.655612431420194874)
(0.0298034384386440289 -0.268392303205244542 -0.0355940046225705839)
(0.0773041659998436187 -0.267129655121280396 -0.0361526589117910357)
(0.108299931987088427 -0.257951415884714708 -0.0247641671258397936)
(0.151487151126742076 -0.248213006001339137 -0.0243660635496493888)
(0.19658175920306209 -0.237531749944463771 -0.031035089696779615)
(0.241483553798714473 -0.225932335078294605 -0.0367305437411916402)
(0.288375824766993805 -0.210315742897706492 -0.0379465265873456248)
(0.338258922972110854 -0.18647925207708696 -0.0434744430434240228)
(0.385107383334490794 -0.152169675560098083 -0.0597077945496545942)
(0.418075146412952958 -0.105087850129359145 -0.08843841962206625)
(0.42026308974300608 -0.0461948141829752884 -0.134256986809377948)
(0.384060753416245571 0.0115267882247111295 -0.197990597779139632)
(0.330060247545522489 0.00625989216381272681 -0.265642632815129953)
(0.285244412970298511 -0.0393214421863037622 -0.332683080382218055)
(0.242290537634024999 -0.0964092308505952733 -0.412188290312481442)
(0.0823467577798614875 -0.0696519985696913979 -0.633028775692676793)
(0.0116129180955515422 -0.294152937480429255 -0.0615752918835712065)
(0.0509630438787424117 -0.284696623758102119 -0.0421469187670141937)
(0.0667277569395452186 -0.272246624249211255 -0.0132352415069438289)
(0.107914672700692507 -0.262341686337304592 -0.00724881150957315361)
(0.140545192361280324 -0.24948805043398295 -0.00583194115754188773)
(0.166154113988667362 -0.236605614676962533 0.00279210198729925706)
(0.195871907028120129 -0.215969589067173062 0.0208420078427154105)
(0.234147776529043811 -0.179882376724793847 0.0149061542394928817)
(0.258514602531640048 -0.135887479207099676 -0.019204761862803732)
(0.298550675244314612 -0.0845227094214329594 -0.0738947375161713438)
(0.326963948656619652 -0.0218568753510419433 -0.124920284622805106)
(0.297417143592930255 0.0223612304802803322 -0.197867902771313164)
(0.282336008300804076 0.0156686006225844263 -0.269166522404991948)
(0.263732890142272636 -0.0291467442386148141 -0.332056447492791396)
(0.223456448346488618 -0.0850995511205965283 -0.40792176979548106)
(0.0718886123249517089 -0.077285954488420669 -0.611140384140082427)
(-0.0164044427687182123 -0.319006139162714697 -0.094571540819191155)
(0.0105731476897325451 -0.300931130525458779 -0.045219429312539472)
(0.00300035096186921681 -0.28211999377131447 0.00395764232571555082)
(0.0339258583599103547 -0.265639982596829805 0.0218014819965780052)
(0.0378023361014906967 -0.240004548043349336 0.0430474281597769057)
(0.0263920391328706996 -0.214555528778442833 0.0816002661811427443)
(0.0264347861810442231 -0.17667192070356097 0.122613088498385189)
(0.0248922134458480215 -0.109425626649280669 0.096410469434416779)
(-0.0545724455337312578 -0.0512859851461296284 0.00602469580780827171)
(-0.283068164857487758 -0.0154254823761011493 -0.117292452044543902)
(-0.404322120630987714 0.0928159692037583417 -0.217548727730814018)
(-0.345699654712068427 0.0936756070492951176 -0.309877398840340823)
(-0.132634051169139816 -0.0347249918680256064 -0.356229258003228633)
(0.112638149438706828 -0.063093892147968858 -0.359836871405459502)
(0.172769256456702852 -0.0913854430463754142 -0.414329995814729957)
(0.0519605304543836813 -0.0937178866632864954 -0.595932157510540739)
(-0.0475685773040962975 -0.340566077328609884 -0.117066213447238221)
(-0.0374200176033319329 -0.31391449174735897 -0.0376612600065647993)
(-0.0659368844840988177 -0.287303475803099895 0.0298787822600777749)
(-0.0499028503489736541 -0.257246426809354556 0.0640238574807151378)
(-0.0725812310655449822 -0.209005394897629593 0.108627238783128188)
(-0.104474016063875672 -0.165315978715522421 0.174092893231902246)
(-0.128487709568631564 -0.1024800068805648 0.215639715899157008)
(-0.160792429942672843 0.00159093614291366814 0.143305400624332613)
(-0.303418173786307754 0.0595348314722504435 -0.00126306319691718745)
(-0.616866379031953294 0.0317365786548898729 -0.176067523897705663)
(-0.790534065381021889 0.0434082036009810907 -0.286107693881851866)
(-0.847065315504142879 -0.0846615403892009566 -0.382174830159175083)
(-0.582440262694744582 -0.273894155429004638 -0.419158457788572858)
(-0.205621904666729138 -0.230403010871140235 -0.424775045298250886)
(0.0622887616200458252 -0.132720528053561548 -0.442898044778115008)
(0.0202374449955280353 -0.145261940140886864 -0.585992410318541435)
(-0.074597810496605535 -0.352276968184497496 -0.122674805906130543)
(-0.0751497314220803542 -0.31911393266613719 -0.0192770696569027518)
(-0.112785808142150834 -0.283032609049053641 0.0622990545716986185)
(-0.119272896045707857 -0.228598898603060985 0.116326148806583499)
(-0.166981191764137615 -0.147035911006623388 0.182911437701821361)
(-0.222873294871493655 -0.0757895578692094479 0.269876747643542747)
(-0.27429684370174634 0.0158824150768536315 0.285896165011490788)
(-0.345738096461747024 0.179301743845795725 0.182142057447115591)
(-0.406515944085645564 0.211001514502862253 -0.00680913526437908721)
(-0.559331753246822383 0.113089892059809224 -0.181226090619699798)
(-0.715920354814603921 0.0705643171464628849 -0.273175071147723825)
(-0.7770958296447672 -0.112772969379237628 -0.323115791833102017)
(-0.730233213508369561 -0.480050651510921578 -0.365204704669774338)
(-0.504991702821327437 -0.480671878461435498 -0.455020886376141243)
(-0.0923739745830460118 -0.251359322148296704 -0.489626437036429607)
(0.003003739678778981 -0.187827133932033319 -0.566540169595261545)
(0.0126019822836619493 -0.00553508865877532473 -0.0291177242613310239)
(0.0500441439100195382 -0.0112343406518534798 -0.0328607292060527148)
(0.0973901736114100858 -0.013157774412784741 -0.0352744621187791943)
(0.156383372343932986 -0.0135785312053574875 -0.0392241302460673014)
(0.205677748665464177 -0.0120402398954284218 -0.044907062234321421)
(0.244924273835706585 -0.0097655867627663949 -0.0528267387902076196)
(0.277189739934576351 -0.0077629330222698939 -0.0636304189149948657)
(0.302414378738317058 -0.00612181598041012208 -0.078375793486808204)
(0.320209979210281104 -0.0046446474072720902 -0.097582959899317756)
(0.330585643542317786 -0.00344060939311052576 -0.122986055110965317)
(0.333640359270108267 -0.0024823864451076396 -0.155149136356061035)
(0.329226459548392636 -0.00229635548224310865 -0.196899480993627446)
(0.317450721790202117 -0.00250613208269728945 -0.250459120595076801)
(0.296566785445126879 -0.00461043750682709613 -0.316680368667544787)
(0.263034326399915808 -0.0100731780475904233 -0.416151049976480891)
(0.202335667011632914 0.00359933171504005049 -0.478788288480846591)
(0.0153594097250688531 -0.0199187820769680599 -0.028970961102919985)
(0.0549769226274570352 -0.0350370390194971529 -0.0316528941397872313)
(0.103893457605552894 -0.0376938292404077474 -0.034212275619972185)
(0.151431175093254183 -0.0359942010731772385 -0.0380665583864596771)
(0.194312158523607226 -0.0314572720914992679 -0.0437512756927040877)
(0.232505716020807024 -0.0263478769175980072 -0.0517198881610688027)
(0.265587838444644286 -0.0219483272500580473 -0.062583103721617156)
(0.292636005662824716 -0.0180857433021821765 -0.0771134851979689562)
(0.312963899064067186 -0.0144294857968624516 -0.0961675858935446964)
(0.326153067458813173 -0.0112823692936991609 -0.120907242189590369)
(0.33177319857342269 -0.00890093806077351182 -0.152585357384261877)
(0.330100228126501249 -0.00839373624885152679 -0.193401349127007266)
(0.318808787603259203 -0.00947566023749891843 -0.244878144496809336)
(0.301834262975657408 -0.0140275204694840245 -0.314245055252268091)
(0.250172895643258286 -0.0277107804960220507 -0.390890619989123944)
(0.197600135982602398 0.00846283801298441246 -0.511750982833292123)
(0.0183037631037182708 -0.0374984911707113289 -0.0281109320160467316)
(0.0603823998485168018 -0.0575902862303313903 -0.0312979402379511204)
(0.107563490619527913 -0.0602227912491242745 -0.0340390855046382168)
(0.153820172117129256 -0.0566326095060121631 -0.0380165731826206318)
(0.196180688092921496 -0.0505394103107914133 -0.0437917860940359449)
(0.234126006030566269 -0.0438883290772314194 -0.0518295937081245592)
(0.26721648976461676 -0.0375067713052648979 -0.0627232027475300852)
(0.294494735944325292 -0.0313401539445601826 -0.0772404879446469822)
(0.315000133782755765 -0.0253397973151532445 -0.0962675422192935393)
(0.328092343694484534 -0.0199935236424112067 -0.120955621806040123)
(0.333123374715793341 -0.0160401373049192802 -0.152583719821999642)
(0.330573001235335839 -0.0147740630164366702 -0.193244736285416857)
(0.317708361965013508 -0.0169578163812983164 -0.244586554262192446)
(0.299727052766751823 -0.02223202251168057 -0.313164802445907886)
(0.245563729404291081 -0.0422242031228367704 -0.391637853265204616)
(0.179599274062866604 0.0105842760413831713 -0.502870318571511321)
(0.0205511458232441602 -0.0570404173557527983 -0.0270272159810794714)
(0.064657619578648351 -0.0801116863612569285 -0.0310293201083611872)
(0.111048411710548273 -0.0828004476074684637 -0.0340067715073416946)
(0.156084618998401536 -0.0777416465896334508 -0.0380814961046034711)
(0.197789283196810967 -0.0699421659159094739 -0.0439115984685745364)
(0.235591470305535317 -0.0613791344971511485 -0.0520015922687371429)
(0.268858532638975634 -0.0527813271400681822 -0.0629373788684002428)
(0.296455981339118158 -0.0442250056907235733 -0.0774661802957966189)
(0.317148051397851405 -0.0357970351752048208 -0.0964798591783123521)
(0.330015473074446397 -0.0281041757616308646 -0.121121792722199667)
(0.334189294658352509 -0.022310224713002362 -0.152687189376198185)
(0.330187088484706792 -0.0200879169382499091 -0.193183599819359508)
(0.315414332994217728 -0.022919428332477447 -0.244293970227578178)
(0.294826174721768197 -0.0297541005581405532 -0.312068600715128874)
(0.241422151693131415 -0.0540539208081328645 -0.389808446372137629)
(0.168630339326772488 0.0107340611025713885 -0.496265518390888505)
(0.022285035631267866 -0.078433233411249359 -0.0259119238746510529)
(0.0684609869795467368 -0.102948529355960688 -0.0308753718041251887)
(0.114726982335806721 -0.105022697894053385 -0.0342280357828343151)
(0.159045332999875333 -0.0983556007478716271 -0.0384425850048469367)
(0.200409697279014781 -0.0888743855942994015 -0.0443404563163730947)
(0.238331398685120904 -0.078616666903593202 -0.0524856077919237593)
(0.271992768210580882 -0.0680871341902768989 -0.0634487898237425935)
(0.300045199606541635 -0.0573002433255463267 -0.0779483343397708028)
(0.320945733598124061 -0.046407811986954671 -0.0968730690127689448)
(0.333415868726486875 -0.0361721873117849674 -0.121376314967669499)
(0.336333189840276492 -0.0282299878493701764 -0.152776653580817046)
(0.330214086366836079 -0.0248029340234422156 -0.193040190441790493)
(0.31282287660184166 -0.0280303264500029875 -0.243736251431410561)
(0.28924958787188132 -0.0365855346131812101 -0.310641378947325686)
(0.235081592502187658 -0.0646766460051912129 -0.386381191831264903)
(0.159601704234598435 0.0102375031505381308 -0.493182930810572462)
(0.0240528169318256317 -0.101248837359026692 -0.0250818677159906217)
(0.0726944507024839676 -0.125748108260129193 -0.030578242655803993)
(0.119309061334186603 -0.126637093238731457 -0.0343648789078142489)
(0.16320804228893121 -0.118430410688338802 -0.038857240429326402)
(0.204442673446207479 -0.107520927860724674 -0.0449624544479371099)
(0.242720275891959436 -0.0958387480963898003 -0.0532451331331223049)
(0.277024273190644488 -0.0835753236327988341 -0.0642289917796238369)
(0.305704961600840763 -0.0706054669435578069 -0.0786114494532678676)
(0.326839267716920512 -0.05710823279819955 -0.097309313783389792)
(0.338712069681873673 -0.0440065205517858604 -0.121538208310874474)
(0.339893271507692774 -0.033466673692314132 -0.152680336898621788)
(0.330873301676468001 -0.0284262478767647181 -0.192669065157558633)
(0.310031921432763535 -0.031757603118709378 -0.242883301055755868)
(0.282826282054158995 -0.0418566583063605183 -0.308662820824319506)
(0.225778570677038048 -0.0738062835922404514 -0.382170822190367188)
(0.14809884761382261 0.00933629767116323991 -0.488046662057889824)
(0.0265781082419929461 -0.12546836308478243 -0.0244294448058068568)
(0.0779583753938373203 -0.148379571730092474 -0.0298508206907290019)
(0.124880181154303146 -0.147438594048912019 -0.0339636128782903335)
(0.168394008400268524 -0.13789274296007778 -0.0389126894112151317)
(0.209677401510171585 -0.126027579096643388 -0.0454388074280463253)
(0.248609011668460778 -0.113370398630260508 -0.0539607734838651737)
(0.283888843456525097 -0.0996697477684289623 -0.0648992749940817126)
(0.313467694332078883 -0.0845732671565731231 -0.0789698970820667534)
(0.334989219697695462 -0.0682061104246977218 -0.0972301768090235718)
(0.3462062828353899 -0.0516272313473005173 -0.121088416528029916)
(0.345236729372842444 -0.0377251680379102408 -0.152034379909086831)
(0.332516548832340719 -0.0305695642218704947 -0.191821947973698503)
(0.3072546108208003 -0.0338687573225189831 -0.241614985746081923)
(0.275496653729663754 -0.0454037579272760575 -0.30609267134870588)
(0.215403144688722126 -0.0806868402314560168 -0.377303547432891684)
(0.135587649006153249 0.00711132319758349743 -0.480829300412515148)
(0.0299963026025983036 -0.150816950373598435 -0.0239177747843550281)
(0.083573824449870146 -0.17031284631717547 -0.0283759174126114039)
(0.130072753038615291 -0.167263254876723666 -0.0326611441573917832)
(0.173039732581019873 -0.156929940257846706 -0.0381734778769816999)
(0.214639037864808119 -0.144821466918119979 -0.0452527277771532649)
(0.254664041363238391 -0.131710686769134833 -0.0540198634984434961)
(0.291415192214537322 -0.116826574756596829 -0.064715320373962909)
(0.32243023367172341 -0.0996089053347574138 -0.0781374955547637778)
(0.344932097022933648 -0.0800676162539556979 -0.095718454705082584)
(0.355920839924231514 -0.0592205904948045342 -0.119290373637403219)
(0.352652529735636544 -0.0407396032147090831 -0.150459628822481123)
(0.335407426740601866 -0.0304656693282111604 -0.190493152217886097)
(0.304591305563727932 -0.0336613847756421572 -0.240059575333100517)
(0.267358391900750669 -0.0470986610602932426 -0.303082128561208142)
(0.204568040490569591 -0.0854740619868943202 -0.371926407993316999)
(0.123116946904430313 0.00348930802521541655 -0.47215604697412844)
(0.0332487021117142678 -0.176954718664796173 -0.0236273145870966317)
(0.0873906387637021637 -0.191300719143368381 -0.0262511219903566392)
(0.132250395285404998 -0.186198760524623225 -0.0303525916209744888)
(0.174660726325053195 -0.175786623314524409 -0.0362863257762329819)
(0.21712061578660799 -0.164016868147877026 -0.0438538134019879483)
(0.258884139679722014 -0.150620679566261267 -0.0527162819165050006)
(0.297897378073088415 -0.13443434960483111 -0.0628411273955617466)
(0.331377156047514998 -0.114726485952676316 -0.0752309053558019025)
(0.356059440727513055 -0.0914681901499409949 -0.0920601827394085109)
(0.367869483175007894 -0.0656962794730656247 -0.115738624597203951)
(0.362522405803192893 -0.0419548410075560596 -0.147895937814618905)
(0.339774441793919968 -0.0277087570210181565 -0.189019279577789467)
(0.30194748863945764 -0.030347484820894062 -0.238772711571774876)
(0.258419083214053602 -0.0466008770585414206 -0.300070379511730878)
(0.19293523794721415 -0.0882598815999153796 -0.366366836597333378)
(0.111110632828999037 -0.00132520312433047696 -0.462468430146546761)
(0.0345066398171314098 -0.205240094618054814 -0.0235969778171302817)
(0.0867610637043161742 -0.213165092566970471 -0.0237616956447347233)
(0.128704696035573579 -0.206348040843717245 -0.0269734838360668784)
(0.171122664209333808 -0.196507401686284638 -0.0329367378153013549)
(0.215273145607697447 -0.185405582521229073 -0.040830935355426673)
(0.259643362752064344 -0.171676013959773888 -0.0495133625180062403)
(0.302192154529116019 -0.154038573172410015 -0.0586447073594663637)
(0.339816672929911523 -0.130992081428784823 -0.0697836754836647644)
(0.368136835079788116 -0.102020176480298735 -0.0863702962567188398)
(0.38168484228514904 -0.0683593023976323544 -0.11108883984732644)
(0.374290154666275132 -0.0376464407790444364 -0.145236884159029134)
(0.34518979216566642 -0.020572366442873101 -0.188082081390966271)
(0.298960761812825937 -0.0241434947787452087 -0.238473002578842047)
(0.24850996296059652 -0.043847060819862789 -0.297612403637358081)
(0.18043289777814131 -0.0891218754294388349 -0.361047954223179868)
(0.0993643278175123518 -0.00773750712828741999 -0.452161032471050439)
(0.0317463215937482182 -0.23633402287205918 -0.0237110135308051494)
(0.0793474767940634124 -0.238671992748614031 -0.0206751795728503662)
(0.117190546747796054 -0.231026506332081522 -0.0221273291354535037)
(0.160683088031171567 -0.222567686019200045 -0.0277509569090882806)
(0.206784785168422802 -0.212807550253186761 -0.0359294806732746164)
(0.254202373136163229 -0.199745055301724372 -0.0438036458631670192)
(0.301234714170599382 -0.182236522409507246 -0.0511182221905210274)
(0.344919630002971156 -0.157389112514896512 -0.0610403432883148897)
(0.379580937058191292 -0.122579283697029348 -0.0784386151778507651)
(0.395901285982668327 -0.0766973303566004933 -0.10556959728807272)
(0.385359267521836246 -0.0292808856380845015 -0.143624345924802083)