/*--------------------------------*- C++ -*----------------------------------*\
| =========                 |                                                 |
| \\      /  F ield         | OpenFOAM: The Open Source CFD Toolbox           |
|  \\    /   O peration     | Version:  2206                                  |
|   \\  /    A nd           | Website:  www.openfoam.com                      |
|    \\/     M anipulation  |                                                 |
\*---------------------------------------------------------------------------*/
FoamFile
{
    version     2.0;
    format      ascii;
    arch        "LSB;label=32;scalar=64";
    class       volScalarField;
    location    "0.0899999999999999967";
    object      p_rgh;
}
// * * * * * * * * * * * * * * * * * * * * * * * * * * * * * * * * * * * * * //

dimensions      [1 -1 -2 0 0 0 0];

internalField   nonuniform List<scalar> 
7248
(
4.54697186032280509
74.5144164388552639
4.26777375252069824
5.3888700186458891
358.932835183426164
17.6717254749535044
5.05918684094000159
5.00336692488169454
5.58269730944928
412.140606260762752
14.3118573873756372
3.58962231572866619
3.76458110440584859
9.71374425391088892
96.1062452549125794
-3.47398848717259812
-2.1935514417067532
-0.0359436577891492776
7.42192245444299825
-1.83986174988380036
-2.02572784722312527
-2.17965143124303129
-1.4892518549693059
2.24887031641864521
-1.68066213000905162
-1.52552455561765621
-1.40176681790513347
-1.12738646456154212
0.935835828552451621
-0.945958627993071288
-0.947826437026593527
-0.94310080754988046
-0.781409641780549946
-0.359845401007935772
-0.619887882555301584
-0.635066488405675145
-0.612256698557059664
-0.558018217141677431
-0.418463325509889295
-0.471394581993176853
-0.453489403073925934
-0.421757967894598684
-0.37208964098556907
-0.301957802149080801
-0.358744773647736659
-0.335400317600538789
-0.303478177545797201
-0.262497826501600473
-0.214103053243144409
-0.274690498237928571
-0.251033492069082098
-0.222782481192550091
-0.190137759570101705
-0.15462029605633773
-0.242809900087717717
-0.225634862467293196
-0.20668331834048112
-0.185422064472294423
-0.161871803300302819
-0.136558006287472611
-0.110502854026168107
-0.180264527486284021
-0.165204719182346138
-0.148735303427303345
-0.130999261318348104
-0.112343154822328359
-0.0933163603158162769
-0.074615701154251271
-0.123740344587906753
-0.111113633915816468
-0.0976992809116243588
-0.0838226314386883858
-0.0699017248799389118
-0.0564175155618260385
-0.0438313524417046629
-0.0720488569543035473
-0.0620853433643037411
-0.051912746596183286
-0.0418998016813493801
-0.0324562750617348877
-0.0239878679462043783
-0.0168131661537109234
5.02547936499265102
28.6645615194314836
4.01156252740477282
4.39226558675486434
473.668925724338067
16.8261332086130366
7.41716381175017414
4.84662069844575871
7.9375504961983312
585.022907707360787
17.1516490798175951
8.71143064301637615
5.41600337416835931
14.457107303250746
102.276578931496957
-2.5516243530086844
-2.08958187907272386
-0.455228802523073239
6.00167039132276781
-1.58955644001027263
-1.70231161637179462
-2.01465915410860053
-1.50536556206934091
0.9884730640474646
-1.60383036888077068
-1.47453881026530165
-1.3413352060814363
-1.00223524200133429
1.61649201582996271
-1.02116408546894588
-0.982864134201755335
-0.924159102833193358
-0.549379022534276285
0.108331094302016623
-0.642365887605678698
-0.644346968457561786
-0.595707603812276609
-0.495790945059185639
-0.287291985343654355
-0.483411969037782996
-0.451290862404729709
-0.403742589912382877
-0.336613279865463411
-0.248875801469312596
-0.364936804811601789
-0.332901578362367112
-0.291042638886002514
-0.240518370865959896
-0.184650267612237462
-0.277376876910920112
-0.248416025939053847
-0.214502295069388782
-0.176557253893667054
-0.136958344610479482
-0.207749724832944072
-0.183314245231411099
-0.156506998672468756
-0.128211035137011931
-0.0998413239809383402
-0.148926122656382803
-0.129399167145811456
-0.10894526879431024
-0.0882933819337981957
-0.0683148393406531745
-0.0973726797870982652
-0.0826444245303859654
-0.0678785752621099414
-0.0536360098460231388
-0.0404519007095716851
-0.0511288091385585022
-0.040993425225386404
-0.0314231950928148887
-0.0228463308819781934
-0.0155964552339452178
9.67340739394438565
9.12541135059742814
5.63404854150510292
7.61440304491936093
657.959200298838368
21.073637048443949
9.12765330156828014
6.09798837059552401
10.864568826028643
518.304253745371739
21.8602276680894327
8.98895391177519265
4.3229933946323813
15.0766306514792916
89.6223932238911232
-4.64361350791895777
-1.51457472851053643
0.231777278304372919
6.73629992931193566
-1.45873878570480486
-1.77293171582462294
-1.98072506581945662
-1.33116044808265932
1.20769296501441414
-1.5729127946575916
-1.4196143072940397
-1.23159782425279896
-0.61613738756183789
2.53114439253114965
-1.01786862862537064
-0.977787985555235606
-0.866533852173739905
-0.122694610617848532
0.40833130267273815
-0.667450025659458435
-0.651489027333554405
-0.576463235719406275
-0.362290662505216632
-0.128913918233216906
-0.49070797234406438
-0.449926343877013912
-0.385009613548049245
-0.293696013211705798
-0.189625249244258359
-0.37147713207806532
-0.331447293134663756
-0.279649349780167811
-0.219150954592441299
-0.155475822614697695
-0.280958404604523704
-0.246969810224767827
-0.207444343615962729
-0.164207236055974676
-0.120565747131410647
-0.209413265267251486
-0.182011771078889772
-0.152068695826275357
-0.120875058351291018
-0.0902651374464069067
-0.149477378228613289
-0.128293052554974724
-0.106141823276842268
-0.083938419328259628
-0.06273513647909712
-0.0972379855789425734
-0.081735068334141292
-0.0661826328326381719
-0.0512240526889651202
-0.0374689125829548511
-0.0504163061860069955
-0.0401802947619532488
-0.0305018474652297214
-0.0218309547480683951
-0.0145141882183776293
12.562179450881537
15.7745504905766314
6.70118908859917983
8.91673230116294491
670.080991801850132
8.81138395853231948
6.50754527948290118
5.66503979541242764
6.06900617867579051
533.688119862332542
10.9737295668746029
4.29018584838884198
4.33247632074490419
7.35923844707532915
83.6222211027403972
-2.64797978607540152
-0.551381452457508914
1.40834983303080774
4.36688396107938548
-1.52259117936511212
-1.88464005388812716
-1.94902501469448453
-0.149405339129237841
1.89950051949031629
-1.47146929616341593
-1.37174347226153226
-0.863572087911418373
0.442386494255257889
1.45872027757033562
-1.03675673320756156
-0.941498126743602226
-0.516622267265539392
0.0215351801840267913
0.152562084717351193
-0.696238939149751657
-0.663695075661507428
-0.547987839864733539
-0.289371026710033286
-0.0700399471683881281
-0.500773612583996885
-0.452534480684245122
-0.369997606106055366
-0.263231708470906434
-0.140700730309124222
-0.378926189120602774
-0.33171697154103208
-0.270853938343726452
-0.201133634138684569
-0.130236410712377099
-0.285180918392903604
-0.246886806481804277
-0.202278171196570072
-0.154241020199019113
-0.106960613735683732
-0.211413993316349497
-0.181468640706076295
-0.148753117305387483
-0.114967638112291465
-0.0823266436882766212
-0.150242214325478574
-0.127635286923783703
-0.103991293343100338
-0.0804033452762784179
-0.0580891559079064132
-0.0972429436724855378
-0.0810784649839298155
-0.0648390169517640003
-0.0492437734532624599
-0.0349715027126833652
-0.0497781852316486265
-0.0394776113644930704
-0.0297198033974832819
-0.0209735250762461342
-0.0135989225427650458
15.6563863945120332
9.63853826498406363
8.04303411995799067
11.1989486113019066
379.324238401909895
7.56497825652442035
6.60212031868602978
6.36579200695603831
7.34712150524708285
274.993944654559527
6.60117545636072123
5.23507351240608898
5.56374296444525296
7.59155421284775933
36.5189148720206234
-2.19843947293675068
1.81669669833885661
3.00139924868186991
5.56812715678999037
-1.78094746903470424
-2.23227681405195844
1.39190672068492827
1.18900127194600791
4.08441414676025172
-1.59414685358443964
-1.58942012799078181
-0.7774820140928278
0.251770771676597005
0.949535112620506383
-1.07398403379571294
-0.9882034917253808
-0.513921570486238322
0.0461866837615295261
0.0946343142704578894
-0.740203178661545058
-0.675264823438473716
-0.466506630473153328
-0.219689663810814589
-0.0873833190238608448
-0.523926883355782524
-0.462893996665394769
-0.365269286601871856
-0.250213577016329902
-0.120161520402304114
-0.387197922522912907
-0.334550472986929859
-0.266836285020212782
-0.19098857335471861
-0.114709002253114173
-0.289625122035975624
-0.248107418704299365
-0.199543850305936493
-0.147733778657731907
-0.0974130105333023272
-0.213414951570327471
-0.181543870917545896
-0.146654651974602535
-0.11078280159960778
-0.0764189040291058524
-0.151056606344379646
-0.127337484627570885
-0.102497341609932596
-0.0777723078714035315
-0.0545142712505534838
-0.0973252323775847666
-0.0806416842327499356
-0.0638486325991480391
-0.0477266563599327079
-0.0330143725316020889
-0.049227104569160518
-0.0389009612264642549
-0.0290947064497635854
-0.0202939656161996856
-0.0128720893622907805
16.2306147923134425
4.60837421675965775
9.32413326167986156
10.4504637558098814
445.828347839394326
7.92757415491381412
7.25125458299889036
8.39071376587917683
8.95195410546928372
416.024073539486039
14.9870505548692154
6.90985164180855271
7.19836845519994561
11.3104474067169036
57.9934052635307111
-2.68196454804949536
0.30603356868207493
3.46017804636153103
11.023853996357964
-1.92112666153037726
-2.25755905632274567
0.174715083889113276
1.45312661669829524
5.96870360998371208
-1.68149214735709651
-1.65138731987025933
-1.53264461984739553
-0.488974387673612065
0.563160015280915749
-1.09968821224450375
-1.08743750553219476
-0.558510065406924605
-0.112645203438923133
-0.0956172666613279432
-0.774566900438198647
-0.723000181603397074
-0.525399196686062497
-0.305081960908648975
-0.12005391571289234
-0.540160982811751289
-0.48107769381208898
-0.379126086690017738
-0.256586524795060056
-0.120499812980821991
-0.39449867680315498
-0.340054475057430305
-0.269459552855095985
-0.189852587238312498
-0.10948665980178178
-0.29315437548698936
-0.25001416037755142
-0.199255294379212966
-0.144948408822068997
-0.0922219167632246789
-0.215062197824790441
-0.18197694847966428
-0.145673742590364974
-0.108321502646329088
-0.0726029795864587268
-0.151753870718706968
-0.127272379757964793
-0.101588633541511139
-0.0760238974847923521
-0.0520267070114426924
-0.0974293275321518881
-0.0803787955816640393
-0.0631829826800158617
-0.0466643706845166761
-0.0316071551059738109
-0.0487865154247707766
-0.0384635214526783051
-0.0286348719211900783
-0.0197986761819373518
-0.0123406578671340812
16.4977568045318463
15.5866398493100178
8.93546833970921917
13.137874456590021
646.014568455104268
14.6569734913958278
9.24192962686754171
9.42886998738209314
10.2217847758888229
731.63513324982307
21.2364512321052068
8.97388908398639806
9.14274651897832236
16.6428817086989227
85.0381300621478715
-1.80936744455418874
1.71000624721053529
5.025238637588477
14.9968368675057153
-1.75922441068853153
-0.859267023979236932
0.895416731791314424
3.31424158149750703
2.8796245795430746
-1.57128697859085276
-1.46641977227112918
-0.597008800220513502
0.245884894492287093
0.00591948531843096339
-1.06943875588360249
-1.1052544762434362
-1.04655240396019988
-0.759235408286771385
-0.294914299271916758
-0.786444004537355412
-0.759187667583342107
-0.631706794669683047
-0.396324660310514387
-0.153463712605641872
-0.546370043669766381
-0.494653240651755033
-0.401828378042115797
-0.274093561336300362
-0.131205409585417654
-0.397988296436831646
-0.344892781201213416
-0.276038378263380624
-0.194495945557733724
-0.110400511615681429
-0.294989114979853695
-0.251615423769849633
-0.200462080525869085
-0.144795931585514737
-0.0902809693438931526
-0.216060828792213916
-0.182419034110903766
-0.145438698392201304
-0.10719606457713339
-0.0705292265101181703
-0.152220276628547729
-0.127305194768373736
-0.10112448065669026
-0.0750220692061299432
-0.0505150082201188122
-0.0975151260236808981
-0.0802400890300446062
-0.0627905427877155642
-0.0460108809095508275
-0.0307160565492943516
-0.0484799936377502613
-0.0381729978305245798
-0.0283385477449656538
-0.0194820772871052914
-0.0119991695127944064
18.865128467090102
26.8868882005067569
10.0574635794302001
23.491062784665214
473.075962920372206
28.9932719317825693
10.1996369676791652
10.3107735543745491
15.7615307876388666
499.356623653235317
19.0462826834225467
12.8975834176896331
10.8332311497831579
16.8434056072441223
104.386510713228986
-0.374499755428664372
7.90895847022926901
13.0273382577320405
15.8095562154190912
-1.35542811247915651
-1.03020352834971551
15.4830413378157736
16.3289180328147907
3.70268314263667619
-1.18424736708091771
-0.707582443179289422
2.03613123289066777
4.33777860421286565
0.217309684171814482
-0.975862886484139658
-0.868007755800352943
-1.0626726992488027
-0.886492484388919366
-0.357043997447342998
-0.768934382283757656
-0.728519154977280481
-0.687938223080603151
-0.431405139317221742
-0.180515108823179449
-0.53702811522547822
-0.49182220283457867
-0.416683961982737661
-0.285306262198580518
-0.141060191135064433
-0.396956876752387
-0.345416660701654166
-0.281003498611363534
-0.198638517603569542
-0.112117116758428434
-0.295196950774432365
-0.252148203658463244
-0.201464633966047635
-0.145304447659848845
-0.0898523749227824881
-0.216405411045277551
-0.182591959467242465
-0.145440311032128622
-0.106816332575628253
-0.069661305290547676
-0.152433749988024975
-0.127337213642254393
-0.100941339071671993
-0.0745806201676595532
-0.0498134138152106637
-0.0975621944442422173
-0.0801829403925247292
-0.0626142852705488251
-0.0457061023655011694
-0.0302897358757836695
-0.0483219731994171814
-0.0380286885536173097
-0.0281956195357279844
-0.0193306636766031777
-0.0118351532473770001
12.8789290780015317
8.67337481099171193
11.5541080826100924
7.89431064713850095
558.885224082743434
58.9961788194624432
31.4138136242288972
18.1640437131448031
8.31747642306311619
594.05524566024269
21.1574946035606679
12.5874417972293688
5.07696245953876879
1.31640526616973585
28.3853332628045045
-6.13704097200785181
-3.61705809674359369
-1.72280976895237981
-2.21154861193128216
-2.00975963148059389
-1.92150827438012017
-2.34827118469615925
-2.61150434442805057
-2.34611013703235471
-1.71862489213747027
-1.90380485438662417
-2.12980849054905219
-2.29781908870583917
-2.30398002366466903
-1.20115149215981076
-1.27866365332077336
-1.37575373916349264
-1.46999141683123247
-1.51522697189559619
-0.796920114913339916
-0.870986166612248036
-0.925260544535638996
-0.939750910697587094
-0.926542152549933218
-0.555699964325600315
-0.60579195715210199
-0.631894287885228723
-0.635534662475900292
-0.61694668708016831
-0.410643383398599293
-0.433610932445112673
-0.441753704021291271
-0.433833135082522192
-0.414660835670585259
-0.302260491761210448
-0.310311709403343017
-0.308962819618851914
-0.298357646602647464
-0.28047279841432593
-0.220235018218006201
-0.221538203543778789
-0.222625784520951581
-0.220883581623493169
-0.214598855927606275
-0.203396207690760306
-0.187891817051581034
-0.168394682955815889
-0.16376732002129965
-0.158605046907425079
-0.152157679197548384
-0.14369787264160272
-0.133036054817007504
-0.120326006490085458
-0.120033891682921681
-0.112348213196833788
-0.104421564358025548
-0.0960793100288270668
-0.0872116493640562179
-0.0778601468499584559
-0.0681405344477686858
-0.0754726766210441213
-0.0662978517242242549
-0.0571473697479545351
-0.0482333803993726801
-0.039789267039600576
-0.0320640953951213878
-0.0252621683819683508
10.9425846948451202
7.49173694713721083
7.23321921880620522
5.08025471076718116
359.159897546023842
11.0028573345947986
5.85407627253037255
4.78311770311136275
3.18521892880605018
405.367495111395954
4.94783548399118533
2.96593416286621414
1.74029043831448016
0.641700748232993834
127.325403968203503
-3.37432644572350071
-2.70742723744249103
-1.87412802974668247
-1.20482217945773451
-1.18266855957600114
-1.57790769053353119
-2.16412144044339882
-1.9767227157903442
-0.0151669731276062245
-1.47481262292233017
-1.54755254419520072
-1.85213458554884758
-2.00296073693567811
-1.99366409600850703
-1.06265065384745094
-1.14428782905042681
-1.25911468015372208
-1.34200152109564863
-1.39691875010905098
-0.774900400841182502
-0.837419509041532839
-0.881550398328488694
-0.898035224859022985
-0.883438253834185727
-0.547509676363458264
-0.59353184703851869
-0.613701661485415162
-0.612686645533872642
-0.591259154205063031
-0.405538512799455297
-0.427143388414227443
-0.43155130757725968
-0.422152576165808147
-0.40148222338014744
-0.300528379395185063
-0.306469316163669236
-0.303290411905573931
-0.291977959803526976
-0.273414013787586063
-0.221339795361184977
-0.221600979878111976
-0.22134196439467399
-0.218535970648512989
-0.211372080413511243
-0.199724259660401637
-0.18397799229137235
-0.168791392469420293
-0.163599223768253782
-0.157866460700315264
-0.150838932844121892
-0.141887910760259112
-0.13093713866780432
-0.118189328078805791
-0.120114733787760594
-0.112192795549386423
-0.103992743832404075
-0.0953738169005457492
-0.0862620102968828795
-0.0767519282244986945
-0.0670221136281475283
-0.075328978934688165
-0.0661266379284287664
-0.0569237830717938542
-0.0479411009398693633
-0.0394289296667974243
-0.031659750645232014
-0.0248735505324280334
11.349257044932834
8.23319078905762147
9.79315799115458319
6.60316190882223619
508.476342871408406
21.0816674566815117
10.6298572435494094
5.80773091390757212
2.8736248814217884
320.752576143463955
9.33133468189333826
4.57825576565417069
0.622476865888785591
-0.584272957036248042
46.5321940204235744
-2.91982484311879409
-2.72362769662039339
-2.24711826589080399
-1.58366690869829552
2.62491286015988434
-1.61322046962459709
-2.15321724469563724
-2.21785628547951452
-2.09499795336706862
-1.21898454330894412
-1.36153955878753785
-1.5924044804460129
-1.57651074853715634
-1.58498396620651971
-0.974740835923970872
-1.06220061072889638
-1.12669873426312894
-1.15844685858200869
-1.16566097297505467
-0.747660689000472889
-0.788198014887216414
-0.811698376643398833
-0.812776830823153218
-0.789075786646201816
-0.53884034172600892
-0.572498257523010534
-0.581309913132355804
-0.572129646732590369
-0.546191918061287085
-0.398792869692292717
-0.415644805151317243
-0.414293946242375866
-0.401359676721668279
-0.378595675848743596
-0.297284947257450749
-0.299837340008844155
-0.293860615878753673
-0.280646106598601841
-0.260976513964440715
-0.223056239980449461
-0.221554353631103873
-0.219309223645479251
-0.214669092265716316
-0.206014374889265967
-0.193331341064109208
-0.176951328974644717
-0.169461131281146954
-0.163381103772618524
-0.156651476951627372
-0.148648929335426644
-0.138876176024179343
-0.127335730613219039
-0.114244717271787741
-0.120266864364269407
-0.111930016973386379
-0.103261197504030788
-0.0941799912745493878
-0.0846700505220777389
-0.0748697793648674392
-0.0649818340063318123
-0.0751279556320000735
-0.0658312248233010461
-0.0565172980457504248
-0.0474221944204373247
-0.0388155644115129941
-0.0309861121260563387
-0.0241836937417489739
9.88251684584427714
8.14164299041437722
10.1821365618700206
8.32313695697395417
681.856062296735217
24.0296960105154369
14.2742167236038764
8.72903430429256488
6.2685654983698349
410.17029082762599
11.9329984743719617
5.94926276461440828
1.53413899051357916
0.844272836252005443
65.7473916144417814
-2.78481988203470499
-2.77094498912071252
-2.2416574211829281
-0.9594650847301045
-1.34206766693476487
-1.62069471335653081
-2.21531943792667008
-2.1042237827930852
-1.93093290070340795
-1.24028716017699892
-1.44023509419597606
-1.57477514254833117
-1.46812022015513954
-1.46029212651786322
-0.958506812743538994
-1.03905815205951968
-1.0797807660075549
-1.07669447018361497
-1.03858025850180913
-0.725965121786658285
-0.749454204805163671
-0.758254892080525544
-0.750328920525959231
-0.715952232943779632
-0.526651064309151096
-0.545150874972403665
-0.546437323143257769
-0.532014619022662116
-0.501139551925712134
-0.390905638343496287
-0.398553654933201329
-0.392955838715709382
-0.377050102456286507
-0.35171793765725301
-0.292477287299193922
-0.290576199258429424
-0.281579848144347
-0.266297114071960217
-0.2451422638422662
-0.224736267975588211
-0.221192463014710933
-0.216564411109242599
-0.209520137736244561
-0.198992297953416553
-0.184934479362619753
-0.167615755281136924
-0.170336418971904657
-0.163079471555574729
-0.15503269943695322
-0.145738658718735481
-0.134879667382987622
-0.122519015253210836
-0.108885954545462696
-0.120495217410487715
-0.111594587820965513
-0.102295176647093755
-0.0925913297565784943
-0.0825441581543803621
-0.0723350034638314543
-0.0621837396776727808
-0.0748310422429561001
-0.0654112735770487619
-0.0559515728944901258
-0.0467107914385938294
-0.0379825832807079572
-0.0300726344395886233
-0.0232364450923346726
7.83076043634470675
7.42787077862034284
10.1742199360512959
9.35242478277847589
531.719533421057008
18.6405333415109347
11.4013981438326795
12.1774342968600759
7.24609590438491846
283.282899045048737
6.84231245611439487
0.869860076432999008
1.10818239683596609
2.04995526252392857
45.7039711163014104
-2.60291564946034937
-2.69532712685639231
-1.79351735867599582
-0.69806000220426756
-1.34412640784649029
-1.76532693924316519
-2.31418240390731444
-1.6080182593296013
-1.74267824270502625
-1.28190011467062348
-1.47119261270862323
-1.50969405626252606
-1.39090009911535062
-1.36452556641919998
-0.906578294940284302
-1.00599363559470301
-1.03606325995988979
-1.00554676648648278
-0.953107736314713461
-0.677012188415552552
-0.70150522841145857
-0.71476387017113685
-0.697884858170655153
-0.651826606350714766
-0.505356675239424402
-0.51577498298428115
-0.512871608293317571
-0.493371499786929679
-0.457540806958699697
-0.378905946632752677
-0.379466982523198992
-0.370344908849216226
-0.351575679669411945
-0.323369346417354819
-0.28620118441822967
-0.280070143342180333
-0.268100513491495052
-0.250438071870123902
-0.227424589426521051
-0.226663008614185008
-0.22060469597785215
-0.213281131898130388
-0.203676121625510187
-0.191015585412013383
-0.17530287122583546
-0.156788366715816668
-0.171448991649196109
-0.162764740532369501
-0.153179796485006486
-0.142396061289954662
-0.130255152511188826
-0.116886745610576534
-0.102543388044162326
-0.120814369076337816
-0.111231523660802301
-0.10118580320095355
-0.0907483249703768258
-0.0800568132398138677
-0.0693393402732780106
-0.0588394573458032796
-0.0744278731492629686
-0.0648740340528952686
-0.0552536490629885607
-0.0458502473966030943
-0.0369831349142687033
-0.0289769339659954814
-0.0220930408574516457
6.57033468241550089
5.20285796769917486
7.27593606797842973
9.02750826693731767
415.201968863113848
18.4931740786930163
14.7041927583437086
16.8193368868988884
14.3142859067822563
356.194910311076285
4.16476401824823395
1.85071127341231478
0.681336084891409732
3.42362616086686122
78.1614871645734013
-2.41947352917897263
-2.56022911617791582
-1.4524488815033918
0.0450350800156029615
-0.767296877181908865
-1.73590990997962158
-2.30744154115764433
-1.5239977564542635
-0.853760923124093574
-1.19415019234980369
-1.4898488582234668
-1.50533127354452145
-1.16230425245846414
-1.10163832387989413
-0.846776898564848834
-0.960314590623290387
-0.990424878508570194
-0.941426186535707532
-0.878737374984309705
-0.638688144438910199
-0.664025095592501335
-0.673571961764262706
-0.647753411365581289
-0.595905576472129161
-0.483685722072049185
-0.490092349951991357
-0.483000144799262954
-0.458697372923549007
-0.41702683860109846
-0.365488644194539691
-0.361808679232168418
-0.34910324289359479
-0.326996158626381095
-0.295373759383915524
-0.279786568434609584
-0.269753281448168791
-0.25469218867565302
-0.234389256360248099
-0.209016694929669594
-0.228962180789656383
-0.220155825875311739
-0.210085133999298124
-0.197791421084722585
-0.18281716412682894
-0.165184277935167184
-0.145221507681650625
-0.172874487534575599
-0.162626915866682709
-0.151383165909938694
-0.138979514560485323
-0.125401415653693032
-0.110846319137086174
-0.0956289327112742615
-0.121260413283268545
-0.11092541611910052
-0.100064561587507136
-0.0888177248329907465
-0.0773965905681724547
-0.0660814737936032404
-0.0551541698933748145
-0.0739266282762500865
-0.0642402115700930199
-0.0544604188992270782
-0.0448915778904533727
-0.03587799045561995
-0.0277631145053925978
-0.0208187040575694218
4.83798011661794192
7.50154062471821259
4.54078137015415173
5.88012096598050338
298.723202611731665
22.2708191945252167
11.1807561189281053
8.00778401080810731
11.1810021762791756
267.781652847502414
5.30512389742061341
4.12611310738520309
2.82603583850570139
5.04472988024385938
92.1226175408431658
-1.88815379287585117
-2.22346573824291127
-0.00378436231729876917
3.4704023287085648
2.51000880925201786
-1.68256267569095774
-2.20098851838167686
-0.0835810719272744029
2.14128536224075416
-1.2741653850258079
-1.53416345326467307
-1.52675658671678627
-0.547823159018046124
0.447465311892529582
-0.809867163389887179
-0.944623125064866564
-0.952409534312648076
-0.83516926271816383
-0.783628445083774494
-0.592752387947045767
-0.618650898295735274
-0.639929235595642631
-0.608400337402973945
-0.549281721355861507
-0.469984355671888399
-0.468124033196047062
-0.457464806670250523
-0.428249435534622414
-0.380360290307436399
-0.356551540396610411
-0.348203027837508616
-0.331602816246051313
-0.304753703805546283
-0.268380336517355711
-0.275484780574610011
-0.26134443042185318
-0.242625917465850938
-0.218922106618630513
-0.190654377492649768
-0.232306888675207573
-0.220702315058495135
-0.207732276756231099
-0.192624051523621359
-0.175079559480765728
-0.155176681510943854
-0.133423078233051606
-0.174788755999111034
-0.162926783141957909
-0.149951632304048232
-0.135830935274903475
-0.120666878583072928
-0.104747101549166596
-0.088491973369666771
-0.12189308936261932
-0.110774626815263719
-0.0990592249897177257
-0.0869525372941358649
-0.0747349779189969282
-0.0627456456376889321
-0.0513178428093546482
-0.0733461098678316187
-0.0635407822941722183
-0.0536129477791879097
-0.0438849598846175123
-0.0347231095970399403
-0.026491455116227778
-0.0194758778792910071
4.18309801454624974
44.905007426646911
4.45595510458432464
3.87152534707506257
507.776126543727173
11.3380014356020062
6.13486251008949512
4.96080750141846849
6.16156901235245247
306.112691728167306
11.9883310294426835
5.98483458340412433
5.11538303450038878
9.28272637034041281
69.4548284984081477
-3.26782439802110192
-2.23417068201414981
1.19747907758036765
8.24281319615188224
-0.902188684422036702
-1.96759446709318242
-2.26271026861267588
-0.238254896032896735
4.05144897821149552
-1.45871386906204981
-1.60329227392171014
-1.53737148890290909
-1.02347042048515768
1.37006855636039382
-0.848304689049624527
-0.910128583257437063
-0.983017784538768868
-0.898074721891312433
-0.621136311729853619
-0.596499374788176051
-0.612549847838321671
-0.629879149314659825
-0.592149593940152097
-0.486654169156356675
-0.465738461104695578
-0.458293940131119182
-0.439521370006457857
-0.402786680422309251
-0.343410700189948903
-0.354843756232578078
-0.339864710028871753
-0.316771092889068573
-0.28370354745447196
-0.241794631379470243
-0.273774839496301603
-0.255219704104595047
-0.232095784897860424
-0.204257346446002547
-0.172569583502224039
-0.236999365631615
-0.222574342962369165
-0.206607298695791475
-0.188493545365849807
-0.168078761988144393
-0.145594167100228961
-0.121781368757750114
-0.177278324643049434
-0.163785569063627373
-0.14905292726089675
-0.133142659711947692
-0.116271669402328817
-0.0988439503605200026
-0.0814101467027723846
-0.122725190958864458
-0.110832704011201613
-0.0982556369796957624
-0.0852640256491812853
-0.0722052576767217985
-0.0594846413919301112
-0.047495667944839115
-0.0727098658206377368
-0.0628117048758110308
-0.0527519333504003485
-0.0428757503666427064
-0.0335689067130101187
-0.0252173088341778318
-0.0181233295239512648
5.91702014086386718
4.34432928615777847
4.87233625967457495
3.59585662821661334
5.51777315562183635
3.97532144490028427
2.81585959518821216
6.52669952024792899
4.58406386333088545
3.16576681894234557
2.16747275967138275
5.91054856117485805
4.46382981386109989
5.29069436793640424
3.98728445402321618
6.15189330198891504
4.67253255764487552
3.46778553822799784
6.64781419428037346
5.03645279005807289
3.75123804153794804
2.68440716078314789
7.18619450232630363
6.95190672675522148
6.52521972776311454
6.29552389729982576
7.0819526174676577
5.8536036084102463
6.20421709340763528
6.83186432597559179
5.81836181663560659
4.56106329132413268
3.71272280794949827
16.2856601716637712
16.8768008567285044
15.2772992718756413
14.8571022377608539
6.75905075069578753
14.2730233116574823
10.2628873407485184
6.92372033805039244
8.78432111103093938
10.6788294361792495
6.35326020170914774
22.3898985922063929
10.4379610865192269
21.8851255363019561
10.0085897731929325
29.0021788967439882
15.2001046683074179
8.45898799654908551
9.59957320396274483
23.3396469927800183
16.2895182152311726
3.67144968303882946
4.99383184469995189
-2.6609031818143194
5.07391710233901438
-2.15987513989125457
16.1185964342379044
1.94212484159225385
-1.71922449019517942
34.765099140987914
19.5794316829521264
-0.726639871447622765
-1.36587024757059661
-3.19710609185684191
-2.82961776605279125
-2.95233898182640964
-2.52332114759609505
-2.45989767429179862
-2.62872657536980192
-2.18319489402478162
7.57064587002027256
-1.62472820903628334
-2.09469341112781615
-1.82562164386749348
-3.26958733043340555
-2.6551958196737977
-2.92609726997379038
-2.38622873004297364
-3.10182214867385353
-2.54234847115123541
-2.06029409768335325
-3.9390695117594281
-2.73663189912784377
-2.15987692759104633
-1.7176128098486716
5.84505556337595067
3.87256031642223153
2.59924015156377219
1.79537925383897057
6.30059793427737258
4.31803870047094041
2.68343416846188809
1.68349043447194302
5.83453918166109009
4.83394370746496893
3.75414241490844836
2.37320887168318428
2.30520010356750715
6.53824351202211496
5.92107696902859626
3.74787885596081383