/*--------------------------------*- C++ -*----------------------------------*\
| =========                 |                                                 |
| \\      /  F ield         | OpenFOAM: The Open Source CFD Toolbox           |
|  \\    /   O peration     | Version:  2206                                  |
|   \\  /    A nd           | Website:  www.openfoam.com                      |
|    \\/     M anipulation  |                                                 |
\*---------------------------------------------------------------------------*/
FoamFile
{
    version     2.0;
    format      ascii;
    arch        "LSB;label=32;scalar=64";
    class       surfaceScalarField;
    location    "0.0899999999999999967";
    object      phi;
}
// * * * * * * * * * * * * * * * * * * * * * * * * * * * * * * * * * * * * * //

dimensions      [0 3 -1 0 0 0 0];

oriented        oriented;

internalField   nonuniform List<scalar> 
20536
(
1.5225435173722799e-05
0.000156872964730921625
-0.00072171946404039314
0.000875526574002374663
0.00148112659182894125
-0.00119914822038171128
0.00136855716808539528
0.000230528591217206945
0.000101988757279538244
-0.000115711592546556435
-0.000287929653034635726
0.000349665378397741127
0.00127510755100432045
-0.00094992165815823554
0.00101049358170668836
0.000247438367914895162
-1.98408516757508924e-05
-0.0006021718240773621
5.51525808873194094e-05
7.10130325193292222e-06
-5.34687289850850622e-07
-0.000656929114861332358
4.69954350745569274e-06
0.000105577683291096836
7.11516868669681253e-05
-5.89221150398553978e-05
-0.00019095976305460961
0.000194525240431552677
2.57525720451981369e-05
-7.75426523952872854e-05
-0.000266260916086424968
0.000273499632268531115
0.000878709461994701155
-0.000754082320081838958
0.000773403356130454968
0.000402832578115915323
0.000335437381369650331
-0.000742057884384497452
4.25707606725287844e-05
-6.65348075056128698e-05
0.000417413134719530395
-0.000746676496028908206
2.05300881719923259e-05
-1.27586537577340398e-05
0.000438373413325209601
-0.000136662538293934018
-0.000126979052852928243
0.000183761365251105841
0.000194174761574887763
0.00015615348378347218
-0.000338736822524210218
0.000349243778526402637
0.000520077888911766651
-0.000606873411600979389
0.000732946939050485753
0.00042673440777704619
0.000732675814017672618
-0.000949514906919971674
0.00010788332339078748
-0.000114232119216491524
0.000648601883160531637
-0.000678027948726875915
3.55250196312646005e-05
-2.00998243624611454e-05
0.000613614752064938276
-0.000124131826119053355
-0.000197228512213049837
0.00021968672269079593
0.000600890799268319039
0.000228813087213770839
-0.00055787315968830757
0.000497940000844278524
0.000396537929223226334
-0.000633980894713162741
0.000662855614698631577
0.000695556848993716644
-5.0187200776811869e-05
-0.000620384514553076229
0.00048136752394872806
-0.000129020031288848826
-0.000526017192686859892
-0.000394493864403749092
-0.000162609977338098853
0.000354908490692184934
-0.000369609898738294904
-0.000191022045964197511
-0.000310297777120356144
0.000220786320036497706
4.85409541620977682e-05
-3.6165718253320918e-05
-0.000495701374949776932
0.000342532723116167957
0.000182103753492883567
-0.000532404963361487148
0.000410905138625155717
0.00038447578124847369
-0.000734356546498085854
-0.000474317902844090646
-0.000405664990313734633
0.000571145783271127545
-0.000902292957699379504
-0.000436969150464463802
-0.000353328180746261304
0.000563743224801625895
-0.000765525523005779283
-0.000280274463172799655
-0.000305589024197159241
0.000258081640842562296
-0.000490709010376259944
-0.000178478073667966673
-0.000297120696735771834
0.00016462022824040423
-4.12787515673106176e-05
-0.000407226654315548256
0.00027819683799934253
-0.0001382982011492931
-0.000772536105892457229
-0.000388464455035313289
-0.000285049559824842084
0.000258799631222073729
-0.000828846548597327666
-0.000398867310178312141
-0.000178679832050205022
0.00019689314127714489
-0.000770254904295771892
-0.000267597678350941668
-0.0001245967779455522
5.33369487663851909e-05
-0.000692974278608619312
-0.000179666874489692557
-0.000136743008945234732
6.06538995483466492e-05
-8.10851090879483104e-05
-0.000220803947131852974
0.000118509342679608227
-0.000550877161162868063
-0.000579696763602463149
-0.0003556385410094327
-0.000252522578686965838
0.000222548760961952018
-0.000635185983341340563
-0.000308215037854156471
-0.000108327664881861842
7.31697354991955683e-05
-0.00064472810008235485
-0.000216351283118249835
-7.78808383181380317e-05
3.61828484770387914e-05
-0.000643240263285281924
-0.000135420585608919539
-7.85948240408971638e-05
3.28626498854796915e-05
-4.78547060920074673e-05
-9.77719125966551963e-05
3.46931256534870064e-05
-0.000613394564940227482
-0.00042183355710636466
-0.000300415678737289249
-0.000129392065156801623
0.000106741712610451293
-0.000467528177806247143
-0.00024395370728550424
-7.95402084756097416e-05
6.09774552338773372e-05
-0.000490679290474670083
-0.000178145683071084148
-6.91941139487277476e-05
5.41436574479831122e-05
-0.000495561847468174461
-0.00011186974683704076
-6.2243197560251802e-05
4.35770821425672094e-05
-4.1406376410822836e-05
-5.73899781857298673e-05
3.44591548409265219e-05
-0.000479079832776879396
-0.000323035330219546206
-0.000250071625432585697
-7.07111142436168938e-05
5.90220522148839584e-05
-0.000352453358777698761
-0.000204620339068560666
-5.66348079595828984e-05
4.67227476605707744e-05
-0.000368047747863786071
-0.000154399628846450712
-4.81550334400043486e-05
4.00058957678895588e-05
-0.000370015459341628008
-0.00010154361676552613
-4.44010119362065776e-05
3.60451553420278404e-05
-4.77799466982526931e-05
-4.08391543562757874e-05
3.27383597789229324e-05
-0.000355538342164234741
-0.000245299174482279845
-0.000216497748341812845
-4.90962278716991293e-05
4.30749462160318931e-05
-0.000264996402528666793
-0.000180261148495667667
-4.18811604283263861e-05
3.72226933897854256e-05
-0.000275279212212321952
-0.000140052130545992358
-3.62030366703475434e-05
3.21410755577848173e-05
-0.000275503912069085589
-9.77425535135203783e-05
-3.20203301569343116e-05
2.84471867964846935e-05
-5.53969060327059152e-05
-2.85066901728093464e-05
2.55166524468348006e-05
-0.000264892919028221333
-0.000141497611923835554
-0.000245362248675442055
4.01653894755903075e-05
-0.000162502220231215016
-0.000222765983257530015
3.58676117296019041e-05
-0.000180293217263967495
-0.000195850141924774711
-3.4439756378693477e-05
3.15870782935800823e-05
-0.000193135023446309794
-0.000165067034556494463
-2.99531414225079675e-05
2.76053107938131816e-05
-0.000199842443882018912
-0.000131430402868607269
-2.60746196234323984e-05
2.41641973801158877e-05
-0.000199739180988156556
-9.62543103436042531e-05
-2.27788316068643488e-05
2.11911126754170525e-05
-6.11203000284297646e-05
-1.9791092861358801e-05
1.8576808642567681e-05
-0.00019279782560080642
-0.000101177506470427159
-0.000229290968673993877
2.78033693885104864e-05
-0.00011418824784685396
-0.000207906100993125753
2.48609993180286796e-05
-0.000125056041908022317
-0.000183469771915360205
-2.34003571505782324e-05
2.18917945409140166e-05
-0.00013271634363944964
-0.000156207470817363019
-2.03247191545113464e-05
1.91304180035928138e-05
-0.000136491365845102969
-0.000126690217342189136
-1.75988468823546319e-05
1.66383034272378022e-05
-0.000136090287541325446
-9.58837480134019547e-05
-1.51758175422298567e-05
1.44083693764932915e-05
-6.49761312754258149e-05
-1.29525506270943087e-05
1.23762065643569565e-05
-0.000131654443963614309
-6.20929857827423831e-05
-0.000219985303850218981
1.69855195046954376e-05
-6.94065866287725693e-05
-0.000199637182799071358
1.51696059403076292e-05
-7.52514376243106249e-05
-0.00017684803494265135
-1.40730391078192378e-05
1.32993576772990837e-05
-7.91163587125707211e-05
-0.000151719458063293163
-1.21140085505617407e-05
1.14950839075265136e-05
-8.06868194067053633e-05
-0.000124626514193096138
-1.03328460291577637e-05
9.84357349573971151e-06
-7.99396266541437184e-05
-9.62495690045847888e-05
-8.74384507107312579e-06
8.36612626207177928e-06
-6.7520663499821807e-05
-7.32816029957278959e-06
7.05751161151712003e-06
-7.71211518618960059e-05
-2.16116572996730409e-05
6.17407768816931538e-06
-2.41700305677372662e-05
5.57561562734659621e-06
-2.61158906986972149e-05
-5.20994842237301846e-06
4.93866700840431212e-06
-2.72488006691002147e-05
-4.4728838862159775e-06
4.26127864210664526e-06
-2.74693981854568265e-05
-3.7394754733827994e-06
3.58740126485459958e-06
-2.68295404683199229e-05
-3.06214110348530075e-06
2.96040845643645981e-06
-2.47397802804567611e-06
2.41006468348260456e-06
-2.5559532653846371e-05
0.000176404557295713497
0.000100683679668125639
-0.000587473852069924306
0.00181271426489590815
-0.00101025725591917981
0.00025279439423510049
0.000190112126633509084
-0.000166955288567716045
-0.000199535633001461014
0.0015237511743905279
-0.000822340866261530787
0.000351495874594140445
2.52778518788181195e-05
-0.00059926957141461022
7.29372735047857917e-05
0.000103673192265957368
-0.00038783519709733043
3.56969803503763366e-05
0.000302315715307514062
-0.000265946819487412694
-0.000163163251496482246
0.000218823248672229769
-0.000226085276793388666
-0.000123630339587542338
0.00103898848897566163
-0.000574002139580846878
0.000523505894539087833
0.000249377993226945413
-0.000671692862640813591
2.51930674885834211e-05
0.000500057125719424386
-0.000653482899307797002
3.54988693341329103e-05
0.000583196817345052769
-0.000354606139014345106
-0.000121456105982572826
0.000310056594112254036
1.78859490335006935e-06
-0.000293468291641310456
0.000660984063274107836
-0.000429872186191693987
0.000511060988394703678
0.000499900788685731911
-0.000743318763663744844
7.69482492884137329e-05
0.000499501802286410009
-0.000733122935767446067
0.000115564869463739687
0.000482134935614018934
-0.000350505741534505111
-0.000183959300415315594
0.000453914891618078338
0.000116583815167964615
-0.000644446864615305691
0.000490315818083873929
-0.000633146848190892318
0.000623752365962111296
-6.67259965541254984e-05
-0.000287582147477191306
0.000482557365277537812
-0.000401873894157214328
-0.000595927102217435147
3.53510455260701176e-05
-0.000353352897096215538
-0.000344157464413976126
-0.000365166500273021353
-2.11556667934632413e-05
-9.14359478561034013e-05
-0.000619881733852112294
0.000258177736874900838
-0.000733195948853051431
0.000411775876506775655
-0.000621455599813859529
-0.000233040260360946349
-0.00020124824003067842
-0.000758259794448037038
-0.000523498434180600172
-0.000288945800928537772
-0.000647120646883491378
-0.000348705179056468643
-0.000412180692944613962
-0.000448746130146960784
-0.000209313298499139882
-0.000377621838618510486
3.2380750731422867e-05
-0.000569256109023256541
-6.09197277450551807e-05
-0.000625474600889858699
-0.000210841772111563294
-0.000229964215100255298
-0.000783789273406905636
-0.000402378537044895156
-0.000141478023881338804
-0.000762458623751362556
-0.000261702211920663739
-0.000232926659088759154
-0.00070531781693518791
-0.000171455510117651968
-0.000231745807301841911
-3.82973256862045435e-05
-0.000341131264853974741
-0.000514318343388664662
-0.000523297354815062355
-0.000312500074534147903
-0.000169494314513489404
-0.000622388184899765398
-0.000301783155980751339
-0.000109825686803979275
-0.000650711192235437744
-0.000207366549824997983
-0.000103889428305998328
-0.000658109199997214465
-0.00012523917537039236
-0.000117415704376526452
-2.96795416143304502e-05
-0.000152131319365963644
-0.000612373852130752394
-0.000398894649946766498
-0.000282100552950396272
-0.000116411461724839766
-0.000458975342789166765
-0.000235436508072994402
-8.58016161083679645e-05
-0.000488265369767405864
-0.000172737485886889381
-7.45288732784532961e-05
-0.000496589074050493356
-0.000104445222004841181
-7.47123187906206365e-05
-3.23643739965660812e-05
-7.41288088952491418e-05
-0.000477166763218288162
-0.000314102301987729713
-0.000240488933469671425
-7.42665912320306424e-05
-0.000346461814202049046
-0.000198397672340173422
-6.13104223708052764e-05
-0.000364762293539853152
-0.000149524581259101154
-5.30635416534652071e-05
-0.000367365921198748065
-9.66078578131310392e-05
-4.963080432526012e-05
-4.26961512190162509e-05
-4.60074738249192504e-05
-0.000351862056516974951
-0.00023948282741372538
-0.000210329493779509046
-5.14311820284925897e-05
-0.000260437060084598457
-0.000175303077160368561
-4.40169839523600262e-05
-0.000271878102780393491
-0.000135890033735416399
-3.83921728355599451e-05
-0.000272436187460085356
-9.3944339021481685e-05
-3.41208335058914956e-05
-5.18999759059310032e-05
-3.01387461204678709e-05
-0.00026159489185509458
-0.000176641182697718612
-0.000191167160836231141
-3.55466782075168815e-05
-0.00018997537439081495
-0.00016104788314284899
-3.08680453516035929e-05
-0.000197129561279761563
-0.000127929545991456732
-2.68751760597515243e-05
-0.000197264732397110435
-9.31534025318279729e-05
-2.34289654818864658e-05
-5.83893459335176504e-05
-2.01869595451755341e-05
-0.000190374012575485484
-0.000122589538261995998
-0.000179750592968293992
-2.38050777486771828e-05
-0.000130503847557594279
-0.000152827690704712682
-2.06241205733032416e-05
-0.000134533494133431432
-0.000123670810559574823
-1.78216970924368217e-05
-0.000134318943678196021
-9.32281985425809041e-05
-1.53097624058486095e-05
-6.26934266986810723e-05
-1.2983223422909196e-05
-0.000129978876492004675
-7.36212053812703457e-05
-0.000173671760527461914
-1.41873875345644397e-05
-7.76378428791829557e-05
-0.000148746171316674878
-1.21740570350015748e-05
-7.9392474587880403e-05
-0.000121888161884799954
-1.03561872620485704e-05
-7.88113469333051109e-05
-9.38147386565812877e-05
-8.73408886428900277e-06
-6.5437068979031475e-05
-7.28007193494540399e-06
-7.61118283068835759e-05
-2.54023304164062905e-05
-5.23493833291723608e-06
-2.65831865629206596e-05
-4.44700470631186384e-06
-2.68861818867138844e-05
-3.69911671232486798e-06
-2.63425257253435106e-05
-3.02347572434220339e-06
-2.43601783604263875e-06
-2.51598365120991939e-05
0.000447622538854967325
0.000106066092600556628
-0.000435280952731696182
0.0021159392838305288
-0.000823215229872642376
0.000472150897420369744
0.000385928751778045695
-0.000196240998049149407
-3.91611475981945578e-05
0.00177924689441860597
-0.000619585953408560621
0.000519867047729625402
0.000140277397109454111
-0.000616979724343323633
-7.60107984008050083e-06
0.000316761773267568722
-0.000524760893667040851
-7.25611128166447645e-05
0.000347514745401391212
-0.000494902023439448705
-8.24019789665533429e-05
0.000247825552808847655
-0.000212966501663571558
-7.21260876245221607e-06
0.00133563808898248381
-0.000418221878151237307
0.00053565435172393957
0.000357902922447874382
-0.000749354718393168773
-2.40846955882674884e-05
0.000559041680438391751
-0.000679475633532105054
-1.09247996620821493e-05
0.00049477882039990575
-0.000485647465862358639
-6.64463327665216477e-05
0.000213831759111207317
9.36301805239869093e-05
-0.000319115704568761864
0.00100547983849605025
-0.000354499000687660631
0.000468620615435124408
0.000651209059456728852
-0.00102458371418791966
0.000103410389633798195
0.000506906692251227588
-0.000557808437199589814
0.000138200513966463625
0.000339082505437818217
-0.000391492906613986425
-0.00011029091032312049
0.00019406761263237606
0.000247351895805381626
-0.000653152500893929466
0.000747800414541983927
-0.000703968437229345631
0.000522573659466496736
-0.000149475945620116622
-0.000657883964878771448
0.00046917554201154107
-0.000398220933764575446
-0.000524065658686787721
0.000250351394295283654
-0.000359518839598653049
-0.000391374175333457494
-0.000404000523898438203
-7.39724143311870381e-05
2.44580788364135414e-05
-0.000682535892882302556
0.000469407163998227244
-0.000846440430499976765
0.000317672111109028408
-0.000684246783231166997
-0.000320120675282748682
-0.000215983802814236308
-0.000704690832199064438
-0.000626190177319077275
-0.000166382607507371849
-0.000689333266574206375
-0.00040435955633606063
-0.000414561070727393103
-0.000501277230269080122
-0.000134278783316062097
-0.000406940784146979828
0.000197695803393930548
-0.000670028776654997072
-0.000128787500735002831
-0.000565316500070528125
-0.000238476354565747773
-0.000291694837118669471
-0.000665986959591830072
-0.000397998157058128106
-0.000268999934363629454
-0.000758835310680404168
-0.000269967385552488074
-0.000274474984674510198
-0.00072221752001934566
-0.000141654441421458586
-0.000260992762483687447
4.8929366742814657e-05
-0.000391112975028960232
-0.0005234681273508404
-0.000477869571738053075
-0.00030241447578361778
-0.000141656213296130745
-0.000590275056126745093
-0.00028003430619556914
-0.000115381771772741484
-0.000654671749539039349
-0.000200179401249054445
-0.000109282261081024599
-0.000671127742462863746
-0.000104701718004492083
-0.000137917293040975614
4.61704391244978048e-06
-0.0001728695419117315
-0.000606082038218709314
-0.000388149193329745726
-0.000266972363430008504
-0.000108661592468306059
-0.000449705125283351352
-0.000226479896804980291
-7.77955752455788556e-05
-0.000487293504658722659
-0.00016512005980726479
-7.19979414397902833e-05
-0.000496381223855942087
-9.32479807465056245e-05
-7.70803634910581222e-05
-1.72588371540007163e-05
-7.76332339278336403e-05
-0.00047100472366442479
-0.000304934002036229127
-0.000230267132808445295
-7.28368567270500935e-05
-0.0003408306503675102
-0.000191285776901499021
-6.06032773688767567e-05
-0.000362050449190291996
-0.000143453330368138266
-5.35070173079517174e-05
-0.000364579142718575802
-9.01069432459498335e-05
-5.02412305904448121e-05
-3.58355300205476316e-05
-4.55896170581238764e-05
-0.000346418504628183291
-0.000233438355622343812
-0.000203565871010121918
-5.00509281478005294e-05
-0.000255823563802311444
-0.000169866227758537578
-4.30466903395221404e-05
-0.000268533009294537198
-0.000131169330259217696
-3.79621469996272264e-05
-0.000269294304720324278
-8.95365314715324239e-05
-3.39251819025191412e-05
-4.78446662392223787e-05
-2.96498923007748811e-05
-0.000257768689017637991
-0.000172824659871503465
-0.000186282439780869941
-3.45696941429776765e-05
-0.000186709547678047137
-0.000156825591186606129
-3.00186770079413488e-05
-0.000194359407191258075
-0.000124212861399179236
-2.61764168156186393e-05
-0.000194685824327079764
-8.98436551551480827e-05
-2.27898013153339602e-05
-5.54955522016497386e-05
-1.95043662095600604e-05
-0.000187711828129294162
-0.000120041988359745295
-0.000175957026265504036
-2.29273701373549047e-05
-0.000128243177418394482
-0.000149410493255151833
-1.98330570328688973e-05
-0.000132549547231830929
-0.000120601659908591753
-1.71214363269992447e-05
-0.000132502821374739518
-9.05262437436356608e-05
-1.46689504215674012e-05
-6.03823663553647178e-05
-1.23790740029410139e-05
-0.000128215599842175
-7.1942503512325377e-05
-0.000170475706325606222
-1.35441278778924261e-05
-7.61561137291487866e-05
-0.000145770011476061212
-1.15973734205290778e-05
-7.80995159924153929e-05
-0.000119156534839161765
-9.85441265963343274e-06
-7.76699537868437667e-05
-9.13969409758096449e-05
-8.2897428813088905e-06
-6.33788591323361164e-05
-6.88155815860351388e-06
-7.50691545934454218e-05
-2.46545728889328917e-05
-4.93185411864448615e-06
-2.59171965313841735e-05
-4.17888579591307119e-06
-2.63166737399101281e-05
-3.47292992670941398e-06
-2.58681717071641024e-05
-2.84114033383675704e-06
-2.28575141385455887e-06
-2.47622780087796946e-05
0.000439736948725981543
0.000314434057040148096
-0.000298159211954643713
0.00215682549252248917
-0.000608644391815626367
0.000545684326770362886
0.000385867634987611344
0.000170387552201926851
-9.62568291368628e-05
0.00189048349997537348
-0.000501083302466223983
0.000533708169414660286
0.000105596162637191376
-0.00060841233563578654
-6.17580795579622966e-05
8.66257110019310011e-05
-0.000562321667799791877
-1.77177480796738564e-05
-5.56285636128237601e-05
-0.000257944839750400587
1.92783056702232848e-05
1.08925631524632371e-05
0.00031708494995510495
-0.000220429158436306026
0.00154710248205788738
-0.000512437195327462239
0.00044849212560208059
0.000220156729930918657
-0.000694149234676319634
-1.67415867042509589e-05
0.00027899589890130179
-0.000682207021431006271
5.01219517081390306e-05
9.35325250261455907e-05
-0.000193700868852079359
5.47738647146962896e-05
-4.76903147309014688e-06
0.000511632100209216721
-0.000415356330921335987
0.00126082648467050387
-0.000495004229257507461
0.000422017061585874863
0.000443891376919843504
-0.000908784041114985702
0.000198108647953036177
0.000280857003962186778
-0.000652469407798448469
0.000271495826318289687
0.000174815190311133429
-0.000165858253262646
-3.20981079451951442e-05
0.000167103575947409437
0.000470080198296622719
-0.000603885068752615332
0.00103149202832188559
-0.000763290570079436909
0.000455765099691560031
-0.000345834641294538682
-0.000520672355551879407
0.000590160128620812081
-0.000453680128470528195
-0.000655373411400857501
0.000361088776935096631
-0.000391104082941867378
-0.000289553613307812533
-0.000342892887324165339
-0.000217062626582905966
0.000269742805979427411
-0.000656233170775164074
0.000776813951807605067
-0.000884476864970147516
7.56610918464560925e-05
-0.000647152751634574581
-0.000142476111661390199
-7.66665772540608232e-05
-0.000824623047741291086
-0.000574403335902551131
-6.98925331048741839e-05
-0.000868742805299523501
-0.000411311995406771149
-0.000248689064424280218
-0.00069376984592087426
5.243068810973488e-05
-0.000364596777431068866
0.000435308209936575963
-0.000624373935927656346
-0.000397909860778460447
-0.000435060669005212365
-9.15687480785291641e-05
-0.000317988663818728019
-0.000613905112406503903
-0.000333329619943027082
-0.000331233635756409545
-0.000823455738498315407
-0.000288698592344810727
-0.000187543940675995163
-0.000817141094511001417
-5.40490141873765988e-05
-0.000160828639045670397
0.000173652052660176021
-0.000309256771864977094
-0.000637337473704827615
-0.000466408705640813763
-0.000243814259422294539
-9.28118599428324814e-05
-0.000562582593072774324
-0.00027056746247178877
-8.19693144824182974e-05
-0.000676927646477844041
-0.000192583557429135886
-9.10547084977108298e-05
-0.000690196876262316088
-7.71150010204229051e-05
-0.000101585880241505252
4.68458685588195217e-05
-0.000128318523362706756
-0.000607945469817413524
-0.000366671191179928713
-0.000250462018846665509
-6.44920214458341546e-05
-0.000443574353582174301
-0.00021905961692364931
-5.23960173487658814e-05
-0.000491281281275093157
-0.00015798055826343109
-5.88932461039369935e-05
-0.000496698888529614638
-8.11395896978858017e-05
-6.76408420908890132e-05
-3.25312065650736363e-06
-6.50660817748399819e-05
-0.000459170258559842492
-0.000295144038069529414
-0.000221073539725956598
-6.38419185378848056e-05
-0.000335155389460964847
-0.000185166033642291598
-5.4480797789879989e-05
-0.00035966529052901112
-0.000137554183266639675
-4.94208539502293746e-05
-0.000361097518817307206
-8.32206792700128974e-05
-4.67266780469906783e-05
-2.89559389349080032e-05
-4.13784490125410792e-05
-0.000339604252787944301
-0.000227761574987149626
-0.000197178968030138499
-4.54237737974140789e-05
-0.000251710804544114965
-0.000164651303715342514
-3.96073176591980609e-05
-0.000265439688698898221
-0.000126445117059748084
-3.53379483384652963e-05
-0.000266005621908369243
-8.49985684018775013e-05
-3.15769024111366175e-05
-4.37248459698000273e-05
-2.72153567940244904e-05
-0.000253666154763508643
-0.000169297829190917238
-0.000181540970997175975
-3.15857884288256479e-05
-0.000183698823179973258
-0.000152711651362264671
-2.75520974241515333e-05
-0.000191710901148302646
-0.000120533799849831122
-2.40701880369453266e-05
-0.000192086882828095245
-8.65418691978360856e-05
-2.08647746290327953e-05
-5.26386627417403321e-05
-1.76946403137748522e-05
-0.00018497689933349217
-0.00011765033012518885
-0.00017221633383578274
-2.07586282469867315e-05
-0.000126131883375863563
-0.000146084193158243434
-1.79739903934046831e-05
-0.0001306440293473293
-0.000117636095254192158
-1.55017804081429e-05
-0.000130700713422061125
-8.79178054651285604e-05
-1.32311784045134312e-05
-5.81669105222095214e-05
-1.10959198335166818e-05
-0.000126450775543450136
-7.03469281872859902e-05
-0.000167324523719373722
-1.2135770791689193e-05
-7.47556955437520139e-05
-0.000142883280097741341
-1.03860293796883474e-05
-7.68689354136838587e-05
-0.000116559043554442869
-8.81470480342939173e-06
-7.6562862131262244e-05
-8.91141414469716629e-05
-7.39621338630274617e-06
-6.14422298319876824e-05
-6.11295911105470072e-06
-7.40532418161138627e-05
-2.39575896964804225e-05
-4.33628239384830378e-06
-2.52991140139020889e-05
-3.67562625906633843e-06
-2.57888968280482915e-05
-3.06191576666683397e-06
-2.54226722585031288e-05
-2.50683275774259167e-06
-2.01401050554936439e-06
-2.43863587797941972e-05
0.000419667317404278945
0.000561551607716831371
-0.000284541768497541454
0.00230192846687701921
-0.000443742134653314169
0.000576310911537849884
0.000349563346820595138
0.000488155456907768989
-0.000252335105202962514
0.00205013528651932717
-0.000414041240748831869
0.000514314699881220235
1.39157666068298602e-05
-0.000573446970266073349
-3.55142189395215679e-05
-9.6436902768536341e-05
-0.000329176464796730977
0.000128849336708716653
-7.18985437013999642e-05
0.000250129729978782096
-4.17249184227381522e-05
0.000200089449175201457
0.000475756587262340946
-0.000480015989068108642
0.00175262808593727747
-0.00046126903497789221
0.000446430756292555864
0.000172578487206771075
-0.000661857300889458601
3.93510800053916039e-05
0.000206199161340851034
-0.00051349874865269055
0.000200823395981903447
0.000133952208942199
0.000229272074419490139
0.000147877100156503568
0.000140784310382028834
0.000477326455412082262
-0.000423751897623563412
0.00150850804922723967
-0.000549672012378304292
0.000439575499539120564
0.000391167257705901531
-0.000732055897456265238
0.000258777295320769107
0.000286029547952071014
-0.000473926997208973493
0.000337058256981872465
0.000314088718617139501
5.44899369397838139e-05
0.000114621399472073556
0.000128751484700989009
0.00045149639692111047
-0.000392709493982630066
0.00126911008105033522
-0.000690957926219847962
0.000295823893108180039
-0.000294053269515111141
-0.000503122718228883104
0.000853871907062469593
-0.000282897418632346723
-0.000564144764568642485
0.000440137730832346956
-0.000237376631085394417
-0.000213363796482125259
-0.000120562971830600967
-0.000250139262157284025
0.000361274576036033188
-0.000553236862057458756
0.000934107424046493225
-0.000756058098685840848
-4.35461633947542421e-05
-0.000807892303949637861
-0.000300307386893624597
0.000225661558336658313
-0.000974815450610459723
-0.000597918265601896396
0.000130792200508213376
-0.000971391386812838972
-0.000400817150811335298
-6.46624090311515584e-05
-0.000765796116019634775
0.000150387719866067779
-0.000359298491246734942
0.000530152814597349958
-0.000517274416973543118
-0.000468933916536809709
-0.000446781023600360805
-0.00034110141261317888
-0.000130199819020418385
-0.000792523432372957588
-0.000437050225481879233
-0.00014636531985315923
-0.000959157800319182649
-0.000344562052753660298
-7.71681083884691158e-05
-0.000865995664117200949
-6.27081053903232825e-09
-0.000103594573657128891
0.00022548714270495223
-0.000197839913741991306
-0.00067274501354631336
-0.000410082108361125176
-0.000337482754810044931
-6.58614782802799625e-05
-0.000566371920073174525
-0.000319257886413497219
-4.3471185328109722e-05
-0.000720933468171720566
-0.000215179122166436114
-6.58762360560570705e-05
-0.000699574474906394924
-5.61216405009693604e-05
-6.68299377024703524e-05
7.13865585456875901e-05
-7.27111965313516877e-05
-0.000601082634757459772
-0.00035938840681719081
-0.000254986541910530353
-8.17156686509593755e-05
-0.000442015995992410863
-0.000224532377896770487
-6.44898006118841739e-05
-0.00050219942390578975
-0.000158061156591377374
-5.5826197778682636e-05
-0.000497602684354602159
-7.06813109965768083e-05
-5.76781749483257228e-05
7.4070295274012476e-06
-4.91387209337256503e-05
-0.000449551212977265563
-0.000287277838283691439
-0.000216123193523739599
-5.96277071855512449e-05
-0.00033116125629154171
-0.00018130090317313146
-5.38245506309746727e-05
-0.000358480474353924897
-0.000132501104574131565
-4.76594330733490451e-05
-0.000357544066017942419
-7.66446334886880135e-05
-4.16982952575949774e-05
-2.27651741476566052e-05
-3.49554057703813388e-05
-0.00033379285309229794
-0.000223189292317877553
-0.000191537943902508298
-4.03844362915053835e-05
-0.000248335077321215863
-0.000159861756318074703
-3.58961657035436902e-05
-0.000262571313241546217
-0.000121875811165987442
-3.17233491525099719e-05
-0.000262637615747062523
-8.06218336952187897e-05
-2.75295831340616918e-05
-3.98620112273900628e-05
-2.30468486043560959e-05
-0.00024970467994353822
-0.000166094947096335696
-0.000177095518469366124
-2.69276095444125112e-05
-0.000180993484844039923
-0.000148823396391882935
-2.36868606645859052e-05
-0.00018925330949708379
-0.000117057072223687305
-2.06239458565244637e-05
-0.000189609617210503281
-8.34561445874520188e-05
-1.76686544195574314e-05
-5.00056891473653399e-05
-1.47771629207398391e-05
-0.000182377595982190444
-0.000115438891347589733
-0.000168712368992082285
-1.73283788199601969e-05
-0.000124200538586300568
-0.000142994475093431657
-1.50363044519621825e-05
-0.000128897884538428854
-0.000114918533669391759
-1.29377122758990607e-05
-0.000129038328613735311
-8.55620149973435686e-05
-1.09795861500944762e-05
-5.61763877247430576e-05
-9.13924107212000467e-06
-0.000124819226010687676
-6.89115353962742625e-05
-0.000164378259015016945
-9.98105528895228319e-06
-7.3495850369699841e-05
-0.000140248653522055309
-8.54405704387032063e-06
-7.57568085550971548e-05
-0.000114228576403165559
-7.24011490566910405e-06
-7.55624433571891295e-05
-8.70923450071611717e-05
-6.05687232313452837e-06
-5.97294806929701868e-05
-4.9839507771471776e-06
-7.31353251591581406e-05
-2.3366193180368579e-05
-3.49630305607717948e-06
-2.47715253762714119e-05
-2.9669407265877037e-06
-2.53313916715230295e-05
-2.47819448821566619e-06
-2.50308665072831479e-05
-2.02910159625466686e-06