/*--------------------------------*- C++ -*----------------------------------*\
| =========                 |                                                 |
| \\      /  F ield         | OpenFOAM: The Open Source CFD Toolbox           |
|  \\    /   O peration     | Version:  2206                                  |
|   \\  /    A nd           | Website:  www.openfoam.com                      |
|    \\/     M anipulation  |                                                 |
\*---------------------------------------------------------------------------*/
FoamFile
{
    version     2.0;
    format      ascii;
    arch        "LSB;label=32;scalar=64";
    class       volVectorField;
    location    "0.0899999999999999967";
    object      U;
}
// * * * * * * * * * * * * * * * * * * * * * * * * * * * * * * * * * * * * * //

dimensions      [0 1 -1 0 0 0 0];

internalField   nonuniform List<vector> 
7248
(
(-0.110922405716821451 0.445798305770221392 -0.813646247783432641)
(0.132171723270861408 2.36029470534736197 -1.19670263878578664)
(-0.0985274910715188135 0.00930885450165296058 -0.325017706090863667)
(0.276797411383816527 1.97092059361774341 -0.937766595716146401)
(0.0108244959575210381 -0.890056382207696117 0.0015873181411310347)
(0.197906739348464228 -0.847588151752907137 -0.026322716274360395)
(-0.108981768610343949 0.0732961546034267553 -0.175558146745338955)
(-0.129349757645385754 -0.254940681596475427 -0.228128318732470137)
(0.403218672648055221 1.58161047365239682 -0.746761755236574953)
(0.267333609711086717 -0.863374330319640837 0.0774379613559707525)
(0.59667850692143054 -1.04682055744674152 0.0754939158558977641)
(0.374345388372537835 -0.305033039037500397 -0.124604690238296789)
(0.231690887995305572 0.09189647409800214 -0.3097559814060592)
(0.335256107289726268 0.945549955490340044 -0.630996485450814104)
(0.661012556293882225 -1.01566340029640267 0.154124036968589923)
(0.834500438947839984 -1.07238395982429102 0.175087680667572104)
(0.661639457638385164 -0.419576009623444102 -0.136708259327420867)
(0.652018915860438142 0.124315591571906831 -0.489844319766224334)
(0.684320566883511172 0.467710604678301889 -0.612097101141547029)
(0.604706065754062161 -1.49670268003565199 0.572007608336798867)
(-0.586051708281457917 -0.734803892162329886 0.0821341600368973718)
(-0.732024793885334923 0.0633972089487376267 -0.162815726832901408)
(-0.0274749234084170346 0.348359337322651119 -0.393206763675626347)
(0.259479954892830711 0.535028750215302606 -0.385152671938998326)
(-0.573736605306106262 -0.714095807659316351 -0.287666971937432014)
(-0.935960121267292222 -0.510352796357581018 -0.297311233318138357)
(-0.945989794736410539 -0.404217156022614876 -0.208459372496743928)
(-0.68977756843717053 -0.233603627531691671 -0.207190368663943941)
(-0.382837769750229873 0.106201423762499192 -0.276985251839569346)
(-0.774331069804909289 -0.479644503409750844 -0.25913855727145868)
(-0.890699477402177031 -0.626050934634135192 -0.165978530910407124)
(-0.868174648971024476 -0.404570553251105802 -0.0869674856805901647)
(-0.788610017658760598 -0.287716404489151256 -0.0940175145465668438)
(-0.681352317413327691 -0.172793360820913067 -0.153192166007577235)
(-0.636831191067124935 -0.595347772828653143 -0.273863913730998443)
(-0.624142359213106901 -0.509835873427798236 -0.0910398488460307104)
(-0.698434919669547516 -0.353991478392424841 -0.0533548377598828255)
(-0.684934121958171382 -0.223417378794466881 -0.0539599991422880995)
(-0.684938539078057906 -0.0790197906050933846 -0.0584838691598737748)
(-0.445868394218172703 -0.482215255613155203 -0.125177702399846269)
(-0.466343777135429571 -0.396728527479157267 -0.0653192679909645191)
(-0.517287107738129914 -0.283224815134405006 -0.0597023686396812303)
(-0.52898168456394512 -0.176990323859105403 -0.050799016783070472)
(-0.523887393776684918 -0.0643662274991002453 -0.0431426285279084831)
(-0.326823899499807724 -0.388471297062409737 -0.0635762719097264506)
(-0.362092835403852842 -0.31919912981276527 -0.0492820149657407086)
(-0.385550281475556755 -0.238025219937413601 -0.0419178705097837737)
(-0.396298752798178 -0.154107520627360328 -0.0382060640606748103)
(-0.389227650390763458 -0.0671419410544454726 -0.0347542827722579981)
(-0.248047862184161166 -0.329172889686871417 -0.0440308431106536391)
(-0.273649301137654177 -0.273749548791477726 -0.0378374871355659503)
(-0.289519184623680592 -0.210236471309463324 -0.0325558526233804824)
(-0.294982170987425851 -0.14323513504555932 -0.0287192548259390737)
(-0.289377543502531642 -0.0761621820481736267 -0.025650503603424156)
(-0.139225975905065857 -0.364374438929033984 -0.0402107104190471271)
(-0.162513023742700741 -0.332092161471608083 -0.0358989038360578994)
(-0.183504747511383737 -0.292157789240604981 -0.0315319232719127665)
(-0.199936809939901983 -0.245262032314500306 -0.0274522987740460286)
(-0.210387423126626005 -0.193490938284684721 -0.0239360129066279945)
(-0.213802930321992241 -0.138989417044708297 -0.0209331392593932117)
(-0.209914312170025846 -0.0844185887031630583 -0.0182625696574904364)
(-0.100712807608365096 -0.336674092056899243 -0.0275382028686644263)
(-0.115151435689986398 -0.305489432238175707 -0.0245276822325911116)
(-0.127925010686507745 -0.269189265078595197 -0.0215503231163990186)
(-0.137862664599749191 -0.228227672232630907 -0.01879019378734487)
(-0.143932578073446504 -0.183612572450778999 -0.0163050286874651743)
(-0.145664142915924444 -0.137023675664061984 -0.0140870514924154901)
(-0.14303003199434175 -0.0903752477775638524 -0.0120589275673155007)
(-0.0619407020140210068 -0.319816369113735011 -0.0167146630425356324)
(-0.0702432831133217306 -0.290055005941388888 -0.014869415271569356)
(-0.0772511904365745378 -0.256383803684896827 -0.0130112400040804654)
(-0.0824396865304498627 -0.219131927286886713 -0.0112306490476710621)
(-0.0853319435864392517 -0.178936733388561309 -0.00960260467846432535)
(-0.0857514948310069691 -0.136910986587006095 -0.00814189407261182649)
(-0.0838379712992318449 -0.0945528616004279177 -0.00684273839620241214)
(-0.0214209978908230791 -0.30880009841894307 -0.00607717151132324603)
(-0.0243498762776491566 -0.280662311048127111 -0.00546970895547701022)
(-0.0267758380317164278 -0.249423536713938632 -0.00482290222743265128)
(-0.0284406602745711987 -0.215027848504544039 -0.00415021407705186418)
(-0.0291899896873147949 -0.177892451687194142 -0.0034791530732159277)
(-0.0289932215747103518 -0.138764047259279516 -0.00285889304410644109)
(-0.0279927967076655411 -0.0987518875037716876 -0.00231775820091555812)
(0.155107642767203846 0.43292515589551106 -0.607689945878421733)
(0.220533975549324524 2.73669455298787101 -1.02917716197395448)
(0.0892873400681112039 -0.063882847055968528 -0.270508859931371304)
(0.385898480620129491 2.46679922979469524 -0.852140602178729667)
(0.100348027884269789 -0.918833616848547141 0.101068654520093115)
(0.0601000397457523428 -0.347017053173854728 0.0370148000923658099)
(0.171664339515092634 -0.212501658275678906 -0.118508317910166389)
(0.221645862525338688 -0.33586400245269743 -0.156675876769914596)
(0.469126950976966606 1.88262767884803761 -0.617061615126382246)
(0.319221907842703045 -0.816095031195985587 0.0238331517968001713)
(0.429907496539576106 -0.784451886962931333 -0.0257434259007500721)
(0.576375815929910384 -0.522141731346295379 -0.124404298312645392)
(0.41962784308277945 -0.203951593341747645 -0.261583662721488697)
(0.389184640925640812 1.13142532480602154 -0.450079851166191203)
(0.535247371185492926 -0.855917926300749365 0.043973357535423703)
(0.528397001753396434 -1.01631655220951078 -0.00929973161136827577)
(0.535029263078831585 -0.680893628664784534 -0.267918270622612087)
(0.530265174181081766 -0.0153353204116276065 -0.627771818693797279)
(0.548089651864438587 0.659505991784661738 -0.593605710217494753)
(0.418990504420312326 -0.93345007009724501 0.610540916887082452)
(-0.549262391977230591 -1.07838495851716298 -0.206549711225343546)
(-0.56768750538064372 -0.270574438855886834 -0.321702174634748761)
(-0.199418164552384924 0.251229862932355053 -0.541017432991343861)
(0.257696977535435634 0.63119417382637022 -0.637230508119499217)
(-0.533374606711675137 -0.497503914513281853 -0.326193362846673773)
(-0.817195003866187264 -0.741477679746105234 -0.353767625501474448)
(-0.772678091748355556 -0.557413626424434705 -0.36446438079725374)
(-0.635193047966688407 -0.309972937832366013 -0.33643389433005283)
(-0.301545472537963322 0.2320399618672426 -0.475765155860614353)
(-0.502909942959094858 -0.0844465101619645969 -0.279788846948747949)
(-0.821417912394624139 -0.629619473138831598 -0.187983701108067391)
(-0.834907134414440866 -0.416668643889582802 -0.165840255700231504)
(-0.810714265293840719 -0.297442199620249981 -0.172596519688730576)
(-0.672542400396127338 -0.0905864159471345132 -0.265400658014863511)
(-0.585470990779861422 -0.513930795430958987 -0.182402598055321524)
(-0.586014693940473785 -0.487062160429359792 -0.107350413302949629)
(-0.700054006663352935 -0.323704964500441283 -0.0902557932897401632)
(-0.695359260635259435 -0.200935633964997751 -0.0940712034379830725)
(-0.697388963203823709 -0.048452676375918699 -0.121862006895397251)
(-0.406081087372811511 -0.441733349148513532 -0.116219220135881998)
(-0.45778859528897442 -0.384219702677686681 -0.0817994366963466779)
(-0.509385319083217158 -0.274544192979391921 -0.069235744208940353)
(-0.528520342170627377 -0.164602876503415901 -0.0654859466718008265)
(-0.523343925492620876 -0.0476124465094050556 -0.0638080049328455107)
(-0.317149201837364947 -0.36711458713577938 -0.0695462637962109692)
(-0.354033242103862278 -0.307330557650781599 -0.0568010973644118428)
(-0.380974036753697509 -0.230062291817897308 -0.0485267548829646997)
(-0.392896642299163878 -0.145631747076695156 -0.04516616795727766)
(-0.3857030128464497 -0.0576006545931683073 -0.0416524868399338472)
(-0.241664802358906555 -0.318649985996074803 -0.0483998313756522358)
(-0.267968999117737916 -0.265491856161571171 -0.0411982375568475737)
(-0.285299357251012187 -0.203641883433846316 -0.035736166025405719)
(-0.29150169489702793 -0.137096538448695904 -0.0316166398244018543)
(-0.285940148227868618 -0.0700570954830923576 -0.0279493168674066171)
(-0.179384956108949722 -0.284367892136471456 -0.0335256308825607682)
(-0.196271542535456228 -0.238881018699563741 -0.0291310642773751384)
(-0.207216261724663842 -0.187992632283846717 -0.0253204383253370427)
(-0.210993502507967057 -0.134048711255153941 -0.022040780786266298)
(-0.207288756639005645 -0.079949671477487147 -0.019006571711833134)
(-0.125198820723431553 -0.263270616892606779 -0.0226088661461452123)
(-0.135323317874543075 -0.222952604301236285 -0.0195793506158437498)
(-0.141681291942902132 -0.178978261106301134 -0.0168972620918430433)
(-0.143656965940946513 -0.13293648087071322 -0.0145066497495954568)
(-0.141191831677068086 -0.0868074568834283217 -0.0123139747019280037)
(-0.0754474769685804653 -0.251551794641633519 -0.0134985079849561703)
(-0.0807588989522792788 -0.214658331692984233 -0.0115738313973331019)
(-0.0838378018835890942 -0.174874907164648541 -0.00983696001127927315)
(-0.0844556974324284643 -0.133325307540587357 -0.0082976388382860148)
(-0.0827000550898050885 -0.0914736742115635215 -0.00692909197264950094)
(-0.0259947158406716658 -0.245205026025323292 -0.00496455958222118306)
(-0.0277001009301076767 -0.211032708495721033 -0.00423882393231230555)
(-0.028518573670333832 -0.174087011250890211 -0.00353429112364909721)
(-0.0284160928980298211 -0.135276414101558384 -0.00288985986525253872)
(-0.0275143679275743382 -0.095711496381412145 -0.0023306485662811299)
(0.482101678304179271 0.5354585022523628 -0.443474740361493369)
(0.423953000284217452 3.30835792536707762 -0.895999590176442262)
(0.320557845215083514 -0.0887453526093022055 -0.0520026361139239446)
(0.538591685202557402 2.835963219751787 -0.693367733397071029)
(0.136866171260710962 -0.922025828554742688 0.0301574022220638567)
(0.313227221088573149 -0.642997842248548834 -0.0257967312730929543)
(0.347722567477003586 -0.612025298294945008 -0.112507538559118353)
(0.184464292181941797 -0.356990128988390221 -0.0810908894611317571)
(0.488444194774796836 2.23688287992797008 -0.459246534209832247)
(0.286636976578822866 -0.898201677163225076 -0.00115465017149628583)
(0.638686624847997653 -0.845429818818950518 0.0336907882439973147)
(0.552552593573444439 -0.742491532472266735 -0.0675113950853809264)
(0.271265288468775512 -0.161055432011226796 -0.33240195585485105)
(0.348921166667231553 1.64259729347282324 -0.358093613718248827)
(0.551060835940033966 -0.97988321388926547 0.115854916176103495)
(0.71517833495300942 -1.07082082370110099 0.139386855785998215)
(0.528104146856979706 -0.796225899175427299 -0.0626252991425953753)
(0.0746748065056903054 0.217273016388559725 -0.603078820559252771)
(0.427364674488761032 1.10631959959809523 -0.635011580139340004)
(0.0779812920844452084 -1.80343088161254017 0.409878837480319946)
(-0.435545825227787176 -0.463718343335377314 0.207780700713846189)
(-0.500349301367939314 -0.34328270383691184 -0.365465394550125111)
(-0.267816914475273449 0.416126325182755108 -0.65069190158550394)
(0.152446579963303269 0.939693156689988096 -0.7977188530526097)
(-0.534879437528644752 -0.552373667128978063 -0.0919049672836951548)
(-0.782572293215914039 -1.08267720118740085 -0.169848318884335159)
(-0.769663821686184524 -0.630262692151653647 -0.392775675505930566)
(-0.705322906675214689 -0.105881371825065171 -0.354250373247660955)
(-0.362634059665443265 0.528031271063121532 -0.63157691089101331)
(-0.663893721062870257 -0.198809684975740253 -0.120334250751731084)
(-0.571553877447544822 -0.663820675436371133 -0.0930130296831212511)
(-0.814162097884214009 -0.499255908710160345 -0.267130715840393662)
(-0.830753063162286698 -0.273006052409396349 -0.249997027952987699)
(-0.689317749234569122 0.0755728386987049583 -0.369637815222023658)
(-0.526463349077646581 -0.485639942438822136 -0.154214731035053038)
(-0.551773941105945465 -0.428356645338310915 -0.108159366504294904)
(-0.676914141838861561 -0.294889441448460021 -0.109956715152459833)
(-0.718300484544470597 -0.156212012754779306 -0.127676105803464501)
(-0.699485799848496015 0.0144496752588677349 -0.16099968208550125)
(-0.395194387758106114 -0.415117287999143103 -0.110639676619159286)
(-0.44809679838546046 -0.370302107594475682 -0.0805951373994128473)
(-0.503007054208996052 -0.263122379340066215 -0.0700220310514828442)
(-0.529051519121653602 -0.144418413388427425 -0.0728016907771473903)
(-0.520182990119361754 -0.0168766293402146557 -0.073021427862730276)
(-0.30689246704937706 -0.35029763375302958 -0.0710803841008898485)
(-0.346165585388555352 -0.295244125957514592 -0.0584323058933766681)
(-0.377153650674487084 -0.220082542834806522 -0.0508495873056992939)
(-0.389861031270895886 -0.133393181335251937 -0.0476064329984813642)
(-0.381193305490163226 -0.0437398111437420078 -0.043647716704600166)
(-0.234872493401029947 -0.307131659991009442 -0.0486604699371589039)
(-0.262181854921891111 -0.256413192893384601 -0.041653031124971783)
(-0.281051234701286234 -0.195888665171402132 -0.0364401102829524787)
(-0.288091531578597071 -0.129519688473365091 -0.0324360373887934428)
(-0.282219352564188175 -0.0624690649809208076 -0.0284734908710626462)
(-0.175090253493559889 -0.276283413993280103 -0.0335710382282633224)
(-0.192426640165958229 -0.232026763840065126 -0.0290744491981582143)
(-0.203959296391219541 -0.18198029704460672 -0.0252839736791932203)
(-0.208124643472637205 -0.128582199127371594 -0.0220004906544795723)
(-0.204503929964810788 -0.0750254489823102139 -0.0188894448596962188)
(-0.12232062442157457 -0.257162472949912457 -0.022360191671499649)
(-0.132718037675881056 -0.217538576783854881 -0.0192860188334203556)
(-0.139404056677062987 -0.174181431147634902 -0.0166245337164459966)
(-0.141629978818968411 -0.128690421149949802 -0.0142509768207787733)
(-0.13929932714860585 -0.083117432425828558 -0.012063087832260188)
(-0.0735302437457518443 -0.246608739867483995 -0.0132313521062810933)
(-0.0790630454256920773 -0.210183910842375393 -0.0113138550974686315)
(-0.0823536850228208939 -0.170806982140300351 -0.00960357705139137582)
(-0.0831603165937854216 -0.129728472440477416 -0.00808555768837986022)
(-0.0815435674432840596 -0.0883910153263712112 -0.00673077007449130425)
(-0.0251778677796609673 -0.241092791824804115 -0.00483585861265918397)
(-0.0269409791019282023 -0.2069930885548181 -0.00410192581156470192)
(-0.0278540047776778994 -0.170265928952872514 -0.00340916803947974778)
(-0.0278530058986214586 -0.131826228064994888 -0.00278663400306870118)
(-0.02704693938066597 -0.0927444891360215545 -0.00224266405076294561)
(0.44110672311421939 0.826733960933820011 -0.336417647645357365)
(0.462451609278506814 3.47301592349625343 -0.661514123567680801)
(0.284350343939938854 0.25166881525707463 -0.0553190639662529959)
(0.551675049002855689 2.85647231807079471 -0.501861208699921568)
(0.132174156577963914 -0.932112000499670579 -0.0434866935755102019)
(0.214258611013791261 -0.713087272010991757 -0.0768102131559661172)
(0.0460695007032634885 -0.269203372819282027 -0.114616144741278944)
(-0.378317725133300753 0.369814557600310567 -0.0253420823951752902)
(0.440196779156845019 2.49085711009771549 -0.439184699897328501)
(0.271820836641133046 -0.835711208882931711 -0.0428612236939386326)
(0.371133361964863906 -0.905876442199307408 -0.0223488408370130336)
(0.205984187828893189 -0.431697957719297309 -0.106016707585280923)
(-0.229854005901689362 0.621008053537414728 -0.345594737320556122)
(0.324429885434644738 2.00604734732553291 -0.40658620583216265)
(0.448388870586975463 -0.908075396288610892 0.0775549840561062104)
(0.457477393232654017 -1.03594172661843387 0.180184791894541563)
(0.304793586143211837 -0.393775538033714012 -0.0861157977056876689)
(-0.0257687121633266986 0.623823957470741597 -0.638667820607939807)
(0.425284376290665511 1.47829415084178173 -0.741106408845945919)
(-0.104784744281476327 -1.49520570406733455 0.437256381309884201)
(-0.61217731577068335 -0.874129863745273794 0.337960637614301951)
(-0.460589564078594305 -0.127082951033954977 -0.420796407853351262)
(-0.346439978760619771 0.618659968536393157 -0.673701498257615605)
(-0.0958148112486011394 1.38322964026639461 -0.824662293457410267)
(-0.483583106549066721 -0.361765812538640097 -0.205620810823736289)
(-0.855333922858910412 -0.988961641468925179 -0.0819146681482300909)
(-0.959429027255799149 -0.466352128433119517 -0.360532173908489573)
(-0.877053777285279335 0.344947022385407698 -0.395327349982549481)
(-0.601151142779967729 0.944814213192817443 -0.622940563692118587)
(-0.437985048682490108 0.0116797830147972181 -0.389898864903923115)
(-0.494096618770212881 -0.597597915436187788 -0.35223628616573005)
(-0.826127963906905238 -0.619166002835760509 -0.193974928478853698)
(-0.935372569503001405 -0.118813303885444657 -0.20613095691038652)
(-0.787594932530480407 0.345638755046716706 -0.341883471376839609)
(-0.566365400533653585 -0.281699411485148987 -0.117972618262698919)
(-0.524835586066853321 -0.388768894022561595 -0.091595669646361233)
(-0.672605261731501369 -0.280189444997810455 -0.0785016723079900031)
(-0.754352364869531722 -0.112420297094120006 -0.115027073594248866)
(-0.700928818935501519 0.0947356882585303206 -0.146999621552965587)
(-0.371436692560506432 -0.393655809358932463 -0.0818754452974426172)
(-0.434577515078079124 -0.347002630071133245 -0.0584005532864447438)
(-0.504535326236847048 -0.248655270566590259 -0.0583685639987972932)
(-0.532461248942503351 -0.117712094983760299 -0.0681804768011711332)
(-0.514126482999874179 0.0160380547682998434 -0.0681440365775530105)
(-0.295503568626526936 -0.334012036314671579 -0.0651445235960643604)
(-0.337944170894834472 -0.285907790627963176 -0.0546863115545441827)
(-0.373296653692554214 -0.210775819725582431 -0.0489960006366947504)
(-0.386959562280271729 -0.120592254374564889 -0.0462272254769335103)
(-0.375845572470318134 -0.0290072436247452714 -0.0413837417801510704)
(-0.228374941998052611 -0.296320162890294614 -0.0456157116061769383)
(-0.256893131024792554 -0.247778842568523505 -0.0394546420960103991)
(-0.277226317973005509 -0.188159315182502895 -0.0350005632418581153)
(-0.284703008625778464 -0.121637131902350773 -0.0312664999287677603)
(-0.278288191029601784 -0.0548732216292990849 -0.0270967647090226554)
(-0.171087999011478781 -0.268578340861629017 -0.0316552833207991852)
(-0.188885320657456807 -0.22542428373101725 -0.0275104158132840303)
(-0.20091867724734519 -0.176024547412407695 -0.0239870848990179561)
(-0.205309484049596647 -0.123052669874363474 -0.0208245400474009988)
(-0.201655620262091634 -0.0700993097821141359 -0.0177287774166250689)
(-0.119559330620968976 -0.251149109316218533 -0.0208608543352746152)
(-0.130293700037503873 -0.212294925055785511 -0.0180445903561448871)
(-0.137259502487792784 -0.169503969506102442 -0.0155596251832228281)
(-0.1396503768210412 -0.12453023944318381 -0.0133000503038904448)
(-0.137400363146226639 -0.0795278046653006415 -0.0111845845791947104)
(-0.0717015843987889312 -0.241744626775810295 -0.0122315636925483355)
(-0.0774475619608820942 -0.205812370217834439 -0.0104688665079772283)
(-0.0809552277000765846 -0.166908404103096014 -0.00888964307823754754)
(-0.081916266315258543 -0.126289186095447564 -0.00746733539064637318)
(-0.080411911572196404 -0.0854569456737856031 -0.00618352277630876412)
(-0.0244142245664272645 -0.236978421620800933 -0.00441050785417679628)
(-0.0262356559471488109 -0.203074452496639801 -0.00373648945281656762)
(-0.0272374506536416858 -0.166650634644093437 -0.00310731429958785877)
(-0.0273285331666552854 -0.128609001374236587 -0.00254224627246352718)
(-0.0266059938441377611 -0.0899847261311027824 -0.00204320832207076754)
(0.393547895707265449 1.04583040966740448 -0.27383773649362525)
(0.481520688008973352 3.64840713049483378 -0.489634579606770093)
(0.285788188382355535 0.778141107102474194 -0.166354073295331334)
(0.492822942815762055 3.12073988233576927 -0.431556267002983163)
(0.0896330138611935168 -0.867576672167188367 -0.0707980419857156124)
(0.0591131544023806854 -0.231182191416348715 0.0626272838817140687)
(-0.308045038215277789 0.516868307352221446 0.0328838655128388668)
(0.0313459165630887784 0.73621675176271606 -0.344436423941057335)
(0.420693573455309389 2.71499588486009147 -0.472573957270420897)
(0.234048479913514351 -0.799653123843812819 0.0283308788835387459)
(0.295144237128523668 -0.722124573555480098 0.13372461075308667)
(0.0809516894839571038 0.253103289233860163 0.143915543246807942)
(0.00976858707101104992 0.650051350524119775 -0.459256493174789449)
(0.365300142229170288 2.3012525972830864 -0.540994983663428242)
(0.486517261425574776 -0.901765754199391423 0.26431541708093953)
(0.358275509324255337 -0.839144115827260784 0.281193691080420805)
(0.451012197017836847 0.0957807078272839008 -0.0561136981716936489)
(0.127664391064587407 0.547930817673724868 -0.510928383672337949)
(0.194287524925223443 1.94221176240034032 -0.693980649092650337)
(-0.0909515295248876365 -1.28948366868170172 0.604147154788426732)
(-0.58056513012838673 -0.548319024350140793 0.155139406465293617)
(-0.110722954147068009 -0.0471079596388739724 -0.378603975311966268)
(-0.318001454720725663 0.61374943112038749 -0.601123271671842319)
(-0.194272025106971169 1.60676315705902817 -0.798163983171834124)
(-0.614362776904328278 -0.265585075866365705 -0.0313906486882430183)
(-1.04696681416617454 -0.941650855349705274 -0.175136380090523458)
(-1.09417922344901264 -0.32695056957361146 -0.212855885210244733)
(-0.966874222786318294 0.550910485026469776 -0.370089391613641905)
(-0.642794108906677097 1.11322685005838151 -0.563912586125048021)
(-0.3356567635730488 -0.465160121756884926 -0.262534402419625834)
(-0.667378620743703466 -0.694690641306147993 -0.350010357257457549)
(-0.994148124044475945 -0.694480215909799803 -0.185358025587856912)
(-1.03960878649880839 0.0107436717980808338 -0.106900507808979639)
(-0.812250973453476299 0.470593696681111617 -0.2459341572258468)
(-0.404308212743910877 -0.535852572093533763 -0.0576393262484246327)
(-0.502311295089165166 -0.583557143852006965 -0.0551562223953803304)
(-0.711304144254784165 -0.383114697533746495 -0.0736137220529353153)
(-0.785644980904321444 -0.101972455577214849 -0.0707725217696538456)
(-0.697101150739963482 0.131819858032703574 -0.0946963552456508428)
(-0.346661915049448932 -0.393297440461091719 -0.0594229885675254116)
(-0.43156038417178777 -0.351198697952054162 -0.0492482691472339723)
(-0.509864955018295873 -0.253966707131317804 -0.0507389405268483529)
(-0.541124978405229329 -0.0975225613300002153 -0.0592570734504064764)
(-0.509071186313740709 0.0360907957159839893 -0.0538916300396794778)
(-0.283944082778328888 -0.33602506343138494 -0.058897370659023153)
(-0.331594628312998851 -0.286840885201050944 -0.0516062482774882619)
(-0.37080195068607491 -0.207991473971353341 -0.0464079488710260127)
(-0.384663839988545475 -0.110318960649836595 -0.0422572140802015273)
(-0.37099656089263261 -0.017098513118453864 -0.0364757214866322163)
(-0.222910423345281355 -0.287736961762835364 -0.0410945712632562396)
(-0.252628696744566561 -0.240776913918443108 -0.0361897384109465745)
(-0.273886665644561988 -0.181233253063360494 -0.0321690072649969544)
(-0.281334581977588205 -0.114206789263777156 -0.0283167361407365946)
(-0.274392429615161859 -0.047984933260474226 -0.0240472280793010973)
(-0.16737481773264401 -0.261598318923323969 -0.027985595977603691)
(-0.185702240739712532 -0.2193652003937821 -0.0245164546376452491)
(-0.198157746603927487 -0.170445581278764496 -0.0213816858828871602)
(-0.20267016102026586 -0.11784120276983942 -0.0184219652595628454)
(-0.198929945384638873 -0.0655334038528857799 -0.015509697609997642)
(-0.117000055932328942 -0.245545052439334444 -0.0181662604212801879)
(-0.128062023632088795 -0.207391456518247447 -0.0157556556018392975)
(-0.135296635723290953 -0.16516964321452568 -0.0135767299795571811)
(-0.137837816262924601 -0.120714477966036224 -0.0115546698808225261)
(-0.135636740023776153 -0.0762587986743317459 -0.00965028209515180098)
(-0.0700545582057693211 -0.23722029962646124 -0.0105200898934631332)
(-0.0759990651483157531 -0.201800685133520757 -0.00901225165668752964)
(-0.0796871495849132416 -0.163368462059863856 -0.00764689418269271816)
(-0.0807910929129116717 -0.123212098461775471 -0.00640747561854989201)
(-0.0793866811222703195 -0.0828410155636247897 -0.0052819437712769415)
(-0.0237573940531786709 -0.233052156457019294 -0.00372866061124277727)
(-0.0256357091443419061 -0.199494751209539467 -0.00316109422750170859)
(-0.0267069977811240089 -0.163436879850611949 -0.0026357898249252964)
(-0.0268724049079545196 -0.125788431101786002 -0.00215721035474403938)
(-0.0262161623956948808 -0.0875643540364538092 -0.00173070097112993184)
(0.241573220534758631 1.07208060885265422 -0.272666827264263389)
(0.408932326399691015 3.81406627294239398 -0.361832898479135412)
(0.21871937024746288 0.882231521592033774 -0.311676687394922436)
(0.420104139784155228 3.38948553299213984 -0.369183397398893498)
(0.116045124734751523 -0.881686932728694694 -0.0135928746673758226)
(0.130690532815659205 -0.453850390903797529 0.19238979246001689)
(0.0301580264188979277 0.195584502967887264 0.0598545746272011459)
(0.0609285874976205483 0.629452133893177557 -0.491595192593179076)
(0.404253341473366501 3.00356504894339871 -0.40247671444154054)
(0.277455579239917871 -0.792976584475990398 0.0429997122272139723)
(0.410362027519710904 -0.668541188524590879 0.253321463001631997)
(0.392062547403771444 -0.0559836710225138645 0.239149862605993163)
(0.181383964205017234 0.259294692468739763 -0.276865680317396556)
(0.391510078739697176 2.5143730838974947 -0.477716999784199847)
(0.650533626724268843 -0.856438835354319861 0.247951462571144227)
(0.672637494589485851 -0.700071667841308809 0.364693638031594436)
(0.624139422442572256 -0.0894940401028146426 0.293948989345550138)
(0.279259859757277296 0.277761372894281933 -0.231732684547555051)
(0.290185941205637565 1.94567589731623514 -0.584464644441427872)
(0.496991408350753616 -0.755656146120031957 0.920184941146944713)
(0.093402927532833413 -0.0649945418295705957 0.606050436182410834)
(0.523458143212930826 0.0542210248850293342 0.203330103207733009)
(-0.0646020149721384385 0.435516816192591527 -0.333290627737528711)
(-0.0420387112973732713 1.45429331874191825 -0.622778024021142351)
(-0.487306227253548052 0.165674947985020832 0.443042805999902312)
(-0.877357445928605761 -0.655446248780159335 0.398355020350583566)
(-0.881649999131123963 -0.200924679363645192 0.111244930361923858)
(-0.804108582178165832 0.396875993849369113 -0.293075705404971021)
(-0.561255817929687484 0.99528938636364539 -0.439251016321709042)
(-0.146800680246059939 -0.662068055648182274 0.0029104144156167841)
(-0.701810173658545922 -0.76922468437943281 0.0222359667183764584)
(-1.04497466846156817 -0.487886328768929789 -0.0108706633328555236)
(-1.07634047691117019 -0.00263244476980178943 -0.119908719582220991)
(-0.797725180899121922 0.457937062784936344 -0.15833760651018608)
(-0.318391805253728788 -0.557231272773282993 -0.0834539285983534468)
(-0.418452564640176383 -0.663566640393833729 -0.0542370640068845847)
(-0.722766287000872309 -0.444583603217142798 -0.0723396108198988419)
(-0.768604326139941341 -0.121547619496433751 -0.0735732391344128267)
(-0.689052423326530605 0.124645136157859049 -0.0506642731185275169)
(-0.331303331567509518 -0.396740594523201484 -0.095273432143610684)
(-0.42571654410280807 -0.357505322090625022 -0.0854875257009391903)
(-0.50549989965027442 -0.258223509956662267 -0.065992642058127382)
(-0.537017356425757653 -0.086387408855758907 -0.0554210388764820802)
(-0.501956957995669417 0.0461792111598540653 -0.042283473640672746)
(-0.277086844774935226 -0.325567902498598405 -0.0550834604048243068)
(-0.326088805175631768 -0.280303708201386115 -0.0523608870156844763)
(-0.365873707119063085 -0.200448474038113722 -0.0450670979392333859)
(-0.380268566005739106 -0.0996968120335374464 -0.0370785234096775718)
(-0.365699597892945039 -0.00775735587835440273 -0.0301287566037878179)