/*--------------------------------*- C++ -*----------------------------------*\
| =========                 |                                                 |
| \\      /  F ield         | OpenFOAM: The Open Source CFD Toolbox           |
|  \\    /   O peration     | Version:  2206                                  |
|   \\  /    A nd           | Website:  www.openfoam.com                      |
|    \\/     M anipulation  |                                                 |
\*---------------------------------------------------------------------------*/
FoamFile
{
    version     2.0;
    format      ascii;
    arch        "LSB;label=32;scalar=64";
    class       surfaceVectorField;
    location    "0.0899999999999999967";
    object      Uf;
}
// * * * * * * * * * * * * * * * * * * * * * * * * * * * * * * * * * * * * * //

dimensions      [0 1 -1 0 0 0 0];

internalField   nonuniform List<vector> 
20536
(
(0.0162404641853043236 1.40304650555878974 -1.00517444328460925)
(-0.104724948394170125 0.223108216506199358 -0.569331976937147766)
(0.0220926185251916762 0.439361730832866226 -0.684296973312372603)
(-0.102893743692212339 0.384601595249894457 -0.830128899794845165)
(0.204484567327339051 2.10649115282338961 -1.06723461725096636)
(0.17635284941009291 2.54849462916761649 -1.13697016451006849)
(0.177156599847517804 2.26140372258583344 -1.29759494455503943)
(0.245897163965018567 1.64530897503265261 -0.84797165841976252)
(0.108788007764840947 0.990114724059694473 -0.631392150903503868)
(-0.113938624358452284 -0.164567598288436118 -0.276573012411666819)
(-0.00462007550170378048 -0.0272869962771577663 -0.272999967321729209)
(-0.202292144611525393 -0.0292817404971024223 -0.331534580999340356)
(0.340008042015935763 1.81348629476170364 -0.842264175476360788)
(0.331347946001972871 2.21885991170621866 -0.900666461068550528)
(0.259726680595754877 1.80042358125915891 -0.958097618210789315)
(0.263934259109221525 1.58885479731557444 -0.787701111235623919)
(-0.021163575120799652 -0.86882226698030196 -0.0123676990666143488)
(0.139079052834304051 -0.856422149798916399 0.0395126397485509456)
(0.0555862619208955105 -0.904444999528121629 0.0522928174339026691)
(0.0838155346285340969 -0.938934199502141187 -0.00673308752776001669)
(-0.000570333109174238351 -0.387145998574740191 -0.100940431509849673)
(0.397292623134947398 -0.934299185580561242 0.0245855997907686863)
(0.129003389547108521 -0.597302602463381738 0.00445586347373545886)
(0.249824162622553192 -1.03170698494762991 -0.100103284898225176)
(0.0758951326580995511 -0.0908222634965234338 -0.201843232738904449)
(0.132681809881096957 -0.0838003413900166305 -0.150081418491817886)
(0.0313412854523741555 -0.0696027518361258812 -0.181058145711037594)
(0.0502380561746958651 -0.280178362311272466 -0.184438746483250066)
(0.0274694101815447234 0.663334896027955145 -0.487445036984521018)
(0.0511705651749599089 -0.110282883406630908 -0.268942150069264696)
(0.0461480524399762726 -0.295402342024586373 -0.252454794511573377)
(-0.104142829410496532 -0.270309439541694119 -0.259318169854607594)
(0.369237389968890772 1.24972012372579599 -0.688879120343694584)
(0.436172811812511052 1.73211907625021788 -0.714981755336855596)
(0.342582824619845128 1.36200246072934306 -0.733300959886652448)
(0.429688083323649161 1.44904601623453777 -0.698371187649841629)
(0.357799873460959705 -0.955097443883190844 0.0764659386059344248)
(0.464173083002485165 -1.05537121334683848 0.115780999162280587)
(0.29327775877689477 -0.839734680757813323 0.0403633878969162085)
(0.290132615293686447 -0.935105386636504776 0.0630848545238413549)
(0.445240677034164645 -0.675926798242121762 -0.0245553871911994084)
(0.715589472934635262 -1.06193990546333938 0.125290798261734948)
(0.513293001730503295 -0.915636222204836425 0.0194655650815943847)
(0.583472050686804411 -1.20810735950883985 0.0120970939332577746)
(0.467598307546891412 -0.106568282469749503 -0.217180335822177828)
(0.517992423005462443 -0.194364498906929972 -0.13065647478285905)
(0.47536060215122411 -0.413587385191897861 -0.120394953816110595)
(0.406919209468283083 -0.51091514164810492 -0.174232998164010888)
(0.207119745679879924 0.518723214794169385 -0.470376233428436041)
(0.441854901927871635 0.222084954714271365 -0.399800150586142045)
(0.325659365539042345 -0.0560275596218724053 -0.321172690985916998)
(0.10854510497757186 0.116189301371466866 -0.331134841862070872)
(0.509788337086617971 0.739666330896732949 -0.621546793296180566)
(0.36222037410768354 1.03848764014818085 -0.575405901369816286)
(0.264453850335004903 0.851851152840338188 -0.694942282951570567)
(0.455183368295515534 1.06692910676716624 -0.657727349654021354)
(0.781520868285520032 -1.04402368006034707 0.164605858818081041)
(0.632859311023972193 -1.35042120095284579 0.363065822652694103)
(0.59812996373968752 -0.935790663298575964 0.10228937328904221)
(0.636080963567368096 -1.13664170372507756 0.108308972294155995)
(0.691842008704566802 -0.74597998472386684 0.0191897106700752024)
(0.124224365333190978 -0.964306415967115527 0.128610920352234676)
(0.681448720350618653 -1.0443502560169009 0.0336829815763117352)
(0.717431287587811273 -1.28615201614380092 0.0190576112473689607)
(0.654522402202600828 -0.147630209025768094 -0.313276289546822961)
(-0.0351926681234799865 -0.176543041591542743 -0.149761993080161221)
(0.598334360358608541 -0.550234819144113985 -0.187001848616818483)
(0.59425965549169002 -0.566344408125433407 -0.20829555929201421)
(0.640950185886206114 0.296013098125104346 -0.550970710453885681)
(0.312271996226010984 0.325423057370695878 -0.441525541720925396)
(0.591142045020759843 0.0544901355801395565 -0.528946403260024178)
(0.540458276156297934 0.105014101105554175 -0.472120889689390033)
(0.471900260888171552 0.563965054895254503 -0.498624886540273038)
(0.616205109373974658 0.563608298231482174 -0.601107811283592475)
(0.593833253094795621 0.423368239227765841 -0.628485323566109977)
(0.741927305593297559 0.591962280214473058 -0.661391930382446924)
(-0.0535330141619292654 -1.11575328609899027 0.327070884186847599)
(0.0154847302239767854 -0.882324642919931401 0.142170318199683093)
(0.511848285087187493 -1.21507637506644883 0.456407726410645087)
(0.530310319890561654 -1.66248153389007136 0.122330103740537988)
(-0.561085005532651171 -0.335703341606794547 -0.0403407833980024833)
(-0.761005914774374959 -0.561057940485328643 -0.107588536640620486)
(-0.567657050129344309 -0.906594425339746546 -0.154178348883530686)
(-0.431093610114194781 -1.11823910997223752 -0.336505828211848879)
(-0.394250558654179795 0.205878273135694123 -0.278011245254263628)
(-0.839007294310872065 -0.271675798704637761 -0.185637549664822571)
(-0.6498561496329891 -0.103588614953574923 -0.294208262751153082)
(-0.636281219447872082 -0.072369723382097656 -0.209338140479048501)
(0.0517770177729042491 0.441694043768976141 -0.389179717807312364)
(-0.358626245922794795 -0.0514356881825009105 -0.300198566169784853)
(-0.113446543980400882 0.299794600127503141 -0.469998340693121464)
(-0.0839571378779788852 0.336810199428489776 -0.324771767102736753)
(-0.0616789074286990813 0.258992004967657119 -0.331068961889283919)
(0.258588466214133172 0.583111462020836413 -0.504798780076076592)
(0.169345703345133963 0.482183261770822214 -0.389598946251999201)
(0.410107499998370373 0.54599776484682816 -0.442536820129316388)
(-0.78331364959795835 -0.61222430200844824 -0.292489102627785214)
(-0.674033837555508053 -0.674585461822704513 -0.273402764604445347)
(-0.553555606008890644 -0.605799861086299352 -0.3846305093345046)
(-0.492285437219422528 -1.06184159176070869 -0.541530816731143116)
(-0.962445821546003888 -0.457284976190098058 -0.252885302907441212)
(-0.913329799334734349 -0.621467236216128538 -0.231644882114272477)
(-0.87657756256673991 -0.625915238051842904 -0.335007460263119672)
(-0.835474356152746678 -0.892241633787128841 -0.534512094626727108)
(-0.816560557872832216 -0.318910391777153635 -0.207824870580343934)
(-0.907082221853717452 -0.39861256984575627 -0.147713429088666942)
(-0.859333943242382992 -0.480815391223524902 -0.289743667386936521)
(-0.917665689856476896 -0.504553011520664119 -0.24469962983591026)
(-0.523422944401344181 -0.0637011018845965726 -0.242087810251756574)
(-0.739193793047965286 -0.253835482550000768 -0.150603941605255726)
(-0.662485308201929524 -0.271788282682028814 -0.281714438386509392)
(-0.707913317342233173 -0.19900426812519012 -0.156084364553865929)
(-0.532095043581779281 -0.0587075577846196545 -0.215088708923573096)
(-0.342191621144096625 0.169120692814870827 -0.386111198165853431)
(-0.404682086252379003 0.0655539591332128246 -0.26377181676974637)
(-0.147518081225912367 0.18648292790579335 -0.326679360587056489)
(-0.82403851295195496 -0.552847719021942741 -0.21255854409093311)
(-0.705581130436017445 -0.552482780494668591 -0.266501235501228506)
(-0.638620506382002517 -0.28204550678585838 -0.270269212278369086)
(-0.756819257380871635 -0.712249305296427271 -0.245380391084634414)
(-0.884102985170483913 -0.51531074394262022 -0.126473008295498568)
(-0.757420918307641577 -0.567277952253598783 -0.128509189878218799)
(-0.856058694898400696 -0.627835203886483395 -0.169414951869825359)
(-0.874347292598639081 -0.627211696323445422 -0.186683867284996308)
(-0.821605231248823231 -0.346143478870128862 -0.0904925001135784834)
(-0.783304784320286052 -0.380583364765784027 -0.0701611617202364951)
(-0.851540891692732727 -0.410619598570344302 -0.118136204274300979)
(-0.925653924673678463 -0.365199534021180439 -0.0505713292007214793)
(-0.739172563849196385 -0.230254882655032522 -0.123604840277071859)
(-0.736772069808465879 -0.255526221496451877 -0.0739887568444274335)
(-0.799662141476300659 -0.292579302054700618 -0.129652630703630117)
(-0.802894656953336061 -0.262482850216610997 -0.0575088825347287447)
(-0.683145428245692798 -0.115321044036193268 -0.105838017583725436)
(-0.67694735890472757 -0.131689888384023956 -0.209354853576868588)
(-0.700014459574047065 -0.131290102245997298 -0.112364413799924553)
(-0.587602305240394029 -0.0647546372309785873 -0.175306801364926768)
(-0.618343214509294969 -0.552591823128225745 -0.182451881288514778)
(-0.541349792642648042 -0.505797036102305086 -0.199520808065421551)
(-0.611151090923493179 -0.55463928412980612 -0.239428815347641349)
(-0.602961534897688112 -0.676302908624880295 -0.211009195578739206)
(-0.677531715564093084 -0.431913675910111372 -0.0721973433029567818)
(-0.545243068174268264 -0.438350276059244925 -0.07817955841849758)
(-0.605078526576790288 -0.498449016928579014 -0.102710674850952061)
(-0.638480659675824791 -0.548093919229736271 -0.0693757492140506388)
(-0.687709973421179122 -0.288704428593446139 -0.053657418451085459)
(-0.607861013703838937 -0.307699602657066473 -0.0565286031997820695)
(-0.699244463166450281 -0.338848221446433007 -0.0738425726275658417)
(-0.700373178781773742 -0.355021273493859257 -0.0343067007782308295)
(-0.686122947504300473 -0.151218584699780112 -0.0562219341510809406)
(-0.606957903261057807 -0.192598166199351023 -0.0523795079626792892)
(-0.690146691296715353 -0.212176506379732316 -0.0745195368684072046)
(-0.688459206282895475 -0.212413419230895073 -0.0311586606321576955)
(-0.60441296642737119 -0.0680600264419661122 -0.0508132488438911081)
(-0.691163751140940752 -0.0637362334905060418 -0.0927022578694202543)
(-0.680296655282690788 -0.067063503200438121 -0.0328942228418246593)
(-0.654287535936243669 -0.00383899326953980819 -0.0629511091541306023)
(-0.449955794246789609 -0.43947189154615629 -0.0952484851954054496)
(-0.386346146858990935 -0.427257854204143361 -0.0943769871547867067)
(-0.425974740795492135 -0.461974302380834423 -0.122682846963485831)
(-0.443746603744047063 -0.498482068594763295 -0.101206957141761117)
(-0.498696722993329122 -0.339976671306781664 -0.0625108183153229302)
(-0.414218306269640735 -0.346956383694940695 -0.0573006414783525445)
(-0.462066186212202024 -0.390474115078422002 -0.0754159013694679081)
(-0.477403712968366145 -0.395322342664920612 -0.0578156612587875304)
(-0.523391243172982135 -0.230107569496755315 -0.0552506927113758581)
(-0.451418694606843529 -0.253362749256652142 -0.0508101195747325401)
(-0.513336213410673592 -0.278884504056898463 -0.0656062710032371821)
(-0.522947728269257062 -0.283565676879203976 -0.0513362085432729071)
(-0.528599303966050482 -0.120678275679103053 -0.0469708226554894914)
(-0.462640218681061366 -0.159103639946014341 -0.0445025404218726342)
(-0.528751013367286249 -0.170796600181260638 -0.0590157725015727219)
(-0.530457422202948559 -0.175114232220416083 -0.0413175297351741286)
(-0.456557522083724188 -0.058889068673168371 -0.0389484556500832441)
(-0.523615659634652841 -0.0559893370042526539 -0.0544142015390615269)
(-0.522891265435556418 -0.0620059099426985699 -0.0326723838491747576)
(-0.511018488295338136 -0.00647346645382822043 -0.0401118509390395797)
(-0.344571018900848292 -0.353835213437587448 -0.0564291434377335657)
(-0.28743588084198457 -0.355657422837454329 -0.0538035575101900657)
(-0.321986550668586335 -0.377792942099094531 -0.0670446120235775045)
(-0.330210705928919657 -0.393636027059055926 -0.0559616495074455531)
(-0.375950249362880795 -0.278612174875089491 -0.0455999427377622585)
(-0.317871068270753898 -0.291015593341951262 -0.0435597510506533642)
(-0.358063038753857532 -0.313264843731773435 -0.0536981882876046701)
(-0.366334197818507568 -0.323808391821180208 -0.0443000866707641897)
(-0.39258426438803834 -0.196066370282387215 -0.0400619672852293024)
(-0.33753473304961823 -0.219590583248286453 -0.037236861566582076)
(-0.383262159114627132 -0.234043755877655468 -0.0456581057801524193)
(-0.388119819078636685 -0.239491598616905443 -0.0379315159873316321)
(-0.394683156631070231 -0.110624730840902727 -0.0364801734164663938)
(-0.345640461892801787 -0.144417588288748844 -0.0334626594433069177)
(-0.394597697548670912 -0.149869633852027728 -0.0420987372432181581)
(-0.397832412967461468 -0.155203033080078934 -0.0341761472872564864)
(-0.339302596946647272 -0.0679537019708484069 -0.0302023931878410493)
(-0.387465331618606579 -0.0623712978238069038 -0.0387215685748392574)
(-0.39013601414938115 -0.068413430233477901 -0.0310408151977932534)
(-0.379240898308515761 -0.0243281522326895087 -0.0330086215446717471)
(-0.261652452781098277 -0.301461219239174849 -0.0409341651231098225)
(-0.215776304847772549 -0.307907908752799886 -0.0377813831912832132)
(-0.244856332271533861 -0.323911437841473138 -0.0465504975376109659)
(-0.251143766769388099 -0.33388148246309346 -0.0408414304863117458)
(-0.282662829363910684 -0.241993010050470525 -0.0351966698794732163)
(-0.236793055538777747 -0.256371411193838161 -0.0326448929548059444)
(-0.270809150127696019 -0.269620702476524421 -0.0397095447024125858)
(-0.27611522969634511 -0.276692411632404822 -0.0352926278066113194)
(-0.293631159693142019 -0.17673580317751153 -0.0306375537246597884)
(-0.249953303875152938 -0.199185252332079149 -0.0282459327650042002)
(-0.287409270937346362 -0.20693917737165482 -0.0343258421763294394)
(-0.291485590378370518 -0.212621966215660374 -0.0304745012696029105)
(-0.293870839540358086 -0.109698658546866473 -0.0271848792146816148)
(-0.254392550654709171 -0.139011631663672836 -0.0248261970426661496)
(-0.293241932942226891 -0.140165836747127598 -0.0303600167413894881)
(-0.296431179600144368 -0.145252165599156213 -0.0269721474811119265)
(-0.249645927836278397 -0.0787867108020705309 -0.0219565366304572546)
(-0.28765884586520013 -0.0731096387656329921 -0.0270285654971822269)
(-0.290614881996794694 -0.078148958351721115 -0.0241935667644057155)
(-0.282552446963435677 -0.0436071129835435417 -0.0242211163144885749)
(-0.150930786052092009 -0.348233300200321005 -0.0380548071275525063)
(-0.119969391756715421 -0.348959642560629058 -0.0338744566438557576)
(-0.141168653342018641 -0.369004824418207089 -0.038082739650930654)
(-0.173335701579963281 -0.31212497535610656 -0.0337154135539853364)
(-0.13883222971634343 -0.316822731744043018 -0.0302132930343244725)
(-0.164545646524899725 -0.336056432755781009 -0.0340078096399189997)
(-0.192312765081565196 -0.268709910777552574 -0.0294921110229793872)
(-0.155714879098945574 -0.278542424070790384 -0.0265411231941558648)
(-0.18144485181016673 -0.288262840688538191 -0.0326539912331319307)
(-0.185416197093607182 -0.295396373165599191 -0.0299492297894682659)
(-0.206010691676063118 -0.219376485299592472 -0.0256941558403370081)
(-0.168899737269825767 -0.234762004702569999 -0.0231212462806954754)
(-0.198104176237679092 -0.242071525507032009 -0.0284000155709705146)
(-0.201607435798144108 -0.247980166548881609 -0.0261739243082079673)
(-0.213165273474154954 -0.166240177664696565 -0.0224345760830106065)
(-0.177160000600036172 -0.186923239635351512 -0.020120520797046574)
(-0.208801842425644923 -0.190741785284265719 -0.0247226023096248811)
(-0.211766536002189087 -0.195739115806551567 -0.0229112389974436489)
(-0.213055126387367705 -0.111704002873935782 -0.019597854458441831)
(-0.179733536618958245 -0.136895019155349129 -0.0175100953759043387)
(-0.212398216414979635 -0.136519064149931119 -0.0215977070050270073)
(-0.214946979618940825 -0.140976987774158791 -0.0200923142403958387)
(-0.176472172082183992 -0.0869266489293224198 -0.0151607486124029876)
(-0.208601534404515759 -0.0821841300903251026 -0.0187648880463253884)
(-0.210969232472332957 -0.0862567937936827289 -0.0176135667129529681)
(-0.205651013974193997 -0.0580820298373795341 -0.016968530323748357)
(-0.107922673568455418 -0.321081762147537475 -0.026032942550627769)
(-0.0813267548111929889 -0.326102711003013468 -0.0221264329556000137)
(-0.101996411410705756 -0.340006522320284332 -0.0263617131979947024)
(-0.121800797703310995 -0.287339348658385452 -0.0230390026744950668)
(-0.0926973594016539254 -0.295688676968000275 -0.0196985487520802069)
(-0.116491115069979764 -0.308542782092603607 -0.0235719104645007796)
(-0.133393111368557193 -0.248708468655613024 -0.0201702584518719426)
(-0.102588100561541079 -0.260934786724067835 -0.0172807815602397281)
(-0.126561915704969635 -0.266229940985600988 -0.022187005298325721)
(-0.129223165749724117 -0.27189979221447047 -0.0207566644536073368)
(-0.141564099882079103 -0.205920122341704953 -0.0175476112374050239)
(-0.11015117556509961 -0.222161736273583654 -0.0150104214175079773)
(-0.136592991237146133 -0.225590138266933582 -0.0192708448279811616)
(-0.139003594628989618 -0.230567196700634081 -0.0181384704034065307)
(-0.145590790234775974 -0.160318124057420575 -0.0151960400899403374)
(-0.114632260829942795 -0.180181642442224427 -0.0129538166829647403)
(-0.142806935008174318 -0.181295416778540053 -0.0166863140810471627)
(-0.144908355486605966 -0.185661270641934717 -0.0157755765828627818)
(-0.145162973377413351 -0.113699461720812967 -0.0130729895298654971)
(-0.115707818873465526 -0.136367997174616007 -0.0111144727825136409)
(-0.144660554428435478 -0.134980078267387615 -0.0143889232992996229)
(-0.146509921352738798 -0.138842990643259029 -0.0136612687421562972)
(-0.113434001646786881 -0.0924104978139387162 -0.00945083298175896334)
(-0.142110931835704918 -0.088591352330496087 -0.0122809368908744949)
(-0.143829690691198414 -0.092010364975777803 -0.0117344773350938347)
(-0.140431406894521632 -0.0676683469059573134 -0.0110890470500010149)
(-0.0662325181682586195 -0.304935687527561949 -0.0157920391570524933)
(-0.0416808499524220985 -0.312867987698088545 -0.0113959172769294466)
(-0.0628151459297978249 -0.322523917542994643 -0.0161047888637109067)
(-0.0740336924040237293 -0.273219404813142885 -0.0139403276378249133)
(-0.0472965796954854453 -0.283928437758678986 -0.010169562113523177)
(-0.0711059385655153781 -0.292510254236205691 -0.0143830337804397839)
(-0.0802682001325979999 -0.237757865485891728 -0.0121209445258757629)
(-0.0520135142341455539 -0.251517205251770071 -0.00891707111575657657)
(-0.0763493337025775015 -0.253967799163265173 -0.0133433259688952501)
(-0.0780918259357353817 -0.258662995329005607 -0.012609761353290826)
(-0.0843907826267417949 -0.199034330337723941 -0.010416626863067692)
(-0.0554401734025102913 -0.215778784801129025 -0.00769043156236143364)
(-0.0815992927413645708 -0.216895129489935473 -0.0114858747738660234)
(-0.0832141561909450905 -0.221226888401248184 -0.0108990425197288514)
(-0.0860659407004858712 -0.157923859987783688 -0.00887224937553807505)
(-0.0572609666368769296 -0.177246597963514024 -0.00654087887584012522)
(-0.084584872735014166 -0.176905820276604925 -0.00979706882764585715)
(-0.0860079472856210558 -0.180820784104199606 -0.00933316598114583389)
(-0.0852689350977531707 -0.115731924093717006 -0.00749231623440711932)
(-0.057372358202858742 -0.136888275917631475 -0.00550039355835914723)
(-0.0851035961317177098 -0.135118147063796712 -0.00829046051183237806)
(-0.086333942864911431 -0.138591414995153484 -0.00793232712255678533)
(-0.0559153840034486149 -0.0960293880886354534 -0.00458024829855897993)
(-0.0832690131945184597 -0.0930132679059957196 -0.00694818161737255878)
(-0.0843634730778724667 -0.0960254704915602803 -0.006691566564994012)
(-0.0822625619860222618 -0.0737732703635227832 -0.00624966768610433869)
(-0.023052434452984466 -0.29473120473353509 -0.00577344023340012856)
(-0.0217571066840548666 -0.311135676414229956 -0.0058539403265605288)
(-0.0257813659389197029 -0.265042923881032899 -0.00514630559145483162)
(-0.0247009517327738334 -0.282873840096731111 -0.00528650963185454351)
(-0.0278569500786103111 -0.232225692609241419 -0.00448655815224225946)
(-0.0263852769361940451 -0.247314281369630962 -0.00493980294862033514)
(-0.0271295580262762084 -0.251486646776370448 -0.0046825879783388806)
(-0.0290653873803740741 -0.196460150095869285 -0.00381468357513389984)
(-0.0280703806023394377 -0.213030278500132536 -0.00424095657359740107)
(-0.0287862160827772745 -0.216990505367126912 -0.00404032345325674308)
(-0.0293006913978205268 -0.158328249473236898 -0.0031690230586611857)
(-0.0288542816788243117 -0.175989731469042177 -0.00354557674513324064)
(-0.0295096523700238388 -0.179722076675090825 -0.00340138786593615749)
(-0.0286181764995413618 -0.118757967381525484 -0.00258832562251099787)
(-0.0287046572363700847 -0.137020230680418936 -0.00290336341663779886)
(-0.0292712376120920284 -0.140432744023136324 -0.00280690579573247227)
(-0.0277535823176199396 -0.0972316919425919163 -0.00234569768585071899)
(-0.0282250372471758229 -0.100232963833090757 -0.00228509836656138558)
(-0.027263501497436133 -0.0788319650817056461 -0.00209617340970196615)
(0.188164861115427684 1.58480985444168887 -0.818433553926187662)
(0.122197491417657497 0.143194566639112175 -0.439099402904896241)
(0.318604660535691364 0.484191829073936875 -0.557012244925557454)
(0.303216228084727035 2.57808251007418177 -0.940658882076341962)
(0.322243487916771099 3.02252623917747476 -0.957873546352998817)
(0.269647353850771931 1.71766389101377981 -0.669825900981209976)
(0.202786268409076348 1.20145819136936094 -0.561324731055049986)
(0.155466601296725127 -0.237447521518529492 -0.213592368350642853)
(0.204922592641596957 -0.0763140998326353182 -0.189189340919904275)
(0.427512715798548104 2.16711278135541807 -0.73460110865255579)
(0.462245082911343474 2.65138122477324112 -0.779700969492413742)
(0.374928932900415124 2.01246218860368975 -0.707730264541161502)
(0.0269630420040734148 -0.632925335011199297 0.0690417273062291503)
(0.209784967863486216 -0.852294501567445129 0.0624509031584467023)
(0.118607099572490382 -0.920429722701644915 0.0691553408045376128)
(0.110584738417021516 -0.279759355724767234 -0.0407467589088998106)
(0.24500376814266453 -0.551587835871759413 0.00563568709580782035)
(0.186663630417162441 -0.49500744771120142 0.0338460258136900685)
(0.322470096328015376 -0.274182830364187891 -0.137592097340040465)
(0.374020077722500899 -0.37823547660432133 -0.121456308111405883)
(0.259693453496047832 -0.412263478285311513 -0.154702934752220661)
(0.233411465250378453 0.773381838197665594 -0.386868745948147463)
(0.320636852804058625 -0.321543504772819566 -0.20912976974570141)
(0.203055077353640229 -0.346427065720543825 -0.117219877534854536)
(0.429155795951303709 1.4776725176542711 -0.533570733146286669)
(0.478785572875881693 2.0597552793880034 -0.544239065676654921)
(0.558406287508363075 1.92038122600506322 -0.634979312249417949)
(0.266003192775407293 -0.800273459079458238 -0.000955137051975437734)
(0.427234639514097791 -0.955296515755822195 0.0339032546661117776)
(0.3029294422107629 -0.857148354179605443 0.0238867602854718614)
(0.533394267434054048 -0.653296809154612856 -0.0750738621066979889)
(0.479152249146486298 -0.929397901237760782 -0.0175215787560591939)
(0.534297060693786685 -0.81494085289094087 0.0336581872205123159)
(0.622076605168055852 -0.363046662344021831 -0.192993980517066899)
(0.555702539504370985 -0.504328731042624323 -0.196161284467628649)
(0.564464204751677467 -0.632316631909280558 -0.115158381968662279)
(0.330727033719737606 0.463736865732132908 -0.355831756943839395)
(0.474946508631930553 0.00254377941809787178 -0.444677740707642766)
(0.345446565775777648 -0.182503512676487262 -0.278251417259908596)
(0.468637146395039561 0.940066223323174022 -0.521842780691842867)
(0.369052903796436238 1.38701130913942183 -0.407582517278048118)
(0.545131720954347809 1.48483151330449226 -0.536236417213225458)
(0.533227507931449574 -0.936117239255129796 0.017336812962027822)
(0.477118937802902432 -1.05716446387732588 0.327257137211253935)
(0.543154103562763502 -0.917900570095007584 0.0729583400660510084)
(0.532801922438837172 -0.848605090437148712 -0.1386090011169894)
(-0.0104326951119164627 -1.04266373086925657 -0.107924721418355782)
(0.621787668353202871 -1.04356868795530588 0.109572616973027212)
(0.514277264654953714 -0.348114474538207375 -0.447845044658203961)
(-0.0163291211509045478 -0.498497054626852898 -0.294810222628680341)
(0.53156670496790559 -0.738559763920106027 -0.174420670023410718)
(0.484175884392617606 0.322085335686519092 -0.610688764455645905)
(0.165423504814348421 0.165808092683327413 -0.584394625842570514)
(0.302469990343386064 0.100968847988466059 -0.611031101264882359)
(0.402893314699936445 0.697338052385953922 -0.615418109168497041)
(0.487727163176599809 0.882912795691378482 -0.600317011618030638)
(0.665335857026249755 0.962581265847137546 -0.630262546593327144)
(-0.0711743963243995359 -1.00591751430720411 0.201995602830868648)
(-0.0571920511456841529 -0.40900572085645065 0.142173777020201564)
(0.248485898252379322 -1.36844047585489115 0.457535872263146681)
(-0.428665487101028642 -0.674479698686524132 -0.264125942930046265)
(-0.683228697921709593 -0.847540767598127687 -0.280158668363409358)
(-0.492404108602508883 -0.771051650926270149 0.0335180283506441579)
(-0.3769097569026299 -0.00967228796176540159 -0.431359803813046505)
(-0.670182798564499249 -0.489468393833212001 -0.343083277716001167)
(-0.534018403374291517 -0.306928571346399393 -0.346231940999605914)
(-0.0225660445796940987 0.441212018379363746 -0.589123970555421872)
(-0.417305606259536999 -0.130042236950902862 -0.438725663660698206)
(-0.233617539513829159 0.333678094057554997 -0.587739718022743274)
(-0.0219242475012642046 0.367186114666525787 -0.556497831990056646)
(0.205071778749369577 0.78544366525817888 -0.69517838113474395)
(0.439227601607225793 0.723759827109704879 -0.639073498763948589)
(-0.662885973134785256 -0.619490797129693016 -0.339980494174074055)
(-0.518142274835385108 -0.331435036957788864 -0.302991104897710861)
(-0.534127022120159944 -0.52493879082112993 -0.190813146103161135)
(-0.808810447411237754 -0.649445653085269914 -0.359116003149364094)
(-0.819306458130405479 -0.744531106390189046 -0.27087566330477042)
(-0.799883648541050651 -0.912077440466753098 -0.273963426065574944)
(-0.690262023342392728 -0.433693282128400859 -0.350449137563653368)
(-0.803792613081398155 -0.495936254658085496 -0.265152318248742747)
(-0.771170956717270095 -0.593838159288044176 -0.390808360717856185)
(-0.478662538823423966 -0.0389664879825622756 -0.406099525095333425)
(-0.722953656630264452 -0.29769002453211324 -0.254515207009391842)
(-0.670257977320951492 -0.20792715482871571 -0.358041446986440637)
(-0.487043936467046412 0.0460526232624680967 -0.370582906937738321)
(-0.332089766101703265 0.38003561646518208 -0.539739125592419988)
(-0.0649810429280599233 0.363079756691221611 -0.499949518913265389)
(-0.667172907615849131 -0.35703299165039859 -0.233886274028407587)
(-0.544190466869478473 -0.29986385366977869 -0.231095722502034306)
(-0.583401832010982502 -0.141628097568852362 -0.218040144687649401)
(-0.836041891634035084 -0.523144058514207422 -0.176911978404149461)
(-0.703716303167549517 -0.572271697130517731 -0.147667057205508684)
(-0.696485894921085036 -0.646720074287601254 -0.134142126346751794)
(-0.813289198668119551 -0.357055421754916391 -0.169218387694481054)
(-0.767480570538896956 -0.372198701398278375 -0.128048024494985896)
(-0.824534616149327437 -0.457962276299871407 -0.22084898046934151)
(-0.752339004730868344 -0.194014307783693274 -0.218998588851796572)
(-0.753036762964550244 -0.243847836611771784 -0.133333861563356942)
(-0.820733664228063708 -0.285224126014823165 -0.219729358034339878)
(-0.684965681799975523 -0.0544673076426019018 -0.193631332455130367)
(-0.680930074815348174 -0.00750678862421487719 -0.323442977046731195)
(-0.54860623294791111 0.0304133755340241785 -0.295737533577481726)
(-0.558183845136065782 -0.500496477930159389 -0.144876505679135376)
(-0.495776039076336605 -0.444444550448567288 -0.149310909095601907)
(-0.555967169928754057 -0.499785368934890561 -0.160705720427603865)
(-0.663880730559750498 -0.40538356246490076 -0.0988031032963448685)
(-0.521901644614723881 -0.429202710728181169 -0.0945749249996481328)
(-0.568894317523209625 -0.457709402883835437 -0.104131021562290954)
(-0.694091938384465479 -0.262320299232719489 -0.0921634983638616179)
(-0.604719662873284713 -0.294921315306665155 -0.0797457687493402095)
(-0.688484074251107248 -0.30929720297445068 -0.0985025690605017129)
(-0.701983146663696322 -0.124694155170458218 -0.107966605166690155)
(-0.611939801402943684 -0.178117938304555579 -0.0797785750548919981)
(-0.706829872589865071 -0.178573823359888501 -0.111327482668114652)
(-0.610366444348223069 -0.0422109036292699635 -0.0928350059141216377)