/*--------------------------------*- C++ -*----------------------------------*\
| =========                 |                                                 |
| \\      /  F ield         | OpenFOAM: The Open Source CFD Toolbox           |
|  \\    /   O peration     | Version:  2206                                  |
|   \\  /    A nd           | Website:  www.openfoam.com                      |
|    \\/     M anipulation  |                                                 |
\*---------------------------------------------------------------------------*/
FoamFile
{
    version     2.0;
    format      ascii;
    arch        "LSB;label=32;scalar=64";
    class       volVectorField;
    location    "0.720000000000000417";
    object      faceForces;
}
// * * * * * * * * * * * * * * * * * * * * * * * * * * * * * * * * * * * * * //

dimensions      [1 1 -2 0 0 0 0];

internalField   uniform (0 0 0);

boundaryField
{
    inlet
    {
        type            calculated;
        value           uniform (0 0 0);
    }
    outlet
    {
        type            calculated;
        value           nonuniform List<vector> 0();
    }
    top
    {
        type            calculated;
        value           uniform (0 0 0);
    }
    bottom
    {
        type            calculated;
        value           uniform (0 0 0);
    }
    left
    {
        type            calculated;
        value           uniform (0 0 0);
    }
    symmetry
    {
        type            symmetryPlane;
    }
    interface
    {
        type            calculated;
        value           nonuniform List<vector> 
181
(
(0.450808867540599956 -3.80506237323639163e-06 -1.32360257831454534e-05)
(0.413639740285137891 2.49805766614944939e-08 -1.3671254863069766e-05)
(0.376921150823523787 -1.65564249564367084e-07 -1.36397589042053651e-05)
(0.340761862561063888 -5.49482434285715551e-07 -1.36284898074936474e-05)
(0.305377199103680108 -8.19795134082256004e-07 -1.32261669166658055e-05)
(0.271048591083661916 -1.10871865871067609e-06 -1.28151975402382802e-05)
(0.237529421502464422 -1.51122755412498059e-06 -1.24572014809125198e-05)
(0.204885342965729189 -2.0512053424005577e-06 -1.21211181011647524e-05)
(0.172929215413137743 -2.76888980080900046e-06 -1.2004466615558396e-05)
(0.141212261467897338 -3.54942293197615139e-06 -1.19985045169512259e-05)
(0.109866125483314869 -4.21193507331298622e-06 -1.1740324755886504e-05)
(0.0795493370377355485 -4.55698853263386108e-06 -1.11246778587199716e-05)
(0.0506151613673875983 -4.8193765695549421e-06 -1.04146036862105252e-05)
(0.0219458846678670452 -5.57321251376644563e-06 -9.19031057204894891e-06)
(-0.00319818007132827327 -5.58829984654506994e-06 -6.30140004327612912e-06)
(-0.0124766865111247596 -2.42837066192883144e-06 -1.83883090627196593e-06)
(0.47513768711990445 -6.64184163462358621e-07 -8.97376269844656801e-06)
(0.437825772732308272 2.46818231631502341e-08 -9.45394858369894276e-06)
(0.400531765632088421 -1.24173544401695665e-08 -9.44030003758030406e-06)
(0.36359695221435212 -1.9988785627171642e-07 -9.32367041393331545e-06)
(0.327168528755741039 -4.09554260696209525e-07 -9.29021482811658859e-06)
(0.291425664922166094 -6.51062758031398883e-07 -9.14287571686808993e-06)
(0.256487228563921865 -9.4791193830527455e-07 -9.01121460143036657e-06)
(0.222300572443121597 -1.32437997497501112e-06 -8.8680449063659645e-06)
(0.188924872783414771 -1.78005040548134351e-06 -8.71949611471477743e-06)
(0.156360792761068873 -2.2942026915577675e-06 -8.56286473734580807e-06)
(0.124214913110438599 -2.9392697197008498e-06 -8.51135409836589587e-06)
(0.0925853613682058596 -3.64302905878924143e-06 -8.42335928608703561e-06)
(0.0619037264285063199 -4.10316229912244506e-06 -8.12977693173075727e-06)
(0.0300460080274461729 -4.85973277477144279e-06 -7.59592849443496985e-06)
(-0.0027587907635186976 -6.01101453150274032e-06 -6.74096236540311154e-06)
(-0.0173197699397494125 -3.40174461227630894e-06 -2.52454293199928513e-06)
(0.486326897745145703 -2.39102030673955868e-06 -7.26992862499363923e-06)
(0.448958797724783476 3.26101105530844627e-07 -7.82997078731222779e-06)
(0.411610631011560646 4.86934330506118455e-07 -7.74125926311146703e-06)
(0.374598225739978363 3.7236602953387506e-07 -7.65788092035329682e-06)
(0.338027664875558187 1.97049767314860182e-07 -7.66443888827425601e-06)
(0.30188007090964214 -5.90752934224639512e-08 -7.67568839483329755e-06)
(0.26631702129814766 -3.50269196184419422e-07 -7.60014215626568746e-06)
(0.23157544833681154 -6.90208246171907694e-07 -7.4927253272331809e-06)
(0.197690328063806847 -1.1050089319870169e-06 -7.39806753363886466e-06)
(0.164529932142185253 -1.63548716352587042e-06 -7.31331800986806089e-06)
(0.131850474169588783 -2.30311149777553925e-06 -7.22839501281978413e-06)
(0.0996675829516421724 -3.06021466155588366e-06 -7.10183214558114121e-06)
(0.0680573006146012738 -3.72066705352595286e-06 -6.83396864670707526e-06)
(0.0347363371511220514 -4.31325958471315324e-06 -6.49246415944785194e-06)
(0.000298787796635085654 -5.33673118691919287e-06 -5.96494786406557161e-06)
(-0.0158382943206704097 -4.02535380787391975e-06 -2.97767812681144988e-06)
(0.490831698895680846 -9.57853171719829913e-08 -4.6551929432551647e-06)
(0.453388931990265032 2.99637175114277421e-07 -5.25655881532464146e-06)
(0.416117833926618608 4.37390806524878193e-07 -5.1455594866286163e-06)
(0.379177946916291808 3.70338437870023447e-07 -5.11518010396197626e-06)
(0.342635223666507616 2.56526244917665769e-07 -5.12698715532427586e-06)
(0.306547023352664705 6.77054711533159523e-08 -5.15711297648012939e-06)
(0.270984539550757186 -1.93620367282859761e-07 -5.17158638520632433e-06)
(0.236097181453117422 -5.02809076470258899e-07 -5.15819539463887379e-06)
(0.202134269098959318 -8.11007795127210005e-07 -5.13325919405353464e-06)
(0.168929106780725702 -1.29624397675086108e-06 -5.15600925967382157e-06)
(0.136213490160947304 -2.03408067543499041e-06 -5.163477892089675e-06)
(0.103996911777092249 -2.82535744159264923e-06 -5.14976245685953895e-06)
(0.0720734730332127788 -3.51224308964216992e-06 -4.93968207160201361e-06)
(0.0382649260206548505 -4.14712664704935265e-06 -4.71259958481587205e-06)
(0.00313257503283202949 -5.24656932906314536e-06 -4.45423238847984821e-06)
(-0.0147653115544919677 -4.53898919121707288e-06 -2.70813087218074807e-06)
(0.493314410466542952 -3.5958383304098033e-07 -3.83019755359310104e-06)
(0.455990386089240085 3.44027799258301586e-07 -4.1898085812264388e-06)
(0.418735839097337081 5.24093570733079656e-07 -4.22255735064299256e-06)
(0.381775604434555937 4.93675761200815404e-07 -4.21588271088166803e-06)
(0.34525644180700571 4.14653972287082739e-07 -4.22380300649337065e-06)
(0.309242137942093431 2.70899284094160597e-07 -4.24470982361522284e-06)
(0.273790971848736631 5.07704873330611671e-08 -4.27542805799143533e-06)
(0.239031389102454084 -2.18418188842479839e-07 -4.29866772156743683e-06)
(0.205086888304710863 -5.33496072322134145e-07 -4.32105754229393944e-06)
(0.171882573135132749 -1.08540894524839597e-06 -4.34285889057611974e-06)
(0.139123877540301061 -1.88689461251884773e-06 -4.30906594229661344e-06)
(0.106782052146899564 -2.75265080255225147e-06 -4.27312177015760974e-06)
(0.0746046229975324271 -3.4054145736280443e-06 -4.14523731731081819e-06)
(0.0403276330783532075 -4.090381363530806e-06 -4.00900502829044939e-06)
(0.00502949398380107826 -5.16683044326124087e-06 -3.79453384081045191e-06)
(-0.0133460550185117797 -4.66000912175857625e-06 -2.42880864089417705e-06)
(0.494444659326558456 1.42007198450837961e-08 -2.09876073484151431e-06)
(0.457164605043182848 3.75394007275340506e-07 -2.62113244408044541e-06)
(0.419897127264200254 5.71384681440211028e-07 -2.61463474181940151e-06)
(0.382942805457598179 5.68036952437449852e-07 -2.56887626736498996e-06)
(0.346511839665418486 5.07390541659133613e-07 -2.56568796288846685e-06)
(0.310595881095649728 3.83228727217226853e-07 -2.58666007029829572e-06)
(0.275277506366338798 1.90134125490688705e-07 -2.6127563152787554e-06)
(0.240691208572702986 -2.83780507707692907e-08 -2.63812658505355617e-06)
(0.206894032879033019 -4.23732062392586495e-07 -2.6872776028702399e-06)
(0.173803857604457962 -1.04566744296926473e-06 -2.70013217361559297e-06)
(0.140921843069065217 -1.88987992093042684e-06 -2.66791260733031786e-06)
(0.108413653020421066 -2.74194586786671715e-06 -2.5740102824429928e-06)
(0.076181579814661865 -3.42670617588914807e-06 -2.45405492615888825e-06)
(0.0417464317595907658 -4.24183659273963124e-06 -2.29735258355573436e-06)
(0.00624781726528693925 -5.29872772163119779e-06 -2.16917944481260306e-06)
(-0.0127997959224088204 -4.69292055831180027e-06 -1.55128550790897215e-06)
(0.495270251894732949 -5.32661256261236631e-08 -1.28266331773905598e-06)
(0.457908254827503802 4.35408945545829292e-07 -1.59521490820273741e-06)
(0.420669888924136259 6.54578377623309382e-07 -1.57646767403220558e-06)
(0.383884479597084771 6.85958974006556584e-07 -1.57654303601137111e-06)
(0.347544390498885636 6.23917007949069964e-07 -1.59996087543810639e-06)
(0.311684201443269748 5.00143861316153413e-07 -1.6261226905908649e-06)
(0.276487283060141031 3.34866023146025363e-07 -1.64978061551377138e-06)
(0.242097226353275657 9.65382983843644499e-08 -1.67840030403003932e-06)
(0.208511561083219082 -3.70673085973550967e-07 -1.72246835548998474e-06)
(0.175540965670779064 -1.10946719342377082e-06 -1.73018533064987895e-06)
(0.1425024863718099 -1.98558924152775439e-06 -1.71240370619488386e-06)
(0.109867496308130266 -2.75369436963916789e-06 -1.63847534669144909e-06)
(0.0776677461029907229 -3.28847870641439561e-06 -1.55257621831865368e-06)
(0.043300707513735083 -4.0767125762848277e-06 -1.39011254015020054e-06)
(0.00770729910884085292 -5.25860925113219784e-06 -1.19478663911427544e-06)
(-0.011798494493005544 -5.08841131366093231e-06 -8.60633780993155658e-07)
(0.495585517074195847 -5.74421674174096864e-08 -4.07401487376464484e-07)
(0.458180977695636149 4.58261403541240748e-07 -5.08088251595555218e-07)
(0.420959895868035283 7.10810587594661925e-07 -5.00447138897696746e-07)
(0.384260905650044282 7.51222482143981019e-07 -5.02756879935452326e-07)
(0.347971865265958968 6.82126025502420624e-07 -5.10845228628854412e-07)
(0.312166797997992296 5.52136296253390677e-07 -5.20725182711173122e-07)
(0.277047221749566475 3.91088696098742096e-07 -5.30614916733866755e-07)
(0.242749156569252528 1.24718948063768468e-07 -5.41969046588317436e-07)
(0.209235777496178943 -3.84352384559799776e-07 -5.54022616749807323e-07)
(0.176237685063592137 -1.1248965110563501e-06 -5.52803727129578565e-07)
(0.143158691249020531 -1.9995600813478665e-06 -5.40735106511689154e-07)
(0.110559862224231267 -2.77013809405723812e-06 -5.20204381627675365e-07)
(0.0784448042682211327 -3.33665022075727161e-06 -5.01496632547272801e-07)
(0.0442126954280265827 -4.0331451405898291e-06 -4.6871517056067184e-07)
(0.00869744431311452945 -5.10282570741957931e-06 -4.00523168085327869e-07)
(-0.011693158702370544 -5.3234125149658378e-06 -2.64491355729166724e-07)
(1.77028970993178331e-05 1.01316756512128685e-05 0.247424723255564999)
(1.71262093000283501e-05 -9.3309499082701856e-07 0.210956963152819033)
(1.65909467999086045e-05 -2.43657680493896718e-06 0.17841566001013337)
(1.57336573292882363e-05 -3.79073998339696396e-06 0.149320175031672525)
(1.41715587177922621e-05 -5.66281403457538366e-06 0.123824736431000879)
(1.18847510367803096e-05 -8.10012650149619365e-06 0.0997340628484012781)
(9.68480681528333914e-06 -1.04910037067366219e-05 0.0751597835906280126)
(7.92374158339223873e-06 -1.23412459155565535e-05 0.0518676261843158126)
(6.41749047984286115e-06 -1.39174194390816292e-05 0.032414100307714501)
(4.90221171545606507e-06 -1.47303230553984889e-05 0.0168294130120868711)
(2.85443800937206882e-06 -1.18158390059673942e-05 0.00722048220421153165)
(1.98413142994873171e-06 -1.08984080381037339e-05 0.00365110926690569463)
(3.1499471591379539e-06 -1.02222513848239761e-05 -0.00551095584164133009)
(3.80164131903064122e-06 -1.03613474803411532e-05 -0.0277743909565769768)
(1.01389644123326446e-06 -4.46256126702394864e-06 -0.045650554819706736)
(1.45290249101086786e-05 5.33417992272282098e-06 0.276192268879746128)
(1.39751504109773582e-05 -2.61833991780110412e-06 0.242593524048184517)
(1.30121456433941193e-05 -5.47158584962610142e-06 0.210191351799551562)
(1.10765659611080167e-05 -8.86991335770034849e-06 0.176530041283534084)
(8.38438015772456601e-06 -1.16576857473591524e-05 0.141690303365933912)
(4.52807724341044806e-06 -1.02581039189311172e-05 0.109890531165833569)
(2.57267016039695703e-06 -8.89937482571767357e-06 0.0839893471373684836)
(1.31962982828947312e-06 -7.49928032663043257e-06 0.0618255571437183113)
(1.5002393274963894e-07 -4.49138723594937259e-06 0.0428501413249513935)
(-6.06259252781837367e-07 -2.48772902097892121e-06 0.0262468629142262877)
(-8.7925726115162892e-07 -1.3161199130710467e-06 0.0132536880551855883)
(-1.02854271243896775e-06 -5.17987623013415825e-08 0.00739584791927525281)
(-1.15506427981919551e-06 9.69448912699798675e-07 0.00312785642720126572)
(-8.10144966908801199e-08 -3.91636307116115911e-07 -0.00986450823997344663)
(1.43276643629481121e-05 1.00146513260259682e-06 0.29844333915193233)
(1.3306940674101768e-05 -4.47287177630051976e-06 0.260895336886310447)
(1.18799104239479118e-05 -8.4138732260339729e-06 0.220606803045915401)
(1.02370397093534562e-05 -1.07848066136807831e-05 0.179899901478316748)
(7.68441382201795797e-06 -9.26426575440249443e-06 0.144335361303436299)
(5.60546603510205104e-06 -7.00284405521319601e-06 0.114944323371629908)
(3.78594098259078753e-06 -5.22327963785932188e-06 0.0886335733337445253)
(2.20469438021587967e-06 -3.87592574662612128e-06 0.063501120267385941)
(5.83121022975329426e-07 -1.36901995630083467e-06 0.0434555291604240904)
(1.81219724870707315e-07 -1.70046420547926715e-07 0.02985285709396494)
(-1.20933767346181616e-07 5.9046305204876836e-07 0.0187007305040347398)
(-4.45578136460169507e-07 1.2972364887797572e-06 0.00916015344909026745)
(1.91003214067261002e-05 -1.9880195777983324e-06 0.260332189250579105)
(1.86920564196701612e-05 -6.61441722480991803e-06 0.221407343445780086)
(1.94338516851079454e-05 -1.00035848344962157e-05 0.183204238130677544)
(1.85063116080743101e-05 -1.06027280304126969e-05 0.149159232451807094)
(1.19285484404246885e-05 -6.99858893091015519e-06 0.122349000068868327)
(7.415339214344823e-06 -4.6615285398974827e-06 0.0997077703249190234)
(6.13513289598143456e-06 -4.23677515182811955e-06 0.0739749455987836202)
(1.56774010191110986e-06 -4.7354479808800686e-07 0.0532310607548119388)
(7.17367990804947201e-07 -1.63788047940534501e-07 0.0400287863601868563)
(6.11720305560818366e-07 3.47188213285160792e-07 0.0307524257952230574)
(1.50625545730246009e-07 7.16530291754867737e-07 0.0245526722830855526)
(8.3212090545815405e-07 -1.02507537858555132e-06 0.0170094791410608445)
)
;
    }
    procBoundary0to1
    {
        type            processor;
        value           uniform (0 0 0);
    }
    procBoundary0to3
    {
        type            processor;
        value           uniform (0 0 0);
    }
}


// ************************************************************************* //
