/*--------------------------------*- C++ -*----------------------------------*\
| =========                 |                                                 |
| \\      /  F ield         | OpenFOAM: The Open Source CFD Toolbox           |
|  \\    /   O peration     | Version:  2206                                  |
|   \\  /    A nd           | Website:  www.openfoam.com                      |
|    \\/     M anipulation  |                                                 |
\*---------------------------------------------------------------------------*/
FoamFile
{
    version     2.0;
    format      ascii;
    arch        "LSB;label=32;scalar=64";
    class       surfaceVectorField;
    location    "0.990000000000000657";
    object      Uf;
}
// * * * * * * * * * * * * * * * * * * * * * * * * * * * * * * * * * * * * * //

dimensions      [0 1 -1 0 0 0 0];

internalField   nonuniform List<vector> 
20789
(
(-0.0302776411143256055 0.00488515095452787818 -0.0290680897667907161)
(-0.0194107486964136995 0.0134433566457923519 -0.0271495200851201365)
(-0.0202593404092992514 0.00716199796907082426 -0.0262714322572650573)
(-0.0193089520494206142 0.00731894024873700182 -0.0262981777338472215)
(-0.0423766964191955239 0.000870528405760310846 -0.0329440650435023005)
(-0.0369980203420042023 0.00479260655564921288 -0.0312761906496652614)
(-0.0402934409974587751 0.0025880314595208378 -0.0306781093610063033)
(-0.0383996696060785528 0.00298108859246542937 -0.0318476229544833109)
(-0.0424867025320533054 -0.00182320306321460978 -0.0360237344259568132)
(-0.0417326828725639309 -0.000586098412653759753 -0.033979897640388404)
(-0.0453898584608046773 -0.000803653121285718432 -0.0333813102489833868)
(-0.0429729551970143217 -0.000407344023402851077 -0.034651302178920533)
(-0.036699098301599814 -0.0030061205096007953 -0.0398245081128463171)
(-0.0406788450623296605 -0.00320582669216357271 -0.037475281396921134)
(-0.0409790575650045563 -0.00273686065094140432 -0.0367871745478251383)
(-0.0378989014778714078 -0.00251653791839279726 -0.0380543033323284888)
(-0.0290803654468453597 -0.00314168446967030834 -0.0445374086423562243)
(-0.0363874796443172943 -0.00386751435461855789 -0.0419202906943969972)
(-0.0338002612485098636 -0.00313839340294651704 -0.0410957753983505966)
(-0.029326070666334577 -0.00305970369287074948 -0.0420586055148426535)
(-0.0198324224058831107 -0.00317538374025625294 -0.0503884046756956708)
(-0.0301236784792375117 -0.0044143095727186667 -0.0475230234524533432)
(-0.0273403456952121919 -0.00301636721306831716 -0.0464280425241899372)
(-0.0214263569935970455 -0.00296995541414936913 -0.04703626878847076)
(-0.00732402585803232104 -0.00364256020988491412 -0.0576886978784270713)
(-0.019379843824933074 -0.00579320244601678764 -0.0543076994304382069)
(-0.0175350061129477923 -0.00331763765083061511 -0.052835885797118301)
(-0.0100629856183574139 -0.0032878362344706015 -0.0533037122217263418)
(0.0102727339264874675 -0.00431085984092310481 -0.0668822677895609258)
(-0.00408089494433230924 -0.0078694797173793872 -0.0626598426238901968)
(-0.00383417986257220556 -0.00402778745979194119 -0.061023027525914833)
(0.00548400102874113324 -0.00389819612876850198 -0.0611204210766706571)
(0.0313285931067750767 -0.00501505514202897889 -0.0787912772268643258)
(0.0160642103994048484 -0.00964069886553508767 -0.0727791225884032444)
(0.0143301577072273839 -0.0046844952963825421 -0.0707528584705232194)
(0.0259676016663111034 -0.00462304217604886294 -0.0713179426687638729)
(0.0569184752554553822 -0.0057424385576323898 -0.093872647379889429)
(0.0410417588101490149 -0.0115870407595101976 -0.0860222484816807881)
(0.0367652953823104922 -0.00543923592797134359 -0.0842134496143531613)
(0.051343775528700876 -0.00543378650304635231 -0.0846409827508133039)
(0.08741871883007582 -0.00639911752287318156 -0.114120001496009094)
(0.0690316976299749085 -0.0132077800619611416 -0.102365131643157706)
(0.0617388431204120292 -0.00605843780723399651 -0.101037944965726489)
(0.0817896876835517289 -0.00600291914064733471 -0.100342194294523984)
(0.118244724351168604 -0.00673856076445183104 -0.140049845584158839)
(0.103146281365235723 -0.0146615206958850344 -0.125425130188887513)
(0.0918151549875994705 -0.0069071719791240398 -0.12349317380449043)
(0.115809054159677557 -0.00689358581444689256 -0.125415333802492868)
(0.152569832652057646 -0.0076540569957843866 -0.182555386983351803)
(0.134115512823683919 -0.0152174539707576675 -0.153461588483442601)
(0.118856731082999698 -0.00685926015479272882 -0.15179509828079335)
(0.160450068135000901 -0.00677944178812622811 -0.151718799292675205)
(0.174129649582701912 -0.0125643833875526429 -0.233348040048151517)
(0.166607083035871684 -0.0184879821217637172 -0.206726598603508394)
(0.143747371040248095 -0.00927036150022902093 -0.199005471982961535)
(0.186421227426677411 -0.00896874261973036775 -0.216817140947921178)
(0.216935367660493317 -0.00631642312652717312 -0.368032461495161001)
(0.216763201062045857 -0.0322714704604802616 -0.256058870834697083)
(0.18116838390686954 -0.0174862351641214518 -0.238564113959154167)
(0.310950848643017363 -0.0179137922022646959 -0.265057504697366442)
(0.154426476519648997 0.00947527249329085768 -0.485344045895495235)
(0.159402931462654107 0.00571048085028524107 -0.357790050658314041)
(0.298657328662586818 -0.00124252203300116259 -0.531670918188982267)
(-0.0269485586395963664 0.0130804318608033158 -0.0293576209679946749)
(-0.0166870205530695488 0.0252126048112806429 -0.0272661231960988557)
(-0.0192883221304169308 0.0196427454861647643 -0.0271884464046947515)
(-0.0183509359692826182 0.0201649472527339439 -0.0276042514684831479)
(-0.0373268820545269858 0.00297090328319456632 -0.0323120232465513579)
(-0.0318379781406399887 0.00853715781931818629 -0.0310118863396617872)
(-0.035496078312318477 0.00663937008345475647 -0.0298723268922301312)
(-0.0336816804277002071 0.00766084307070498145 -0.0316084364774872201)
(-0.0415111703291357256 -0.00216896080559133989 -0.0354314446113527248)
(-0.0381381200601180401 0.000256077544354300359 -0.0338992938221902088)
(-0.0407942485081316045 -0.000272567451900715993 -0.0324294566749278659)
(-0.0380652811246614334 0.00060097853147465536 -0.0344645077687560641)
(-0.0427681049524724632 -0.00436918949873993812 -0.039571063978471821)
(-0.0418703130644164714 -0.00350490887315896369 -0.0375499282746355884)
(-0.044034346591447511 -0.00350640348595095304 -0.0361908670959005391)
(-0.0401902231988243361 -0.00297298963314688745 -0.0379063312450905465)
(-0.0398237828253290918 -0.00558549298330168233 -0.044905905504494123)
(-0.0418882643595715198 -0.00579962592533181213 -0.0423215944933640134)
(-0.0438525915729837401 -0.00479173862392752621 -0.0410743167486547628)
(-0.038944020216318001 -0.00447009726100270222 -0.0423213708639509911)
(-0.0316685536634297021 -0.00742980236654805937 -0.0514423182071958862)
(-0.0370034409175463153 -0.00845460019014258705 -0.0484026423990377708)
(-0.0388909561612226645 -0.00629140128761353223 -0.0471109707824224275)
(-0.0329918402047487055 -0.0058374556619807498 -0.0479424536157490241)
(-0.0178874367409711868 -0.0102507767115353442 -0.0592788441759013462)
(-0.0263676942423870693 -0.012178214969235681 -0.0555953772231171789)
(-0.0285014644800919426 -0.00896345432800814412 -0.0541510609304902621)
(-0.0215058195881588608 -0.00833026438300224839 -0.0546712030973778712)
(0.00107234193972057901 -0.0133017316784408788 -0.0685566974227325154)
(-0.0103547419560209124 -0.016448757017245727 -0.0641815762992252181)
(-0.0130881370316274313 -0.0122216245935321179 -0.0625656752400543942)
(-0.00478661615585342787 -0.0114020490593243103 -0.062871111033710847)
(0.0244515028275808163 -0.0162396870876430899 -0.0800100938432197206)
(0.0108310274580852729 -0.0203763154977363199 -0.0741477737333509079)
(0.00697986874177081076 -0.0152118313768435463 -0.0721599109063880001)
(0.0172670921079049709 -0.0143871162387168034 -0.0728497064806037098)
(0.0521635892533755738 -0.0189328727025647597 -0.0945147327449490926)
(0.0370480078537724564 -0.0243387961432708702 -0.0869341878633751175)
(0.0315264426069952544 -0.0180241103860813816 -0.0847784471258144212)
(0.044605488791914033 -0.0174055396422075521 -0.0856490389651945877)
(0.0833611038264403664 -0.0213887390495316985 -0.113670260336036111)
(0.0663848934357905984 -0.0274506528891300845 -0.102949510659390009)
(0.0587689695058324774 -0.020356430109652067 -0.100627472139113869)
(0.0762009709126705431 -0.019724726097272785 -0.101382127084988422)
(0.116796633269690545 -0.0232238639319851982 -0.138836873088171275)
(0.100230626357437388 -0.0307714978537692967 -0.125090728460556355)
(0.089770415364327949 -0.023068762102269165 -0.121758728299612956)
(0.112286491600741473 -0.0226025321896919928 -0.124258211791964279)
(0.152081032082403478 -0.0262071187352150362 -0.177632800103599137)
(0.132741167907366703 -0.0325660378610666684 -0.15323401207576437)
(0.118673301856123348 -0.0239898638641151164 -0.148807258107831408)
(0.155150352095366706 -0.0237995118240907008 -0.152140475920343993)
(0.182239434055915639 -0.0394821050927734035 -0.229437429390053987)
(0.167649681365394265 -0.0400104417619660674 -0.20193494145565441)
(0.148937528507235517 -0.0294585143818672582 -0.191274013272734744)
(0.191193075361234394 -0.0288428090047099517 -0.207511397076872162)
(0.216859800471718184 -0.0172319671959484874 -0.373370455235030652)
(0.217782761712873196 -0.0666527655042569306 -0.255891862115965374)
(0.184882754093558033 -0.0490077687688796892 -0.2303923823162215)
(0.29406372161860328 -0.0536770962749588132 -0.268381241025483053)
(0.147267798528988442 0.0216422878795608405 -0.486503184321393833)
(0.155211927381814108 0.0211421746215518062 -0.375512087849490084)
(0.290427786410030142 -0.00235460080117208276 -0.543942277973774146)
(-0.0219408057977185447 0.0205088190140321272 -0.0289203885677659714)
(-0.0128471340274131894 0.0346104006827294697 -0.0264234359682288394)
(-0.0148670706785251575 0.0304609891751766518 -0.0260083692788134375)
(-0.0140345954605395826 0.0314490842500681211 -0.0267157367453585842)
(-0.0338023334372716394 0.00580714302064202006 -0.032599156915300645)
(-0.027052029920229155 0.0127270001305837821 -0.0309414175790167605)
(-0.030216154936487466 0.0110580022239053777 -0.0296225805702809569)
(-0.0283300993943402524 0.0127131789379709738 -0.0317865048000312359)
(-0.040364250106398783 -0.00123835992148537614 -0.0360177774854730792)
(-0.0361717681907968019 0.00206611026720926114 -0.034210548688073418)
(-0.03866428127582619 0.00163099393523233153 -0.0328019608783485378)
(-0.0357256397716786619 0.00303258501450569956 -0.0350147392279507239)
(-0.0432790157580772369 -0.00507301378334083699 -0.0403004587895277877)
(-0.0422304547432173633 -0.00316033212680775968 -0.0381339519822269449)
(-0.044018865037080579 -0.00294803934228963366 -0.0367583296096088419)
(-0.039993735033018063 -0.00201751332545535046 -0.0386600988658646269)
(-0.0416158907281750576 -0.00856562990554056262 -0.0458183313879076681)
(-0.0439839779134459166 -0.0071790037717553018 -0.0432061324489271745)
(-0.0452885581841902599 -0.00642957139918980472 -0.041881271944873566)
(-0.0401365236781003262 -0.00574361293882201442 -0.0431616990785935947)
(-0.0342575003292292929 -0.0129801077778392299 -0.0525557014149590704)
(-0.040299717974865798 -0.0121233114770782635 -0.0496555539798051795)
(-0.0413920306208471062 -0.0107446718930513177 -0.0481575667752981093)
(-0.035225444959659305 -0.00983168201466752892 -0.0489541932270831578)
(-0.0207059872492670848 -0.0182058002394319476 -0.0604981093464410438)
(-0.0301532836198738219 -0.0184465825696021532 -0.0571353012495303403)
(-0.0314510398007539216 -0.0161167603319302549 -0.0553322918657034313)
(-0.0242614622298889943 -0.01477902170857405 -0.0558232370404676756)
(-0.00137428128841720026 -0.0233820201522234976 -0.0697726526098435967)
(-0.0139012511331135669 -0.0252495483053984497 -0.0657242775991219164)
(-0.0158888241243990355 -0.0216947785799734144 -0.0636785970385509853)
(-0.00749645994349578456 -0.020215065681116369 -0.0640964554207603399)
(0.0223814018976168684 -0.0283322283997610135 -0.0810718677535063187)
(0.00775285655807574775 -0.031281203916886241 -0.0756126389736227478)
(0.00461547301139093522 -0.0267429655333695573 -0.0732685551565149529)
(0.0148603997182159622 -0.0250212375758800502 -0.0739621999149092657)
(0.050438090748651139 -0.0327626746129150506 -0.0953689657778160199)
(0.034538580171568127 -0.0373333408554000976 -0.0880234239137212549)
(0.0296408911189715053 -0.0314592100596892063 -0.0855674757231280614)
(0.0426378217032425122 -0.0300172561391911681 -0.0866173230605110644)
(0.0820373789249144725 -0.0367091250174742256 -0.114369978783910239)
(0.0642901337623484337 -0.0419433659676271137 -0.103777760464507637)
(0.0570638915987260603 -0.0352542261794091746 -0.101357641043094332)
(0.0744332035053336394 -0.0339430078827386919 -0.102254837013338457)
(0.114824644706704948 -0.039973748986327419 -0.139487867448149505)
(0.0989529426428311931 -0.0464289014193776731 -0.12557982629083117)
(0.0886476024867747237 -0.0393457076615930379 -0.122556293557164867)
(0.111213451534511107 -0.0382603146707017547 -0.124726863417939093)
(0.149668658215630024 -0.0462380223404642576 -0.177536153427819643)
(0.128548444429065906 -0.0496024493244750855 -0.153657950582949204)
(0.114826250748777975 -0.0417964686149714937 -0.149598874922607233)
(0.151114176506021575 -0.0409773068608720314 -0.1526992085602841)
(0.183186245379828416 -0.0670211218086221028 -0.228389374181565991)
(0.169815825464629644 -0.0625386701054105598 -0.200855943449420066)
(0.151471412666930649 -0.0522651649183801387 -0.190859017871728404)
(0.191647056536550175 -0.0501722181290063657 -0.206122008872923118)
(0.203764319983512326 -0.0284853728616178345 -0.369024591202328556)
(0.202790581126175262 -0.0925388893162844978 -0.255768586632867556)
(0.179081603931293049 -0.0784580563646996992 -0.231448635777108142)
(0.286260899663512536 -0.0867715983516543082 -0.264929204066349955)
(0.131954645989569769 0.0287969745588582231 -0.479225033942379308)
(0.142753233220698245 0.0339157125045990368 -0.368142635310084065)
(0.275648865548385469 -0.0057345071607047271 -0.534957065929247522)
(-0.018168504620656542 0.027037092868880036 -0.0284444649794796285)
(-0.0099015356366658671 0.0421854983466852171 -0.0253803682654879029)
(-0.0116468429732500701 0.0392802303716902682 -0.0250070768368299834)
(-0.0108208673225428879 0.0410142690644718713 -0.0260066813003103046)
(-0.0310540537642440793 0.00917250065444319071 -0.0325528093517895301)
(-0.0229371754179235887 0.0175002951635066344 -0.0301512216630670654)
(-0.0262799763669449189 0.0157891200007468022 -0.0295482276275836307)
(-0.0242963622193493531 0.018293717073788112 -0.031455484242338988)
(-0.0401419765317189287 0.000317829991349148492 -0.0363267231848272837)
(-0.0346269263224592699 0.00531065211722478447 -0.0338420002064722183)
(-0.037337649084664859 0.00428123471205458898 -0.033245138879574733)
(-0.0342698139333820484 0.00632419915891465657 -0.0348342344646325949)
(-0.0452632748607060542 -0.00517720962319551808 -0.0410396256416263386)
(-0.0433538014308405134 -0.00146386128171630079 -0.0383993872914893883)
(-0.0452147078561811328 -0.00192218420037419072 -0.0376410526159708311)
(-0.0409825016577185994 -0.000627999292816619329 -0.0388003941063058619)
(-0.0452703938295478392 -0.0107533144664783073 -0.0470433550408246928)
(-0.0472371859177455333 -0.00750129325920343825 -0.0441531986218829248)
(-0.0485180171958561057 -0.007414261983998441 -0.0431162492248101242)
(-0.0430487231366635179 -0.006456399638075698 -0.0437671608118976388)
(-0.0387721431448477052 -0.0177286921775658517 -0.0542351538143764772)
(-0.0448772107837622572 -0.0151442274124451732 -0.0512744626213324922)
(-0.0458669057243234202 -0.0143793157911699457 -0.0497855593773260593)
(-0.0393414657359713732 -0.0129881772423708318 -0.0500511647006543769)
(-0.0252550788845013092 -0.0256519162772650411 -0.0623614695022112198)
(-0.0350869073925072633 -0.0246196881204498383 -0.0591804505349703136)
(-0.0362323950094490879 -0.0227369714901059748 -0.0571082257504786847)
(-0.0288672442571689808 -0.0206003706769167343 -0.0574392683716277302)
(-0.00572492516561672396 -0.0333285611563367209 -0.0715642639629010813)
(-0.0182698795871286575 -0.0342249465757824417 -0.0677145512737579863)
(-0.0202169401951964242 -0.0310073172503092936 -0.0652423146036020807)
(-0.0118162842263201187 -0.0285126755802683034 -0.0658329870416803492)
(0.0193353943868696705 -0.0404342976044505878 -0.0825641951338376839)
(0.00421501523270351435 -0.0428987033785793032 -0.077312072996441189)
(0.000950019740795679003 -0.0382783823032529988 -0.0746928742836158455)
(0.0110803403721949495 -0.0355742746274365571 -0.075652059827899451)
(0.0477788672589359795 -0.046591786352728759 -0.0964322186004128445)
(0.0318781467868543417 -0.0507301565835382856 -0.0890984087857442097)
(0.026641277777684106 -0.0448344340123484064 -0.0865318320135848723)
(0.0394833486912956888 -0.0425537490926838347 -0.0880424075927391525)
(0.0800532520547742182 -0.0517082142029549052 -0.114987607971428568)
(0.0625167369018137797 -0.0568725130413401808 -0.104303645661003294)
(0.0545660940135047623 -0.0500492669025632345 -0.102154504621968789)
(0.07178174107040379 -0.0481147003268975332 -0.103324477797941697)
(0.112410256304972769 -0.0561405282002316042 -0.139749909425630842)
(0.0984590887648138513 -0.0618315395959862721 -0.125390601675924973)
(0.0870509984438151418 -0.0549324292423041677 -0.123042757585297508)
(0.109628163500432668 -0.0534208910379224203 -0.125086249102017433)
(0.147095897016974175 -0.0660451277394762531 -0.176977740604549655)
(0.125592659747003121 -0.0664305283210532282 -0.153524065432691259)
(0.110644777557110663 -0.0593332798354080093 -0.149935489071755523)
(0.146152974561909454 -0.0573703818139714716 -0.152759934717530577)
(0.176352579874210907 -0.0887088972050115165 -0.228235155900721687)
(0.170621244673486466 -0.0825081266275493747 -0.200391659096617214)
(0.153884320002428632 -0.0752483517798181178 -0.190209842501629089)
(0.193408830043466429 -0.0723937987182322884 -0.20414276497549394)
(0.18067893597576376 -0.037109868848153732 -0.365969029372918531)
(0.166701961415506666 -0.109182051358655219 -0.261475989372489948)
(0.156132809072581091 -0.0980387420806301535 -0.234910179064020314)
(0.262016984150824639 -0.110920361505572523 -0.264350803525941092)
(0.109173130232440463 0.02792443358849582 -0.474594220875753259)
(0.126340022701324578 0.0404519133852372717 -0.36363685253573852)
(0.251545341318939686 -0.0107952913389672573 -0.525985402687744852)
(-0.0147889716205728185 0.0328704695866840271 -0.0270871249490753398)
(-0.00712956744470746254 0.0483956611897511171 -0.0234466175135038639)
(-0.00912453574053852766 0.0461623612796615707 -0.023798479203450601)
(-0.00827323837747944747 0.0488616387430781604 -0.024523921279347223)
(-0.028500589906672865 0.0137338289065199286 -0.0314404125177497468)
(-0.0187115703453063567 0.0234372763169264711 -0.0282044370983138594)
(-0.0225072606266251696 0.0210300390993396306 -0.0291222831255772384)
(-0.0204485695126492943 0.0245294461351095415 -0.029436447335592017)
(-0.040169834752892597 0.00362660459103508227 -0.0359146643131343229)
(-0.0332511717199807377 0.0105998540862389801 -0.0326712889302361031)
(-0.0361041216188934741 0.0084283150848433689 -0.0334025336632270756)
(-0.0328793446250551374 0.0110922227525650282 -0.0331968144361750109)
(-0.047737847125030472 -0.00366131340562678848 -0.0415129602717459814)
(-0.045077914639884753 0.00209282893739067 -0.0382521929096533014)
(-0.0467475233376741447 0.000702144515866702144 -0.0384079571815970355)
(-0.0422384988377556073 0.00233276027481076585 -0.0380217150402002019)
(-0.0495386205469078092 -0.0117694327379012451 -0.0483843062023907172)
(-0.0513065712824047476 -0.00642976921513488571 -0.0450313381678801583)
(-0.0522655423273788167 -0.00717161263209376443 -0.0444696004198518943)
(-0.0463900795250063586 -0.00584071428822737111 -0.0439272443483128064)
(-0.0438469529622606893 -0.0219592941584321327 -0.0562197593419263425)
(-0.0502718934268523085 -0.017441339714307863 -0.0530760751606222589)
(-0.0508939341603290019 -0.0174188938775683838 -0.0516140622184374162)
(-0.0439829195462736813 -0.0152437276792168896 -0.051149024006652985)
(-0.0299752595265631583 -0.0331540705086834017 -0.0645335323065170663)
(-0.0404879196550980078 -0.0308846331887751673 -0.0614207639344094281)
(-0.0413805252980846694 -0.0294823736840274693 -0.0590482611324790532)
(-0.0338720137843653846 -0.0261487147390304792 -0.0592477572360758722)
(-0.00953872146403784461 -0.0437247530957332459 -0.0734623603072980941)
(-0.022441976572086679 -0.0438079991905850966 -0.0697174005209448694)
(-0.0245332211273914386 -0.0407738166761370327 -0.0668841695079768067)
(-0.0162636809810413757 -0.0367834636131259551 -0.067884473728981265)
(0.016367262926313679 -0.0531227672191995764 -0.083846286648347701)
(0.00155181072927336526 -0.0552028178965656355 -0.0786959338668631048)
(-0.00233046256312074724 -0.050427332275979779 -0.0758890646261469043)
(0.00751975640435380462 -0.0464905993954130639 -0.0774697736937753761)
(0.046177325714921974 -0.0609926665245471844 -0.0969698358463346732)
(0.0306792989098615757 -0.0649698532429945491 -0.0896327070265122566)
(0.0243446610843972497 -0.058596246896949894 -0.0871869537954630125)
(0.036958685371085237 -0.0554791823849558122 -0.0891685390744465789)
(0.0798587498194698042 -0.0669982526479077356 -0.114706639365499657)
(0.0631407446327170163 -0.0725036233412990616 -0.104216353342502094)
(0.0535300122842154724 -0.065336576935122237 -0.102323728706370881)
(0.0703827395616852119 -0.0628141712275417652 -0.103646921752324456)
(0.112470172347577876 -0.0721904533785703989 -0.139164757682985391)
(0.100783233735849062 -0.0771069101403709517 -0.12467261955926337)
(0.0875350281862366658 -0.0704665573146450452 -0.122572386332745115)
(0.110005249581722003 -0.0686094050069777639 -0.124135190197385906)
(0.144528516403707896 -0.0830014589296097921 -0.176937983924758874)
(0.126233963161889395 -0.0815506935374142178 -0.154016306353310345)
(0.109571585325193607 -0.076602455378591866 -0.149995516126528089)
(0.143813831993645586 -0.0736083495412817451 -0.151739509895096047)
(0.155110508318478807 -0.103195867205715788 -0.233632492568385364)
(0.165230804747126342 -0.0927940717481708366 -0.203164820236739346)
(0.150951823825041853 -0.092276539023811846 -0.191670342060111076)
(0.193996515208969877 -0.0902436726476384121 -0.202835972527652952)
(0.138540997744289407 -0.0466484669346218517 -0.370101180875325064)
(0.106407191536712867 -0.114470554406965214 -0.280021737422967376)
(0.106867538522695593 -0.109981795666100696 -0.247872553512066607)
(0.213710489758439176 -0.123368755660110838 -0.273177971969218614)
(0.0743062644323007337 0.0107544156736741042 -0.471685605802750263)
(0.10030842083687648 0.0361332156288690365 -0.365382704500794686)
(0.21142712890008955 -0.0203691475069627745 -0.522870268577176334)
(-0.0112569289755480584 0.0388225725444068526 -0.0245639296627423766)
(-0.00382869900160306195 0.0537579934273478624 -0.0201238975914676717)
(-0.00644351948134964936 0.0517666112934756784 -0.0221661052887870275)
(-0.0056019890632071313 0.05539664935994984 -0.0214476116617857704)
(-0.0259907279003841266 0.0200962720033585444 -0.0294353135108002088)
(-0.0143799140707056398 0.0310422025706301001 -0.025837671638013298)
(-0.0185062492227744263 0.0275420854532683231 -0.0280426958876485097)
(-0.0161161837014163131 0.0317562599048996641 -0.0259295696894214778)
(-0.040523507521608125 0.00891689245763100692 -0.0350088175267550886)
(-0.0325390921693070601 0.0181441515086158238 -0.0314661997379807046)
(-0.0350937220835953537 0.0144468997287694693 -0.0329413996406696871)
(-0.0312583765409836928 0.0174566657479016257 -0.0307708495561379754)
(-0.0511578573579623622 -0.000625312114142938962 -0.0417705708057874853)
(-0.0480788149903935008 0.00770699224631210544 -0.0381858174482786056)
(-0.0490138046506418609 0.00480037858751839342 -0.038668599428400785)
(-0.0438069507777323758 0.00669024423828150101 -0.0368930420379992366)
(-0.0548656299484103493 -0.011928694573302645 -0.0497231071261117)
(-0.0568207002278256351 -0.00407012858320567744 -0.0459835200947984815)
(-0.0569857644544967054 -0.00604891461472460874 -0.0454574084045903451)
(-0.0504301952044235585 -0.00412389475037097143 -0.0440339293294556219)
(-0.0497261939627598251 -0.0261319012244331308 -0.0582770797531053514)
(-0.0569057744594042986 -0.0193207249195373604 -0.0550122547611810661)
(-0.0568499072799431432 -0.0203449621867564379 -0.053274614216097825)
(-0.0494963358522277908 -0.0168025976729648044 -0.0524649952203508699)
(-0.0345761045656579613 -0.0412663087900458012 -0.0666046321488372312)
(-0.0462188024698935093 -0.0378403844579666832 -0.0635995199205146716)
(-0.0468884706062863629 -0.0369130781790023149 -0.0608899182524505964)
(-0.0394757451491797376 -0.0315711580580503234 -0.0613346746828912215)
(-0.0123270451364426437 -0.0550245733888070146 -0.074950974080509894)
(-0.0258453660852490108 -0.0545086986129387566 -0.0713459020129266347)
(-0.0282664600007538971 -0.051523643233419493 -0.0683371361324796728)
(-0.0205594488746462002 -0.0454573201685995604 -0.0699616012405533672)
(0.0154953655653444974 -0.066869242715112881 -0.0844823542450276466)
(0.000171168081664031059 -0.0685379513650305749 -0.0798530304230003346)
(-0.00419055334587254032 -0.0635937201569642119 -0.0768556242256864114)
(0.00497994883182100237 -0.0579610212508565731 -0.0787948760567749595)
(0.047286635504682685 -0.0764245172279680862 -0.0968792245226797188)
(0.0309670003183425795 -0.0800114073141926785 -0.0906671510597039931)
(0.0242885188630075563 -0.0734805903674749517 -0.0875064749088931837)
(0.0362986483967125406 -0.0693369974736313954 -0.0893306957781825617)
(0.0832131922667664059 -0.0826026909674422716 -0.114182333536265765)
(0.0655071261218773127 -0.0887247803379481448 -0.105877040804546352)
(0.0559419736031037396 -0.0814981361203316046 -0.102327157548690831)
(0.0721447250149284125 -0.0784443124747253584 -0.102834764758848937)
(0.116318426454615167 -0.0864209727706525821 -0.139524168229588436)
(0.103849778822854594 -0.0917384654681077244 -0.127198814535596783)
(0.0914203850844587523 -0.0857045703299887107 -0.122494894523651102)
(0.114058439542287976 -0.0836491142964369133 -0.122331121198724371)
(0.139638842885975223 -0.0908117318148367464 -0.180243142665290873)
(0.127616690585663134 -0.0916197569274301293 -0.159350330202051721)
(0.112317532378137186 -0.0899167505887127072 -0.152145750683477438)
(0.145923384507223808 -0.0871097533075203545 -0.151554589110163868)
(0.118956023897841059 -0.102224252193567899 -0.249554065091321331)
(0.148323581226165513 -0.0871110852910748218 -0.212201375018293975)
(0.136166326293952922 -0.093825814379916328 -0.198303788356131439)
(0.188260062050790322 -0.0943515620591102167 -0.205322504493364644)
(0.0759147933220350735 -0.0546071054490700689 -0.381606162350392797)
(0.0350531876609625065 -0.106700445622344306 -0.312083653167661956)
(0.0357487165007573313 -0.108884030523893893 -0.275344142617901411)
(0.143994947879181268 -0.118559589001914392 -0.298062761895670936)
(0.0229965534490041493 -0.0274851180218445568 -0.457438843789575611)
(0.061471518799178379 0.0188215568714901575 -0.372819037941980846)
(0.147532413590402672 -0.0384514030352505268 -0.516777900152057046)
(-0.00737559365534982709 0.0458840583683430558 -0.0213976395667385966)
(0.000215938382488652884 0.0588438831801213064 -0.0162819340694407774)
(-0.00306364020177299487 0.0575801689273976181 -0.0199496565296388428)
(-0.00212676537289737105 0.0620665764125710659 -0.0163339676175488641)
(-0.0237495083424601808 0.0283689903170733053 -0.0278685578651937903)
(-0.0108333338445907416 0.0400243803905632189 -0.0245688492685432781)
(-0.014779677758680488 0.0355284701128062361 -0.0264822261884779427)
(-0.0111265570264203664 0.0399886026231621103 -0.0230724711838340667)
(-0.0426185640568285742 0.0161908610768633533 -0.0346431996595042285)
(-0.0336001061592809958 0.0277181877016586323 -0.0313610475066286587)
(-0.0354021999699930742 0.0223675194632534276 -0.0320438050613448405)
(-0.0298521353841772544 0.0255280318271761709 -0.0296682399781668521)
(-0.0563356339762868669 0.00376375995692705559 -0.0423987667372896018)
(-0.0531520641196271404 0.0147078938047236173 -0.0388523840484550353)
(-0.053126827877772953 0.0104061129315757873 -0.0386374043390497052)
(-0.046375787505579566 0.0125644523238655978 -0.036828563150885063)
(-0.0618487294392207967 -0.0118313449243767875 -0.0512726677298678546)
(-0.0640650313434883295 -0.00101581193727317328 -0.04724370154177715)
(-0.0635439590504210672 -0.00424972882873427341 -0.0461715419332736701)
(-0.0558014218674684898 -0.00142952812955274376 -0.0449634416596215447)
(-0.0563971141066305706 -0.0316901082852279053 -0.0603346949285903794)
(-0.0651458738137311449 -0.0215999264596684164 -0.0570941790368991106)
(-0.0641987243513348904 -0.0239767149663202422 -0.0548749169501823938)
(-0.056330984303277272 -0.018274176840069413 -0.0545874381463782102)
(-0.0384499813349900924 -0.0520505725699127245 -0.0683407897846040613)
(-0.0533934249051027238 -0.0464226047604506878 -0.0657573923602466082)
(-0.0523965477940859445 -0.04672714552274395 -0.0626972888327570754)
(-0.0455237502179387313 -0.0387431974624519518 -0.0639087217891326637)
(-0.0136759903941454652 -0.0689429768038921087 -0.0762479583554170615)
(-0.0318040737737480123 -0.0664919912046082612 -0.0739047459615970181)
(-0.0309533869135157381 -0.0649595703317686346 -0.0699274400084814451)
(-0.024006907578799655 -0.0569869777676680067 -0.0718727047489843979)
(0.0153468242189220092 -0.0824344942566505728 -0.0860378272376766673)
(-0.00592964147897193788 -0.0820746743572453447 -0.0841470657713136727)
(-0.00501517501878876761 -0.0788023990267518459 -0.0787703235781512245)
(0.003882681367042421 -0.0721059913407814806 -0.0800457233257067108)
(0.0487817628947142048 -0.0926921887397504501 -0.0996649673415706538)
(0.0241058210331887186 -0.0948022199696430951 -0.0979326233962482806)