/*--------------------------------*- C++ -*----------------------------------*\
| =========                 |                                                 |
| \\      /  F ield         | OpenFOAM: The Open Source CFD Toolbox           |
|  \\    /   O peration     | Version:  2206                                  |
|   \\  /    A nd           | Website:  www.openfoam.com                      |
|    \\/     M anipulation  |                                                 |
\*---------------------------------------------------------------------------*/
FoamFile
{
    version     2.0;
    format      ascii;
    arch        "LSB;label=32;scalar=64";
    class       volScalarField;
    location    "0.810000000000000497";
    object      p_rgh;
}
// * * * * * * * * * * * * * * * * * * * * * * * * * * * * * * * * * * * * * //

dimensions      [1 -1 -2 0 0 0 0];

internalField   nonuniform List<scalar> 
29184
(
1165.97311463685014
1172.58641928303405
1183.92195854488591
1200.7058446252106
1222.62945862026709
1248.90229675704859
1278.17187992587992
1308.78249438020043
1338.78987746671419
1366.20179599841299
1389.17892211979233
1406.10987062431786
1414.84790225984216
1412.01390723936561
1400.20802789220488
1328.60616986637547
1164.819938069925
1171.38298270286509
1182.68942219918586
1199.57621525449281
1221.66635453948879
1248.19753212056412
1277.82762760276455
1308.79702105769752
1339.10015357281259
1366.71175664593807
1389.7689168326865
1406.63223433886992
1415.3172262988553
1412.36808325440279
1399.31926905680348
1327.03362727976946
1162.56923639062234
1168.77537140032518
1180.22867707655269
1197.31722581506369
1219.76942678424439
1246.85452023776816
1277.17680722065347
1308.84629058115593
1339.74638080979867
1367.75958988844309
1390.96033064088442
1407.75075392421036
1416.18682000534773
1413.160719430369
1399.16702415451914
1325.47363435433181
1159.07546073747335
1164.96563176417112
1176.54634157553869
1193.93034194887605
1216.91283953364018
1244.82009774323228
1276.1830783789494
1308.92354742160637
1340.74156519188455
1369.35751946027631
1392.74659933166959
1409.39239869644462
1417.36825555008886
1414.20961147177809
1398.97017835364068
1325.06441398777656
1154.33188892693829
1159.94015391810126
1171.60556837399122
1189.35370778054266
1213.0358072136014
1242.06747110104811
1274.86964932708315
1309.08865252436522
1342.16325939518924
1371.57938990814705
1395.17224234181822
1411.55236158672506
1418.82038911450331
1415.43797463629198
1398.61015813113613
1322.8824982840224
1148.34833922358052
1153.68958718920817
1165.40577408941522
1183.50682136582395
1208.03279247779278
1238.51225079838514
1273.21584229143104
1309.37958432568962
1344.09236342557483
1374.5169998429019
1398.2970625383532
1414.21905792775419
1420.44037771547778
1416.6006139304709
1397.66281415137701
1320.28393085663288
1141.14755080038412
1146.17296402038801
1157.96222261786033
1176.3790145596256
1201.78489847240508
1234.02079665780843
1271.12775038662494
1309.75255547460029
1346.55046246215898
1378.21766630240836
1402.16597315224362
1417.38854115181607
1422.08809339744539
1417.13838869496203
1395.19633746867612
1321.73955196118823
1131.97155131489626
1136.33324118052178
1148.60154538107167
1167.78009436591333
1194.38106819403106
1228.51004960688056
1268.53864985980294
1310.05408611629696
1349.36862233979491
1382.52855267822088
1406.62689799633813
1420.89875695766091
1423.39143887559362
1415.85829285178556
1388.50585951639709
1329.18966841541055
970.644082992121639
980.978755451202915
1027.17548178686184
1091.69077828666263
1158.08720912680405
1216.48795678451529
1266.0306298083442
1311.4127040210949
1353.04999067210656
1387.66771086962763
1411.68762086058177
1424.48392607979213
1423.45694155704405
1409.34411344884529
1369.97421799389895
1324.02952365703072
235.771177199654034
264.807144817575988
336.541240007927627
449.721695083325699
611.70788785001082
825.488961675491055
1057.06833820455245
1231.76324977214949
1331.58305771701521
1388.47987410440555
1417.27229513677662
1426.9188502279776
1418.46179713731999
1386.70984965782668
1322.4280552446719
1304.89664772812534
21.1809038775614944
22.0567143106339856
24.5726981793709669
29.9652142611747898
88.5418703388133537
218.418985418931214
432.81751093665747
719.864201786212107
1015.69167924592546
1247.39029122450825
1374.30794567267912
1417.29986533797978
1377.32554248596739
1184.25029879342446
897.468536680263128
1246.47174119394845
20.3748728390704557
20.3997772493807688
22.0655599285898951
36.8744877303650753
35.4540341321853631
48.6861519170912587
133.962137246000879
356.670948037698508
628.289784513503264
836.718412944919464
966.281940055954237
979.692401568194668
742.676343074007036
413.310635590634035
363.220239970288048
601.785586395919381
29.258624530476407
17.619028851090885
18.8616033257355333
23.3111641828170342
35.9878557863056585
38.7504495336916008
31.8233050901261763
28.8659024279995045
66.6771785482157213
127.628839351271594
156.689288440551906
139.164102280181197
98.8652812965142544
93.5235906598444586
111.435688003534665
131.400508595877426
27.7344612887091522
14.5906421924591854
17.6374461118074741
29.0065960618238954
34.2971448551194626
36.5405213598805503
37.2572481372225752
26.5117847777474651
8.49185436532393467
5.47902836458427789
5.01692717246873165
5.31937873000358863
8.03601488605995762
19.778206481935829
38.1771955589324818
20.7167349721525049
21.9182596593893138
20.9025157853411265
15.5303873357751669
18.6798760787553526
22.2717517863621666
25.7903112179836178
32.5006685608564041
30.8451007238605044
15.732035860407267
4.50404356967693431
4.12070192899268584
3.74947749209276759
5.13337744129761653
9.17101761407218952
14.1756276534103201
9.58018708114361495
20.5533921110708953
16.4658344327329367
10.3605512911342572
7.36643055348359344
9.03472885968896833
15.4976435621299764
13.6479084389954597
13.9797747901899339
15.4598155999546982
4.00377662706375581
3.13882596043053308
2.76328359969349924
2.67921396975394144
4.71984699020582621
7.05890371770848191
93.9668272452914977
1165.07150679280835
1171.79979513102285
1183.61121049346048
1201.01904558537444
1223.57304985720316
1250.37438802080123
1280.0173649856697
1310.79416215459992
1340.77193368436747
1368.11157753813222
1391.22112731909283
1408.86741295039837
1419.68915666040311
1422.4436282875663
1416.82924043885509
1387.85853517594887
1163.83687667948561
1170.59660465555089
1182.38287805730965
1199.9138211529098
1222.66377712146027
1249.74543317724624
1279.7423859874682
1310.85623745052976
1341.10934912374933
1368.62076214617446
1391.7627635827323
1409.34615355951814
1419.94093660325552
1422.55611115917259
1415.69359529785675
1385.48315970181352
1161.44073638505233
1167.939541750025
1179.91366113657341
1197.69961654519898
1220.86977408453731
1248.54491811903404
1279.23986217614947
1311.03309226553915
1341.84085237924114
1369.69408386775945
1392.90548981726442
1410.34946397723547
1420.57284384258514
1422.94639527827485
1414.64026781284201
1381.65246796197948
1157.77127548445628
1164.01450615877116
1176.20543368617018
1194.37241970265086
1218.16476256013425
1246.72610725260961
1278.48160796126285
1311.32114279607686
1342.97684561541814
1371.33548830238101
1394.62195019554838
1411.81642723840605
1421.45660933237514
1423.5256954579304
1413.53275913718176
1377.18187388678007
1152.78269293854032
1158.81743223156514
1171.20838815273009
1189.86270332399999
1214.49185704998058
1244.27401267394225
1277.49498653824367
1311.78426815620014
1344.59588381792059
1373.61739599016323
1396.95528109015163
1413.74763773228551
1422.5603271899945
1424.1738637718654
1412.1812460289932
1372.67060046631468
1146.45102187671318
1152.30815600565415
1164.87452605797216
1184.07871146202297
1209.7516599499254
1241.12500146805633
1276.27493303938809
1312.47384260157719
1346.78352951824786
1376.631183672318
1399.96190072725699
1416.13001499422603
1423.79306277042815
1424.6375906025296
1410.05467724421806
1375.82203356351897
1138.75853959338156
1144.41021806608614
1157.2008722370299
1176.97517074694633
1203.82619788437137
1237.16732252076577
1274.76456602416511
1313.38366140112635
1349.56669212757288
1380.42333189383157
1403.67261413125721
1418.93592308676602
1425.00844595382796
1424.38688259936225
1406.25980490242523
1366.83442012583691
1128.90094078166726
1134.04492401687276
1147.54309692914785
1168.37503948171752
1196.78088551140809
1232.32072553753642
1272.92505991496569
1314.46168223145287
1352.87855042240858
1384.91636986837034
1407.97412920201509
1422.00219945049025
1425.8157893107998
1422.14980170197987
1398.62528464184288
1363.86248154513623
960.342133012235195
973.205836584371468
1024.63006233951
1095.09515852982031
1164.09777388370799
1222.51328571579188
1271.51568960327813
1316.78512764086349
1357.51192779454459
1390.29126591850854
1412.96508844987989
1425.05541709537238
1425.06934952138931
1413.91834696123783
1380.84961319216859
1363.44241276179741
216.19719358960748
248.519030072044814
323.61572071767273
450.358807034411939
630.403312560505583
852.021267761496574
1080.8810999861762
1246.23235548119055
1342.11933941320171
1395.73817260891315
1418.09444813347977
1426.30357329743151
1418.1442763102043
1388.08056560015416
1339.59776969419545
1346.92757776098551
17.9352468613742388
19.1293051468245849
21.9349589902426629
28.5912831240645033
97.281674972074839
252.299032574944107
489.930596442559761
785.26089791974141
1068.12432234600601
1286.83480861118119
1398.64017459359275
1415.11384786197277
1381.60066571177208
1210.07875642552995
1037.49624807612054
1300.44227398782027
16.6934002517175699
17.8420321175183325
25.9366220856461496
38.0932981261146963
29.0211414771751421
40.1293784470195334
138.187646163092211
378.984292839000659
635.954145101994527
823.912606663613019
955.080334302674146
984.802407048394002
765.637087147499528
472.630680241539721
417.620905199824506
808.303175270506927
15.5351743243763707
16.6196872413084016
20.3074896985660018
21.1698089589750325
27.8874321313229458
40.240695730579958
30.2050926035447738
24.2315132297187752
34.2460080286651021
94.7527153542573899
139.640911330814816
149.686270265943932
129.667457941722006
113.003778342124349
157.398017087497436
265.682569271502075
15.276410431362816
11.9370699181888096
13.5095726179829985
16.2007680528357483
34.9385874307125661
37.6966674189961068
38.5126877814558384
25.7234706888321014
6.23095118265610637
4.68076095872632081
4.17887316886598903
5.16399684936535497
8.60418787626056414
28.2440944664222684
61.8302541687854443
82.2647432861933652
10.888338860394553
8.38000514190010293
10.0807926943496611
21.9171342654020265
31.9795073830476433
29.8528214035163124
24.0534509070849083
28.5050514286037
9.18858548245478524
4.2626063021965086
3.16538807000532874
3.31622351693900352
5.28940654289538958
9.90913114527160488
21.719692046365946
28.1718697488468308
5.90102054468119697
8.43470593048543194
9.27120254652982467
21.8012289287957408
21.0153572752886646
8.88672615961199241
9.53826231893742715
14.7930524080558712
16.5267514172728909
3.31693037309994754
2.32220950726328779
2.12356441959649622
2.78785260936111534
5.01920935221263687
7.40309929755593998
60.8267936723067848
1164.52184410597783
1171.35134465331726
1183.50374314645774
1201.4380338968449
1224.5335110528431
1251.79090600453173
1281.73408434742851
1312.62567105028143
1342.60768287313203
1369.96161511575951
1393.28719525660813
1411.70121883437105
1424.1680649383411
1430.54990475040699
1430.51420279049921
1416.39716544750991
1163.19018184660945
1170.11179861427172
1182.27597528723209
1200.34615097015808
1223.65862368097282
1251.21044823158513
1281.50837354039368
1312.73480757307379
1342.97331609486446
1370.47140591118728
1393.79944892398612
1412.1115283706074
1424.35007173681925
1430.66302635998409
1429.64027408796392
1413.96918039900174
1160.69695985473709
1167.42651703141064
1179.79876282789428
1198.15942857135587
1221.93605902954255
1250.11262444317731
1281.11324971831027
1313.00641942581501
1343.76569822777105
1371.55652270062387
1394.89504421853803
1413.0088472024056
1424.82614759210173
1430.89116329312515
1428.41466569249587
1409.16820126731363
1156.91226758575522
1163.41634722048275
1176.0675899031362
1194.86661238200099
1219.33472895821956
1248.45244974927027
1280.52484647665665
1313.44434650729113
1344.99919285522583
1373.22128567833647
1396.54804405272807
1414.33307087685057
1425.51826577367456
1431.26255877068502
1426.96561211282756
1404.0182194343754
1151.7840300389098
1158.1076749942888
1171.02944867475208
1190.39435503521099
1215.79841521642652
1246.21640683234182
1279.77460002187354
1314.11426879659803
1346.7537324596085
1375.53686606438168
1398.7973652349765
1416.07601166536688
1426.37890605649955
1431.62352836477771
1425.06906548575034
1398.95374943564548
1145.28113226926757
1151.46853155237295
1164.62325756341465
1184.64485903658215
1211.23011520122895
1243.34935000579503
1278.86328069236038
1315.07223410420238
1349.11662720468507
1378.59170680836041
1401.69010463100176
1418.21528104836443
1427.31960013876983
1431.73334104909941
1422.20363994457489
1401.8561967960261
1137.38309346861433
1143.41682868147245
1156.85109334512958
1177.55709630502793
1205.50249155776964
1239.75634504140157
1277.74205420048293
1316.32185675235178
1352.12634227842409
1382.43514321634825
1405.24505897576068
1420.69853506841582
1428.16568255997572
1431.10589122568035
1417.72841610555633
1404.81409795003674
1127.32480757874373
1132.89574798182957
1147.04715681426615
1168.92164900165881
1198.63675883083192
1235.33381860318104
1276.37241048999022
1317.84262379533175
1355.76950352486801
1387.01397691202669
1409.36433371036946
1423.38122189442265
1428.44490548915792
1428.15388575664792
1410.08597330976295
1393.56051351628639
958.134291716394614
972.178545941042444
1025.38450918096282
1098.53735059238124
1168.32951404741266
1227.03246852240909
1275.38122905079331
1320.51566710142538
1360.70100588309015
1392.63339763855856
1414.22937284602403
1425.90121967662458
1426.94774126785433
1417.95070686927966
1394.09326161731087
1391.55763821736082
205.415815765413782
241.000500596421062
320.207321375571951
456.944172542850652
645.977293471333837
874.835502080253264
1104.42998933123272
1264.22309587771997
1356.66294009384274
1398.93302002063319
1418.74129193453928
1426.26889649339591
1418.40101648972609
1390.50282815460628
1355.6445120632718
1377.0375071118965
16.0049044007417329
16.7721313491153019
19.8124687117977487
27.8037645932958135
104.886498975442265
273.385914968060547
523.793596046700259
828.409820591530206
1118.05103545100042
1328.31706413071788
1412.40946037861681
1413.68717744183823
1383.9839547165061
1220.78450391910155
1136.42758020413703
1336.00077611052825
14.7023358110024791
15.7193741596538494
29.1015179577316445
26.7571935519241428
23.3251865171691826
35.1802695515848285
147.194187748611711
382.885049376580696
622.683150336758672
817.965488195929083
967.440160427151909
1004.01567134056029
767.899703250190782
513.814484961772905
473.056780605500194
961.923396260385061
13.3373930662511189
16.0760808894904557
17.3784656598870733
17.3412451761638273
23.230574713474919
34.8559991072279232
25.3465412710019251
17.6153462273167207
9.3285057004590648
81.0963135924453127
137.612158719857035
166.236604552069736
153.23640967276998
117.218682335736176
172.501540196844985
356.529509974450832
12.3743225248851765
12.4318960913654983
12.2367801406377623
15.6875967389681534
33.3551365710588499
35.9694979516891777
36.4063695212254359
17.5995179861651181
6.27023013127596052
4.2860318585696513
3.46346990809245181
4.22913414163976142
7.79843462849818003
37.3924860659713261
64.4147200369793183
116.34670298916771
9.52359714567026217
7.58364219307733833
10.2068437632584867
20.9610766925252072
31.0104488602194763
30.4802328717078375
26.3054670814089917
26.8982593179765566
5.99562513780433903
4.65224014203096736
2.71972990494597733
2.54562407559550907
4.06319697954405878
9.13046545473303617
29.0255058957971421
14.6013750561121984
5.49775196049495474
5.47029055035988776
9.11389951691631595
19.0568282332675167
15.0546659789661881
7.87061526062647943
11.3236308467415476
12.3566411507827887
7.24821193627292093
4.27740891451593619
2.37215459951159335
1.51896041828042327
1.89157491846919723
4.52077781076947538
8.04859480014270545
67.1218195395406241
1164.23881206509873
1171.15976249652931
1183.55834871884599
1201.92318955988412
1225.45303343616524
1253.06226445398829
1283.23628013382177
1314.22738442920968
1344.23053422332464
1371.63808398534661
1395.19005683288788
1414.21549177283396
1427.86439466145134
1436.54396438965273
1438.92759482572637
1428.76298371229632
1162.88738022780763
1169.8740504383959
1182.34092540452389
1200.84282577424187
1224.60279345457502
1252.52120863031269
1283.04898868748
1314.36377229841582
1344.60952598835411
1372.1470172892657
1395.68733991011277
1414.5971704322294
1428.0072888984912
1436.5780916101512
1437.96584772613664
1426.31347137621674
1160.31331840508642
1167.2122497960047
1179.87205087124926
1198.6825834212807
1222.93639430480971
1251.50201600764467
1282.73297024019666
1314.69897252798796
1345.44117695304726
1373.23884596843868
1396.74560898255754
1415.41168322655153
1428.36283762566018
1436.67372112013527
1436.53216197882784
1422.7203736853246
1156.46856862102641
1163.16088203400045
1176.13732599266132
1195.42377316306215
1220.41858487301306
1249.96348493547202
1282.27085073515946
1315.24096684039614
1346.74358113785206
1374.92261492332818
1398.35043375988221
1416.62743657478586
1428.90354412805436
1436.87587207724755
1434.76825169908216
1417.33144404976633
1151.2871069988314
1157.79806232229657
1171.08168371653301
1190.98980212236734
1216.993507817009
1247.89493963771361
1281.69296607200795
1316.05139270808013
1348.58952313674286
1377.25707813233203
1400.5228457494004
1418.21929943203827
1429.55852353699083
1437.04856691602868
1432.30971496798384
1409.90775380818786
1144.74552968568787
1151.10276830484122
1164.65544678057063
1185.28041709912941
1212.56508632416012
1245.24612884955513
1281.00501520792932
1317.18664765494054
1351.05623266251132
1380.33407295313486
1403.28028559802783
1420.15458942182067
1430.22851909685323
1437.01036697554605
1428.91876742786826
1402.40069234056546
1136.83541543842716
1143.01681982366813
1156.85229282092246
1178.21401912682313
1206.99714358125379
1241.92501316684024
1280.15714049129497
1318.65014780688307
1354.18614265131146
1384.23514008591906
1406.70991926373813
1422.24854211284674
1430.79130127191183
1435.97126555427553
1424.43364060495696
1401.44588405194781
1126.82810360179292
1132.48681372106694
1146.95682004619971
1169.54427945129896
1200.26337449675725
1237.80996060349548
1279.09202675655047
1320.42538373525235
1358.0348342648474
1388.91321328450681
1410.5749501407322
1424.45745153818871
1430.6251316099233
1431.63967094513123
1418.00444274671122
1407.09615076037016
961.566250910013196
974.612981012977457
1027.26188193907547
1101.0467830132809
1171.6046166859137
1231.01598002569222
1278.49915547720298
1323.35121238837064
1363.26417453866429
1394.48040976816924
1415.00010730986264
1426.39770307196477
1428.10355376484677
1420.48746346846929
1403.27038086291782
1405.1497366427152
205.631547326130999
240.596622644184805
321.957571434238446
464.41147830963115
659.020446924286603
898.145093059439546
1131.29452560250638
1283.50241553058254
1367.2546799996644
1400.35337049771533
1418.91990117907972
1425.88725318389606
1418.07543442704196
1391.87877410355554
1367.11505386533418
1395.43698179850867
14.4710399860229817
15.0599483268306518
18.1203405695299224
26.380689826327913
114.875102596182984
287.34426469591051
548.318917869698453
865.644919157535014
1158.24179229396623
1352.10853347077136
1411.88520316830636
1412.15802348373472
1380.99740211833273
1223.24139178872656
1193.36302262625259
1362.07751156238851
13.1960159298949762
15.1823938224140402
26.1755855765801151
21.1122566796530684
20.6311055253466265
31.7140535098634437
146.655430094063291
373.907645203396726
620.074246180642717
828.655570427907946
976.504431679838717
1009.18629705911428
755.264056175151495
521.059959610624787
515.924841235269128
1114.5581126214679
11.7081343876202215
15.3099185697520479
14.652929988688788
15.6299240087483415
19.9604411538181949
28.0687846045234863
19.3568964888522075
10.6588305641256564
5.76777129459312299
71.2244287050134091
145.12582196758575
173.413183085452374
159.879777630033459
123.341151842700128
189.552261537306805
418.093934955118698
10.0084895212232734
10.5121504916138537
11.2248474912946925
17.6913887422365264
30.4343976316944769
33.2311900388528372
24.4800194731590075
9.58615647947800831
4.99108960076003605
3.3170199687377826
2.77734548000380377
3.5374323313220728
7.72466660862060728
43.0044978548296797
74.434668093478038
117.412175769326765
7.39633690450798742
7.3108357242481512
9.80811230116584909
21.7559568041275213
22.8324041405283822
24.7194705052240913
26.6858810216206876
18.3241641907583066
5.66896951856367437
3.11040012142746258
2.1485429206654012
1.80292548183858536
3.12061706552456286
9.17053082209085524
30.8833918103432552
5.9362737030641215
5.98638662969994595
6.02453336276590878
12.2705127427601504
11.7812120121787203
6.86698481308813413
10.2545257496540714
16.1252513647137299
17.6756975903703797
4.70070756962346348
3.55846299432815849
1.85265466551621905
1.08488995053602966
1.05896285625579067
3.9708660325554459
7.8427301700970089
67.363573023495519
1164.23489855338767
1171.21303587754664
1183.72321688495663
1202.42855857748691
1226.27656359599519
1254.14031132168611
1284.47491566016993
1315.52257864864623
1345.53041152552646
1372.99971998346223
1396.75536597080099
1416.28316760008533
1430.71160558866245
1440.84476180709635
1444.47529443166104
1435.79831804537935
1162.86110472492237
1169.86473358381159
1182.53574703321101
1201.36394730026268
1225.45284339698765
1253.63722982154763
1284.32469387927995
1315.69178635724438
1345.94246860103885
1373.54459540957009
1397.2923882091618
1416.69923883185152
1430.87827581974216
1440.89297124713926
1443.52205062532698
1433.59196549856779
1160.13168339466165
1167.25732627856337
1180.09243891070469
1199.23339666440188
1223.83611070011716
1252.68201955708628
1284.07214067415703
1316.08307382342673
1346.820175746514
1374.66285666724798
1398.35661332913241
1417.48584400733534
1431.180926217158
1440.92807201390269
1442.01686806844668
1432.4229742755208
1156.29230264182797
1163.16617925161177
1176.37174497085516
1196.0147569027406
1221.3933414924511
1251.2428942492736
1283.71018652079351
1316.71143190256976
1348.18719636487731
1376.37362475536838
1399.95841091553552
1418.63733650890777
1431.61018418269032
1441.08892538716918
1439.98699395102653
1425.74166968243799
1151.11264178700412
1157.76919921963486
1171.32738156578398
1191.63445119710332
1218.07456508333985
1249.31403890330466
1283.26730919420379
1317.6328295571443
1350.10680910173619
1378.72385734138606
1402.15007114608807
1420.08158996657062
1432.08583980327694
1441.24938256244445
1437.22599940516534
1416.50044166724501
1144.58037051535484
1151.06312189441678
1164.91119280564408
1185.99634208872976
1213.79069287107768
1246.84765533620316
1282.750707032229
1318.89078427363552
1352.66541806860323
1381.94953847304919
1404.7928898900459
1421.72410526531917
1432.69709783526218
1440.95915567439692
1433.65507799440979
1409.07529799837494
1136.7543475005516
1143.03805291914796
1157.12473184841724
1179.01097867241174
1208.41288351253843
1243.75986210245924
1282.10999302759751
1320.47759013952509
1356.09506426006669
1385.70521394823663
1407.96684165820238
1423.5620583088637
1433.03172485092318
1439.21216904480139
1429.60170999446223
1404.93572738350622
1127.05571053212725
1132.6223109386699
1147.23433950055573
1170.42774948821716
1201.86471707474948
1239.94174547035641
1281.28784170187669
1322.45195233331924
1360.13959302744365
1390.15916559369339
1411.5727859071701
1425.41194892927001
1432.29759737801669
1434.30798692603594
1423.89305146946072
1409.45606448280273
970.627187489736116
979.703858321701318
1030.56394267526252
1105.30097344776232
1176.36481378692611
1234.77155238111254
1281.05667001436905
1325.68561715213718
1365.25271469602785
1395.56973515267373
1415.60254932691828
1426.75548029447737
1428.80819881883008
1422.24303026797861
1410.05872083989379
1413.12121068104921
208.370044488068601
243.177412349026298
327.394540094809884
474.206525242433031
675.766150871828131
925.331776535628137
1156.72951545353385
1297.04353414691627
1370.86086610099824
1401.14093698745819
1418.91197925233178
1425.26975590899769
1417.22045999271199
1392.47340447861029
1375.44079695320443
1404.1212892336066
12.986604537491754
13.5904683248196569
16.8934434506199231
25.0078085191509558
122.143150698206327
297.715825452591559
570.406066679404375
895.462002902492941
1184.5709519764273
1365.03290790705341
1411.2774099439423
1410.20662399951971
1374.46605271548719
1220.29448499219939
1230.80622495938883
1375.8433187207379
11.8493857061814882
14.4589136034644152
23.1703297542054933
19.6698711911582826
18.2708126880114357
25.5176900404889189
137.662260941416065
370.719670945872508
625.725101667426543
838.509017770485343
979.982713644021487
1000.38237271652986
736.899999056673096
515.664099157177702
546.336062862638983
1204.80817037172096
11.33815307897585
15.3363484408575204
15.2794518235759735
15.3628919279744043
16.7696867066735429
21.8349604053901558
16.7809307816797144
9.44850756045599383
5.16607939767854241
69.6029508983399552
148.219313735209795
175.642691087740985
155.944298146568229
127.416468022114472
207.238059553235132
473.199951081581617
8.49521159067695386
10.2753430329207571
10.0023871368664672
14.5999608693420004
27.2353336636169452
29.4294575490097188
19.252020945304853
7.30120297686197439
4.20341008525232684
2.3519182333627926
2.33794839604384741
3.84524122756463749
8.96852197575707422
47.8570428716629905
80.5984328650544057
118.452978122588476
6.1144863620164287
6.374699132160627
8.19666092746377828
19.8217187358968623
19.8813722805324424
20.9819719946883474
23.6669086814763219
15.0816950864363086
3.45908453270522287
2.26521248330945291
1.45514895742529804
1.67183408622872887
3.5537816619588467
10.5319145440202266
36.3290132960530698
7.51604268980951851
4.96929820750289064
5.17744680905683996
9.97075497070977335
11.9457491481360858
8.00648870822149128
10.4740461071591717
15.7345878279721383
13.2929196269273504
4.63629074253435647
1.89433452140635028
1.27728691791841475
0.807749091092201277
0.904277953600359119
4.20674792832471045
8.97391057241709866
76.7091656096081635
1164.26516312493413
1171.42593879468359
1183.91110384843182
1202.89104081566211
1226.96693948557299
1255.00637032325199
1285.4384817862117
1316.49397955183804
1346.46964816796344
1373.99662763212609
1397.93008138446135
1418.09802771446289
1432.91601312078683
1444.06982322646854
1447.91938654666455
1439.09381833463522
1162.97581008295833
1170.02363772043441
1182.78508343577346
1201.84931314406845
1226.17139108619767
1254.53882779816695
1285.32531455797084
1316.70285196757845
1346.92313359551872
1374.5878346906668
1398.54260352758274
1418.49549742044155
1433.07173498375414
1444.11239647668913
1446.94396463477688
1436.80246984964128
1160.20786437347851
1167.41273909917004
1180.37660993928603
1199.74989586595234
1224.59781526630491
1253.6360833289491
1285.1281030147004
1317.15018584731774
1347.8491284807501
1375.7491713469874
1399.66571733711703
1419.25392990648538
1433.32674942569565
1444.15140659967915
1445.34404236543946
1434.77829945042913
1156.34579211590403
1163.31169714707653
1176.67797697074138
1196.56883319967778
1222.21480888493193
1252.27206453637496
1284.84479624807659
1317.85611462391057
1349.27843842065568
1377.64969454646007
1401.29544334151069
1420.23407637535183
1433.62960146187493
1444.35136285083877
1443.17187292025005
1427.79529367809619
1151.13769763766436
1157.9048964037836
1171.64902406371311
1192.2338414438525
1218.97504273968457
1250.44048391494493
1284.50590034321817
1318.87603179772623
1351.40370491510294
1380.08644654929412
1403.39290496132935
1421.53128314230889
1434.18649272192533
1444.37650449991679
1440.25712939781101
1419.94469669370187
1144.56902254019792
1151.19109469765453
1165.25141734262911
1186.65554223421918
1214.79849796830968
1248.10882430569404
1284.11328011892851
1320.25228733418589
1354.23137461248371
1383.13563486256339
1405.9817704379418
1423.07671428331719
1434.81316198278
1443.9075020706623
1436.61333798200326
1416.21811568515614
1136.62925585852327
1143.07611228348742
1157.47273063999114
1179.75426138836269
1209.57682029970715
1245.1985900228392
1283.60966214032737
1322.15175793593153
1357.53488713805564
1386.84907013761699
1409.06603931609766
1424.77663320908846
1434.92005301924155
1441.67687384796341
1432.98510360311502
1410.85266430404022
1126.52473200694203
1132.39658979413275
1147.5573705589743
1171.30087685352646
1203.20624057643499
1241.66822126540546
1282.97185350480822
1324.42342028307917
1361.49934297493928
1391.19349533430591
1412.54125815548923
1426.36858727717981
1433.73788160649246
1436.26726038111201
1428.00096628592792
1415.41581135822162
964.71249415829061
978.308967589162535
1033.16542258474055
1110.46598953166153
1181.17727124652174
1237.55354232339391
1282.8415744367976
1327.74408480973966
1366.5067017761105
1396.39188629250361
1416.2480324642238
1427.16935215293393
1429.3276068159787
1423.3905364592822
1414.863191283898
1418.48141518605735
213.954592017142659
248.445703404988109
333.60825938970595
483.716043690139884
691.511174624169712
947.284679928200603
1172.57004004597798
1304.37155046066505
1371.82188466257003
1401.74283995285418
1418.92316460448956
1424.62837132684422
1416.09823866868373
1392.34959978451184
1381.1738938084568
1410.28593893296693
11.7248295283581623
12.6068766462467146
15.7694389356005384
24.2211601012558688
123.534689266409757
301.545152730761004
581.978735829242851
911.174566170599633
1201.40031700355235
1373.80212668672016
1410.72310944540914
1407.83665579685294
1368.99199206727644
1218.82902182784142
1258.88397122056926
1384.4609090030674
11.2473779763526149
13.1081661666703937
20.3557460539528847
19.1737003465276814
17.864341010230504
24.250337099572608