/*--------------------------------*- C++ -*----------------------------------*\
| =========                 |                                                 |
| \\      /  F ield         | OpenFOAM: The Open Source CFD Toolbox           |
|  \\    /   O peration     | Version:  2206                                  |
|   \\  /    A nd           | Website:  www.openfoam.com                      |
|    \\/     M anipulation  |                                                 |
\*---------------------------------------------------------------------------*/
FoamFile
{
    version     2.0;
    format      ascii;
    arch        "LSB;label=32;scalar=64";
    class       surfaceScalarField;
    location    "0.209999999999999992";
    object      alphaPhi0.water;
}
// * * * * * * * * * * * * * * * * * * * * * * * * * * * * * * * * * * * * * //

dimensions      [0 3 -1 0 0 0 0];

oriented        oriented;

internalField   nonuniform List<scalar> 
84128
(
1.80039511128151307e-05
-1.81080711541894098e-05
-5.6542492255207179e-06
5.75836933924869613e-06
4.01343569791435981e-05
-2.22428541648813948e-05
-6.20849667375166894e-06
6.32094505126774114e-06
6.22132085008081804e-05
-2.21995204536550252e-05
-7.01112053405488926e-06
7.13178958005085242e-06
8.44593351147288394e-05
-2.2382107335677808e-05
-8.35631905749483149e-06
8.49229994239397365e-06
0.000106890952434623087
-2.2591319755742918e-05
-1.0332179960950532e-05
1.04918825938646582e-05
0.000130162289166041174
-2.3472773508027305e-05
-1.3138675245198547e-05
1.33401122518377851e-05
0.00015463857740749735
-2.47253665453651133e-05
-1.70323376804171492e-05
1.72814162537933588e-05
0.000180318351190400956
-2.60711011318257412e-05
-2.24681667668630099e-05
2.28594944448839611e-05
0.000206759821625148143
-2.68461800504037348e-05
-2.97548514562378693e-05
3.01595614895664139e-05
0.000233457095487256866
-2.77697033361906575e-05
-4.03775877118843366e-05
4.14500176991943351e-05
0.000259428340402015139
-2.669048384896621e-05
-5.42311024401482793e-05
5.49503418433361162e-05
0.00028025791193016491
-2.46181133845380329e-05
-7.55050178570978157e-05
7.92699663862485066e-05
0.000297045916185785671
-1.98010876624809516e-05
-0.000103388739492554858
0.000106373888815423557
0.000293662708513037609
-1.89336651540166096e-05
-0.000148523579267037157
0.000170754157325747277
0.000242632790350761837
-3.70542099880442493e-07
-0.000193594610919315953
0.000229763433039783599
3.75813763322537558e-05
-0.000299985092310104664
0.000482546056430069098
1.85642087174442885e-05
-3.67787406835026355e-05
-5.63608612046087292e-06
5.74254701057541969e-06
3.98776113682535396e-05
-4.3668667009129403e-05
-6.11704244085837032e-06
6.2294527441667985e-06
6.06251800475633349e-05
-4.30666432047702857e-05
-6.90499667044832348e-06
7.02455089863795813e-06
8.15382077872263265e-05
-4.342787967927585e-05
-8.21807999265015156e-06
8.3508247844759951e-06
0.000103420371177791894
-4.46286478641279324e-05
-1.01657351624761987e-05
1.0320900097694132e-05
0.000126367228907597282
-4.6612180085156931e-05
-1.29234592243509286e-05
1.31160083093269859e-05
0.000150409080150821529
-4.90186341018254744e-05
-1.67524345025715684e-05
1.70038510873773854e-05
0.000175644252347940911
-5.16483383128671998e-05
-2.20340837318334678e-05
2.23761490833484738e-05
0.000201680493525784672
-5.33926103309264366e-05
-2.93155479021152552e-05
2.98257375011652131e-05
0.000228070281987901891
-5.4932716763302528e-05
-3.94619601218264786e-05
4.02351855535055069e-05
0.000254064604579967387
-5.40572791966897418e-05
-5.36047963718298739e-05
5.49772691495123417e-05
0.000276467880309995548
-4.97054367087917614e-05
-7.39747292413722783e-05
7.66005570371602185e-05
0.00029467095264566279
-4.3214517120619068e-05
-0.000102903870972633263
0.000108054194104860446
0.000297783911629362797
-3.93567430941960673e-05
-0.000146332659233727416
0.000163424375094835251
0.000255738714315941937
-1.48830103173865457e-05
-0.000199680249864507976
0.000240906607856101513
9.78567164464984882e-05
-0.000327677383324463602
0.000496055877037020394
1.90614361693272007e-05
-5.59498796799588361e-05
-5.58065872777433771e-06
5.69036191632087821e-06
3.96561796467045975e-05
-6.43777807427384419e-05
-6.07031147153032217e-06
6.1846824919471323e-06
6.02818564351850802e-05
-6.38122853312280645e-05
-6.84450339289485123e-06
6.96446959493182815e-06
8.12396578521630428e-05
-6.45161033135507791e-05
-8.13254521572205987e-06
8.26296836428177857e-06
0.000103088973801719695
-6.66284961220574848e-05
-1.0048655180579421e-05
1.01991885371870324e-05
0.000126029219833090827
-6.9738941066403842e-05
-1.2760969711655082e-05
1.29474857890022812e-05
0.000150135438973835795
-7.33674613194948563e-05
-1.65214148592734194e-05
1.67640242576061208e-05
0.000175469039504176389
-7.73167699328859503e-05
-2.17020866393659661e-05
2.20369195574140911e-05
0.000201731550226865234
-8.01392757328108375e-05
-2.88310011162974492e-05
2.93151580628512053e-05
0.000228617503265520454
-8.25864692445733042e-05
-3.87592393037858592e-05
3.95270394865398952e-05
0.000254939187249953424
-8.16627581652726742e-05
-5.25616035143334318e-05
5.38453936349292349e-05
0.000277842867835991587
-7.52584404637627837e-05
-7.25981450790764228e-05
7.50951673117848271e-05
0.000296819310816771008
-6.73294486713553231e-05
-0.000100721090879554153
0.000105706577431279231
0.000297698822580183596
-5.72077675906284384e-05
-0.000144080467492716565
0.000160527203927176079
0.000244767219080127042
-2.11893390013488362e-05
-0.000194548590456705944
0.000236065009754387331
0.000149918638133702615
-0.000320827473625354955
0.000484097624797356495
1.93004701648683264e-05
-7.53661054391804543e-05
-5.50904764637485903e-06
5.62480642523243159e-06
3.93643720364562325e-05
-8.45593151241416939e-05
-5.99365767148090822e-06
6.11129636821658611e-06
5.97729389149143799e-05
-8.43408958441788228e-05
-6.74661443379582818e-06
6.86666501602389902e-06
8.06532503007673107e-05
-8.55216412906150764e-05
-8.00160122666951916e-06
8.12683527386387387e-06
0.000102414172132012988
-8.85307922933646445e-05
-9.87332410804401753e-06
1.00147069690664601e-05
0.000125292131705885556
-9.2791631473520392e-05
-1.2521690292004534e-05
1.26964311083242627e-05
0.000149414530207639976
-9.77185478446916379e-05
-1.61871103412084562e-05
1.64158108222735613e-05
0.000174847351082441441
-0.000103066672686115936
-2.12234150967788083e-05
2.15405146028008562e-05
0.00020138856861382244
-0.000107138682910937248
-2.81433779133176319e-05
2.8601590943291933e-05
0.000228889110955863932
-0.000110824773597835796
-3.77507071551833851e-05
3.84884871452500978e-05
0.000255764983893690926
-0.000109728187478347859
-5.11163781895702737e-05
5.23059208000297251e-05
0.000279676675308585063
-0.000101762580848591629
-7.06093752687073588e-05
7.29977991080454474e-05
0.000299584947961566595
-9.22198648782224852e-05
-9.77262194903287502e-05
0.000102516015816351449
0.000300120444112613024
-7.45534327656225077e-05
-0.000139908916026167303
0.000155951404206904098
0.000244051186489997962
-2.1885701600068842e-05
-0.000189809802760606319
0.000232620945433543254
0.000204664983525092143
-0.000312648322087016948
0.000469915628843393756
1.93275526515279003e-05
-9.48204764212215418e-05
-5.42235737050142922e-06
5.54919652799161296e-06
3.90113660852984379e-05
-0.000104366272774675335
-5.89110090847089836e-06
6.01428139944456623e-06
5.91654776110430138e-05
-0.000104614948835017268
-6.61488532812413025e-06
6.73486764165999825e-06
7.99037889820881963e-05
-0.000106376031172397901
-7.8294594408093709e-06
7.94558202937762818e-06
0.000101535666049099577
-0.000110288966954321516
-9.64537628578720729e-06
9.77172474040346671e-06
0.000124318741636949496
-0.000115730567560075562
-1.22128862541192621e-05
1.2368809750367742e-05
0.000148433203661280474
-0.000122040736038031106
-1.57579952586986447e-05
1.59658027259333999e-05
0.000173996478145430224
-0.000128918765160994841
-2.06112256502001918e-05
2.09001603157203138e-05
0.000200911571423866518
-0.000134483755030528868
-2.72606480985169003e-05
2.76907910635078889e-05
0.000229131903015560045
-0.000139729752430760713
-3.64543473869317818e-05
3.7139170821144215e-05
0.000256835014080893207
-0.000138524885916127815
-4.92754180312627275e-05
5.03690807639053004e-05
0.000282414355459603467
-0.000129806385305981318
-6.80000550685665005e-05
7.0242768526490232e-05
0.000303900188711606252
-0.000118543631209379856
-9.37318257997233088e-05
9.83255145595096029e-05
0.00030457995341196583
-9.15141148538272596e-05
-0.000134403108458257546
0.000149792944244429626
0.000247620932933011271
-1.80667406931615388e-05
-0.00018678760571460781
0.000228277835406295962
0.000267415722037604524
-0.000306907400100027092
0.000456097339856955872
1.92211199388847731e-05
-0.00011418747606000081
-5.32233548682120356e-06
5.46831928418753805e-06
3.85756731984711936e-05
-0.000123852093480439243
-5.76574938614660099e-06
5.89718306085242602e-06
5.84479540955725106e-05
-0.000124606497619094862
-6.45092436687996645e-06
6.57037938966252662e-06
7.89824923106547912e-05
-0.000127011643427077142
-7.61797405445584249e-06
7.7192503320594979e-06
0.000100434026292204953
-0.000131843362031689842
-9.36831040516660471e-06
9.47140593018648593e-06
0.000123078236049688249
-0.000138502287633715629
-1.18406117541550814e-05
1.19684198215867823e-05
0.000147152154664950934
-0.00014629046734596348
-1.52437159568609727e-05
1.54199299184983847e-05
0.000172852519392623343
-0.000154867993100227318
-1.98803274476488562e-05
2.01297654879117325e-05
0.000200196238944630337
-0.000162225765333774219
-2.61985679473884147e-05
2.65976928717932612e-05
0.000229257633724903247
-0.000169407289628036099
-3.48926985084006201e-05
3.55098803962100446e-05
0.000258156471638680747
-0.000168425622568174274
-4.70452074250273371e-05
4.80479985740648902e-05
0.000286016953555220943
-0.000159973086606418321
-6.47577179025085213e-05
6.6811357605533667e-05
0.000309325425774777682
-0.000146826915054444347
-8.88357059706329581e-05
9.30542912783912117e-05
0.000309487616232790327
-0.000107964212909033013
-0.00012730687219231966
0.000141236615220166465
0.00025098339390162267
-8.97023813983684702e-06
-0.000182222277602173648
0.000223410906538224619
0.000338949380469590088
-0.000304276246569937128
0.000449302549707433112
1.90178342130576827e-05
-0.000133381667123289569
-5.21192263329520736e-06
5.38870386475769491e-06
3.80482980627964282e-05
-0.00014302401081389926
-5.62203678267921152e-06
5.76412389755283742e-06
5.76151901187083433e-05
-0.000144290974223333017
-6.25652491773629759e-06
6.37482067116369384e-06
7.78876895417432652e-05
-0.000147361795557158224
-7.36977023639681309e-06
7.44818929854968715e-06
9.90988989132201648e-05
-0.00015312135317654648
-9.04743685051652538e-06
9.11510759679256132e-06
0.00012154851315610853
-0.000161036168943612715
-1.14138583767337625e-05
1.14992620023599146e-05
0.000145533693756143208
-0.000170402697135187413
-1.46598940454527098e-05
1.47885201633359997e-05
0.00017134519617344158
-0.000180876929673694399
-1.90525021591132822e-05
1.92522402953844253e-05
0.000199170414461405062
-0.000190419567521342903
-2.49788027002547423e-05
2.53507461763949672e-05
0.000229190975156007558
-0.000199969105345331507
-3.30868873734987658e-05
3.36326654008128854e-05
0.000259654748340427336
-0.000199819237047176978
-4.44278650035546241e-05
4.53625751246582623e-05
0.000290483378285547001
-0.0001928978583012975
-6.08584645342864297e-05
6.27000181130198792e-05
0.000315784399073122093
-0.000177906736226143445
-8.30054550918842574e-05
8.65763275798886629e-05
0.00031120952144245552
-0.000123408810097385259
-0.000119521153403460856
0.000131204167957624587
0.000245968062773886296
6.99802199967753279e-06
-0.000173570329726354381
0.000211553394680350995
0.000411651586232797027
-0.000298887890183456909
0.000437661569441173519
1.87334901793378293e-05
-0.000152336752410824332
-5.09413662342654847e-06
5.31720714910650178e-06
3.74228129679417739e-05
-0.000161865384730945205
-5.46600920944029249e-06
5.62015056918933785e-06
5.6659381467274917e-05
-0.000163643047004840577
-6.03246473446556618e-06
6.15030379311436375e-06
7.66138865827923222e-05
-0.000167357665248939381
-7.08816719803811731e-06
7.13202993290347437e-06
9.75174795022402767e-05
-0.00017403439112659969
-8.69050988753173428e-06
8.70284617169699018e-06
0.000119702423531624268
-0.000183237750027390504
-1.09461981412636045e-05
1.09665378313363734e-05
0.000143522521402918222
-0.000194278262230166061
-1.40294752802518892e-05
1.40900447322014607e-05
0.000169402201089798759
-0.000206895754131708405
-1.815354298593932e-05
1.83003509783337115e-05
0.000197713581092840481
-0.00021907964407024517
-2.36185775007659478e-05
2.39786739323402179e-05
0.000228712003537408866
-0.000231443846074812004
-3.1041703495636592e-05
3.15338902920087665e-05
0.000261149177037828858
-0.000233145830153691101
-4.14057065883869632e-05
4.23142798618873555e-05
0.000295952484110795656
-0.000229185228774949799
-5.62932341140866285e-05
5.78038457568701188e-05
0.000324834670222110043
-0.000212831679987582649
-7.60759252474840092e-05
7.87699210917457539e-05
0.000317234899891616904
-0.000137300070260176099
-0.000110794189542968042
0.000119535322167446054
0.000234874357122260489
3.05680370676717836e-05
-0.000165432562030734179
0.000200364483338513169
0.000475671737624169745
-0.00029437932360231768
0.000418522147471612127
1.83629023798713684e-05
-0.000170984375389399254
-4.97067178852863692e-06
5.25990392560523636e-06
3.66857249655505824e-05
-0.000180350309979357171
-5.30217728850720038e-06
5.47041170397474514e-06
5.55733765925372429e-05
-0.000182645614181522722
-5.77615874073242484e-06
5.89788148418353855e-06
7.51575232252126263e-05
-0.000186923107002492722
-6.77814863179585465e-06
6.76664924243509059e-06
9.56779843226088667e-05
-0.000194469821199297837
-8.30872056804583108e-06
8.2319900153268912e-06
0.000117506775269462542
-0.000204979769537734171
-1.04554709772125936e-05
1.03793360749040765e-05
0.000141058665633728641
-0.000217787319227010894
-1.33810993049921446e-05
1.33529982173905301e-05
0.000166934595647003059
-0.000232857022590043466
-1.72013113652843282e-05
1.73076780015728455e-05
0.00019565860952167871
-0.000248155241705861772
-2.21119854881123514e-05
2.24962816497107046e-05
0.000227634997612819606
-0.000263857297069000954
-2.87339836752138418e-05
2.92182826847208807e-05
0.000262598249543677235
-0.000268943340501580982
-3.79694604608674487e-05
3.88648194335964228e-05
0.000302379482048042081
-0.000269899910661988783
-5.10374337987844976e-05
5.19991652695899799e-05
0.00033647207421477678
-0.00025044576049222363
-6.81323727349158938e-05
6.95632299134576549e-05
0.000326997369457395111
-0.000147484112982631605
-0.000101700635845615464
0.000107897752477422346
0.000225527240306905855
5.77087609300357482e-05
-0.000159439481495548499
0.00018646429774549236
0.000539167875153541551
-0.000305786769096641898
0.000414932415739101366
1.78848510332727262e-05
-0.000189228074689589906
-4.84820434678206881e-06
5.2194604030507197e-06
3.58172294992586265e-05
-0.000198455843696248603
-5.12736560487113059e-06
5.31683502596475863e-06
5.4357026053328184e-05
-0.000201299372656682068
-5.48083268213915721e-06
5.61277789975008182e-06
7.35215411541057824e-05
-0.000205960318952072585
-6.44825124541643762e-06
6.33971631313883276e-06
9.35698235714535454e-05
-0.000214278468756559377
-7.91624426477152437e-06
7.69809206524389334e-06
0.000114924250759893576
-0.000226097557110426585
-9.96270689677067288e-06
9.75354877868425312e-06
0.000138078266246192656
-0.000240773265595611754
-1.27398726968186318e-05
1.26098557760657093e-05
0.000163837672999842741
-0.000258665789426231461
-1.61851746476642184e-05
1.62903097114368741e-05
0.000192803638354243912
-0.000277517341360861418
-2.04189691616413885e-05
2.08913896400733498e-05
0.000225712044019518075
-0.000297178632631430633
-2.61394518982671737e-05
2.66725954544580814e-05
0.000263488985298828457
-0.000307372424800384577
-3.41590058561950212e-05
3.49780881692133883e-05
0.00030807192835895789
-0.000314451273094261982
-4.51485236967909384e-05
4.5222354935896939e-05
0.000344098175269760441
-0.000285908689412624564
-6.0065187029313181e-05
5.98749463243921897e-05
0.000322064058969024106
-0.000155418776230188248
-9.14945325896656493e-05
9.66434508361393654e-05
0.000205192607337788795
6.9834693463581381e-05
-0.000143715990272344366
0.000168313593977253626
0.00056565952009918056
-0.000283704150861852924
0.000392865301653164579
1.72764942404894181e-05
-0.000206939497168104867
-4.7244398054197763e-06
5.19058238001815101e-06
3.48048843352669152e-05
-0.000216162033954778112
-4.93303774012852468e-06
5.15079696380691999e-06
5.30261649378405904e-05
-0.000219615223619139743
-5.13980076055039577e-06
5.27807158086310556e-06
7.17188693265875024e-05
-0.000224327290218996129
-6.1105128116664059e-06
5.82961273997050134e-06
9.11826389528245374e-05
-0.000233263892207665651
-7.52703873964113292e-06
7.0996533335793485e-06
0.000111913957177911568
-0.000246389297015713526
-9.48619205253486603e-06
9.1114896219940917e-06
0.000134512161704416827
-0.000263052727920067594
-1.21110593529275493e-05
1.18819259564631807e-05
0.000159962402534832057
-0.000284167497444460127
-1.5052848379823418e-05
1.5235552804667272e-05
0.000188893982106662172
-0.000306905871095784647
-1.848861660143003e-05
1.91361453386448576e-05
0.000222536005069199467
-0.000331186368204109153
-2.32892961393132163e-05
2.38989197965635507e-05
0.000262817493848403185
-0.000347818721091396076
-3.00804484599826164e-05
3.06401647645662939e-05
0.000310591820886168104
-0.000360544645995740105
-3.90064920827709735e-05
3.77840045320106609e-05
0.000341740529982466866
-0.000315605719648791999
-5.23786080422264174e-05
5.0386192665667066e-05
0.000296818353907724215
-0.00015649154158225596
-8.34337201349993473e-05
8.55195934949506053e-05
0.000172080284335538342
5.94819935836013417e-05
-0.000108990783266972358
0.000122615313885202651
0.00058558337501953754
-0.00026615397481775596
0.000359014118102418038
1.65336776565659722e-05
-0.00022397011911367022
-4.59226717964556924e-06
5.16200243969420527e-06
3.36593067373371335e-05
-0.000233450604767197268
-4.69685777437331644e-06
4.95095622340026524e-06
5.16151428418858005e-05
-0.000237580095250661754
-4.75545034793987879e-06
4.86330511285849796e-06
6.97727648848559011e-05
-0.00024182150583585267
-5.77663737940808444e-06
5.21266657089283768e-06
8.85046123671248003e-05
-0.00025117635390460943
-7.15157424877442955e-06
6.44442866634124172e-06
0.000108432938181569848
-0.000265619076413918737
-9.0327211797712741e-06
8.47624315781852775e-06
0.000130274711934213208
-0.000284401401079580345
-1.1465861469537869e-05
1.116723647361901e-05
0.000155089296190526226
-0.000309084912893751096
-1.37258722289693553e-05
1.41131974536247196e-05
0.000183551162251921376
-0.000335859635051590942
-1.63166509185741825e-05
1.72197507326842284e-05
0.000217396700823967208
-0.0003651006247056817
-2.0301800163475393e-05
2.09485537862069652e-05
0.000258887036449654184
-0.000388565363630804129
-2.59329159609992496e-05
2.5928673449414046e-05
0.000306509800784449495
-0.000403864865011795734
-3.30360585232373564e-05
3.0142367446915587e-05
0.000326062700010114608
-0.000329153378174683786
-4.51458691232018428e-05
4.09537473514750975e-05
0.000242182342313876998
-0.000146020346485546161
-7.11256475914112218e-05
6.90904176032856285e-05
0.000138967154768076569
6.44154548423458338e-05
-7.91482771797200621e-05
8.98708075149109011e-05
0.00060828838181343364
-0.000232388671286593652
0.000321229144252198698
1.56828923310258833e-05
-0.000240169206014794509
-4.4468788198361622e-06
5.122142359204376e-06
3.24196282007937277e-05
-0.000250292083775626405
-4.3794136180992926e-06
4.67964052415156902e-06
5.01704441440172956e-05
-0.000255102888211529606
-4.34708929339650234e-06
4.32889796404542806e-06
6.77098465173328325e-05
-0.00025817328516390697
-5.45671485067244428e-06
4.47592793056998635e-06
8.55196380122869422e-05
-0.000267708693868742051
-6.79851173093899298e-06
5.75322186711705577e-06
0.000104436423664908671
-0.000283515133129605022
-8.59319502671860466e-06
7.86409700309899364e-06
0.000125249716847703965
-0.00030451676598302886
-1.07443038674421922e-05
1.04412485488876927e-05
0.000148932914445656895
-0.000332964423745710876
-1.21407377557124482e-05
1.29086597190951869e-05
0.000176310123244837104
-0.000363599246499030429
-1.39928908586388204e-05
1.51758338071347951e-05
0.000209230247798053236
-0.000397423686089579239
-1.73652588329277952e-05
1.79252486946123876e-05
0.000249478285152136847
-0.000426299237723780486
-2.19668326911266454e-05
2.10418130521243116e-05
0.00029135473111983884
-0.000438302826517228471
-2.74133926464079275e-05
2.26996398410291594e-05
0.000277730285487965474
-0.000330028611043061641
-3.67052347756704233e-05
3.07030996288904111e-05
0.000158438131030564847
-9.27889139666395602e-05
-4.97391589551697522e-05
4.17001665799330721e-05
0.000122685820427014718
7.05564737588831506e-05
-6.47853808523639254e-05
6.84527469054591677e-05
0.00060271381057448877
-0.000210399954346254342
0.000275450380879435142
1.47973476874538102e-05
-0.000255388013742205943
-4.29021563261193385e-06
5.04041287390510601e-06
3.11478424705628808e-05
-0.000266619228879349938
-3.92617388347512959e-06
4.29986890215937874e-06
4.87333558256692654e-05
-0.000271946442329579663
-3.9516602928883895e-06
3.63114802798392713e-06
6.55260267077065038e-05
-0.000273028214818849208
-5.165611840871197e-06
3.6349059134419859e-06
8.2186394080027578e-05
-0.000282504838375385544
-6.4762688118208162e-06
5.06744705930286054e-06
9.98565833147260849e-05
-0.000299747962616733993
-8.15069188242396936e-06
7.28028509369624204e-06
0.000119255251350249705
-0.000322950118169905193
-9.86985668163502571e-06
9.66101849524229736e-06
0.000141182564817002553
-0.000355177843054760853
-1.02854031822765331e-05
1.16522357268515919e-05
0.000166693605369632662
-0.000388968342870695276
-1.169802301235291e-05
1.30716347546964135e-05
0.000196926749404458266
-0.000425798896983870391
-1.46733088055154825e-05
1.49486148681564119e-05
0.000233295129959694355
-0.000457500393521533997
-1.8383881628423725e-05
1.62019048623515846e-05
0.000266773725983395621
-0.000460288346992710927
-2.22633709103364346e-05
1.58320180603137665e-05
0.000201835534869172697
-0.000313360523370685273
-2.84615376478515638e-05
1.9482019877647577e-05
0.000112542256741131807
-4.91327337831673694e-05
-2.77923297818672713e-05
2.33823005757105995e-05
9.82988735665187908e-05
6.60895205368194287e-05
-5.04564340294611408e-05
5.10159174848254574e-05
0.000608664562467122004
-0.000186958292560539035
0.000222905140492533048
1.40078665646436167e-05
-0.000269510777142274076
-4.05397407797524192e-06
4.81636943315544551e-06
2.99176125361164893e-05
-0.000282254580977220608
-3.27946921548079997e-06
3.77352104261534852e-06
4.72963272059040638e-05
-0.000287606425211852528
-3.65738100834602911e-06
2.74417810909241132e-06
6.31274219642715285e-05
-0.000285955491985489033
-4.91089094294227951e-06
2.77072024236539387e-06
7.83876097055803418e-05
-0.00029518351015280815
-6.18732740936684048e-06
4.46020846238943491e-06
9.45293062302080504e-05
-0.000313855261062803627
-7.700112482869345e-06
6.71693082063297121e-06
0.000111972135398150772
-0.000339017002408638932
-8.77556284626710972e-06
8.77799160325875056e-06
0.000131435584338166617
-0.000374887304009775813
-8.25417450980068782e-06
1.04361781854678028e-05
0.000154089045703200713
-0.000410310030045837285
-9.6575901184128731e-06
1.09844379003525352e-05
0.000179220012280520901
-0.000447099785291387537
-1.23357715010341189e-05
1.21052788528529705e-05
0.000207522300449745998
-0.000476917091353926202
-1.52022382267085281e-05
1.16035542756611783e-05
0.000215983834511740468
-0.000452804120741519549
-1.70401331969977661e-05
9.73113837202699722e-06
0.000111400239640044093
-0.000229733980553715133
-1.49789249900882033e-05
7.50247016800909115e-06
7.96543467942994879e-05
-1.74785038877856102e-05
-2.09034595659879458e-05
1.60142667784264367e-05
7.43097791138210353e-05
6.11481766224069852e-05
-3.57632950281702524e-05
3.29059550258311946e-05
0.000594610830817663338
-0.000169299443017744376
0.000196227409387951751
1.3419222963796021e-05
-3.67139363272835336e-06
4.28287595649534712e-06
-0.000282317800783936043
2.86965987281790597e-05
-2.4621585179086729e-06
3.07809446301584094e-06
-0.000296723081627238915
4.5586874414482045e-05
-3.48958077185349224e-06
1.72697360990551996e-06
-0.000301260205964660988
6.01543056237861939e-05
-4.64305586973979896e-06
2.05315355591268082e-06
-0.000296556397894699459
7.37121566255814162e-05
-5.92442894281589065e-06
3.97947021720682727e-06
-0.000305248856180691383
8.79287504089961206e-05
-7.04502871253938239e-06
6.13654745840719799e-06
-0.000325287356013480961
0.00010279633146444672
-7.49452198422730395e-06
7.82557927251681235e-06
-0.000351804580730329596
0.000118965193987541156
-6.34925330712798377e-06
9.01383573974658092e-06
-0.000390403581065287624
0.000137563419267980899
-8.00847121008309565e-06
8.98378683116597065e-06
-0.000425456874076045755
0.000155752319821062939
-1.02387818729992867e-05
9.41412134067041653e-06
-0.00045863951370767801
0.000177060986326978305
-1.21920900369977696e-05
7.52722863604582598e-06
-0.000485225192322739267
0.000160147461073535495
-1.18054527471472216e-05
5.22183991139515798e-06
-0.000415221274190478605
6.33109879078226065e-05
-8.18578899235030861e-06
2.7236844246506671e-06
-0.000114924160514749956
4.85575252324307998e-05
-1.43692823874657118e-05
9.5355279144929188e-06
9.78232206475972986e-08
4.84263969964242601e-05
-2.62123059164354558e-05
2.20374206416604798e-05
5.61431964306747733e-05
-0.00015008318636587547
0.000174980821913779043
0.000564745302668724571
1.77079966202092363e-05
-1.80355250282187387e-05
-5.32672074890877874e-06
3.94872224495794848e-05
-2.21298828925636791e-05
-5.8578395382045247e-06
6.11348880009439236e-05
-2.20429054553270389e-05
-6.61588052672299887e-06
8.28368331691731571e-05
-2.21746161060671562e-05
-7.88364797551214689e-06
0.000104581256538990524
-2.23339887973152715e-05
-9.74261436120132915e-06
0.000126947608267783773
-2.3130914399262804e-05
-1.23741123733308745e-05
0.000150183081687336578
-2.42474662492730057e-05
-1.60203446129753553e-05
0.00017413653279309377
-2.53799054925674205e-05
-2.10417120881285858e-05
0.000198074219611147262
-2.58591702438134356e-05
-2.78333676659156935e-05
0.000221253393494950278
-2.62461904908724037e-05
-3.73105706852361351e-05
0.000241600489776235049
-2.46045900481174557e-05
-4.99736083729237723e-05
0.00025489844866231784
-2.11463677863387212e-05
-6.7672250534820251e-05
0.000259338951807463916
-1.61589813982041513e-05
-9.16922893413677214e-05
0.0002465797189480456
-1.10437023613938163e-05
-0.000124794653574865165
0.000189373227454445962
7.47529287395430724e-06
-0.000158150289964215448
5.23507404291416494e-05
-0.000184845928791597014
1.82648185168054003e-05
-3.66289776424067633e-05
-5.30745195136298865e-06
3.92278701027284834e-05
-4.34388859318052183e-05
-5.77109088764658872e-06
5.9564711380289034e-05
-4.27683701972854388e-05
-6.51637306744720609e-06
7.99736934569822953e-05
-4.30474132345315302e-05
-7.75426477621225772e-06
0.000101203062638476356
-4.41428543961383982e-05
-9.58623855395675103e-06
0.000123285277278409783
-4.59642394096190917e-05
-1.21723486304719709e-05
0.000146152106034153252
-4.81186626161593113e-05
-1.57480666455568192e-05
0.000169761909209675853
-5.0373045265780599e-05
-2.0650746811470592e-05
0.00019347178989429726
-5.15351937898264511e-05
-2.73494046370047146e-05
0.000216570705022789384
-5.22541497422499156e-05
-3.65529157007736148e-05
0.000237651197617466355
-5.01957194493544105e-05
-4.90941597681445908e-05
0.000252726780093738676
-4.37500426089589497e-05
-6.64774999707535804e-05
0.000260026303540880643
-3.62606794438609777e-05
-9.01536841098724993e-05
0.000251407599324804452
-2.72068721723054873e-05
-0.000121747043949555229
0.000203832975212458485
6.76530303165298779e-06
-0.000163900982578798923
0.000118585467459827226
-0.00021724373994754095
1.87607843081390983e-05
-5.57183496501834988e-05
-5.25207069528862327e-06
3.9016608788553837e-05
-6.40398137917622232e-05
-5.72520741245539968e-06
5.9237812737186784e-05
-6.33747290164982308e-05
-6.45934777843152986e-06
7.96963592566316632e-05
-6.3964191319164151e-05
-7.67431283894646925e-06
0.000100903237414732641
-6.5922260819584419e-05
-9.47612597635339146e-06
0.000122994115965274731
-6.87977984002547484e-05
-1.20182882235572028e-05
0.000145948622125118937
-7.2066744749600827e-05
-1.55278375763991767e-05
0.000169689992292768185
-7.54808623799486093e-05
-2.0335638108982589e-05
0.000193682169700044117
-7.74567330246217131e-05
-2.69016377222762135e-05
0.000217334787618430887
-7.87539199377305216e-05
-3.59120877160274798e-05
0.00023879646465764493
-7.60200460859755651e-05
-4.81989605188541393e-05
0.000254519251022412363
-6.68774393050403196e-05
-6.53180776690336535e-05
0.000262528041136252544
-5.68887672318800936e-05
-8.82741739318611713e-05
0.000251793608154613901
-4.07062097303053269e-05
-0.000120439838697186153
0.000198272848072229835
1.02253174448742434e-05
-0.000159256935109563846
0.000178481734529620261
-0.00021437020582998028
1.90035128745094303e-05
-7.50528188573635339e-05
-5.17808836209964872e-06
3.87406514262608731e-05
-8.41213826338358875e-05
-5.64922186783374202e-06
5.87528130461974208e-05
-8.37662028235670208e-05
-6.36729627764579904e-06
7.91430924038047661e-05
-8.48038618942463567e-05
-7.55220346319639036e-06
0.000100277079509258039
-8.76181715913768364e-05
-9.31139268984283628e-06
0.000122329346406085932
-9.1580589741966769e-05
-1.17911564307299175e-05
0.00014533629023460697
-9.60543397691691517e-05
-1.52064472011602767e-05
0.000169232050302265346
-0.000100721449385661563
-1.98785718537396461e-05
0.000193583628840865251
-0.000103698180044710608
-2.62534910200920559e-05
0.000217948467335437907
-0.000105885462059834425
-3.49839967871050324e-05
0.00024009788047066647
-0.000102361081473320648
-4.69247867235749307e-05
0.000257038955917365352
-9.09992620763017823e-05
-6.35844689121083947e-05
0.000266312969306585674
-7.83861868242020958e-05
-8.57030632271842601e-05
0.000255074964250015925
-5.31052508664056863e-05