/*--------------------------------*- C++ -*----------------------------------*\
| =========                 |                                                 |
| \\      /  F ield         | OpenFOAM: The Open Source CFD Toolbox           |
|  \\    /   O peration     | Version:  2206                                  |
|   \\  /    A nd           | Website:  www.openfoam.com                      |
|    \\/     M anipulation  |                                                 |
\*---------------------------------------------------------------------------*/
FoamFile
{
    version     2.0;
    format      ascii;
    arch        "LSB;label=32;scalar=64";
    class       volScalarField;
    location    "0.209999999999999992";
    object      p_rgh;
}
// * * * * * * * * * * * * * * * * * * * * * * * * * * * * * * * * * * * * * //

dimensions      [1 -1 -2 0 0 0 0];

internalField   nonuniform List<scalar> 
29184
(
3053.09628473827115
3052.30223118812637
3046.95795296923825
3038.71464838305928
3028.52782281787859
3015.49285704577733
2999.63773582780459
2981.31554065571072
2961.14243757359372
2939.84256173622907
2921.17571070014219
2905.63658774546047
2900.7340229543106
2900.66522631846919
2926.5831661206139
2770.16272791853316
3052.20265717175153
3051.03581601283486
3045.75617507512243
3037.50761226363966
3027.05403556552255
3013.85437886665704
2997.77342178054823
2979.07869185001709
2958.29033567277656
2936.32189414149752
2916.20678367966821
2899.94620224166692
2893.75622781613993
2896.13276914283551
2916.12716573250509
2786.07615765583887
3050.23689105160338
3048.52115233079803
3043.2314425681966
3034.93128823203233
3024.15958862823436
3010.59887312808678
2994.01207924628852
2974.56080378486195
2952.67267911740237
2929.26781160101018
2907.03714589844003
2888.92569334927157
2881.38625841530029
2886.48618459350382
2902.35821394525055
2783.26400891837875
3047.12354267133924
3044.93739303182019
3039.54610092464918
3031.09972736214695
3019.90765267292045
3005.77616467122562
2988.41787783735299
2967.862885351768
2944.38007032160067
2918.82042978451454
2893.53865378535602
2872.29023416654354
2862.40875214223024
2868.77209036075192
2890.14619383536456
2775.48386202207666
3042.91561252253086
3040.36323819197787
3034.75789329417648
3026.03762869864158
3014.3115394705369
2999.42705419951426
2981.04383636022158
2959.03657479679032
2933.46080560577775
2904.98542060010595
2875.59242703946438
2849.82858318315084
2835.64983460589883
2841.15413330983392
2874.80928122956084
2763.10308331463875
3037.68275917504116
3034.82597924284892
3028.92741651363303
3019.81170110182029
3007.43087692008385
2991.62245645851817
2971.97166923675377
2948.17435081557278
2920.01216823745654
2887.82974810096266
2853.1611351608376
2821.11773771626349
2799.94802052310706
2800.96385199104816
2845.39894849913708
2732.51462751661848
3031.50042490534133
3028.37771985727386
3022.12497905021655
3012.49590623994527
2999.33483872628221
2982.44176682821717
2961.29691163244706
2935.38877724702024
2904.15537185602579
2867.43304712059489
2826.1912877822997
2785.74318670793355
2753.92224886031272
2745.89213433734267
2772.87848828216602
2678.02336243909849
3024.45008261098883
3021.08333747219331
3014.42350372431292
3004.16973181513367
2990.10473842897181
2971.9769293788695
2949.12990200531385
2920.81432221567957
2886.03870372000847
2843.91677359546247
2794.64088889448476
2742.99522303551021
2692.60032467662177
2671.76832982886663
2696.53204171239167
2607.56346901176539
3016.61383893632637
3013.01761125724988
3005.9009838445545
2994.91499501503358
2979.82649741688601
2960.32382976929648
2935.58376509743675
2904.59511850164927
2865.82672703915796
2817.41031671013252
2758.47975354729488
2692.58479711460723
2621.42223269145779
2554.67093232627076
2611.43960338261832
2602.35933546944261
3008.05429021693772
3004.24148699403077
2996.62376643613425
2984.79990302306805
2968.57145890740821
2947.5581194281549
2920.74023751354389
2886.82210425791891
2843.63898834626616
2787.92983424939985
2717.57717337098893
2633.36827571524691
2527.45763313647603
2382.45805048697821
2413.1052613207512
2447.87262409729601
2998.79134668181086
2994.75559605314766
2986.58720235747887
2973.82608554879744
2956.34249820493733
2933.67527655060803
2904.57507900280689
2867.45876385632027
2819.33634198631216
2755.34751225544096
2671.48256306332132
2563.20769468413073
2410.59346347538758
2216.88036788788895
2049.63307777083537
2082.2906503845652
2988.82375285900162
2984.4880894037392
2975.6727246133114
2961.89450415441615
2943.0402917580077
2918.54860564457795
2886.91799176091172
2846.3217753853578
2792.69595011691854
2719.0488223088787
2620.27956518151359
2480.0768240295879
2266.44800273920418
1901.4004193145031
1606.06498350478205
1815.44302096411047
2978.12277434669477
2973.3500385105026
2963.7125574305951
2948.85408606414194
2928.48333026112914
2901.91447871729315
2867.44145894695248
2823.12952209368723
2763.33609211506382
2678.76949739960446
2564.1812210790913
2384.68168244722028
2100.68084543617306
1525.92243745747601
1032.77725799023005
1784.37546394727269
2966.24814637887812
2960.96263567711731
2950.30947429066873
2934.28534623221822
2912.15136612699052
2883.04683864142817
2845.29240787956087
2796.9474527564048
2729.74608326785892
2633.37074802758843
2502.42743331190513
2278.14262948108671
1678.1966175134794
998.234042204969228
770.705201853970721
1602.52866670594199
2951.38264281827878
2945.61371914926212
2933.86447522810204
2916.63046464836862
2892.39277180332738
2859.98102563355542
2818.19439591572564
2764.88094790087098
2687.74616506360735
2578.74969697742654
2427.77517678079448
2151.73814658112678
1083.54325815108973
435.648912099519009
519.241153590390354
1532.61990783553688
2930.14189587126293
2923.72900734752784
2910.97087742774465
2892.90930931425146
2866.106881703216
2829.30950290816099
2782.36902999738095
2721.93904046643956
2631.92966511019313
2509.12533782824266
2329.69912190814648
2000.48176229840374
467.527262765144144
209.835250288172261
294.495898828808379
1337.32930434124796
3056.04827722120126
3055.53853919092671
3050.88869157786985
3043.81499786675886
3035.40061316400352
3025.01745703490269
3013.05725620761359
3000.44099206616511
2988.603614688162
2979.7816519615676
2979.38021232332449
2991.94164694508027
3028.25988865114505
3098.96515174086426
3203.61790658518612
3299.57387025392745
3055.14723561212259
3054.2704996487505
3049.67574190260257
3042.5860376174669
3033.90199280459865
3023.33976402011467
3011.13055948402052
2998.10366765669187
2985.61783062206996
2976.0001517791593
2974.15772669619355
2985.82599257797028
3021.20366424030726
3092.63449174681546
3200.0055129612274
3300.50868694810606
3053.16937452779621
3051.75009981354106
3047.13305576469202
3039.97626613048897
3030.96114397040537
3020.01388401146096
3007.26200298363938
2993.42477410315769
2979.76584113492254
2968.59959574875757
2964.56757289481766
2974.31204772087813
3008.33456553508722
3081.88154037671438
3185.24992009208199
3284.75219444758886
3050.04217905577116
3048.15441848993032
3043.41934719664368
3036.09601100115742
3026.63913974644584
3015.08762959200885
3001.51280457200573
2986.49450176417986
2971.12826159746919
2957.66193178765207
2950.43400371229563
2956.98225079259282
2988.4990428475262
3063.02812328836126
3162.98367208377522
3259.78351241467135
3045.81939702864156
3043.56187364936886
3038.59112017111966
3030.97037538815903
3020.95105357096145
3008.60292244321909
2993.93770237725721
2977.36545493736503
2959.75034446380687
2943.17759586090142
2931.62358676901022
2933.51038332190546
2960.59888673474643
3033.73090311836131
3144.30518543737253
3225.94595537062196
3040.57104541947683
3038.0007936146485
3032.70794065389964
3024.6661499120587
3013.95708475955553
3000.63104643388806
2984.62025288837685
2966.12881062016822
2945.71960901688408
2925.18740161740743
2908.05248503610346
2903.51866479574164
2923.32260025862433
2991.65448053988803
3108.50465330617226
3166.6850799120798
3034.37355581987185
3031.52407188196912
3025.83901938205418
3017.25830954499634
3005.72720990254629
2991.25222718385157
2973.65927686729719
2952.89501672158985
2929.1423719704153
2903.73768135128876
2879.61793156471958
2866.38214147597137
2874.7203049195632
2933.82642452352366
3034.65956539553645
3086.10133573368239
3027.31066990542149
3024.19789512788657
3018.05670176388594
3008.82847517545497
2996.34281693893627
2980.55837888856513
2961.16833642829852
2937.7913971846192
2910.14188619654988
2878.90817201671962
2846.22146214384884
2821.42062387736314
2809.97163397924078
2856.41860744144697
2941.06038263739629
2985.37047922415741
3019.46845279266108
3016.10089248415807
3009.43998397523592
2999.46221435456391
2985.88782211764192
2968.64277723663554
2947.26046730369126
2920.94102534680314
2888.84329905422965
2850.78566193515735
2807.80574571148372
2768.11668057376528
2735.44372304209355
2735.12682795791397
2841.0090097358775
2922.31676109259251
3010.91351400158601
3007.30139028280428
3000.06082826209558
2989.23499293800978
2974.42817849749827
2955.57318603505519
2932.00613169838743
2902.38232955269314
2865.29872565114101
2819.38069324576372
2764.29011169326532
2705.17702545382235
2635.79982931666609
2572.52165507975724
2642.29813465132111
2800.75463215483114
3001.66968387588759
2997.80818200324256
2989.93036576443365
2978.15852174557722
2961.95476851352942
2941.32382050040906
2915.33817260351816
2881.98227367235222
2839.30708268040553
2784.54248155697678
2715.32348464547294
2630.46732333129694
2513.27598679650873
2363.05264564375284
2361.17406782606895
2500.12891630895729
2991.73885069581547
2987.56652282269033
2978.96060575041338
2966.13268963738574
2948.33492737381721
2925.70969574814444
2896.97990205461474
2859.4223017850959
2810.60302241201043
2745.81768900584939
2660.64435889500191
2542.21818168360369
2363.22761338041846
2096.71089962373753
1923.89622436397576
2016.80150513368358
2981.1072041558391
2976.54540439540733
2967.03857595203044
2952.97879190736649
2933.29811018431883
2908.33191008256154
2876.41450896903507
2834.22970195050766
2778.84368697200307
2702.92562961258091
2600.6436471459856
2439.67001737558076
2186.28871689280413
1722.05930011229907
1200.22483514487453
1704.54771543304901
2969.3756282947088
2964.50494921857398
2953.89442412604649
2938.25786004578731
2916.13767562470639
2888.24648176509663
2852.48621367395117
2805.17202571630332
2742.54192825016571
2655.23881355166304
2534.08753198433078
2325.1774136287172
1779.52427089009325
1189.09008222160583
894.528644149594811
1760.25361781252559
2954.73623847929412
2949.88532922480408
2938.17666103974716
2920.43993680731319
2894.9394855002929
2863.26522513586451
2822.43667780561509
2768.96256466566092
2698.04605401121307
2598.52232958797276
2455.67192611966766
2186.90018362737919
1274.31386094636946
499.167596205049961
611.770407718058209
1712.69545088782502
2933.64421933079711
2929.09889328117379
2916.74308431807822
2896.33240566039967
2866.42689126917048
2829.68945883309652
2781.71494888668894
2720.95485445915529
2640.5795064679287
2527.59078100866464
2352.21958091610577
2027.79201980594553
539.233454793289866
256.143436652097762
336.719307404528706
1517.831900089486
3058.84610037837047
3058.61049532885863
3054.61275481278199
3048.63241357874267
3041.86850900002219
3033.94112207563649
3025.56025916978888
3018.12942873789598
3013.74514365899131
3015.7698779369116
3030.60270805972232
3065.1243664957583
3130.99774959747992
3243.03288099692645
3399.78512737102847
3568.44621810879653
3057.93665044554427
3057.34055601298542
3053.38988666672549
3047.38406214469296
3040.3473739697115
3032.22628615501571
3023.57313203136482
3015.69637020903065
3010.63851665330185
3011.78716715833616
3025.25171769994267
3058.78936223555729
3123.99143466452051
3236.27381482146984
3398.48413699621551
3568.19758172418278
3055.94512692032731
3054.81331058260957
3050.831789396982
3044.74529138412845
3037.36409676044104
3028.83253389723404
3019.59733990251289
3010.85633723746196
3004.56525390614706
3004.08691285668374
3015.34697330446716
3046.8840207506405
3110.78913952270977
3224.66175623601248
3385.46314492585498
3554.70194155741547
3052.80049126873018
3051.20295963718809
3047.09398195642052
3040.82275850759561
3032.97745638656397
3023.80517580284004
3013.68912822178572
3003.68683583552001
2995.59450679881184
2992.70945692008172
3000.69885774202567
3028.96514571972421
3090.37090083515704
3204.54446405905765
3363.6976090324074
3527.93300381513245
3048.55527412936863
3046.58638066135291
3042.23232984346532
3035.64166522715641
3027.2038134012414
3017.18639292087664
3005.9011837682192
2994.23664954428614
2983.76670991092624
2977.63393595808748
2981.1691401012331
3004.68464951832357
3061.67743642803953
3174.39828962798993
3332.32003384714835
3486.3567752596573
3043.27721571083839
3040.99147009750504
3036.30623519582332
3029.26804682462853
3020.10374198351292
3009.04714454475061
2996.31338197421746
2982.59035759382459
2969.16149332786881
2958.8868279154417
2956.64708638781349
2973.60617516196135
3023.04791522247842
3130.66180777943555
3288.2142170109355
3429.65133308389386
3037.04036933003772
3034.47051209706342
3029.38506024749995
3021.77642002134371
3011.74890227876131
2999.46846156715173
2985.02026557692761
2968.85271464776315
2951.88208378175068
2936.50576438596818
2926.99337675938705
2935.22845370904815
2971.15333136313029
3064.80269431427678
3209.39245458432288
3396.95406775903257
3029.92677835750146
3027.08962079915318
3021.54175773450424
3013.24813022553462
3002.22376617191912
2988.54382240167206
2972.1304686627559
2953.14976542449267
2932.06021859602743
2910.56878507859983
2892.08562234459396
2888.57442187890274
2906.28657031533066
2985.38453247864572
3121.22269050768364
3380.5922698242689
3022.02253416180474
3018.93005098754384
3012.85649436709582
3003.76872314784532
2991.61710042876621
2976.36861787421367
2957.75435653991099
2935.61842593662141
2909.84913256489017
2881.1710638686136
2851.84600780476012
2833.05030925024221
2827.37708567633717
2870.45557238374977
3032.83708638251892
3215.14631855458856
3013.39778566543373
3010.06956237572103
3003.40507699539967
2993.41697430230488
2980.00510140852612
2963.01624981002897
2941.97263703945237
2916.34958866857596
2885.35867563715738
2848.32265411267053
2806.17017094323228
2767.62391903613707
2728.41576342980443
2715.05779174522286
2817.0275525637162
3059.55166882793173
3004.09073281642895
3000.53622366891204
2993.2070846081283
2982.2140472734759
2967.3965157501857
2948.47873754888906
2924.76366594162573
2895.30660477019228
2858.47263663637432
2811.86680969490772
2754.6811128971367
2690.19725407083524
2601.51679233609821
2493.04412469146928
2581.74510554315793
2750.91332204036689
2994.13625226380509
2990.30359532051443
2982.18230120758244
2970.06261049914156
2953.67019350670216
2932.61123465126911
2905.95124251622929
2872.294568225891
2828.92389432049004
2771.35504603280788
2697.15953870113299
2598.8667164000758
2445.85877159056326
2229.02055840661342
2209.70400419391672
2380.18325098787
2983.57866691551681
2979.38099113219459
2970.21562568663512
2956.76575393880375
2938.56747094530238
2915.10500999797569
2885.18031027721418
2846.96505223268059
2796.35164428479038
2726.19896320284033
2634.05172256569131
2492.82358248048195
2262.0513454613274
1850.98935793387955
1496.01279911565257
1892.6323196416497
2972.12911559292434
2967.60921849372244
2957.03198265532546
2941.89251703015861
2921.5099013957979
2895.19468688672487
2861.56933495580552
2818.2777642210317
2759.15805380745496
2675.6481391360694
2563.83876220327966
2373.19913647705334
1854.41100349430508
1298.90236451281794
995.056586685798834
1691.59640040921727
2958.22480030845054
2953.55088203488594
2941.28491797961487
2924.01000517429065
2900.87612486707076
2870.91506042785431
2832.80628765513666
2783.20970356262296
2713.2867307733095
2615.37773630530137
2482.64715327662998
2231.88719604805146
1423.68353828048362
627.918793480495992
693.628378409642664
1818.53787061989851
2938.69599474954521
2933.67126921520594
2919.97171689525021
2900.01056199668528
2873.42213389231074
2838.8297018390117
2794.94879012249658
2736.60671887377794
2653.26620336460564
2540.18891045453893
2378.61573500680379
2069.71834856529222
554.156166041468168
299.164310867960637
393.019237821335139
1666.48674093977297
3061.39059306020363
3061.39849676922267
3057.98148216048685
3052.97190499645285
3047.66719218236949
3041.90113064638763
3036.64488162185398
3033.67671179552826
3035.59114450124662
3046.44159377873666
3073.25254340342099
3123.85591856751626
3209.41550341786615
3344.38517964083621
3517.93610459871979
3690.61899145520238
3060.47686060386832
3060.13034872580874
3056.75140860160354
3051.70655998209122
3046.12635187743399
3040.15411858665902
3034.60686017075705
3031.16747333813737
3032.38622159440774
3042.32733782416335
3067.81360146114457
3117.41570966257905
3202.40983862172743
3337.03392044806105
3516.27651914976104
3688.23530828492494
3058.47990685537661
3057.60436814394598
3054.18342823539297
3049.04388803783513
3043.10681455978647
3036.70233446772681
3030.54149561099939
3026.19661248777857
3026.13534230483992
3034.39709475544942
3057.67652810897243
3105.24875230979205
3188.9702891098691
3324.88647425463751
3501.72833957876492
3673.03105060451298
3055.33201992187423
3053.99299750597947
3050.43001634100528
3045.08703943875435
3038.66542657815171
3031.58932565877285
3024.50179249104258
3018.8328928393239
3016.8949344640173
3022.66562651232289
3042.637616434351
3086.89960917937969
3167.87984105860141
3304.04994296368204
3480.75811717806027
3645.18627892171799
3051.0873937456372
3049.37338097521933
3045.54653097254868
3039.86188786221055
3032.82027560518418
3024.8582908454714
3016.54056876442883
3009.12371825436867
3004.698953675962
3007.09737943306436
3022.54194248881549
3062.04967562120373
3138.41450069812981
3272.63548313837919
3443.06044344532256
3604.28892014479334
3045.81556748583171
3043.77469288165821
3039.59223967822345
3033.43498766484527
3025.63285990102122
3016.58072008548879
3006.73752290177663
2997.15054117910313
2989.61479022941739
2987.69956086429465
2997.24352793971048
3030.0877934862483
3098.7626117017785
3222.76623963791553
3408.61152260965764
3586.24587478173135
3039.59320696676195
3037.25010268725646
3032.63692309843782
3025.88249489025702
3017.1764245811969
3006.8390759030649
2995.18830361978917
2983.01494170244541
2971.73232564343925
2964.48783972752972
2966.56295983154405
2990.47082656395241
3046.73115107930607
3162.24428242555859
3336.01139958342037
3605.99301340058173
3032.50540044651143
3029.86589837187785
3024.75487329563657
3017.28847361866474
3007.5376074561218
2995.7293956361159
2982.00425694612568
2966.839398521372
2951.16906990669077
2937.51646725255932
2930.35196503594671
2942.54612016619058
2982.14223601454478
3086.10890008645356
3226.20089506660361
3459.15727861088226
3024.64145921833415
3021.70072281469129
3016.02817601688503
3007.74162863064475
2996.80808069422983
2983.35167536790732
2967.30195698138914
2948.75366842270341
2928.06312572974775
2906.86798919641933
2888.5273914373729
2884.99096857304858
2900.77099760576675
2974.33193258060282
3144.35008526781121
3231.22836719154657
3016.07493684964584
3012.82525424108599
3006.53544922539231
2997.32419940206228
2985.06830492869494
2969.78703290635303
2951.17239787461494
2928.85865400331431
2902.49959414011983
2872.57232359812087
2841.00024463238924
2817.41215894041216
2800.58011535486594
2818.96226782024723
2951.30102848731167
3184.41898459764434
3006.84452946808733
3003.25659994115904
2996.30052594797826
2986.06237070626185
2972.3351236932167
2955.03903657221508
2933.61080682558804
2907.12284023028542
2874.46751403326698
2834.45904053548838
2787.45305800152073
2738.14517009112933
2667.30644036360673
2600.500337810372
2685.04749159853645
2888.17703349650947
2996.98063083483339
2992.94790033284698
2985.24201105477505
2973.86204934471198
2958.49973333163916
2938.97812847563728
2914.45986151735406
2883.37126255550311
2843.72326547624652
2792.486088497933
2727.57427855844116
2644.86673031580995
2516.90916520854626
2311.80239967299485
2407.71248340608281
2545.39902454326511
2986.51563637983054
2981.8570109398579
2973.22558759253752
2960.52099880348396
2943.31767223320003
2921.31753867669295
2893.4085762651639
2857.28284700730137
2809.96188641426943
2746.17385260177753
2662.25639323211453
2536.84932281925603
2331.36522172417244
2006.14091854198205
1778.18871988953879
1997.56563447014946
2975.12978753514244
2969.7259624526082
2959.95042962346542
2945.61844252177752
2926.23275662655396
2901.3505863324458
2869.67294575249343
2827.94448349861841
2771.71128010361963
2694.60738880825375
2590.72543651063734
2414.34414687780327
1980.91046067734624
1457.87292851425332
1100.19453911178243
1721.04484362629546
2961.15978141332153
2955.04180168378889
2944.07055124290082
2927.78346784850282
2905.64779434945558
2877.19194875228186
2841.05580148752733
2792.52672642581138
2725.2425312646219
2633.66677314281878
2508.41874925519778
2273.45640715319041
1504.52542822077271
829.941714758993157
768.065026956851739
1683.29257499170694
2941.19787895204763
2934.34044102028247
2922.33723057615589
2903.94352344454956
2878.27352804191378
2845.41338970047855
2803.49407628471363
2746.08441507176258
2665.18894860364298
2558.7589147997769
2403.67091721090901
2111.57785968830513
645.345996057162779
338.777693313580244
444.256076901155041
1839.20572233921098
3063.58109600496118
3063.77781810709757
3060.84884781085657
3056.65105961618838
3052.56259133808226
3048.58763036792561
3045.90038961402252
3046.5451480180127
3053.46191874059241
3071.10950409655879
3106.73746419695954
3168.4378925878591
3266.54086655362062
3413.90704500078436
3592.47792601470792
3764.30275616293511
3062.66284178819251
3062.51033652128308
3059.61420140904283
3055.37494259706864
3051.00769030201263
3046.81602123509902
3043.82347872368018
3043.98374064755444
3050.19649101496589
3066.93168465506142
3101.30704216887534
3162.05345237022857
3259.65256180062215
3406.35128935191551
3591.6040842987245
3760.76621483628469
3060.65771718327142
3059.98342496635814
3057.03948277830068
3052.69443596367273
3047.95836966556089
3043.31558210225694
3039.68474680238523
3038.91113593652426
3043.81528903144181
3058.84945651259977
3091.03055049172735
3149.76297431891226
3246.10396873690252
3393.98265297056514
3576.76258979158592
3745.10266170338582
3057.49872036164334
3056.366873488696
3053.27500786631026
3048.71067018316216
3043.47046900986288
3038.12905159541106
3033.53512526414988
3031.39276022226932
3034.37149379892571
3046.8698624614135
3075.73018726890268
3131.19720836300758
3225.0470866838109
3373.23217704198123
3543.05664963652862
3717.90530625236079
3053.23775027854163
3051.73685780770847
3048.37620936503799
3043.44965901884325
3037.56236764717914
3031.29932056512507
3025.42693642158929
3021.47543523959075
3021.89721434973035
3030.95338458877768
3055.25260472870559
3105.99708650899129
3194.91653703051134
3341.60759385454958
3506.40727965356336
3679.91643821831394
3047.94061303945819
3046.12289166373239
3042.4025262694181
3036.97675801538662
3030.29436112347366
3022.89679364633321
3015.43893405315657
3009.23906577195976
3006.45691870671908
3011.09892993417589
3029.44568905322467
3073.55542923404209
3154.96117089283916
3291.74849391267571
3482.86428182768759
3670.90756471034047
3041.67919994008298
3039.57920837569327
3035.42363668964981
3029.36598718592541
3021.73766597683016
3013.002649463544
3003.66622055369635
2994.78460100767734
2988.1386715065828
2987.31117730475216
2998.12318741694253
3033.29906772672166
3102.33903947118188
3227.67531162534851
3418.92366293584701
3701.43322981596975
3034.53278514128488
3032.17520144237233
3027.51296605338393
3020.69805634901513
3011.97572752975793
3001.71142349968704
2990.22020434781234
2978.23579288135534
2967.0572799513775
2959.62667262237528
2961.13846624730922
2984.501877171866
3037.63648219717834
3161.86944173422762
3272.61665983756666
3550.46120842198252
3026.58375342920226
3023.99518397764541
3018.74829234130721
3011.0555534789105
3001.09482022910424
2989.12214596712784
2975.219343488302
2959.72647718409962
2943.34005174254025
2928.11237804213761
2918.40595637445676
2925.80640090989255
2955.13435189435177
3039.14894878442919
3217.26699492970556
3305.95249795246264
3017.89796495849987
3015.11844378264868
3009.19619566639631
3000.50827829261152
2989.16564872225035
2975.31801798924243
2958.75975688353628
2939.35980295814943
2917.0609560375965
2892.79275609720298
2869.81201379192271
2856.61469102715637
2854.5310003688478
2891.92702284382813
3056.78735527937806
3236.26992528329401
3008.51203792838442
3005.57694842001865
2998.86338791768412
2989.0671312619038
2976.1975752601129
2960.31359709758362
2940.84336103191299
2917.09704734518255
2888.19458982576953
2853.55386734856756
2814.97548414212224
2775.09343403330058
2715.72542548476258
2676.27257273584564
2778.51734605465072
3003.90685991517694
2998.47829982243366
2995.34197888174958
2987.65589586744272
2976.63256567500957
2962.0961676126708
2943.99838749331138
2921.30834374451797
2892.74954128603804
2856.49430909486091
2810.36792715723004
2753.55212355019148
2678.41347586495795
2565.06454529422308
2385.83770867011981
2494.06637196603833
2675.99077148366223
2987.86326480615298
2984.36618665314973
2975.4061728857987
2962.97918903480104
2946.64040082375504
2926.09487638723158
2899.80834380324268
2865.96767230744808
2821.67504452243338
2762.78399063912548
2686.25326888259906
2564.99008371996933
2371.36456170802421
2100.98387554730834
1905.17551663329073
2108.32029698279666
2976.35163838128801
2972.36524256983694
2961.69721092795999
2947.56347358970379
2929.23942479392099
2905.90680847600424
2875.49925573282508
2835.76644167820859
2782.25295240793503
2710.16371361712754
2612.10672140849738
2434.36468560191679
2055.97343918358547
1648.04753800048388
1210.97307216616719
1796.45460782636928
2962.37606823091392
2957.81996769707712
2945.10739696318569
2928.86193722132793
2908.32644107600117
2881.64086133237606
2846.11966240923812
2799.21440160365273
2734.6699179666316
2648.83411677547565
2526.57898707282175
2282.60160699914013
1514.54127213001584
897.71900025560717
845.016949583505038
1740.3932792198184
2943.05227597057683
2937.1533203765116
2922.78553211562257
2903.90219340558315
2881.16106295688633
2849.91203204376961
2807.50769530742355
2751.42436375507395
2674.35908636763497
2574.36262943623569
2416.970573423715
2110.31797865981616
752.68985571954704
368.449257656705015
516.369650948981985
1900.95547514470013
3065.33567853322575
3065.6575551857386
3063.10529142484438
3059.53267274514565
3056.375851932562
3053.77077340338155
3053.03743006619516
3056.40010469227855
3067.02489295200257
3089.57495381258741
3131.41912349006043
3200.3983165159143
3306.57296347773035
3459.70560862781986
3639.34884058519583
3804.12309556190257
3064.41800942744203
3064.39416518758435
3061.86755840513706
3058.24766135228901
3054.81039406671061
3051.98186487627981
3050.93390992837976
3053.8048506336736
3063.71889398146186
3085.36215517574692
3125.96143066281502
3194.05218502235084
3299.51565024247066
3452.17576371320638
3639.30026846177543
3801.27920766888565
3062.41714049077473
3061.8744380777548
3059.28938234687985
3055.55184002064061
3051.73597115589428
3048.44226656415503
3046.7382126616053
3048.65597436615644
3057.24301614120714
3077.17552181244037
3115.58377046786973
3181.66751631192483
3285.69018205754628
3439.59838079271731
3625.68617695277862
3786.25367762611086
3059.26914545307591
3058.26726561019996
3055.51870426816185
3051.54429127806316
3047.20822983936705
3043.19583333678747
3040.50230527614985
3041.01994948425363
3047.65098715886143
3065.02675702059469
3100.10666621328892
3162.96977962340816
3264.67610016230037
3418.89244141990366
3590.88314851460245
3758.81474701535808
3055.02887332612909
3053.64990810741028
3050.61061239099718
3046.25114565910508
3041.24645696139305
3036.28648288982913
3032.27958597633005
3030.94386370595475
3034.97522668850661
3048.87675126385693
3079.37548247963605
3137.53348373441395
3234.1747915284177
3387.57169423311461
3550.28779476021009
3720.16292645107842
3049.7662105375025
3048.05303925695944
3044.62405671372608
3039.73714317681379
3033.91138431455192
3027.78606032051039
3022.15014462137287
3018.50694950274419
3019.2790042703964
3028.72218795833351
3053.22947740367363
3104.76958005018923
3194.21436204731663
3339.18680332863187
3526.26765887257079
3682.80227883397583
3043.55837801780126
3041.53052640368696
3037.62848184781751
3032.07606276306797
3025.27569919391817
3017.77877020366032
3010.21150798028339
3003.80882441528229
3000.64964389487204
3004.56483425043098
3021.46578817088584
3064.09805423932448
3141.35471609623119
3274.45246070602616
3452.90209008433703
3675.87920482310756
3036.49091993034335
3034.14896192665037
3029.69788569742695
3023.34878137097257
3015.42572234957424
3006.36409258927915
2996.57834698575925
2986.97021801041956
2979.2032939578462
2976.43651114333989
2983.90149845951964
3014.79166298336395
3076.82344808248126
3207.77220388463638
3303.82683671109135
3599.33126957428703
3028.65282510822408
3025.98564924653147
3020.91348495175407
3013.63830110912113
3004.45350668287483
2993.64878343714736
2981.37240581435981
2968.11989819361315
2955.0735779599172
2944.38916675075143
2940.38314817518858
2955.19231890848732
2992.8598759108072
3085.01302436442347
3218.22943932439739
3435.18598318291743
3020.1146002733899
3017.10742904569406
3011.35215505894985
3003.01574821063105
2992.44161534705154
2979.72696175266083
2964.69172077693656
2947.3574996368734
2928.34545564416067
2908.40933687295274
2890.68736678091545
2884.77199003806618
2893.25289573566397
2937.89315337277594
3098.81240266147279
3340.62851674265585
3010.90594493577692
3007.53103069368444
3001.04005743519292
2991.49881815508616
2979.41707273512156
2964.62401700689179
2946.54174773973364
2924.65253963312716
2899.00980108069143
2868.29756623520234
2834.29749685977868
2801.41294118538008
2750.14517019719642
2722.61001239491179
2816.52919778371688
3061.273095606467
3001.04391765527589
2997.22453719143141
2989.90842441662335
2979.0085192542374
2965.2971918645294
2948.23528592155753