/*--------------------------------*- C++ -*----------------------------------*\
| =========                 |                                                 |
| \\      /  F ield         | OpenFOAM: The Open Source CFD Toolbox           |
|  \\    /   O peration     | Version:  2206                                  |
|   \\  /    A nd           | Website:  www.openfoam.com                      |
|    \\/     M anipulation  |                                                 |
\*---------------------------------------------------------------------------*/
FoamFile
{
    version     2.0;
    format      ascii;
    arch        "LSB;label=32;scalar=64";
    class       volScalarField;
    location    "0.390000000000000124";
    object      p;
}
// * * * * * * * * * * * * * * * * * * * * * * * * * * * * * * * * * * * * * //

dimensions      [1 -1 -2 0 0 0 0];

internalField   nonuniform List<scalar> 
7340
(
-0.878967680111541472
-0.891987784424744579
-0.904930993044081422
-0.917811054571083806
-0.930127729613114074
-0.941192023023043722
-0.951238717763342456
-0.960538393448326033
-0.96882520527888405
-0.975385520697115815
-0.974279603222082957
-0.95339524187024649
-1.01556855611073105
-0.751673084260046642
-1.23554886947806009
-0.899876672485060425
-1.00277287900521461
-1.01525912423833908
-1.02756049682452222
-1.03969928618398133
-1.05146205131627335
-1.06252036797637039
-1.073093702772423
-1.08343160508850023
-1.09339510220236646
-1.10285919697359169
-1.10693086759530646
-1.09186671970848015
-1.16583378838672203
-0.91371465434574084
-1.40730020032549241
-0.729320118138849782
-1.12548391598870401
-1.1376644083953007
-1.14952212296671052
-1.16116463554724314
-1.17257146415055757
-1.18369740554852365
-1.19483325808625729
-1.20629012442312056
-1.21814129129792592
-1.23070941680850976
-1.24052866776976822
-1.2332908193879899
-1.31698233453814684
-1.08098944511697215
-1.63143724835819315
-0.356756486951796958
-1.24762989641530675
-1.25957046404701667
-1.2710809517573618
-1.28234787748724122
-1.29351572744824606
-1.30474939762346098
-1.31644281134321828
-1.32904748147898499
-1.34293563796418414
-1.35886294556978382
-1.37466399836988495
-1.37720327783456953
-1.46951567061314048
-1.25733214191122844
-1.90294225577056908
0.153719468941844184
-1.32954520907200457
-1.34379405523144158
-1.35702121330504344
-1.36943832208563032
-1.38116162988196622
-1.39237799540073959
-1.40334273865773129
-1.41433210372566953
-1.42568062079351532
-1.43790696532170403
-1.45165602738677246
-1.46765718748480367
-1.48714340464205308
-1.5091793040136432
-1.52307495184599628
-1.62272807434456956
-1.43767590297423098
-2.11592263944060788
0.580057727410526525
-1.45109909616750765
-1.46550970695990279
-1.47874428468305918
-1.49104374385147009
-1.50256192491648011
-1.51352013304431976
-1.52422499358789798
-1.53505690362136371
-1.54649570903531908
-1.55920616827637271
-1.57405907461090377
-1.59217215237342602
-1.61528841703603154
-1.64368807709418707
-1.66991390970822695
-1.7757725379243896
-1.62266084167477631
-2.27981411841727422
0.869205639608829017
-1.53862921228793814
-1.55654728441238532
-1.57268627169331832
-1.58720899065006837
-1.60041291653379325
-1.61256965533768293
-1.62388300319077894
-1.63460064339293409
-1.64506547818798898
-1.65573737383908082
-1.66722225282612002
-1.68034294764550562
-1.6962143661712612
-1.7163487580996053
-1.74298973975892135
-1.77761509918946592
-1.81651721780799758
-1.92606718316254066
-1.81073218721608997
-2.39123779885602872
0.71104988354701959
-0.870704178935725048
-0.882617380509571281
-0.894470048416795005
-0.906033172781198104
-0.916937918777926519
-0.927469204733845198
-0.938010394299968908
-0.948462506680151862
-0.95868889153210668
-0.963957322140445605
-0.949729284735463253
-1.02187767676462071
-0.795144812017147373
-1.3395717168692669
-1.06338130328540426
-0.982287888534000952
-0.994043042287292344
-1.00549626687856497
-1.01681935067380702
-1.02791108777350182
-1.03868594597516206
-1.04951443145903744
-1.06088461073235241
-1.07297031174402369
-1.08624334828641578
-1.09714752374289981
-1.09200532622021051
-1.17528393442238333
-0.960915033728166557
-1.51909552206444753
-0.845847310685350129
-1.10506189591829584
-1.11665603629040233
-1.12777974015359073
-1.13866387328913121
-1.14937438027719452
-1.16008181156091528
-1.17124954768909206
-1.18345457680756061
-1.19722852424238657
-1.21357600859217252
-1.23024916328582146
-1.23572148409436866
-1.32804787496580512
-1.13062038528121978
-1.74644646278860938
-0.684787855887273977
-1.22750574541146729
-1.23891190922859917
-1.24973551464791477
-1.26022859345122362
-1.27061639047164654
-1.28123502842251158
-1.29266645975328021
-1.30566783675509757
-1.32116384160374345
-1.34069114467331874
-1.3633275492958008
-1.38048724240439169
-1.48132188033525969
-1.31069879479044538
-2.00194045351449335
-0.0519752879426729208
-1.31017419217784759
-1.32448478211281562
-1.33762753324306627
-1.34974499525426284
-1.36094986422551534
-1.37146632849009276
-1.38159155113547261
-1.39166745553141968
-1.40216049186556724
-1.41378002063701658
-1.42750726708089037
-1.44469158348507065
-1.46743839338069315
-1.49616918758295836
-1.52579050967230678
-1.63530910930633433
-1.496278215755388
-2.21144198231831535
0.70153808917041971
-1.43230872133454401
-1.44674331083699026
-1.45987619734680774
-1.471865935707527
-1.48284717629764451
-1.49305603457723879
-1.50282347651812964
-1.51257571453746098
-1.52289272469024639
-1.53461904394486881
-1.54897480374978125
-1.56773814039027792
-1.59358650293514081
-1.62832450786375404
-1.67073524459454315
-1.78599135067033399
-1.68085694649603101
-2.31706379422957465
0.947988817852319698
-1.52018195581886073
-1.53834107549783194
-1.55456432707488101
-1.56907213849794802
-1.58213909836763289
-1.59395605739997182
-1.60469243220100033
-1.61459096582573225
-1.62400235672793292
-1.63341159583263029
-1.6434952897525803
-1.6552383636138619
-1.67010359756439053
-1.6902728037034378
-1.71895436809006097
-1.75926572460584918
-1.81415381941847409
-1.93366810116523991
-1.86982701699096676
-2.40962085575870422
0.855909964860579464
-0.852457123236344483
-0.863252984071535057
-0.873886758479489156
-0.884297050482430569
-0.894568589457562791
-0.905229603207146072
-0.916931290269995758
-0.930266320650877776
-0.945960873425718329
-0.959467354725369925
-0.961087622726817692
-1.05376407818287765
-0.852272632307398359
-1.56496678314042992
-0.764867075252160689
-0.964214672978077614
-0.97525735358931942
-0.985778595065437413
-0.996008030259141308
-1.00602177424268224
-1.01610367800101398
-1.02687945742544962
-1.03918265885327177
-1.0540617517355042
-1.07287989679966755
-1.09227236528720151
-1.10430697570692393
-1.20657308364320381
-1.03419175483709336
-1.73367656710936968
-0.548584815910327706
-1.08678952870008727
-1.09770023786885629
-1.10792888430985359
-1.11774231776325284
-1.12735837361114988
-1.13719672291225704
-1.14797366686387203
-1.16069502809356284
-1.17681410515078522
-1.19832528994580545
-1.22351679789596957
-1.24743029377332748
-1.35833552807847924
-1.21364964325888947
-1.93847375666533051
-0.457316304549422625
-1.20924171692171312
-1.21997697139652272
-1.22988540638654076
-1.23925896068095476
-1.24843218751285123
-1.25792445764055727
-1.268551531824885
-1.2815131675439746
-1.29866392907547068
-1.32260589231475767
-1.35337650166439083
-1.38982393230992818
-1.50808872244356218
-1.39601547385932623
-2.15452721345647902
0.00207770590381173292
-1.29239063539690369
-1.30688179122258208
-1.31993489461854652
-1.33164824376450852
-1.34215883591140406
-1.35171321137793776
-1.3606280409785565
-1.36931238340391026
-1.37836383358201719
-1.38869646963578663
-1.40172447684253543
-1.41971840817926909
-1.44588784819064853
-1.4819561828254153
-1.53085207981907745
-1.65487004720089459
-1.58004706842842513
-2.31013251548793264
0.71934724424311014
-1.41502864583489751
-1.42954048279895729
-1.44252022531854474
-1.45406380380573452
-1.4643052017009861
-1.47348119368150776
-1.4819193114797018
-1.49007148035719306
-1.49859641017427503
-1.50850708668693523
-1.52143595480843707
-1.54004587732503984
-1.56814608407930489
-1.60915312241638286
-1.66981470666434784
-1.79878256827980332
-1.7607087500985259
-2.39814138585669134
0.937748820185042575
-1.50302129480217439
-1.5214933374065287
-1.53786361400151872
-1.55236245687994323
-1.56521345877725659
-1.57653770208083666
-1.58647732397853414
-1.59525775274214143
-1.60320527780644539
-1.61079184229444961
-1.61872338216527911
-1.62811285448203913
-1.64080322605013107
-1.65981379514698069
-1.68949911617102355
-1.73497774179894648
-1.80632417938948064
-1.939906621246416
-1.94042370329163738
-2.47549335065007625
0.718236351075027812
-0.825615164573201832
-0.836048490427781954
-0.845796808093211672
-0.8551153525258266
-0.864222665909897048
-0.873662460562272924
-0.884420310128800624
-0.89797960236810237
-0.916040574903907778
-0.938750803679585299
-0.960484343389518491
-0.994322684249807187
-1.12237949713089136
-0.962540013111535808
-1.90507510105397881
1.33450743919615178
-0.947852049497072136
-0.958246907002089809
-0.967775608378450225
-0.976748095240662639
-0.985494212768078137
-0.994626862597987271
-1.00519691298441605
-1.01883906661831203
-1.03770190662242134
-1.06251946479739345
-1.08913512256271594
-1.1342360189545404
-1.27248619473957247
-1.13410787950166081
-2.08468590309052715
0.621586314684805075
-1.07007787852062641
-1.080333444339312
-1.08955697645473126
-1.09808014209752103
-1.10631030496663052
-1.11492261656615699
-1.12499954639284416
-1.13828259708963953
-1.15728325218984485
-1.18368283191825219
-1.21637014380639696
-1.27000562784774229
-1.41617610346967138
-1.31455116958317753
-2.2943965641926205
-0.00934339691861652
-1.19242434014569265
-1.20244544459188418
-1.21128468398758238
-1.21927519138891727
-1.22686534980877315
-1.23475698371779674
-1.24405235733319541
-1.25659844864161885
-1.27524877063426345
-1.30268281449646528
-1.34050734300457952
-1.40232323892375743
-1.55662093392838718
-1.5009303827106486
-2.44516989717494537
0.224334986434733707
-1.2759010633075536
-1.29063481061277741
-1.30362625990452052
-1.31491551887035851
-1.32463412359545796
-1.33303187658758748
-1.34042977482624082
-1.34728445285785448
-1.35428937983171727
-1.36255997826715758
-1.37405907370997848
-1.39201224161034265
-1.41997763417966349
-1.46138105512852734
-1.53249795331421956
-1.68948086186304103
-1.67760154491641611
-2.4970309008080469
0.985213848193303932
-1.39909367213099678
-1.41371451281804594
-1.42652575250629132
-1.43756010213321206
-1.44693017217867226
-1.45485076381788581
-1.46161482283458311
-1.46765740450620807
-1.47365109413298456
-1.48072224293783061
-1.49094680069687735
-1.50788427518209822
-1.53599202037850802
-1.58087429235717547
-1.66043059593907016
-1.81797331742540469
-1.84738023262374473
-2.51805607806010023
1.24385220858407308
-1.48724688772664759
-1.50600358973326331
-1.52254103647425776
-1.53703572915356634
-1.54962655987874154
-1.56036588884466676
-1.56935574979520331
-1.5767767298645865
-1.58288418920799079
-1.58807425237612465
-1.59299143270942389
-1.59877609674664889
-1.60761855238063944
-1.62334626184357789
-1.65138465767450326
-1.69968236027150543
-1.78694169633600652
-1.94222584068936754
-2.0090400056660056
-2.54029321854585044
0.66481457260305632
-0.810316689427692527
-0.820417661443101354
-0.829291128525524668
-0.83744163001749472
-0.845569994840367767
-0.854813504576423355
-0.866974142521363733
-0.884801504964443097
-0.910711601042675456
-0.945085788578020947
-0.989510433647544096
-1.05596049935411518
-1.1203314388939356
-1.0655486039741433
-2.74095575164823391
4.46364009700116782
-0.93206872071231428
-0.941985633650837095
-0.950588851251794709
-0.958338197492444754
-0.965911555654423992
-0.974431931480880698
-0.985619263713122029
-1.00224836183692378
-1.02708452232542458
-1.06081091999133892
-1.10611552222377041
-1.18205398981069498
-1.2728107002825082
-1.19349323809793706
-2.86491952134108008
3.07156988043429635
-1.05413085528938222
-1.06377275596991505
-1.07197949901962497
-1.07916899178880987
-1.08596017842623471
-1.0934152959308403
-1.10315437551190465
-1.11784256775076063
-1.14043733592760277
-1.17266421487971151
-1.21869936859479733
-1.30150306948025563
-1.42296475976734049
-1.33840994596159391
-2.96714288904654611
2.38599208497777937
-1.17654716468274367
-1.18582854249673031
-1.19352743004552497
-1.20001093740476272
-1.20584538132641694
-1.21194334074060528
-1.21979394833303623
-1.2319423127715492
-1.25149674697897728
-1.28162007744964912
-1.32859261116276084
-1.41306108066276748
-1.55905924433258258
-1.52824532190591
-2.92426872677862981
2.16972281868176253
-1.26058524722809184
-1.27553374128986374
-1.28844452735731307
-1.29927487127493224
-1.30813862291811378
-1.3152610185288891
-1.32094368954020669
-1.32567599885915088
-1.33019296947267573
-1.3358218909393349
-1.34496759264530485
-1.36108932297900886
-1.38845160497511633
-1.43568517487480984
-1.52239145835298206
-1.67992458857772897
-1.71411979598382724
-2.76294551403103661
2.01972754488812001
-1.38448130898297483
-1.39918246305271698
-1.41179523443958499
-1.42227296600403164
-1.43068814848510661
-1.43720750827282928
-1.44204762059675828
-1.44556900490512441
-1.44836562319723638
-1.45157344609249894
-1.45749529728194172
-1.46997863178577104
-1.49456031070282624
-1.54196889842749929
-1.63223782984093191
-1.79166542993918143
-1.86579733481015198
-2.65862724663505912
1.52882926140687658
-1.47303057114941227
-1.49199558309619218
-1.50866412313772758
-1.52312579656501113
-1.53541574396907632
-1.54551201679718142
-1.5534581504424283
-1.55935646848888099
-1.56333566689557113
-1.56562719603275324
-1.56667584913780922
-1.56744879341972876
-1.57017458339111693
-1.5791094086834172
-1.60112105260189441
-1.64915318223029139
-1.74326768824459588
-1.90432311259891396
-2.00806472990621421
-2.62568405942738936
0.866983093161877605
-0.800504145872188766
-0.811092564508000824
-0.820075414584112483
-0.828050961380290662
-0.836062292279994734
-0.845918012232538929
-0.860383994451048073
-0.883529336906462071
-0.921562658323015871
-0.984434414534728464
-1.0872504845421771
-1.21394312874461874
-1.1541707221684594
-0.692197435016709051
-1.91568511525636254
10.9663681621179379
-0.919456581961121677
-0.9294119504691154
-0.937675185880464945
-0.944763549836744931
-0.951520231788619664
-0.959677910342858764
-0.971912758318924097
-0.992426449978840663
-1.02757476158088501
-1.08833813013836389
-1.18930027637247049
-1.29784383127671665
-1.2270934704585752
-0.941439101691584179
-2.2506824251620543
8.02040751088962622
-1.04011555442293302
-1.04935150273203104
-1.05678056123434061
-1.06284441462654278
-1.06829070326965803
-1.07459263194336407
-1.08411791268105384
-1.10084342117889289
-1.1309819604748883
-1.18558239814609112
-1.27731228887124271
-1.35983252403893329
-1.2847349923607092
-1.19942749913443159
-2.86892931806978169
6.35434257225457344
-1.16215583027886771
-1.17074176675468955
-1.17735761303169562
-1.18234514414631664
-1.18633594995174252
-1.19044255230287499
-1.19663713775807157
-1.20844966236008533
-1.23176812739876684
-1.27721964222324891
-1.35452332027097122
-1.41620990105681277
-1.36702896030058296
-1.4317974390710404
-3.08884114952094802
5.37508247266729455
-1.24684649210947684
-1.26194566455266832
-1.27473282785355568
-1.28506928478808957
-1.29306710536127345
-1.29890166592403222
-1.3027775380764639
-1.30513879191656512
-1.30676849498088687
-1.3091527356858621
-1.31510654522029524
-1.33022737183412998
-1.36528266731073566
-1.42461167743441042
-1.48402802491483832
-1.48815510172188148
-1.6056807680435059
-3.03151503499722086
4.1517276041197988
-1.3715335462436502
-1.38625281363078767
-1.39862313602942434
-1.4085034482358112
-1.41593856501387538
-1.42101464143447109
-1.42379355567981714
-1.42446209484590036
-1.42348648497580732
-1.4217715618046165
-1.42146693912663502
-1.42821671783569126
-1.45303177328470068
-1.49920520687398984
-1.56483048476716391
-1.62948158663557141
-1.76131113663000338
-2.80016109309656969
3.04055832377518698
-1.46075100229796995
-1.47983476011452497
-1.49656049685224546
-1.51093538624780988
-1.52288678117321519
-1.53231194440048646
-1.53919328355583263
-1.54351891285093901
-1.54521753436511355
-1.54424676139841943
-1.54069583416800615
-1.53493314926731172
-1.52872242439694994
-1.5275454648799216
-1.54209620963489402
-1.58513246170799871
-1.66882015900123171
-1.76689021399050383
-1.88462421014436421
-2.60601188157169927
1.92601567595195888
-0.800628808615545529
-0.810768737406961426
-0.818336373430613273
-0.824210786852412225
-0.829527999022049101
-0.836296148819718255
-0.84802876334025612
-0.871406412529868168
-0.920569981206383225
-1.02201767642101626
-1.20571750667757871
-1.45781725724420008
-1.5641444190835867
-0.303001403903367272
0.526364342981114675
14.7703658859523443
-0.910684678255605951
-0.919699883790403794
-0.926263784945875579
-0.931019191964843618
-0.934890785195618745
-0.939739223309565386
-0.94882014848817775
-0.969181658785772671
-1.01710437231434492
-1.12386365350155271
-1.31901604178769394
-1.56288926002206741
-1.5144590301222336
-0.516052943930424668
0.180483935916939231
11.4674918315085606
-1.02730415374933415
-1.03538562953721636
-1.04102581853803944
-1.04468195886591553
-1.04713180426552288
-1.04997669127323001
-1.05613782948421786
-1.07281988569640707
-1.11787598443239955
-1.22186891832912892
-1.4086624986013323
-1.58860838835917217
-1.36701082989530853
-0.802236778015901209
-0.754082751658096129
8.66059949479293323
-1.14826360930421179
-1.15562298845685474
-1.16048071890458537
-1.16310606582686749
-1.16405505199110504
-1.16457306877552558
-1.16709729167486409
-1.17832998794097943
-1.21558922147362281
-1.30648414464428719
-1.46309438600824993
-1.5571206153087549
-1.24470437374944232
-1.12730676664947005
-1.59433203597781414
6.84478832406664495
-1.23458806118387843
-1.24963471611187127
-1.26201938185816309
-1.27154588942317526
-1.27833818781742914
-1.28249308962599917
-1.284082430683261
-1.28339843854651714
-1.28119056339159654
-1.27904225593348642
-1.28205250169879537
-1.30541067580012315
-1.37533561712447749
-1.48506343889433734
-1.51865706197990025
-1.22262474562846357
-1.37806338235480474
-1.87563670313153263
5.70084638483245953
-1.36039733195655543
-1.37496851105230977
-1.38690405352995594
-1.39598854227385649
-1.40226255504288799
-1.40570402117718696
-1.4062022345215186
-1.4037248131115494
-1.39841176236737219
-1.39063417743198858
-1.38363200008146281
-1.39099697148796109
-1.43532650987349486
-1.49444151195703823
-1.50917698976241299
-1.34422930394504814
-1.4965289413928673
-1.78162951734680952
4.60838259192067845
-1.45082883638964
-1.46991182669206699
-1.48657343238152895
-1.50075147799151054
-1.5122647606212769
-1.5209409561884959
-1.5267121938185817
-1.52943608950291599
-1.52882364900358381
-1.52450215839983128
-1.51593979893088493
-1.50232715913850146
-1.48549797683914475
-1.47714827276230776
-1.49229362505520613
-1.52132229425412158
-1.57426081065623036
-1.61505201740411319
-1.62777816987527046
-1.62961189011951646
3.3358913396431511
-0.72516325936751902
-0.729978570081498357
-0.732142150163384686
-0.733037269390273916
-0.73402828886863547
-0.734874652613085377
-0.741464157945877389
-0.763694214346388067
-0.825656552479565153
-0.962772387939187291
-1.19489686319523192
-1.44833810862858825
-1.42786745915922264
1.0710506071724093
4.20359027175503197
15.7178568270811496
-0.857196370129163276
-0.862012684414019903
-0.864235556771971281
-0.865145327332804248
-0.865175629127283186
-0.865674334433014114
-0.870470234361026995
-0.890954696106498911
-0.954590603685610439
-1.1064214667028982
-1.36790650886182807
-1.66938329357136883
-1.4935058577115774
1.18035863356002402
4.03643341991648086
13.2792259210934827
-0.990882579429867905
-0.995930362928703516
-0.998570218329173143
-0.999268419770356742
-0.998639970424188839
-0.997860502109023884
-1.00045835065403654
-1.01786429028939374
-1.0803670316421754
-1.23605749516424357
-1.50305132278618725
-1.75774619592272918
-1.31739027040348744
1.12961262289511932
3.58624826612046732
11.1031605255572057
-1.12369710248493493
-1.12897510617834795
-1.13160206570207311
-1.1319428475001676
-1.13030124244969188
-1.12768324591957247
-1.12685548933156388
-1.13865487053922276
-1.19395097500731651
-1.33730970487753953
-1.57043490649981199
-1.68197522773530128
-1.02202743093490245
0.7367663981840753
2.85052208197198809
9.39789545842830698
-1.22064155986749956
-1.23484130048331586
-1.24607608165477179
-1.25424846556924985
-1.25960167130588241
-1.26216568604847046
-1.26190787193751452
-1.25892128205801734
-1.25365958507617337
-1.24780540945400253
-1.25051851216414889
-1.28863579025646779
-1.40353062013201257
-1.56327912700437954
-1.53233869470764961
-0.734717155058751459
0.272687326072720282
2.11707542635402035
7.84745912311707272
-1.35012421643824476
-1.36412271410959174
-1.37527106271042188
-1.38337697531821369
-1.38856870597265236
-1.39073103624210437
-1.3895863318297379
-1.38487119665819813
-1.37625663844870405
-1.36367819036161397
-1.35365706885833292
-1.36988280021806941
-1.44086218174979597
-1.51061300110258667
-1.41680015220078115
-0.765582871275203303
-0.112865612937202542
1.4378280304133817
6.2825374603795261
-1.44349550951056305
-1.4623402738961897
-1.4787098995303054
-1.49249455897503136
-1.50345921456365939
-1.51142095911673979
-1.51631930769537293
-1.51792074926134468
-1.51575146407745764
-1.50913990435453416
-1.49685557884821474
-1.47686933198683779
-1.45288398533023977
-1.44615827241404471
-1.46611280173886604
-1.46645898381371476
-1.39942334917758782
-1.08898602421215962
-0.667531262700329364
0.719951335244747526
4.80724896575546623
-0.538907775467379446
-0.762050022498999224
-0.909065190243583121
-0.995185156116787373
-1.04111637406952884
-1.06517364191279906
-1.07804129381756364
-1.083927383730098
-1.08744828616086453
-1.0905616103874789
-1.08095674094256178
-1.13466761431707952
-0.896708307907878033
-1.0449850151326554
1.12285166572824835
-0.63636075642587131
-0.886676482560902368
-1.04052849368723876
-1.1286052743672137
-1.17239546098095326
-1.18836659122704513
-1.19733417288479238
-1.20334309846474663
-1.20842230447452526
-1.21363529834616246
-1.21643322738557647
-1.2043419042120278
-1.26935174514625815
-1.0369270182682484
-1.3196457656306062
0.254688157828610429
-0.982367794619185331
-1.14777982431462711
-1.24473166243768207
-1.29256432898057905
-1.30821987390090366
-1.31459492463888528
-1.31860467680950455
-1.32534709668224426
-1.33214291054601386
-1.33917206381545006
-1.34343698876470841
-1.33170342911890827
-1.40039244726089329
-1.1724291247488321
-1.51165038851140432
-0.326766762902394703
-1.23937018031604596
-1.34241444125833254
-1.39973673955669131
-1.42118399812886542
-1.4283129200119431
-1.43209238774425041
-1.4383273981265563
-1.44649077273097171
-1.45545973491938829
-1.46489889765884396
-1.47230326947086909
-1.46294990857067431
-1.53309609084667064
-1.31621611243990633
-1.65974759223515722
-0.494858897399026887
-0.824284760564110375
-1.15918144914481203
-1.35230039032473659
-1.43791984409258755
-1.49485304437639366
-1.52283278619943641
-1.5355165319150299
-1.54265914589414077
-1.54908847629190438
-1.55748878673671354
-1.56766371392866044
-1.57907655589075935
-1.59149734990884384
-1.60314889352325274
-1.59789363746737734
-1.66904721948170542
-1.47113763145134802
-1.82581707135214977
-0.929273179586417086
-1.14438764411638827
-1.41431307863102074
-1.56098147745002169
-1.59397042671892897
-1.61739879451109037
-1.63564142336176244
-1.64803968939549916
-1.65717098064862922
-1.66621677024203696
-1.67668117683822726
-1.68905828391707824
-1.70323072476222204
-1.71908163075983467
-1.73555135610845213
-1.73677933310033983
-1.80975450950578232
-1.63768262156885025
-2.03377724187628006
-1.60073770578661367
-1.06661944284319388
-1.41501338112012487
-1.42799882967894098
-1.57481932498733457
-1.68497475258760088
-1.71401899735050023
-1.73172240384933618
-1.7491592456595535
-1.7620076999446781
-1.77277638957175987
-1.78366364253488618
-1.79609662600921927
-1.81075708800094715
-1.82789061789628882
-1.84756409873907868
-1.86929200970405018
-1.87978575846885754
-1.95441970405345189
-1.8198686397320305
-2.28159409187284545
-1.78248659166994017
-1.04116873555108236
-1.06649331798705505
-1.08571583641818159
-1.09582645227746855
-1.09597160348284306
-1.09332994141043427
-1.09450595216654212
-1.09606596838956127
-1.09636866897164165
-1.09732878254363775
-1.08667630266182469
-1.13632223832986745
-0.877939658294420888
-0.985685073974892578
1.45336153491819253
-1.18046232623670089
-1.19744631629233234
-1.20800084515987005
-1.21255517292694526
-1.21171920030339586
-1.20843997623945687
-1.20899103823553133
-1.21130149350688998
-1.21415975384838615
-1.21721990531936086
-1.2204752038287161
-1.20657271562473389
-1.26891744499263859
-1.03519125668459444
-1.26590853742371556
0.136928238806063973
-1.31106925138797759
-1.31771563959190652
-1.321977944095722
-1.3217314386942709
-1.32116071881108543
-1.32162093093110133
-1.3240017046119914
-1.32859580374154795
-1.33405294188589507
-1.3398735143710514
-1.34479934495829689
-1.33257757269457655
-1.39983989617778537
-1.18132392600225833
-1.50167346876566699
-0.843051153962406374
-1.41702852658126455
-1.42110182958940334
-1.42524997759717409
-1.42934214384342351
-1.43148866416527909
-1.4348347254509608
-1.43998417886759555
-1.44708118264474717
-1.45525170085081346
-1.46403476689251377
-1.47187536597188529
-1.46293048819500271
-1.5332955128933492
-1.32977914593986046
-1.6708247256997133
-1.24525112095869872
-1.60193621944131936
-1.55083299477562164
-1.51965707805405725
-1.51348537158545238
-1.5210049103582266
-1.53070147998571748
-1.53750658649804217
-1.5431949518711594
-1.54924468700106965
-1.557073453929259
-1.56664134524118159
-1.57756473772302064
-1.58959871318757173
-1.60143454610284963
-1.59708963411160121
-1.6701615456566854
-1.48412302729883194
-1.83716031550943093
-1.8714867806494766
-1.70796859624148056
-1.64377216413918426
-1.61316086308233819
-1.61305764011594821
-1.62601891701303192
-1.63870264521095921
-1.64811496330857454
-1.65624391394262149
-1.66486228158397775
-1.67502132648499114
-1.68708320450519444
-1.70094242126442441
-1.71652509762200411
-1.73304491205761879
-1.73541186818350113
-1.81023876395298644
-1.64797373051856177
-2.00801603691455854
-2.27984261776632735
-1.78414184972262646
-1.85169366496241627
-1.80136326604076036
-1.73867426919678603
-1.71341141404133368
-1.72039681687769952
-1.73625709378582571
-1.75001996503191526
-1.76080435968677196
-1.7708317826814497
-1.78147179617126583
-1.79374305444042892
-1.80823376974338879
-1.82513919973035432
-1.84459722389062097
-1.8663421663276607
-1.87762325844027922
-1.95290980232888445
-1.8232772703745006
-2.1828667114468403
-1.83402075877190462
-1.03245817034890019
-1.05342873976150875
-1.06638823096870028
-1.07628457298240576
-1.08235778843231101
-1.08437999184466083
-1.08668152435285514
-1.08965588918777989
-1.09203725185388634
-1.09278147466670661
-1.09276249736586895
-1.08164642566351121
-1.13167827253446074
-0.878832092297606171
-1.19283644213381335
1.99663769577866645
-1.17145270079573915
-1.180802303474356
-1.18748905055039278
-1.19286576271448719
-1.19681420203577038
-1.19954429357440562
-1.20267801897190463
-1.20640546655844938
-1.20994691408867783
-1.21273143842302922
-1.21444108640223125
-1.20091963154758474
-1.26552496770675038
-1.02890063769292706
-1.40083975584724651
0.59498795434760865
-1.28584756652533927
-1.29288201796243563
-1.29913136172145416
-1.30486893260250647
-1.30934542951274158
-1.3132718078653125
-1.31770362247022788
-1.32311006313614477
-1.32889018974135453
-1.33448863166370368
-1.33795229467340615
-1.32625831976201103
-1.39630943077525682
-1.17122562196241065
-1.56782672566330428
-0.445289880682551598
-1.39335349892071414
-1.40108857873856119
-1.40880724508869215
-1.41554010763013216
-1.42136566559040523
-1.4269553475341954
-1.4334657902554766
-1.44114062121454012
-1.44944589694944059
-1.4580659381978327
-1.46473980875062093
-1.45596896535262199
-1.52949699187058896
-1.31972876679909423
-1.69136458794668432
-0.959231992860011928
-1.49840219358588111
-1.49284987479004805
-1.49326632327188724
-1.50030261872657289
-1.50933044906177205
-1.51852284218770084
-1.52674084822364087
-1.53415374306252872
-1.54178067397670926
-1.55043754040266779
-1.5603972418065033
-1.5713924787846707
-1.58327303778442041
-1.59422320047854926
-1.58993285812528118
-1.66497048873441189
-1.4747736048985316
-1.83222952284001495
-1.7189006200960506
-1.60861218424487551
-1.60091607427690397
-1.60046575496277965
-1.60857708977138913
-1.61917818337337738
-1.629725598381361
-1.63923381915760169
-1.6482409033750598
-1.65767865933536274
-1.66835750882484257
-1.68065575865171191
-1.69453547711522479
-1.7099773610605602
-1.72585609256953609
-1.72827180128584201
-1.80391043706636367
-1.63932119629735684
-1.98139262361008006
-1.9657010994928088
-1.66532293989694136
-1.71063796624841546
-1.71993239616387394
-1.71229654642254125
-1.71080122007934343
-1.72001469680010333
-1.7314329861701212
-1.74267628870305202
-1.75313212291167675
-1.76345412792621903
-1.77450311862376919
-1.78707818885462166
-1.80170132202821454
-1.81858523460607246
-1.83790692991553506
-1.85921160713472777
-1.87046287852820958
-1.94577722548122067
-1.81401224780558379
-2.15149093050669471
-1.54591485947440965
-1.02923143002455086
-1.03924802384930715
-1.04744245099435296
-1.05489344485721026
-1.0612610193554799
-1.06624215945515721
-1.07131927529469473
-1.07610684417524105
-1.07899458153222483
-1.07958999594588878
-1.07879365762042534
-1.06522543077929299
-1.12440880363861129
-0.860530978359342891
-1.40971623695872617
1.37021689342282826
-1.14776281052337725
-1.15544745248601566
-1.16338942425962477
-1.17088343956011687
-1.17757758267937107
-1.183067111982395
-1.1881504847289841
-1.19327550341111976
-1.19758823598089359
-1.20051691633530111
-1.20031897499542306
-1.18665608553844892
-1.25826031575366781
-1.00742258971469156
-1.49833181461038301
0.69946916960707739
-1.25962482973562317
-1.26802262277933497
-1.27680808273629287
-1.28466951717043765
-1.29159481867294512