/*--------------------------------*- C++ -*----------------------------------*\
| =========                 |                                                 |
| \\      /  F ield         | OpenFOAM: The Open Source CFD Toolbox           |
|  \\    /   O peration     | Version:  2206                                  |
|   \\  /    A nd           | Website:  www.openfoam.com                      |
|    \\/     M anipulation  |                                                 |
\*---------------------------------------------------------------------------*/
FoamFile
{
    version     2.0;
    format      ascii;
    arch        "LSB;label=32;scalar=64";
    class       volScalarField;
    location    "0.239999999999999991";
    object      p;
}
// * * * * * * * * * * * * * * * * * * * * * * * * * * * * * * * * * * * * * //

dimensions      [1 -1 -2 0 0 0 0];

internalField   nonuniform List<scalar> 
29184
(
2835.4560758540747
2834.88238513176293
2829.9090572574728
2822.13068488347062
2812.81408031236333
2801.27952284447656
2787.84351766618965
2773.05948841216014
2757.71719420487352
2742.37465253821438
2730.00943972258801
2719.90992519278871
2716.93878694378736
2709.73313525097274
2716.62625436078315
2535.2109250589192
2711.99296186971014
2711.03314521926859
2706.10149964767561
2698.3171871179652
2688.72267952543552
2677.03654063192016
2663.40725662547402
2648.32266438193983
2632.48146953607375
2616.70149987451987
2603.27396023440724
2593.08324296391493
2589.55538058527554
2585.58327058645773
2589.37540471092962
2444.75826962612427
2587.51482677140211
2585.98920028145585
2581.01034940274712
2573.16654771719459
2563.25402396848767
2551.23093032841371
2537.16002533385927
2521.45291232033696
2504.76006367957189
2487.99378466659118
2473.22267805070715
2462.30168262113557
2458.78296203709851
2458.82184819221493
2469.12007173275333
2345.17803773768946
2461.94165285717054
2459.92297437480374
2454.80264954761196
2446.79865915495293
2436.46434360051353
2423.89528258804603
2409.13770363842104
2392.5150556155013
2374.58848063264986
2356.31070921640003
2339.61556349551665
2327.18285851809651
2323.49215551042425
2327.34974220933873
2349.10612088319567
2248.27929205580222
2335.31673659312673
2332.90641934119003
2327.53074587314723
2319.22934454627693
2308.35228464680176
2295.05367769822715
2279.37139981562359
2261.52855868828328
2241.96482706231382
2221.59868616173299
2202.25142451217107
2187.41501662541259
2182.73880952344825
2189.96469273275397
2225.66267853508316
2155.60151122955767
2207.70130249642398
2204.96251447830809
2199.2497942517457
2190.51859496754287
2178.96578586672467
2164.75904827717204
2147.91467470628868
2128.54311511226479
2106.92199556991181
2083.836447030415
2060.9675387730249
2042.5608308564324
2035.45347417749531
2044.92453620663218
2095.28862777849645
2061.38903136842509
2079.16435961208208
2076.13815087017792
2070.02316597712525
2060.73158930227873
2048.36020497237178
2033.07052202765271
2014.83330290839467
1993.62635758700253
1969.51080275654931
1943.00685250513743
1915.57638284326549
1892.07354373591397
1880.27193079758558
1890.34561053984248
1956.46233237373917
1960.11784106919822
1949.78473262194166
1946.49719052757814
1939.92109330000949
1929.94366436026348
1916.60920556998371
1900.06798047462735
1880.21827170844927
1856.88049706832635
1829.82490239407116
1799.14580665836093
1765.93227543859552
1735.33624503516648
1715.32924909971189
1722.44046069783803
1804.47566508240129
1846.6204008650991
1819.65191573441984
1816.12446073232172
1809.03147438103179
1798.2471663754111
1783.80823112410235
1765.85744523643507
1744.19371905478079
1718.45368587795201
1688.02176364206525
1652.36804515590688
1611.9851702153062
1571.75435477574683
1538.14707319844319
1536.34236767709103
1629.084242343092
1711.70172254059344
1688.85413007898228
1685.11004301589264
1677.44851489199573
1665.74416363809496
1650.06932475453368
1630.56877607168212
1606.91387850306
1578.53371775170694
1544.30754637193036
1502.84514685553108
1453.78400625963332
1400.64973774246596
1345.84594758390926
1328.09498248796376
1421.3676994098314
1545.94976185694213
1557.48179139798708
1553.52995093731511
1545.24089659836022
1532.52258385506434
1515.50707023072005
1494.34939320431067
1468.55678764827189
1437.34695831548879
1398.95200361699835
1350.81964614757931
1291.47917667744696
1221.26631892963997
1135.41420699296168
1092.88134973092906
1178.03267748202325
1333.41653911139065
1425.7103005661495
1421.52223466840292
1412.51074008178011
1398.7164849979481
1380.29894302306957
1357.42632875600384
1329.39906204484487
1295.29007281133249
1252.50493205472321
1196.95512340256755
1126.02785700036156
1034.1523922633628
906.101565017606845
830.883386309571961
901.252458334349512
1073.51055003080774
1293.88514107663264
1289.46015633738989
1279.58018830190144
1264.66728970435224
1244.80337639676418
1220.19871050942083
1189.94102308629135
1153.12869082551538
1105.97984552539447
1042.77226205152601
960.525301780849759
842.944342659565564
662.598517873972014
557.930641887247248
617.083918190278155
808.528548785813882
1162.25839406911155
1157.73172579924426
1146.86634734894119
1130.77329018260389
1109.42558254850451
1083.09575601697907
1050.76569158512007
1011.72004693960162
960.20507371431836
889.935100191981519
798.84757211659803
651.671527607220014
421.681330871277169
317.393018354856622
389.965114201455208
580.799101491136753
1030.22108968402085
1025.87254776301484
1014.1141918969256
996.859769211797584
974.250132353086656
946.273295918424537
912.081491634675785
871.143314555216193
814.747470059213811
738.569850796433457
640.388437941983739
459.538733266903137
219.581430604180127
164.103887527230626
230.753827334318828
385.997582918110311
896.661324273481341
892.880844243900128
880.597917938784803
862.518068867050033
839.365906646555686
809.970420032141874
773.979611882751442
731.008296719811824
669.579566995259938
589.286700183639823
482.659989236969068
275.015302322067328
92.7627329196724872
85.1366360826924193
129.364086481410709
229.817927692306057
2837.3446354786106
2836.97037199525994
2832.52463425478481
2825.65980599089016
2817.74165398827881
2808.33605062058086
2798.05619992761558
2787.92525810631287
2779.36633726290347
2774.22649487315493
2776.47145672013676
2788.99834380024868
2818.69945481669265
2868.38798155980021
2936.6362495512044
2993.93540653364335
2713.88070935685801
2713.12787762173593
2708.71497979796413
2701.8343513042546
2693.64076501686759
2684.07502425504117
2673.58815026852562
2663.12989935634005
2654.06750899396502
2648.37401897090876
2649.69904599403071
2662.01147240055434
2691.52706576647506
2743.19992980040433
2813.31569318340689
2893.24817693857403
2589.4044711200504
2588.09454255765741
2583.6240372870634
2576.67162852448291
2568.15508971631471
2558.23976748472842
2547.29207685248457
2536.18403539092151
2526.24011265496574
2519.50467689546485
2519.53491613550341
2531.1350719773809
2560.75441685395481
2615.87705388978566
2691.47922254722835
2783.24658459370903
2463.83930231534123
2462.04070294494932
2457.41446140177504
2450.28643414451926
2441.33788054309434
2430.8601266892324
2419.20055313716421
2407.13932745409284
2395.91085288610702
2387.60640350114318
2385.71611060480109
2395.88341005223174
2425.39450385403097
2484.06222169752436
2569.0883789087211
2672.28155327011882
2337.22955927173098
2335.03797567608535
2330.13691963425163
2322.6946247099786
2313.18938988349282
2301.96042993236733
2289.34502628269456
2276.01461667491276
2263.07289618537243
2252.60589216067319
2248.03795712165174
2255.9077971441252
2284.56842162110252
2346.40553182463873
2443.49827711201669
2561.83234644637514
2209.63701845186097
2207.11022878932727
2201.84503117456779
2193.95545282830153
2183.75714444851201
2171.59205389009821
2157.7785136773241
2142.85542294751758
2127.74525698323396
2114.45023677200061
2106.29781605052767
2110.72929486766179
2137.15677589727147
2201.18610168933446
2310.72895703904032
2446.22200317350871
2081.13189892384344
2078.30449548789738
2072.60025836195291
2064.13401320344246
2053.09598173276845
2039.81231720282312
2024.56679827851622
2007.72312130657542
1989.95699952896348
1973.08048423674745
1960.25590899768349
1959.72927751205202
1981.77030018302503
2046.48020016408145
2168.42378188384509
2320.90167478154126
1951.79570860838794
1948.6851275141014
1942.47088812016909
1933.30594163111414
1921.27767431921416
1906.69749992085872
1889.80013105461694
1870.70734223073987
1849.7662169034445
1828.475584279131
1809.69572701576158
1802.17737777490902
1816.41262837927343
1878.50117793605182
2012.39257668799632
2185.74904629727052
1821.72071374579264
1818.34024640203847
1811.54411487179755
1801.56438612858483
1788.39333471428995
1772.34721056979333
1753.59973675026072
1731.93051210451927
1707.27534008228258
1680.68509485310688
1654.50457833670771
1637.32542312548594
1638.47288111438183
1691.85412693129592
1832.79141721869109
2030.94483497433339
1690.9970866468268
1687.36223530721645
1679.91615549674179
1669.01468471962153
1654.54880233055133
1636.88221182375059
1616.11160455215486
1591.53268215831781
1562.61699801060081
1529.8290748207628
1494.70634643512381
1464.33245590992124
1444.88418879967912
1481.62670433166591
1621.54742503845796
1845.91025330076923
1559.71468632203846
1555.82096626007456
1547.65870374916608
1535.74982595491565
1519.85161874904588
1500.43769008984009
1477.49334961893805
1449.66932506482294
1415.99568079701112
1376.14656869064424
1330.41137095863974
1282.23328412278647
1232.34708129126079
1243.35821419544436
1374.61288429057436
1622.12676587391888
1428.04409469608527
1423.85306340433317
1414.87469224538859
1401.89734802707994
1384.46504337398596
1363.21452362916193
1337.98429132572642
1306.66077598574657
1267.93442710961767
1220.35409399468199
1162.44514389832602
1091.2718655580511
998.531049002807094
973.754254022858049
1090.4782438463169
1346.46180056890921
1296.34225416081267
1291.86384143886744
1281.89949964375137
1267.77200776427458
1248.71028328263014
1225.5523223903117
1198.04523048846909
1163.20560443626664
1119.4465646464389
1064.04684741442475
993.786976805072982
894.772270447238043
746.101401586136262
681.863004081783401
775.539475081485307
1028.33986420916335
1164.89202196139649
1160.30094956106723
1149.19425451738812
1133.78509310941126
1112.92126691951944
1087.82864799460435
1058.24593593382451
1020.06861490177539
971.441775226965092
909.08934910486505
828.563628845683752
696.69987972602371
487.991516719813035
407.091388269175468
493.626063626178279
736.58428572863977
1033.05168030750497
1028.66977132183865
1016.57854328929784
999.918250274154389
977.101474398387154
950.351339188042175
918.783077891501989
877.21110424790686
823.978445707963374
756.084030553488674
666.472189794779524
496.142003846232228
262.72660912843287
214.629951167494994
293.557193900640925
502.527355665618416
899.51509365255788
895.743522870969173
883.298050276830509
865.853358732612151
841.417567885651579
813.709697540903107
779.581370857905085
734.455299836298764
677.852516141274236
605.656947205829056
504.123882302260654
301.717980924219091
119.539220131895604
112.813108166265224
170.129256331322154
308.787836106922214
2839.15148323521043
2838.9700927259305
2835.01810760547687
2829.00088465451427
2822.37245008917671
2814.91627658454854
2807.49956466464482
2801.53456184345123
2798.95175141662685
2802.50041225798532
2816.75501772981261
2846.56777354779751
2899.15161739729774
2980.99690842230075
3090.75009399638247
3215.32351356011941
2715.68468075554119
2715.13294570490734
2711.20708664655649
2705.16605529945627
2698.26422111449892
2690.63871856979131
2682.99960168766665
2676.68201269417386
2673.58863853888533
2676.52702493221341
2689.99160601581661
2719.53756846292481
2772.21917528177164
2855.74451772846396
2968.51677299266885
3115.95267275337255
2591.20635840753357
2590.10651326983225
2586.11790660136012
2579.99567866810048
2572.76530812637884
2564.77555305293663
2556.65134384274734
2549.65115205547545
2545.6490490690785
2547.51428847445004
2559.74387387468187
2588.58341744578456
2641.48740064100048
2728.20256330788925
2845.61197460275343
3006.70602771106905
2465.64116450684833
2464.05797930566405
2459.90933544520703
2453.59962145851114
2445.92594568124287
2437.35395922157068
2428.4823945475996
2420.4797963782803
2415.14678033822975
2415.40768430931348
2425.7443861724405
2453.21011687149166
2506.09179796707576
2596.16623276736573
2721.0116844904137
2892.33305428891936
2339.03184251435869
2337.05709661669698
2332.63109496520701
2325.99353312748462
2317.74775126821805
2308.39866646330574
2298.52169528472723
2289.18159340213242
2282.06887050683872
2280.12162687053842
2287.78745579265615
2313.05046960637401
2365.16067099880456
2458.39346478230937
2592.77328550955008
2775.48219236174327
2211.43753079242379
2209.12730200773558
2204.33640187112769
2197.23522346197615
2188.2782652943547
2177.9607130340969
2166.81763918244633
2155.79290431750496
2146.42352561287089
2141.58656253935987
2145.64742449622509
2167.58185054342084
2217.63448566810484
2313.09482175320363
2457.21859797791421
2652.56103201484984
2082.92622288333041
2080.31515446689627
2075.08656449653927
2067.38857342051642
2057.57374395258512
2046.09828004542987
2033.42980537871972
2020.36505059125511
2008.23209798867356
1999.73070765206421
1999.05085494820037
2016.14150485567188
2062.10526300525362
2158.42190539362673
2311.8089309573088
2521.37029082644585
1953.57863896240292
1950.68562489657211
1944.94989768103596
1936.52798083963694
1925.70830007392146
1912.88807397587971
1898.438979551496
1882.97890834391865
1867.55374301021084
1854.52373363785455
1847.74231969842504
1857.92334080470891
1896.55605774401488
1990.74160586632479
2153.11057658644631
2387.27351455555254
1823.48666796012481
1820.33141487315584
1814.01463008753512
1804.7458799908743
1792.77659067561626
1778.42878714732979
1761.95515505327626
1743.75914725172606
1724.50782276397399
1706.00455342651094
1691.54634045480861
1692.07988245877095
1718.40363290789264
1804.72523857785563
1973.06045784256162
2230.7057696876609
1692.74182873191216
1689.35557153817604
1682.38058899804059
1672.15017017407854
1658.89144694512311
1642.84014999385545
1624.11887407154586
1602.8737034120893
1579.26236927399532
1554.26444493660347
1530.3855561780872
1517.70222136768052
1524.36984986887774
1594.82073649888434
1762.23470102469355
2037.12834317602528
1561.43888699932245
1557.84267769231815
1550.12237359330265
1538.83701326900518
1524.16515080938393
1506.25482814569159
1485.0955053366481
1460.5287833940688
1432.04608051810101
1399.47828551896941
1364.25225605614696
1333.76247797198357
1310.86935862870496
1355.64454330323156
1515.15188867252459
1807.87290391372494
1429.75626191139463
1425.93812841973977
1417.33740889832688
1404.92316640286549
1388.74685207707694
1368.87206282297598
1345.14384896591764
1317.08290219026981
1283.34928072434741
1242.22514832598472
1193.81563778137684
1140.18873328605559
1074.58772262199409
1083.44249634313155
1228.08778485624725
1533.96432577820906
1298.05669721708591
1294.06192932694103
1284.35233308706938
1270.70392278279587
1252.959955131779
1231.07663665371683
1204.76012553761871
1173.25472874310049
1134.12352355623057
1083.90695786433025
1021.76200279368095
939.811487233496791
816.634097660518819
782.984642831837164
906.756401934259429
1210.96901685061198
1166.64824984092343
1162.71586283683632
1151.60621933666312
1136.60423283519913
1117.2637363073593
1093.34831228133407
1064.56448684536531
1029.8982577705242
985.246053799598485
926.245333996607314
852.275437005709136
737.089638297245529
549.061248478665902
484.612365004156345
582.967364264327898
878.183396013067295
1034.92833644459233
1031.43137859346098
1018.86877988039146
1002.63006305519548
981.792346048654508
955.83423079515228
924.756595823926546
887.112546714239443
836.544670612004666
769.90155798626347
686.363478289431669
533.522062326877176
309.398885836184036
258.001792899996758
341.579774848247496
590.090983931050459
901.51120900381602
898.783643057341123
885.440257584288929
868.41033495083002
846.341202649194202
818.509592520488241
785.270653876320011
744.452514859127405
688.169514416868196
615.788170992700998
521.93105628145463
338.089055977696262
155.968393551369388
138.230434498018553
201.932592721625809
366.24240858713938
2840.81951626866976
2840.80969142924823
2837.29324125170751
2832.02049505963532
2826.51902802529594
2820.75879465531352
2815.81249369144689
2813.38636085903727
2815.78592212908006
2826.27877831111073
2849.83693147793474
2892.01209178159752
2959.30033235865221
3057.81868799978838
3182.22902206526624
3308.54522883398204
2717.3553747140063
2716.98280151048903
2713.48406098137457
2708.17841850397735
2702.40518531289763
2696.4676951711549
2691.28679316278385
2688.49180688718889
2690.37293787480303
2700.24465121667072
2723.07493549181891
2764.97189301823255
2832.52865269391668
2932.66515376819189
3059.99203134729896
3208.39191095063779
2592.88593991624384
2591.97403036270134
2588.4031549712181
2583.00511161177337
2576.89749600532605
2570.58297742540299
2564.89851211792347
2561.39809710972258
2562.3503204425283
2571.13249310399578
2592.76193283085786
2633.96566165375543
2701.8179110774181
2804.90032029185431
2936.07744498512648
3098.19396476591055
2467.33971827572395
2465.94865519994482
2462.20569315427383
2456.60587484754888
2450.04369107868342
2443.12978178539333
2436.67180845228268
2432.13385446212897
2431.71820299689989
2438.86507221345391
2458.62452050726688
2498.51045263642845
2566.40573973727987
2672.67466168210376
2810.08594088049858
2981.54807660617098
2340.76140776793909
2338.97646618060662
2334.94073366620069
2328.9970384127555
2321.84730893758888
2314.1335908607316
2306.6351389741526
2300.71035947100518
2298.45632138180281
2303.34208415351986
2320.44075750478487
2358.20206156411405
2425.43054595005788
2534.76733483409407
2680.53819894854951
2861.65309610125678
2213.21193071516927
2211.08168365043548
2206.661286950256
2200.23678715034566
2192.35648994180292
2183.64509324759092
2174.83551321664072
2167.1591988227392
2162.55892114752533
2164.4713778863329
2177.95517755776655
2212.47528709229937
2277.83177388844115
2389.40742412370491
2543.77101869533908
2736.74844765778425
2084.76127373357031
2082.31095070234232
2077.42928230512734
2070.39062345663842
2061.62863148339056
2051.72258637610457
2041.33176333843335
2031.52566914484078
2024.0297109318949
2022.15262122202876
2030.8552011898787
2060.62443880019327
2122.18309369841563
2234.91471272507306
2396.40917490832544
2607.84883975337971
1955.49154289180979
1952.72783885930312
1947.31475278333801
1939.53541611882065
1929.73903299496214
1918.44311822046393
1906.20430864637865
1893.88159152279195
1882.90341847008062
1876.31918448224133
1878.84512738173316
1901.78899822331732
1956.56177821231267
2067.95119694183359
2236.43327889343618
2472.56851964892439
1825.49620431884068
1822.41953809708843
1816.40800761564878
1807.76604287656255
1796.78354877759466
1783.90634843165776
1769.56317180633596
1754.33811863587994
1739.26833210599125
1726.97515198805263
1721.71081717252991
1735.0611625241163
1778.47935944664664
1883.08898821204139
2057.42888161219753
2307.93473430604263
1694.86747896410566
1691.48092410644813
1684.81273724184916
1675.19313272360023
1662.87688711001738
1648.23339166213259
1631.54877700506268
1613.04737659535704
1593.26481435756227
1574.19987521896564
1559.33925364203583
1559.54835919386414
1584.61330292635648
1674.82231688140882
1849.76352171685448
2110.55114611479621
1563.70147803163741
1559.98845165868647
1552.61260891789675
1541.91648941648077
1528.13441302864044
1511.55652159735132
1492.32292216798487
1470.19871252358325
1445.11018101496552
1418.18912843349881
1391.735815138117
1374.31539281287678
1371.67219200605291
1438.15621856258826
1606.69065144475258
1887.34960713172381
1432.18262552117858
1428.07424842677983
1419.91391847103
1408.05203833321457
1392.70592034181777
1374.06931996231674
1352.13569346878649
1326.12733279207373
1295.29317864368841
1259.56691104526226
1219.55839380432485
1179.19452974408887
1136.36776017783063
1169.67183707038498
1325.01320091071079
1625.85153542127705
1300.68193987569566
1296.12653747773675
1287.04336192767641
1273.89017160667527
1256.91115191862946
1236.15094128914393
1211.49113988784507
1181.54186861307358
1144.77237191415179
1099.78253453263142
1045.34787773312883
976.429474568524483
877.757377466817616
868.190190459182304
1005.09719060521252
1310.34046546693003
1169.49050526524411
1164.61046351145092
1154.47687525275364
1139.87691848655913
1121.20863864370244
1098.28850565829362
1071.05122977607084
1037.34648459643199
994.49518002681566
940.574226790336979
873.12656159022913
770.22762898132828
604.819717950851782
555.820060559208514
670.145930656025712
964.360069480303991
1037.91586837909722
1033.02887738665481
1022.04732043120407
1006.02741644424691
985.725137443859694
960.644804528863233
930.988887617455021
893.656645917513288
844.419274857829123
782.51329964949673
704.115469104407566
563.863660882472686
353.068205576536457
296.773014761148715
393.839032394993751
650.820642611044605
904.450400330535103
900.087670145715947
888.862215955808097
871.812870893564195
850.200847246099784
823.202241304227982
791.033330630409864
749.820446110431703
694.67517486372094
626.418550045340226
536.844573067548026
365.78690832822258
187.575018916351269
161.313972287766859
229.192244764271948
401.389468465555638
2842.27650213317611
2842.39269865693086
2839.23965034770436
2834.58280772650187
2830.00989325915043
2825.63877960090076
2822.69988526351244
2823.10374509650774
2829.40608530463305
2845.16498908506355
2875.45886707878026
2925.95487356174363
3002.20992435561175
3109.7575323402034
3237.26391149147639
3363.19387788821632
2718.81238092493732
2718.57247446399197
2715.43327003156764
2710.73892488658294
2705.89434284590425
2701.33872397041023
2698.15606668596229
2698.18472464719889
2703.97355034624707
2719.12552466452325
2748.7736148151962
2799.02698960660791
2875.68149290491738
2984.2225895421584
3115.87512997440399
3262.83168114330192
2594.34334398835517
2593.57435733484363
2590.36036741542102
2585.56560204202333
2580.37953933519975
2575.43480409123822
2571.73387809814585
2571.04300119111622
2575.89592367721252
2589.96389634588058
2618.45191962177341
2668.05169083872715
2745.07459172727204
2856.33737656563881
2991.5326320887616
3153.24794410858203
2468.79817315953142
2467.56068103770758
2464.17339811558213
2459.16528354421416
2453.51167907698527
2447.95102758426901
2443.45525128506324
2441.7035445944789
2445.17161563283253
2457.60116547701045
2484.25256774818899
2532.60341272232381
2609.74503277602025
2724.1813242884341
2864.94250687932845
3036.61887268225382
2342.21826619184094
2340.600129049119
2336.92119304238759
2331.55384726913326
2325.29373367327753
2318.91133584154159
2313.34672695458767
2310.17581077750765
2311.77839360446796
2321.93319907549267
2345.95593411386471
2392.26790982782768
2468.83558728719299
2586.37567882532221
2735.36969104641366
2916.60935901423272
2214.65971309095448
2212.71773813882419
2208.65644867701712
2202.78698454268533
2195.77085154728547
2188.36337984077363
2181.45246964651324
2176.48841328458002
2175.70703814671288
2182.85978850577703
2203.30230869576098
2246.48292233416032
2321.28093713365615
2441.06672964192785
2598.34337583432171
2792.80127265687361
2086.18694178915257
2083.9624958677723
2079.44025486534883
2072.9263062896066
2064.99598680606869
2056.36166907543884
2047.82841363409943
2040.68443959440265
2036.95801993741134
2040.26830318686143
2055.97272488807675
2094.53188750717163
2165.75954015282105
2286.88754853785576
2450.12320465531502
2664.32908803731698
1956.87583282019432
1954.40305131128139
1949.34024746883279
1942.04282174757191
1933.03799927932846
1922.97875546623482
1912.5526245502499
1902.83540657926551
1895.56090626537525
1894.07166303962504
1903.66403738252893
1935.52840635713437
2000.28250090491792
2120.71643481900264
2290.21219783688412
2527.8391742297963
1826.81135593379827
1824.13419232520323
1818.43943914293686
1810.22125102677091
1799.98292920791164
1788.31027843330958
1775.73526924313251
1763.05397383166701
1751.591252099955
1744.24795198433503
1746.14793327435541
1768.49891731602406
1822.59714621647777
1937.43787468771302
2113.90920093262957
2365.30383017052918
1696.07552400129134
1693.26243396659925
1686.82704226444525
1677.55642610581731
1665.93279864436113
1652.47783137944225
1637.52208844492361
1621.49180558362332
1605.16702620104888
1590.85367418641704
1583.28426657619752
1592.46734111152796
1629.08948097374696
1731.55286344571414
1910.56153562076042
2173.64527410587834
1564.76958739007296
1561.88163840543098
1554.57210092703394
1544.13827183872809
1531.00006749194154
1515.62652359242065
1498.08462378049717
1478.33237610489891
1456.48411463506477
1434.07184304885504
1415.05398937600671
1406.31805545960106
1416.18665102916088
1497.2954483923304
1671.61558296871112
1955.50620590757921
1433.10677399052543
1430.12754923284365
1421.77181318165299
1410.0883514251625
1395.348657666294
1377.97041889434627
1357.67473196652486
1333.89866577826001
1306.01545828493158
1274.51054100908755
1242.07008347040846
1209.39555116765268
1180.20578249381902
1230.86174289317069
1394.36914607070162
1701.44416357132991
1301.44996031037795
1298.35376705749559
1288.71505110534349
1275.66552322947882
1259.279978147272
1239.88399653818783
1216.77315349094897
1188.86565841329821
1154.67419985977676
1113.57216176147131
1066.79209851399378
1003.12723239098113
919.416827554946849
928.837112901093633
1078.68981853945479
1394.89262745586689
1170.01770047634864
1166.99963182666784
1155.78410148398575
1141.2035248625059
1123.16755476959293
1101.83573897979295
1076.01063746060254
1044.0654414673902
1003.33751262023679
953.087795574384018
893.214874625992479
791.063583297870082
639.781185486503546
603.495059413642593
739.963777334872248
1049.6834952749166
1038.10502406908699
1035.63496068191671
1022.80509856673621
1006.78408298366867
987.16122129158407
964.162648986850627
935.582690025982856
899.618360742968889
852.118447366777445
794.358113253822467
722.445588020312471
576.612974499377742
376.846159383208487
326.241830273563323
439.250518617536045
722.702363490913967
904.528545919124099
902.931928062974521
889.225964529754492
872.533493471643169
851.515144193414926
827.118820561871189
795.269078853429846
755.161401046107358
701.70047640989651
639.030768558241789
552.126225939665346
369.591765655477047
195.04301446933664
179.642144896557767
256.265806241214818
449.518500238847082
2843.47262991462139
2843.66159102081929
2840.78520248734867
2836.59607108378441
2832.7239141239761
2829.40294048763508
2827.97552949566489
2830.48669746291398
2839.6567952431169
2859.16459327836856
2894.18386165828269
2950.01011047339625
3031.92486254934329
3143.1965711293733
3271.15678942498243
3390.54542387051015
2720.01581017216267
2719.85347804742514
2716.98313474890938
2712.7509657534938
2708.60804326471771
2705.09858483750168
2703.42212930085543
2705.5560172128703
2714.21386869637581
2733.13788678316905
2767.51486261400032
2823.17219356209671
2905.3333335605821
3017.6638112531673
3150.22910142425735
3291.04173020533335
2595.56520920251205
2594.87781449550221
2591.92144669544905
2587.57758831038336
2583.08697552196645
2579.17993704002129
2576.97500638783231
2578.37968679837422
2586.09698495296334
2603.9470388577015
2637.17994162853847
2692.22279388101606
2774.7583599856207
2889.83379605991104
3026.01254841211676
3182.39975507820509
2470.05336590125853
2468.89607334777156
2465.74971181734873
2461.17571504524813
2456.20672034609061
2451.67259718369814
2448.65786859225773
2448.98419238267843
2455.30533457425963
2471.52312436651391
2502.94096230960031
2556.77477613424116
2639.524119322567
2757.45668886059639
2898.99354028426433
3065.86310065848693
2343.52545421413743
2341.97787702265578
2338.51612826436758
2333.56120379802633
2327.97136896555321
2322.60184441078081
2318.49843922136233
2317.37858779967064
2321.81542342982584
2335.76244696862796
2364.57420398255317
2416.41460352601644
2498.60351540547799
2619.64285161958287
2768.78834630727397
2945.00120214880053
2216.04224436096865
2214.14819921718754
2210.27229364528966
2204.78873353204926
2198.42664803413845
2192.01738922779259
2186.54254908120856
2183.58963298316849
2185.61429217938485
2196.56144753074977
2221.81397068944489
2270.57775798155853
2350.98656190801512
2474.4562650269836
2631.03345293837128
2820.00562578068093
2087.67329215885457
2085.45292195424872
2081.07826139559256
2074.91939512769477
2067.62751190662448
2059.97789987724627
2052.84872515349207
2047.65656780799645
2046.69722264409847
2053.80232735026175
2074.32787769153765
2118.53857795158638
2195.55534468113956
2320.32848191382118
2481.97149166605323
2687.91023932569396
1958.49960426737425
1955.95340304646629
1951.00150345317297
1944.02416643781771
1935.64658932145721
1926.56223647376237
1917.49725922207745
1909.64294107873502
1905.08789215485717
1907.39045507156652
1921.78095250150545
1959.38428325963469
2030.28738244056467
2154.72971706727185
2321.45416425278199
2546.60890555005972
1828.61268344820837
1825.73098796960744
1820.12788144278625
1812.18793075702615
1802.57655602090699
1791.87478073356601
1780.5976110342549
1769.64773501990794
1760.85802261238518
1757.28958197122415
1763.88653385142857
1792.07149736804513
1852.85165670082324
1972.80458906040622
2146.571207524285
2387.43250642643989
1698.10102288247322
1694.86991387158059
1688.55482086785037
1679.50607401057687
1668.5302826909317
1656.04710173823014
1642.28941093214621
1627.80726416132029
1614.12785727369123
1603.52928744999986
1600.41029797753276
1615.48943849033617
1659.53853717200673
1768.46187725243885
1946.32301679889929
2203.32021686638291
1567.05424759524112
1563.43845066961921
1556.36537001111947
1546.07208964785491
1533.63420240725895
1519.2298838163731
1502.73425578638103
1484.30180004916565
1465.10700986077336
1446.24418043115929
1431.19666233809426
1428.38528181682
1446.28004102676391
1533.83561434759849
1710.2440906195036
1985.34095809639257
1435.65483830934659
1431.57533418700814
1423.67401872146684
1412.01591881241052
1398.06464292896089