/*--------------------------------*- C++ -*----------------------------------*\
| =========                 |                                                 |
| \\      /  F ield         | OpenFOAM: The Open Source CFD Toolbox           |
|  \\    /   O peration     | Version:  2206                                  |
|   \\  /    A nd           | Website:  www.openfoam.com                      |
|    \\/     M anipulation  |                                                 |
\*---------------------------------------------------------------------------*/
FoamFile
{
    version     2.0;
    format      ascii;
    arch        "LSB;label=32;scalar=64";
    class       volVectorField;
    location    "0.450000000000000178";
    object      faceForces;
}
// * * * * * * * * * * * * * * * * * * * * * * * * * * * * * * * * * * * * * //

dimensions      [1 1 -2 0 0 0 0];

internalField   uniform (0 0 0);

boundaryField
{
    inlet
    {
        type            calculated;
        value           nonuniform List<vector> 0();
    }
    outlet
    {
        type            calculated;
        value           uniform (0 0 0);
    }
    top
    {
        type            calculated;
        value           nonuniform List<vector> 0();
    }
    bottom
    {
        type            calculated;
        value           uniform (0 0 0);
    }
    left
    {
        type            calculated;
        value           uniform (0 0 0);
    }
    symmetry
    {
        type            symmetryPlane;
    }
    interface
    {
        type            calculated;
        value           nonuniform List<vector> 
104
(
(-0.00678979027085876898 3.85327880991395503e-06 5.27673003652927248e-07)
(-0.000498952095991759452 -8.20567071120241844e-07 4.33313173417228501e-07)
(-2.10274136784101718e-05 -6.6499061703878124e-09 1.52576444358410664e-09)
(-8.50637985725099805e-05 -1.78912291054218076e-09 4.96021449628846702e-10)
(-0.000140456910128524992 -2.18162865396254671e-08 -5.11816029259831067e-09)
(-0.000139407663979273339 -7.23905001379249612e-09 -1.62029099446318293e-08)
(-0.000125273618952107712 -3.77629839291506672e-09 -1.2396895799099465e-08)
(-9.97994508561042386e-05 -3.65781024354549963e-09 -1.17437737142975239e-08)
(-6.85595583141222076e-05 -3.38363185990302366e-09 -1.17354935823320779e-08)
(-3.61492377505977827e-05 -3.32204750326013898e-09 -1.22991341596343599e-08)
(-5.33053067417990316e-06 -3.48812759906982102e-09 -1.23510668403789695e-08)
(2.40988204285291283e-05 -3.7077484028171059e-09 -1.19228124557327745e-08)
(5.22058269938992838e-05 -3.87188384606746845e-09 -1.16045231652427298e-08)
(-0.00162195368284725311 -6.29579656594590844e-07 6.71335234509834158e-07)
(-0.000272157475641988228 -6.66461094174167743e-09 -1.79284374918211944e-08)
(-0.00024175523389093214 -1.02593159341705751e-09 -2.74334922125003994e-08)
(-0.00023228166634386326 -3.37706546797022666e-09 -2.20846867218408338e-08)
(-0.000202704920231306171 -1.50363164766858794e-09 -1.4652138901903737e-08)
(-0.000167184390037317809 -3.01079993186839864e-09 -9.47987895774559003e-09)
(-0.000135302597531660937 -3.50917823721963554e-09 -9.35422999152555889e-09)
(-0.000104637129211585788 -3.15953384629460281e-09 -9.09570896562220077e-09)
(-7.38480696193232204e-05 -2.98846817017831908e-09 -8.77637624212056895e-09)
(-4.32900226808649518e-05 -2.9057695424648696e-09 -8.50270289429718329e-09)
(-1.33506301363217257e-05 -2.86137465202693769e-09 -8.24508689543216799e-09)
(1.57416117041150926e-05 -2.78418667048094755e-09 -8.02908301885646743e-09)
(4.37536996537591155e-05 -2.83626229086017142e-09 -7.75189255749166912e-09)
(-0.000360809952771821204 -3.99158244008883309e-09 2.59836533658564079e-08)
(-0.000260945299192373624 6.61467572459364301e-09 -1.00027710716029228e-08)
(-0.000246194302792863951 -1.91591893733965105e-09 -8.84496599887040203e-09)
(-0.000223460601116990174 -3.36264043393088752e-09 -7.51342325440502555e-09)
(-0.00019805065291151846 -3.48613750140757452e-09 -8.72074790808013334e-09)
(-0.000169486494840003334 -2.78018140262343541e-09 -9.0674495545996135e-09)
(-0.000139443829736638527 -2.47328749653946993e-09 -8.65670246046274251e-09)
(-0.000108941610986227906 -2.37288862318192695e-09 -8.33758947314940278e-09)
(-7.83619901353626333e-05 -2.30120456282239518e-09 -8.00188148606801505e-09)
(-4.79568837426002783e-05 -2.24395008350184372e-09 -7.68928522987258904e-09)
(-1.80427530479879037e-05 -2.22478080775365325e-09 -7.38739091691681789e-09)
(1.10985646784613737e-05 -2.179532249963538e-09 -7.06864886460686401e-09)
(3.9150454906164146e-05 -2.27115152301648007e-09 -6.75862414126184149e-09)
(-0.000391205406255747405 -1.08988567051750135e-08 7.12942946364677803e-08)
(-0.000277338025964904834 7.48112095741819606e-09 -2.67148281530292614e-09)
(-0.000257756822151122887 8.17124662542174429e-10 -9.97708251218055258e-09)
(-0.000232772377904782323 -1.09898574396519862e-09 -9.55608545363857688e-09)
(-0.000204620915971716013 -1.46794730387190822e-09 -8.33983819737336103e-09)
(-0.000174750308070888534 -1.54467680284386814e-09 -7.29453368054962666e-09)
(-0.000144189451083217977 -1.60036558834071491e-09 -6.69713893815502341e-09)
(-0.00011312565744846638 -1.57890712478535924e-09 -6.22219881250609892e-09)
(-8.19921982426638317e-05 -1.56672395426248833e-09 -5.84189330434350161e-09)
(-5.11068043947850086e-05 -1.57957687056687138e-09 -5.50603822576523967e-09)
(-2.07755458100685355e-05 -1.6285840975683587e-09 -5.20443011059044758e-09)
(8.64280208959521844e-06 -1.61973398938670672e-09 -4.93866654461130791e-09)
(3.6774767697405677e-05 -1.76686337155555156e-09 -4.70712586430081291e-09)
(-0.000496475865392035937 -1.20876628633158341e-08 6.69424324274575693e-08)
(-0.000322413503738082732 1.41100625675157492e-08 1.05621851205693084e-08)
(-0.00026795774484501681 4.88235818703212444e-09 -5.3850730432896793e-09)
(-0.000241882536344931859 1.08908796273861202e-09 -7.43688816560153602e-09)
(-0.000213248328421029144 -1.94609507306101798e-10 -7.18303950322589509e-09)
(-0.0001821335491014934 -5.22439096081287507e-10 -6.65651957757095009e-09)
(-0.000150194107881800856 -5.82712745526912265e-10 -6.13067841524115566e-09)
(-0.000118011951423090559 -7.1985184602913831e-10 -5.6356854524839661e-09)
(-8.59576303202605761e-05 -8.24916879885020798e-10 -5.21090039432067799e-09)
(-5.43239600129548413e-05 -9.10313507039380024e-10 -4.8426363889920953e-09)
(-2.33647011731106064e-05 -1.01921923940342602e-09 -4.51702680298801571e-09)
(6.69728533411954237e-06 -1.06332911529073535e-09 -4.21920904955710771e-09)
(3.5389573065160439e-05 -1.23774522538333733e-09 -3.94492095488722744e-09)
(-0.000470562884242208045 -6.73998130739040866e-11 2.08065669906628116e-08)
(-0.000370319002327065979 1.35299946001888132e-08 9.06022196480685408e-09)
(-0.000301155154875562244 7.30553298360446076e-09 -3.90389242723054442e-09)
(-0.000260733058548100964 3.41078112283117176e-09 -6.43134363538665607e-09)
(-0.000226749706397220551 1.7008306708853952e-09 -6.13614869106767418e-09)
(-0.000192283202304488905 8.74585763097538079e-10 -5.30247547886490037e-09)
(-0.000157809020080159452 4.90357039373207094e-10 -4.61164860777910826e-09)
(-0.000123785724315318533 1.68579410543418562e-10 -4.09383078864841926e-09)
(-9.0338936464297141e-05 -6.77105586312221881e-11 -3.69494568988598347e-09)
(-5.75796346148398981e-05 -2.51765429970227248e-10 -3.3746327518169167e-09)
(-2.56464855658521389e-05 -4.29034213634862606e-10 -3.11353298110953596e-09)
(5.35033794000905164e-06 -5.19911807689826736e-10 -2.89024979823033431e-09)
(3.51380212043500719e-05 -7.6104659907518832e-10 -2.69218162084915206e-09)
(-0.000455785207090699299 1.8894327860812614e-10 2.50332167183324254e-09)
(-0.000391346819494531415 7.31734258326874543e-09 -1.52955602267124754e-09)
(-0.000329714328843558715 6.52698568474892269e-09 -4.64577792412958081e-09)
(-0.000281432276135552058 4.88829034544164048e-09 -5.01903323408995184e-09)
(-0.000241570952554179556 3.31038112604595442e-09 -4.40349175883408235e-09)
(-0.000203625316476682754 2.16589045584857886e-09 -3.70557986607188138e-09)
(-0.000166389192900990397 1.49513060870323186e-09 -3.1772230144223742e-09)
(-0.000130247674420087595 9.94748750453497343e-10 -2.77268724565081857e-09)
(-9.52370865725471824e-05 6.07054010418454918e-10 -2.44905176425555548e-09)
(-6.13389137101807736e-05 3.09185111250767321e-10 -2.19665354120551349e-09)
(-2.85727814213724333e-05 4.0163583259288953e-11 -2.00297924075220369e-09)
(3.06335609962995393e-06 -1.42858254450241463e-10 -1.85986914452424617e-09)
(3.34788879788568339e-05 -5.85730989948980914e-10 -1.75026070505755735e-09)
(-0.000465257194788293034 -3.69191531407934976e-09 -7.34543095092210438e-10)
(-0.000410045025561605182 5.63107402650773365e-09 -1.52180984114263406e-09)
(-0.000351746236323047723 7.75014490128044725e-09 -2.26123465738663218e-09)
(-0.000299277801959114541 6.59280759834746495e-09 -2.16222956199155726e-09)
(-0.000253770853568146128 4.79700448937302586e-09 -1.78993034657711292e-09)
(-0.000212291339845420445 3.32552606372502345e-09 -1.42072856139161011e-09)
(-0.000172805108784892928 2.33618093493405863e-09 -1.17138745432024444e-09)
(-0.000134951075192426249 1.63570769047607137e-09 -9.93335316713827777e-10)
(-9.86798443221667695e-05 1.09893114216074957e-09 -8.58246016741264552e-10)
(-6.39200487748157949e-05 6.92640335690800597e-10 -7.54992760329076525e-10)
(-3.0610752697412211e-05 3.62019355455716007e-10 -6.77374429891717503e-10)
(1.3887580702947665e-06 1.48745523451243888e-10 -6.3029897291336253e-10)
(3.24761911753251148e-05 -4.01714289631196182e-10 -6.51700941691184394e-10)
)
;
    }
    procBoundary3to0
    {
        type            processor;
        value           uniform (0 0 0);
    }
    procBoundary3to1
    {
        type            processor;
        value           uniform (0 0 0);
    }
    procBoundary3to2
    {
        type            processor;
        value           uniform (0 0 0);
    }
}


// ************************************************************************* //
