/*--------------------------------*- C++ -*----------------------------------*\
| =========                 |                                                 |
| \\      /  F ield         | OpenFOAM: The Open Source CFD Toolbox           |
|  \\    /   O peration     | Version:  2206                                  |
|   \\  /    A nd           | Website:  www.openfoam.com                      |
|    \\/     M anipulation  |                                                 |
\*---------------------------------------------------------------------------*/
FoamFile
{
    version     2.0;
    format      ascii;
    arch        "LSB;label=32;scalar=64";
    class       volScalarField;
    location    "0.450000000000000178";
    object      p;
}
// * * * * * * * * * * * * * * * * * * * * * * * * * * * * * * * * * * * * * //

dimensions      [1 -1 -2 0 0 0 0];

internalField   nonuniform List<scalar> 
7236
(
27.1889552330922726
78.5407776321017082
106.666042539255074
116.609619563752418
123.459265399582222
133.130395621081959
140.024092931023517
153.746079765399543
165.350473991993738
172.946922064980413
181.251498591834491
189.120368247654852
192.837082670893722
191.569174493933588
188.093748374483823
183.584745965676717
188.757345673133074
182.566234186039196
177.925361763952594
171.384995029483662
166.300698998527594
163.975882208678712
152.582667048499417
144.112903736190304
143.799595436151748
129.130089077108522
116.632278983667362
109.202578068571569
101.011965468321591
90.3205232909370608
78.8781485778582834
70.3090443399834726
66.9773152371954836
64.9216909177716275
66.4097817935812316
123.523539788974134
470.946359917524433
1145.30437025838114
-1.93440939429040881
19.222096837904985
30.3378449360877518
32.2165524635741036
35.3325515638481491
39.8900979911556988
41.8460869193514213
47.7487031479593611
53.6144973109332312
58.3478363779312019
64.6800396613454893
69.9889280854961839
71.7098978728171801
68.9186139647370624
66.0106644848402766
63.4545980657618998
69.4772968116134848
61.9359422078552768
59.285960655920718
54.5609372870121945
52.6632043142830355
53.6963714776533152
46.1575997319872897
42.2925243922235552
45.6647731608780134
36.1643183378323272
30.5802338697797751
28.1059565847291566
24.167041116692161
20.1019435830621234
15.4765104253741299
12.0608559023814195
11.3904315621308072
10.6574235303840368
7.55108507549143226
20.3388139675698483
181.068549737551507
840.166085554790811
0.041983626705292737
2.82229820028254919
8.31021152785580597
9.02533450502044587
9.22190991378354852
9.19833231919676386
9.27289308102773191
8.71885304584730925
9.22981402395004302
10.1713508422906038
11.2821768802283238
11.6251481397093812
10.8504132488846778
8.40530589399250694
7.04187792965201531
6.91973836491399652
6.38805597124876812
4.2012806853074256
3.92832008101349706
2.57531151002276548
2.17052897787759624
1.83854654400330197
1.92397339216677254
1.62273267106021368
0.993635489235553448
1.09715721126362431
0.872621989784393204
0.744806614685487478
0.749148025481745972
0.535816081722518045
0.465433562168940163
0.504704257051663552
0.461909297492886006
0.486511543622025533
0.614494658457668153
4.72359143033587792
47.2600286619599856
422.629523940446802
0.743069168272733616
1.75067130702980478
2.70704276953410261
3.14512471331027443
3.12526031198022558
3.01502509133026608
2.83198353318775675
2.75364614606112879
2.77065570345637369
2.8088202038494714
2.80493996451784344
2.80756418322553092
2.66705940322432067
2.41821844622075943
2.00024030103503048
1.63714707507736534
1.36770407783328052
1.40538284135853497
1.35917256639399042
1.10412979192528149
0.950814240791147292
0.862114832957018296
0.806115314415860373
0.671714225932714903
0.446597162698951111
0.376359794494213196
0.35134297534466441
0.335038040543713111
0.312675458601369027
0.27611171182209826
0.266446266888917038
0.285910763637133636
0.282098284961534884
0.322267629536740818
0.497197624894077927
1.89199381986200255
9.66125071646062139
178.852328572570229
0.971077193406381323
1.25740100358316864
1.47092680365122641
1.54611072290455986
1.38806344957884997
1.35449086388028972
1.33462221214257504
1.33079168388705771
1.29477658305063192
1.27856384487866626
1.25686305677687082
1.20403026688478798
1.08568391093538352
0.938486577191365301
0.745644981878310187
0.614757710963897086
0.526203348217485933
0.545743489028784445
0.541752490430703393
0.518473577009722186
0.47388377721720687
0.43026221503815143
0.384690475761561013
0.311064390017803172
0.22044650615603556
0.165754603612162654
0.137395292183655093
0.112146830591204227
0.0944515514370366516
0.0852823880018552805
0.0821394381791955563
0.0915491803500426693
0.0989796913604641393
0.129318673663583961
0.22812783160090222
0.879803477610509477
2.02684112487450552
83.1971656648564846
1.12339158817921092
1.1664557359445733
1.21336031480382234
1.23473911424316141
1.18602916808222969
1.11248179330865082
1.03360577813257226
0.969695223255719219
0.89656470420833112
0.831517332539722487
0.75865736261467176
0.682162117081036579
0.578568604543870935
0.468468193249386267
0.366207184620156223
0.293645195200043951
0.249111445952493793
0.242107188347174707
0.235754955264442123
0.22731302128581965
0.200898710527286584
0.164182074917803122
0.122001961011949822
0.0709063507916105618
0.0154740790164415998
-0.0283413176721051263
-0.0582269907303316625
-0.079385063404019629
-0.0906478830020458481
-0.0935438995609219059
-0.0892758457074492862
-0.0760141363219841715
-0.0614216236386948555
-0.0371038388725524193
-0.0132381416270247465
0.459221173117323911
-0.152327874651101647
35.6236922773623235
1.11216274277549743
1.13234839139255383
1.1269055599146327
1.10174166137386154
1.05236429515306251
0.981912339536412326
0.900437597118745936
0.813464839855876698
0.718895492362310429
0.629445661358205566
0.542155542337856788
0.458225022064967846
0.370152510181145367
0.285628432955345457
0.209361953726450278
0.145933633874116286
0.0996494854253551221
0.0733083916547310199
0.0545970596817021425
0.0363512385208467625
0.00796323425652256667
-0.0333170738079168194
-0.0811008647244996217
-0.12705292046923311
-0.166549728412087594
-0.196245946071519461
-0.216253154413879489
-0.228803552026229262
-0.236305223341253812
-0.235135434754786488
-0.225951233218083192
-0.208204310842331597
-0.186637112231214375
-0.16598921015724899
-0.202847788366912751
0.250672331840133711
-0.791579919900208928
12.4890030257190858
1.05461281895835146
1.04481666857385358
1.02991575238446087
0.993511537938309597
0.934762048331876594
0.860153988529044344
0.778131020598076373
0.687893053954253153
0.591541762861303111
0.49541843598415447
0.406974248431838936
0.321526300300709389
0.237572416032905687
0.157209458193036444
0.0860780013253392706
0.0256753519847827683
-0.0213735051688767053
-0.0551478957070310472
-0.0861569039100278378
-0.119354816690633747
-0.158349966433196099
-0.203037453275577207
-0.247471215077420759
-0.285076619100824269
-0.313487272006752526
-0.333639194121897131
-0.346271162704660074
-0.35308906032127374
-0.355464331115040943
-0.352252171486685528
-0.343051664560031111
-0.327001322966491759
-0.302828308875218166
-0.280689054733268661
-0.345516122352786281
0.11690461346577774
-0.714041289396252665
4.81214154428448637
0.982211393617177908
0.968166143337656493
0.936694784428937277
0.886365103930192744
0.818450222518237291
0.739721489907950502
0.654427590219234245
0.563743487444276159
0.467765537585344893
0.37018201721572308
0.281072588215348196
0.196644290480178396
0.116310397131505816
0.0397686674456270151
-0.0299977672418230146
-0.0907293975548154608
-0.141088877843929206
-0.182435971059936697
-0.223203704678066273
-0.265801165419525698
-0.309147542923164376
-0.350163186545419891
-0.385251300268289576
-0.412850010592979322
-0.434310283868341585
-0.450823241861785795
-0.462310227311743205
-0.469102417510527059
-0.471636959626503538
-0.468802486807238461
-0.460333697328867086
-0.446146553727165163
-0.419223975506710866
-0.388724328455636314
-0.45555647514219666
0.00376127390155511776
-0.695996867086531523
2.19473069511053609
0.907252413004356661
0.890650466940275054
0.844035058825991946
0.781429599639252181
0.704333804521634965
0.619956871565940038
0.530678795709507378
0.437873848655100817
0.341919589556280767
0.246459855283143181
0.157739116699003201
0.074126716680663618
-0.00523631955408698779
-0.0801284034301223969
-0.148938866098850431
-0.209961299118092137
-0.262427545127905781
-0.309336055491474138
-0.354983852930956023
-0.398623469165263256
-0.439041267605939645
-0.475254164002026691
0.83266994012401252
0.812817432289522745
0.75206755905357392
0.677362061475638155
0.591278580405663057
0.500518936001602022
0.406652625738644469
0.311196392359920138
0.215158369721216047
0.121272161575089577
0.0328978428767308095
-0.050349357869460043
-0.128946405792310648
-0.202517580379929063
-0.270122407267360032
-0.331017319639962282
-0.385092660036968404
-0.434088099898222946
-0.480291171257920424
-0.522984674182445208
-0.561338625853091133
-0.595120999070859469
0.758993563002340776
0.735389524767382063
0.660594610815525174
0.573746305574342141
0.478349062798328006
0.380751846193784882
0.282135160980159894
0.183988340758261426
0.0874570452754110939
-0.00563406063524052314
-0.093527951582115243
-0.176200565039459356
-0.253864402350816531
-0.326213781125384905
-0.392671527161851275
-0.452937583970685731
-0.507266570204348399
-0.556713180901708293
-0.602332319602464472
-0.644205383463557157
-0.681664791117032598
-0.714360783734872551
0.687037468208633317
0.657530970233047629
0.569109696152566569
0.469774104237433487
0.36472975146929687
0.260090493808563528
0.156794042817092638
0.0560884481898697995
-0.0411607178293809106
-0.133892442403542589
-0.221275800261409916
-0.303295404699537974
-0.380041466578341591
-0.451264848694158394
-0.51662204089978192
-0.576097479035584947
-0.630115582955805165
-0.679479188584453997
-0.724716079665154611
-0.765832371346523377
-0.80247412275403629
-0.834444698728381673
-0.263453561546409087
-0.350384034014197487
-0.431739044447388975
-0.507587746948725993
-0.577727294582780493
-0.641990181270112759
-0.700595096798005135
-0.754076096433360044
-0.803043208272131048
-0.84778143257432681
-0.561555093151907769
-0.636494288369966688
-0.705558103502490708
-0.768729520846944236
-0.826399283617543556
-0.879162542074050313
-0.927492527207170459
-0.971532791958125808
-0.834701077920969148
-0.896788486379598071
-0.953487444499875769
-1.00540693255861746
9.92318843879758639
24.7960774806397595
38.5452797162978626
52.0868112770709502
63.3352200709954474
70.6384843923511312
73.2964834458383336
77.2083362590372246
83.7998899989355266
93.1023932233870255
103.069925397407886
118.015074477774306
128.538275239915492
130.62534050866509
135.930750457852298
143.944421182738694
144.343699498632162
140.551427952430345
139.064253927145558
141.45190955079272
142.241322147088795
131.643512467207472
123.52052156493059
121.527622966731116
113.482454962797277
106.51562596534697
99.8909660957047691
89.8231172268131388
83.5798216637367659
80.6382581760301775
71.6176371437598078
61.8329442222760903
57.0552193429577343
55.577419263975834
53.0392258182812952
98.5798919653046539
409.442075305956109
1045.58132842323539
1.25180518355453652
4.18640551836736208
7.24016117268642923
7.78584555278982826
8.48790087907997659
9.247461821674964
9.74654320140295383
11.0745549799753764
13.8483294585352823
17.9393433245494123
21.245192765063976
28.3183109470945027
33.2356037414645158
33.068491158894247
35.8471065459787042
41.0138795422789997
40.7541194241445908
38.6032305317567079
38.1642373805982658
41.2011514590481625
42.8729692394508106
35.5869404839661456
31.9841702993627734
33.1908886882473411
28.3487680298914597
26.0228713959933486
23.6953132428486981
18.4092470579458549
16.59224555779155
16.9387936632901557
13.1685563377379538
9.02127384145418176
7.7712051436434102
7.63592818017466257
3.84217983858302148
13.8005455422315038
145.802522370613644
747.181046364374879
1.20041830778396097
1.38223820883469184
2.33430044487357335
2.89472993668916256
3.2663834426004259
3.4045220585593996
3.39124413899608745
3.38209030887553208
3.4035181733891342
3.32488491434280675
3.4241766137801104
3.12178774334826503
2.85786975165783907
2.7352138634615577
2.27861386457283066
1.70631253569380092
1.62565118641610473
1.36522543012511077
1.46628201643420608
1.4118192544815682
1.2634062037530267
1.38877592772214875
1.23290216289431043
0.988115428096684623
1.10002056089313838
0.899832068313252798
0.763293179295342794
0.748444366708624576
0.598342088955994722
0.514900282316833824
0.575357411005140928
0.585355195589681077
0.51094113229310012
0.465483533793836557
0.633299583624428508
3.52266274632706011
34.813154455312052
363.798924859991928
1.29356920072986936
1.32884901103294251
1.46452371130101744
1.60058531112764735
1.61636941084816654
1.52481799029362319
1.44512108915390192
1.44671530971529672
1.48494198308682912
1.50989727735940971
1.49317569256394522
1.39628894504440915
1.28316760443431788
1.15115079043447111
0.971438876338531987
0.791633941029124877
0.703597077006878457
0.631907808915714853
0.629047528847147541
0.613519120659876016
0.593315665489505317
0.586944656766721584
0.562268340457698024
0.508295650305793156
0.482029494168659589
0.430607213886461282
0.392267939327892612
0.374127515246420628
0.349450315434717385
0.32815019049188765
0.343462573920608083
0.36508781896414888
0.35019715945364871
0.343526534304304687
0.471482967848464996
1.53760069890561191
7.08213043051417834
148.523720525152612
1.29369878268565364
1.305031062877688
1.32819161119576812
1.32228424990115112
1.31857692327804843
1.25780334807430871
1.17474000410783153
1.10613347832788533
1.04386947608103986
0.98464086144389884
0.914272405766854313
0.832436249305848808
0.747404404316129867
0.659508030568145776
0.558527626296299151
0.459269691934408142
0.392637380532493419
0.369261413906581848
0.360818397051035356
0.354335071847689531
0.340487773046895259
0.32605225311314856
0.311760095762100398
0.281532918221177875
0.24891636038753151
0.21784720435510696
0.186573586314637052
0.167843198213465605
0.151511084450646094
0.133210170508830328
0.131044300580940631
0.143352171698347686
0.152281545170751098
0.165129342128799705
0.217833796512936995
0.760897426015994971
1.50252127886992826
62.2801474774433927
1.22192211921750826
1.22815619234682161
1.24680057183788184
1.20730441858043758
1.16832872570732249
1.10761040303140756
1.03194045624563224
0.948811162554441756
0.860391693931048085
0.773702336280402414
0.685031867290647245
0.599678208726600159
0.516516747181204772
0.437141958817680698
0.36122115795263654
0.292762067646822666
0.24043216633237996
0.213033204531825837
0.195399188571778404
0.180024968918793382
0.162163245839307857
0.142835163656837572
0.124395856580893804
0.0951818121695623409
0.0571685567530884065
0.020729420050111802
-0.0118452185527083698
-0.0311306539954374628
-0.0407049472122281708
-0.0445751579661848307
-0.0428899089071079764
-0.0293574902225519629
-0.00872996709347595434
0.0122024569954884976
-0.000976035240189521147
0.414995038490215018
-0.258533982183832056
22.7281418290552324
1.14504533159157917
1.14200984438530662
1.137967752562695
1.10131468789000109
1.05138314893806295
0.983056509138598322
0.903351280754099539
0.817526176627202728
0.72539236675360963
0.634012104922456077
0.543027751502768274
0.457940667246161115
0.376458675022886879
0.299479504863809698
0.228019085796120957
0.165210980081100911
0.11491251249597656
0.0813371130192432901
0.0575107174174733782
0.0361641241356794874
0.0124658383216185165
-0.0157456141849595666
-0.0464214636113395862
-0.0800910677628010603
-0.114206553775242581
-0.144583251896006071
-0.16923046168984468
-0.184252172117945534
-0.188082278860270624
-0.184016078981675268
-0.174110822870799486
-0.154879714344443142
-0.128826713478990329
-0.11009125824715682
-0.171723440651523118
0.238565809529759143
-0.911168669041979573
9.11603873021718414
1.06359020321912157
1.05516453456403414
1.03546467666765762
0.992165049773357288
0.933540399743350902
0.86122031343521166
0.779463826056697395
0.691186831284910208
0.59886560305412373
0.507012210000377217
0.417424140706691316
0.332821993754343071
0.252725231915144177
0.178167032387067659
0.10955947604872629
0.0489598827454926777
-0.00129998028497013696
-0.0395219333533081141
-0.0706223091784786705
-0.0997205976209503131
-0.130747169533459995
-0.165733121865621946
-0.202048909806730737
-0.233635622714436386
-0.259477260472052551
-0.280553058342265293
-0.29719490420462269
-0.307663732215165409
-0.310433538704950274
-0.306348288184142836
-0.296636737336708367
-0.278328698500552529
-0.246693150307304321
-0.218089117972624202
-0.301969253531478965
0.124002283817564729
-0.743663567484817101
7.52162413259307527
0.979747229850919776
0.966971397254047016
0.935525586177529123
0.883986235354573768
0.817484622373471526
0.740254626431902985
0.655874264100063886
0.566636514648162448
0.474742903197351573
0.383010641450723943
0.295006540173906151
0.211728583700371065
0.133210646250637721
0.059749445592932382
-0.00799075821077632753
-0.0681717412874857098
-0.119093151992634261
-0.160717214745822012
-0.197645980026427193
-0.233381820232441473
-0.268351330176068048
-0.302510634875441164
-0.335161241087936324
-0.362998272792058096
-0.38573395469718752
-0.404761707564097795
-0.419476921991671081
-0.428827566930942261
-0.4319834666116108
-0.428503745292122873
-0.418744741732830827
-0.402226859526114366
-0.365699139204335499
-0.318095446100312262
-0.413407738802085811
0.00800727821109759041
-0.818402395611084188
5.35027865459991858
0.896115598878528541
0.879619742969498075
0.837706099481283051
0.776984299075782037
0.702716846411951757
0.620108394529183427
0.532258560767532973
0.441401828747739478
0.349332416912170984
0.258413639883069202
0.171358872720176691
0.08895401245023149
0.0112853083836677026
-0.0612952333567311491
-0.128119296383925496
-0.188006999553616327
-0.240160832401298707
-0.2848330958053088
-0.324987998958527702
-0.362819097969831916
-0.398478757313066478
-0.43166221630533852
-0.461910696009376287
0.813944160996097121
0.794319250223844087
0.741808089034308837
0.671102433609708449
0.588724792474848435
0.500305912123564456
0.408588813380273974
0.315608273881823997
0.222925382421642393
0.132433976338424797
0.0460211278019164727
-0.0356712227292210748
-0.112486665358347393
-0.184067713760491802
-0.249898083562597906
-0.309329438170399262
-0.362044838083082299
-0.408666273933368296
-0.450694147750108631
-0.489182550582351383
-0.524577899807632031
-0.556941760605242697
0.733459353502401656
0.711563432665431872
0.647583469009722856
0.565947080509885847
0.474939354824881921
0.380336244012337898
0.284516493131931281
0.189237113258867051
0.0957521402687520062
0.0054293501594833149
-0.0804807916923533373
-0.161495141788787322
-0.23745220176607007
-0.308079142964775343
-0.373020369738943147
-0.431938400341763229
-0.484774697687600398
-0.532056690534757903
-0.574801079274898208
-0.613620280860342482
-0.648828733723983642
-0.680486074591663326
0.65254802251949573
0.630405642768743668
0.554486887790097471
0.460909939972111049
0.360712805006925263
0.259668976628967485
0.159664192438891517
0.0620325777428016867
-0.0323718172961013906
-0.12268267739795613
-0.208171932478816935
-0.288542238554860386
-0.363678650966293926
-0.433396554792424116
-0.497484996419667702
-0.555821236190452428
-0.608513994057421681
-0.656000128897189949
-0.698947022161105602
-0.737789695102502141
-0.772706667407646486
-0.803751485426377199
-0.252009314328929701
-0.337129635676021611
-0.416875093926546869
-0.491208947833170484
-0.56002619128079445
-0.623246668818485228
-0.680912381188465088
-0.733240162874523538
-0.780613208862806385
-0.823461272056750127
-0.546485954601956259
-0.62001424514331549
-0.687924383319853394
-0.750258981995255203
-0.807178124094541261
-0.858961962744486218
-0.905950352838639006
-0.94844083165193338
-0.817047815845859615
-0.878478688446300282
-0.934592525568309851
-0.985703869844203107
2.32091402538254421
4.22961348664651382
7.71219334816824453
11.6255307373947048
18.3113907086211043
25.2816928037541118
35.501335339592238
43.1650501971700891
53.84504203573632
58.6181198774728358
58.4140055660288695
62.8346455543351325
68.4133195140018273
71.9310520070533954
75.6997350853839066
80.9903395224537945
85.2316185659582004
90.1576766622676757
96.8656814249031868
98.0071966378538946
92.6012819721158564
90.8081679571828602
90.4414074748968631
85.4543248725374269
81.7497068822001722
80.2902310669814199
75.8958244561835897
70.758094613129515
67.3332499120180046
63.2853315321743821
58.0186423458952589
52.6000824793836657
49.0654191919226861
44.9878638862077125
38.5866656433077395
77.4926086394351046
346.512977400734144
923.391584205108302
1.72971375520156845
1.9730791678603703
2.65177355365135581
3.01626807295570387
3.21887379488644676
3.33391112169177584
3.31022623437544494
3.62561867512121871
3.73422909655205082
4.15637570870711937
4.58631773297018608
5.15930857094073581
5.92289357847308562
7.94661155934265651
9.52529637978794241
11.2203941474086974
12.2056971673985935
14.3665289121587136
18.1839455645230643
18.6999620367083281
16.1103117449493354
16.0982834572054685
16.9217370288774589
14.4271767115661831
13.5824005279225233
13.9564688413980846
12.297807677224263
10.7428294954480315
9.99997833018001714
9.05635582027958463
7.5232971983093222
5.78838924052183579
4.7428140190151673
3.80788776979290411
0.918764663505083012
8.79498975532619376
114.816015706333545
646.135408978506916
1.52358700344132947
1.61032004301983589
1.66679153584867135
1.69541877915741579
1.7652564950883991
1.77189455304723675
1.70402900669802215
1.71437246293392542
1.74845536440091864
1.81262025033688379
1.88406083431963323
1.95328185563338241
1.97517263695131495
1.81721502605676033
1.71779478212627623
1.60008470226377231
1.43909427439873339
1.24059510893859715
1.05384893782978728
1.00900712653958724
1.06354677491049632
0.958092166971537429
0.863281414945916703
0.954800447981647427
0.890319936108351806
0.788073751898894281
0.739537130879961979
0.644856681624069283
0.590913163360225369
0.609595730869272101
0.598776668910919407
0.578861303614082057
0.551971235141360372
0.51015860467398344
0.602007937496914947
2.44997308964241345
24.9054484361777178
306.004700219876668
1.43793466431093764
1.46504374837437901
1.48410032163568228
1.45940039654301401
1.41514302880322518
1.35979842877029178
1.29024185964416849
1.24888625638524187
1.2122527277767694
1.15964020424372705
1.11227818034680936
1.06394490647084838
1.00670146596096055
0.913254055741362425
0.817851531523852815
0.727328778586224578
0.646968587308926812
0.580552012997835765
0.524887113372074832
0.498477431902096479
0.493266158691382128
0.476956578907280715
0.460878654876311078
0.469656654475576696
0.468333427085651066
0.439150074436432836
0.408650368305400469
0.384476490018138217
0.372717533930642775
0.376530738786837293
0.385019036543749915
0.391817501930825984
0.381460717620838441
0.358367643250486201
0.432946444857680857
1.17307429949320952
4.85350421947634025
123.738204768271103
1.34959851653291585
1.3640704088239719
1.36687887753660364
1.34642082028395604
1.29203186521800806
1.22523195721399714
1.1519302571960468
1.08080490145865227
1.00714503195564964
0.927915926671255886
0.850652382786820649
0.77099118531127464
0.690843921342252476
0.611741690538355476
0.537125391799886498
0.462750313272335512
0.403847644458659505
0.36275679983848963
0.332915887001144273
0.312612393636262254
0.299092015956812785
0.285381337884479835
0.270452947758797246
0.261311775091289111
0.255281256864974382
0.236519702408125365
0.209163104460942662
0.186333978296009728
0.169207858960629953
0.16126038294313938
0.16729546414823615
0.186079394196105197
0.201826220131654188
0.209528023451724832
0.213980341102173011
0.634850486965661709
0.97987179335006469
49.8612728362107305
1.25871234682389965
1.26188158685438001
1.25455751441532648
1.22350327784691792
1.17060807865283056
1.10507599355238639
1.02966244249909189
0.947143198862863467
0.861670848168357484
0.776792150847504637
0.69016558228334135
0.604270557626918614
0.523012068281162645
0.448135642100050857
0.377208291171830079
0.311095560630783252
0.256955867394180415
0.217978416322228363
0.189612229082636863
0.166801081608057733
0.147696068398114444
0.129639662945860712
0.110136135188380169
0.0893143573564730842
0.0695438974361796136
0.0476091278795421902
0.024283614126730857
0.00740378236519501076
-0.00414968156783646069
-0.00821366185215588462
0.000955262116879684875
0.0275236161148365577
0.0617560319790895207
0.0732450667675111911
0.0111778888777467333
0.371678503926894277
-0.369407813126724105
14.601276592268249
1.16642262943957187
1.16264595881229438
1.14586998267950291
1.10732343608459582
1.05063198835809302
0.981631808539952466
0.904173949577280367
0.820084359150545561
0.731870282887219226
0.643317466807840299
0.554415677565152198
0.469787077069315884
0.389943170479891021
0.316420037395186649
0.248907399371484317
0.18796679200048183
0.136288191000037529
0.0963744157481241093
0.0654606699526169011
0.0395324511357552089
0.0161385947878669445
-0.00744888162788814867
-0.0320735033179370133
-0.0586558470166965717
-0.0850980053604218911
-0.108261492982409169
-0.126040961526621254
-0.136421499764175169
-0.140451258720206806
-0.138070784283692127
-0.12675530321111661
-0.100305583842606016
-0.0597160984658757776
-0.0390315871500750422
-0.156307130809506201
0.207821363858397112
-0.963384182149670476
7.44542706537625065
1.07470740426325673
1.06531960162186534
1.03958848516731583
0.994288675094593954
0.932894513929276692
0.860243184593731391
0.780121205405458484
0.694853462672322286
0.606505458051212365
0.517877074192463094
0.430679665442557313
0.347696636000735415
0.269547621963632467
0.197132952509137538
0.130842087587745404
0.071193718150085683
0.0201666647405679411
-0.0214279255612874753
-0.0554908448645617947
-0.0851061236136785304
-0.11335320043583974
-0.141873762488319843
-0.169373102366457418
-0.19496314211696586
-0.218683563102543332
-0.239197233061484882
-0.254669450557505672
-0.264787003019327449
-0.269012263117704986
-0.265750362699734843
-0.253746379708936542
-0.229061344081489704
-0.180359252206887755
-0.134529758527299093
-0.295759792601354432
0.0687057837324449583
-0.759207853482294581
13.8959281457465806
0.984080066248445906
0.970384775327652882
0.936272825731844449
0.883695265487198567
0.816604979720705337
0.739834649664794508
0.656911691257524577
0.570258630863129889
0.481912131513963393
0.393971938506052055
0.308342332914626427
0.226672621151770892
0.149742556998174514
0.0781811326699524134
0.0122668396248732936
-0.0472000490292225905
-0.0989356566559730366
-0.142386051809915259
-0.179217653347047756
-0.212087178946777088
-0.243074979578796313
-0.273145292193246791
-0.301162613726481898
-0.326214732572145172
-0.348572742506419897
-0.367504036910391796
-0.382126644767598056
-0.391917102947455853
-0.395840953407211926
-0.392341706478616103
-0.380744929478406324
-0.358712545321322795
-0.303313184343956155
-0.232171309457663733
-0.413647286828689564
-0.0484008735693075565
-1.01584520180060611
10.6874767642310644
0.894755480179726614
0.878071323723164987
0.835622178845475405
0.775075188018383932
0.701495599775671108
0.619986449141707974
0.533853095507020647
0.445404924247653655
0.3564518073280738
0.268781198855783776
0.184014257644319112
0.103316597099980756
0.0273237558366057343
-0.0434770109217754719
-0.108684038451166476
-0.167626081075266109
-0.219610048850324646
-0.264515367192259099
-0.303880776229703553
-0.339169132940605134
-0.371603579180530663
-0.401792227248937817
-0.429322189710931723
0.807328977864884445
0.789115441965381414
0.737560457390687318
0.668020079360219787
0.587159620510081082
0.500362846599920585
0.410669520815452049
0.320154526402750994
0.23034859059501267
0.142684075913390274
0.0584492577015314208
-0.0214875245804933002
-0.0966432416456790566
-0.16662451307164905
-0.231049933796747986
-0.289459136134461947
-0.341498487141142282
-0.38733118451279247
-0.428001489685335246
-0.464529466419125292
-0.497701058236580507
-0.52797665492127499
0.721941918848054254
0.703923658095750859
0.641922891575262167
0.562052939845572253
0.473092214633374697
0.380539580986889669
0.287030792033429849
0.194284364700124446
0.103502426075316789
0.0157307150106216209
-0.0681034477361059931
-0.147387593976847864
-0.221765378957663017
-0.290939425658713668
-0.354629108348862632
-0.412551009379881206
-0.464554933619775845
-0.510873998856935962
-0.552238632988308331
-0.58941065701236417
-0.622940777632132403
-0.653154791612435059
0.637348862149868189
0.621807845661805692
0.548354278337983336
0.456596091469040122
0.35871110337936174
0.260036236430393197
0.16256967498162167
0.0675203969619504463
-0.0243093447187561207
-0.112277246681054654
-0.195800228282608568
-0.27449552850719261
-0.348134213240025359
-0.416519799966265758
-0.479476334197748155
-0.536864817826067875
-0.58867655721156309
-0.635161772526015689
-0.6768518809469104
-0.714284035263070605
-0.747865224001484141
-0.777832690695197226
-0.241456018256933858
-0.324715956960215157
-0.402855856129195056
-0.475776080811733504
-0.543375243558853471
-0.60558011064528583
-0.662367301215710302
-0.71382249545233889
-0.760200064760075844
-0.801896633529585512
-0.532459491498242787
-0.604664057890159201
-0.671467640383547337
-0.732901539230949473
-0.789027986354971622
-0.839992130292591899
-0.886042294532348729
-0.927490047186078304
-0.800755457497569267
-0.861393562279599401
-0.91680437636473
-0.967171406521726285
2.07267928913309607
1.97025680332208686
2.54154765346698541
3.1647084361298683
4.14394916519552492
5.06436620321368824
7.72613146222405867
13.6447093183678341
19.5822644928817802
33.4826045636857046
38.4379763660423279
39.0114829345835261
38.3666898430161609
52.4296747367220703
56.5531600391330542
54.0532601179663246
51.9235466816158393
56.3623627047468148
58.7017643287399551
59.7794649082881975
59.6166116708899452
59.1026384156803459
58.2059019701437137
57.1569281407403409
56.5163101408116688
55.9831803116684199
54.730215365805428
53.4603196229588988
50.3354950170996531
47.7718272008689979