/*--------------------------------*- C++ -*----------------------------------*\
| =========                 |                                                 |
| \\      /  F ield         | OpenFOAM: The Open Source CFD Toolbox           |
|  \\    /   O peration     | Version:  2206                                  |
|   \\  /    A nd           | Website:  www.openfoam.com                      |
|    \\/     M anipulation  |                                                 |
\*---------------------------------------------------------------------------*/
FoamFile
{
    version     2.0;
    format      ascii;
    arch        "LSB;label=32;scalar=64";
    class       surfaceScalarField;
    location    "0.0299999999999999989";
    object      alphaPhi0.water;
}
// * * * * * * * * * * * * * * * * * * * * * * * * * * * * * * * * * * * * * //

dimensions      [0 3 -1 0 0 0 0];

oriented        oriented;

internalField   nonuniform List<scalar> 
20536
(
2.98641393717153154e-07
-6.67113858791292272e-09
-9.10283720860970468e-08
-3.10005379826811333e-07
8.37038992366850505e-08
-1.4077699006327313e-07
1.80176406738588644e-07
3.84007997063635093e-07
-2.06185883414979568e-09
-2.29908800112411053e-08
9.9406968809094379e-09
-5.85195933575728641e-08
2.02672834514550874e-08
4.11032532815089801e-09
-3.3522762665829488e-09
1.48804195431922494e-08
-1.39795911271220512e-06
-2.42579076204001371e-05
1.55239118911221258e-05
-6.09822069018510274e-06
-1.13809520629604782e-07
8.54386278103238931e-07
3.95123683388468659e-07
-2.75471985575402681e-06
-2.52131627041281786e-07
9.9862077137767817e-08
-9.30484009810504329e-09
4.3381084037285153e-09
-6.09557574735861145e-07
8.52811840038075324e-08
5.92743655950962841e-08
-1.79035093925393224e-08
-7.8635899375859414e-07
1.90802616066888896e-07
-4.0739109753960441e-08
-2.32248295364156207e-07
-9.68424629121107962e-06
-6.39030195067425224e-05
1.94540172420305644e-05
-4.21554926652619515e-05
1.57813520604560616e-05
-8.27582184031049099e-06
-1.00046304107395147e-05
-1.61381156867348638e-05
1.32424869907340695e-05
1.3662837831134422e-05
-1.26506398344850881e-05
2.17328060411237539e-06
4.8026668774007423e-07
5.78695318688049164e-06
2.50342344420751625e-06
4.39721399779556793e-06
-4.38050867372744825e-06
-6.57516574632297006e-07
2.43723758298516231e-06
2.59430912218569243e-07
-8.85830464372053405e-06
-2.27957012259751307e-08
-7.2325933024308277e-07
1.65382448577048719e-05
-4.92330805602468968e-06
-3.76179567816494606e-08
2.38746088599749554e-05
-3.47365248349628574e-05
3.44023146367160887e-05
-1.2256299118981347e-07
-1.11282676125784757e-06
-4.01674180163163756e-05
3.56951031887773636e-05
2.65606805513119071e-06
9.71565042170535021e-06
-1.23888455535863927e-05
5.19994306982274791e-06
5.20103880783268051e-06
2.47407915792327549e-06
1.72843419215429614e-05
3.35611217348003744e-08
-2.65985018524000179e-08
-1.62529939454710974e-08
-8.6329974477318481e-10
2.76220220134646288e-07
-1.68129456971600944e-08
1.75820991415170106e-08
-2.86027118995177265e-07
4.78827510926108476e-07
-1.02534490939656431e-08
1.02282551239520604e-07
-4.45955634850974187e-07
2.66696375877376214e-06
1.06728017866762882e-07
6.36113548269502328e-07
-3.49279788911883365e-07
5.35413576710560166e-07
1.18639467055866979e-07
1.79028471265045064e-06
5.03469957596208468e-06
3.97534297652697103e-09
-7.8497593950923211e-09
-1.76634423506685492e-08
2.16783316631047111e-09
1.26817175920950104e-08
-2.56346755388660291e-08
-1.03077049697522854e-08
2.34108981000376823e-09
1.25843448457876906e-08
6.89395774541942051e-09
3.11163034186679573e-08
-6.41444109777465425e-08
-1.20800677842022288e-07
1.16928966978348978e-07
-5.26298970602674123e-08
1.30220889761654997e-07
1.20673612111630956e-07
-2.68600789803982881e-07
2.67318736538463459e-07
-7.41826134585625154e-09
-1.5138803167510646e-08
7.37099576624464495e-09
-5.67404490680583641e-09
4.96509046649645634e-09
-4.26341551863475028e-08
-3.73803395112722485e-09
-1.25915267479641183e-08
9.2447531005824246e-09
-8.68514419302363977e-08
1.06296724339734688e-08
-2.42021898951577012e-08
1.49961974624547873e-08
-1.32412025295605783e-07
3.35006044497790308e-08
-5.22826336619867658e-08
3.63413760432801891e-08
1.48349134542736996e-08
-6.09720497562608111e-08
4.75534372902280434e-08
-8.61419989552982343e-08
-4.96852018375330483e-09
-2.43658241952901908e-10
-8.56749081187680813e-10
9.09572941699921981e-11
-7.69844277512240184e-09
-5.75172720490671037e-10
-1.76232581149805718e-09
6.04938909138867021e-10
-2.86163651183871979e-08
3.91782294129899935e-10
-7.46052284014412716e-09
1.54935805800013593e-09
-3.19531579481215736e-08
-1.45845606373061349e-09
-9.65551711398044472e-09
4.78551556668332395e-09
1.39136563332558504e-09
-9.03046997952950303e-09
4.68261367883589474e-09
-2.43404937299166761e-08
-6.4522815790728943e-10
-1.33546995656167868e-11
-7.41234181963026971e-11
-6.14100426425011891e-12
-1.30221667133848735e-09
-2.17435329717354982e-11
-1.08196815486642751e-10
9.87301708620546982e-12
-2.31002774396247679e-09
-4.93559991892000864e-11
-4.35401902335908783e-10
6.84437257764931268e-11
-4.53582936591342578e-09
-1.3957071970321162e-10
-7.2362528511497676e-10
2.04732385585901644e-10
3.73168536609854414e-11
-8.47804659054189265e-10
3.36564013757687239e-10
-3.47968338929518683e-09
-1.48082128511898274e-11
-6.80178957846891725e-14
-4.38145918175681112e-13
-1.06520455605914125e-13
-3.32971236410153995e-11
-2.38324934744700316e-13
-1.25040503795369896e-12
-5.55535187008884922e-14
-8.72775850872114645e-11
-9.55293295470813701e-13
-5.62077255637930003e-12
5.79208013668397539e-13
-2.80726778548373711e-10
-2.39460570075688548e-13
-2.34455994525558603e-11
4.89895803943357067e-12
-4.7160795473003567e-12
-3.87223751915224304e-11
1.30853149769008814e-11
-2.44723636436872404e-10
-7.2477189627983066e-14
-1.89962376523086192e-16
-1.64162148409729924e-16
-4.84304038939560182e-16
-2.92984454136794436e-13
-1.15020511090748024e-15
-3.72267345320278905e-15
-1.00435609099019786e-15
-1.90947636329983436e-12
-6.43429666841749874e-15
-2.28236647189341264e-14
-4.07523971916232565e-16
-5.44736397966533722e-12
-6.65244720709493354e-14
-1.88467313456407027e-13
2.65637189198781071e-14
-1.47983746655408875e-13
-7.97816164602919838e-13
2.21768002474997326e-13
-9.86718841602976787e-12
-2.20498121833556134e-18
-4.08007366265551883e-22
-3.52173481169722734e-20
-2.49589870726623998e-17
-5.28710288032533729e-21
-2.38161983904588298e-19
-1.95471734531410787e-16
-5.75215533660597539e-20
7.73613214971384303e-19
-1.1185827546618081e-18
-1.28878401022716776e-15
-6.56057099593627383e-19
3.06948079149227341e-19
-4.23836336546981039e-18
-7.64159843064972837e-15
-8.01485516954292639e-18
-3.89749831694182348e-17
-1.15337075803626478e-17
-7.33543391611569679e-14
-1.66495938756049587e-16
-7.87102523703152361e-16
2.33531867215618261e-17
-1.2809815527069599e-15
-5.14308780917716613e-15
9.85903179516895986e-16
-2.45465989151632619e-13
-3.7895124911642295e-22
-2.95688511148217728e-26
-9.90041674217499392e-24
-5.01867681991548553e-21
-5.98745609120399351e-25
-1.10738367234043654e-22
-5.76907929743379418e-20
-9.70034208804870265e-24
1.10830947623486898e-21
-9.38343341475675824e-22
-6.90082178612609958e-19
-1.35303052256053865e-22
5.05764192032472998e-21
-6.36609871388848914e-21
-8.62670201872465155e-18
-1.70967238816547684e-21
7.20552082673985687e-21
-3.28735222533043465e-20
-1.7444386260069033e-16
-3.93337165789214826e-20
-5.72158472664521879e-19
-1.69575744202347152e-19
-5.07891566843150642e-19
-8.42606189407864193e-18
1.07053465450634073e-18
-1.43228057446250091e-15
-2.61284339257638112e-26
-5.20473404198129565e-32
-4.25213627822706528e-28
-5.63486947030227657e-25
-3.03059408370088131e-30
-8.38360306690057193e-27
-9.74252597003602915e-24
-1.43672164159271797e-28
2.34707886437555918e-25
-1.29833134922415296e-25
-1.41049981517548843e-22
-5.74092320000498404e-27
2.36227736701163876e-24
-1.62300004449043822e-24
-1.84313595782888159e-21
-2.03389444726101569e-25
1.8464135737434658e-23
-1.6658646763761477e-23
-4.09457890912731372e-20
-1.08586171186076414e-23
-2.14537799144677597e-23
-2.131215283876776e-22
-1.93278158825578159e-22
-4.77925730671660664e-21
-1.66098393392351012e-22
-2.42396844086294819e-18
-4.59233538802273488e-32
-2.37384689648854949e-34
-2.88416649608236267e-30
-1.38873143602089658e-32
-1.40812128119513584e-28
1.13230888601863744e-30
-6.16469441002959024e-31
-5.79314405201177617e-27
3.50202289071955055e-29
-2.22789278020479649e-29
-2.0812078193045269e-25
8.92828694521959464e-28
-6.69642889523502818e-28
-1.10530860767489091e-23
1.63409759393139869e-26
-2.71468027509579891e-26
-4.42119717247636693e-25
-2.58357921966373203e-25
-4.28990242978389591e-22
7.26571708486072321e-08
5.50811465660557493e-08
-7.24968188614302364e-08
7.87804404755164906e-08
-5.62800960809415114e-08
9.24341464952866532e-08
-3.89979496838609867e-08
5.65886933336055321e-09
-4.62748611370020548e-09
4.26326525291212363e-08
-1.18102708173764986e-08
-9.62093298525503772e-10
-4.23363628005679388e-07
-5.61937320019536353e-05
1.80027388490132258e-05
-6.90511526960115218e-09
-4.95613932053749088e-06
4.79994769539962791e-06
-1.01952225259746525e-07
1.90365758188411601e-08
2.18111920710109352e-08
-2.97438122244557059e-07
1.41605800540375594e-07
6.80427082196760978e-08
1.73854386898784682e-08
-1.4379278081359768e-08
-1.85906609665222284e-07
1.62751002158823143e-05
-4.89308376876796737e-05
-2.42040951641093883e-05
1.51514911143123081e-05
-2.2622421198119383e-05
6.53271893254679175e-06
3.57958012321808769e-06
2.52589277992871233e-06
-3.23984930791788399e-06
2.35721965053692697e-06
4.59286686707569243e-06
-7.27284036552304671e-07
6.02749404078933971e-07
1.05312573676679214e-07
8.06523126028010806e-07
-5.99540217311580249e-06
-7.12982004535584477e-08
-8.93962306811070653e-06
8.4286857275373779e-06
1.6929792521216933e-08
-1.11213326027484172e-05
1.9018723692037259e-05
-3.29293601211515051e-08
-7.99653532411567954e-06
1.92606921536028299e-05
7.26306105297495751e-06
6.18165726757548491e-06
5.54710543138459585e-06
3.99751021069746369e-06
1.28633026092334937e-05
6.48954549319818076e-08
2.00368138354897768e-08
-6.71412537373415156e-08
8.2895632661490769e-08
7.31672543027850006e-09
-2.9309486838531126e-08
1.09559858107745897e-07
-2.72143191646321285e-10
3.25662577290223395e-08
5.86167200751971054e-06
1.81879920330899177e-07
1.93179462491542647e-06
1.9689785316040525e-06
1.47526402081996645e-06
6.30368244354959843e-06
4.04487720571742249e-09
2.50909574808718661e-08
-1.88299360228970343e-08
1.31986760124044523e-08
3.51892023892280024e-09
-3.14864746390075122e-08
5.28629569966895499e-09
8.18861367284360161e-09
8.93027593861335165e-09
-1.36441302127074087e-07
9.49507115473780468e-08
1.55622006158184261e-07
2.53064363580895687e-07
-8.25664433142929633e-09
4.54863256590785354e-08
-1.41914326554903345e-08
3.81151680901534585e-09
3.22414875565216224e-09
-3.15296703468813852e-08
2.39352046920251439e-09
-7.99914026984264699e-09
-9.15327133701995291e-08
2.28115658164376669e-08
-1.09842530906483168e-08
-1.76455195544752108e-07
3.14829171666704561e-08
-1.49589944628714705e-08
3.83896589170640549e-08
-1.36773452273112885e-08
-1.28323745653837153e-07
-6.96624658669326477e-09
-4.25802105503998394e-10
-1.30565510520254492e-09
-1.54926320528673566e-08
-6.68382279691000318e-10
-1.69183797437297393e-09
-3.54476551918395821e-08
2.09870550609336756e-09
-6.78384626937513125e-09
-5.00050107789197854e-08
-2.36342059317585288e-09
-5.30036004836309818e-09
3.47117789098156386e-09
-5.05259064743632742e-09
-3.6044824721199916e-08
-9.20715317170059654e-10
-2.05473799532106927e-11
-8.42634998087344707e-11
-2.40281966631343981e-09
-4.02473454463634434e-11
-2.0032899311800003e-10
-3.57188052874901667e-09
-3.3816591082496502e-11
-4.57218604760959991e-10
-6.59691622046058876e-09
-2.5905145996818926e-10
-5.90286902876813898e-10
1.33343204680756968e-10
-6.17682289837104198e-10
-4.88970021168449592e-09
-2.56865564989919996e-11
-1.46537507891105685e-13
-1.06000173482107352e-12
-8.10918295799999853e-11
-4.88514003807664116e-13
-2.45359283346780296e-12
-1.70499782720567962e-10
-3.3834785487757105e-12
-1.07632750908328506e-11
-4.49526400687031544e-10
-1.87783347016329065e-12
-2.62773251870921203e-11
-3.13244179425571508e-12
-3.64231331104036165e-11
-3.73563415052588073e-10
-1.69827740893930662e-13
-4.29425177041745266e-16
-3.74853344849693792e-15
-6.34242720549781218e-13
-2.36786230412733541e-15
-1.34009356266701081e-14
-3.97148638247004314e-12
-1.59619264665004025e-14
-6.1517934382036557e-14
-1.17964293816114996e-11
-1.13593634526766187e-13
-3.29501680143986083e-13
-2.74087861788682102e-13
-9.50405539758809155e-13
-1.53274048222213297e-11
-4.4360853637702977e-16
-1.43423867197070385e-19
-2.77113424719735099e-18
-2.7437790551723495e-15
-1.75263123403523096e-18
-2.11080867833318501e-17
-1.84083898602581817e-14
-2.33068267448384048e-17
-1.63363376108387427e-16
-1.31145542912432958e-13
-3.23168913976981839e-16
-1.42934314757411042e-15
-2.52580836356217105e-15
-8.53265097397567293e-15
-4.01016037700243318e-13
-1.4541955518752328e-19
-2.28274120199010261e-23
1.53736177649417616e-22
-1.84349032968646771e-18
-3.02217990945019971e-22
-4.95593583354240692e-21
-2.48395125235696866e-17
-4.40236958444933161e-21
-9.98942017405393327e-20
-3.46673939635939855e-16
-8.614206963804066e-20
-1.67004472829280863e-18
-1.46883757612071361e-18
-1.62128200285451537e-17
-2.81102758217623678e-15
-2.26553017881065873e-23
-2.91880074273151456e-28
2.15268315693151168e-25
-3.16526363076054718e-22
-1.10570103026851779e-26
9.29938681789447728e-25
-4.66588298038494471e-21
-4.21479097337439792e-25
-1.70778122434938161e-23
-8.84094871861827784e-20
-1.70204342818791274e-23
-8.1477160743136401e-22
-3.52396211986636927e-22
-1.49730800731825151e-20
-4.59047144037668061e-18
-2.85129391765901326e-28
1.34895650016768749e-30
-1.12353714663172251e-26
3.1410866580365088e-29
-4.13331542048308346e-25
4.33960033777251032e-28
-1.71588059124710437e-23
-2.4133964036005699e-26
-1.87915739124582253e-24
-8.18770824369417741e-22
-9.11062512006677624e-08
6.30686410865456462e-08
-1.86654217933522745e-08
6.01900985447730879e-08
-9.77831303770818011e-08
9.63447402276204441e-09
-1.09212745883620821e-08
-4.8959512146079037e-08
6.03272769802752832e-08
1.96561025687936258e-08
-6.98227910843486465e-09
4.70787426329355956e-10
1.21654228161657544e-05
-5.25421371921324436e-05
-2.76431600581491799e-06
-2.05987048112334317e-06
3.97379792158708907e-06
1.53329403173178269e-05
-3.99858430432677457e-07
-2.9074902008989164e-06
1.28761699963947356e-06
-1.52915940021117946e-07
-5.92726086311048952e-07
2.98627586375604637e-07
-3.1229154746964467e-07
1.54613221458930409e-07
-3.37288523192799138e-08
-5.63434787489885973e-06
-7.70397832745345394e-05
-2.35320318635814799e-05
8.53372490872662919e-06
-1.55116394809042254e-05
1.42641867164844171e-06
1.25245705214931087e-07
-3.6290845328535584e-06
5.67301495969705506e-06
-1.83903958149707959e-06
9.72419213286119602e-07
-6.47571319893913668e-07
-1.15726562012664575e-06
-8.16043497143469726e-07
-3.95519511131146439e-07
-5.47883536839615597e-06
-2.79918307396418706e-07
-1.18195297997499167e-05
1.31137728447666062e-06
-8.30678224752274141e-08
-3.0842063838067225e-05
2.13266045466413592e-06
-1.62161007962808704e-08
-1.17320068527934221e-05
9.39799485110126249e-06
3.50739606861547892e-06
-4.18915919142274688e-06
4.18688227470479024e-06
3.18842000782345799e-07
6.30474740296338453e-06
1.63086289070573698e-07
-5.36499721475135323e-08
-8.3442432805113385e-08
9.97478724440017667e-08
-6.25461447220253261e-09
-7.14459534961564756e-08
7.1455642217750505e-08
-4.68302697337552479e-10
2.09054057903488913e-08
4.58395880893878879e-06
-5.91776037678609809e-08
9.38349999217862781e-07
1.82522292986746017e-06
1.0141041937487115e-06
4.91177283626285662e-06
4.91907886197746879e-08
-3.13783677385746062e-08
-1.21777229862969187e-08
-4.12729924154247273e-08
2.07625405131835147e-08
8.97563427728316332e-09
-1.10465414710680677e-07
8.33865605988772774e-08
-2.46015671969079114e-08
-2.53247022465267699e-07
9.39736358353538363e-08
1.7260655945267154e-08
1.8234292969368662e-07
9.75929409606254519e-08
-5.92525072420880113e-08
-5.77599733685096349e-08
2.27100051298572756e-09
-1.98256933840582839e-08
-6.47815174584460334e-08
6.29543696736159439e-09
-5.28049170404756799e-09
-5.75084742917378208e-08
2.27774339120448188e-08
-3.4795171471679527e-09
-1.40479696548000519e-07
8.94796122970519333e-09
1.21566542694606894e-09
2.79462506158229706e-08
1.46560389179180422e-08
-1.14402034305156919e-07
-1.41345669879036563e-08
-5.92690212106089368e-10
-4.51675547883332456e-10
-1.87517431126434563e-08
-1.70931944895276585e-10
-2.33733816823809085e-09
-2.68366890306308893e-08
5.45508784706032084e-10
-5.36026361870588819e-09
-3.77299231569789018e-08
-1.5233890730841533e-09
-3.64666104201778425e-09
2.60690952326094903e-09
-1.9274223639798994e-09
-3.04500879837257769e-08
-1.12369847209176871e-09
-2.25327086763704954e-11
-8.60217422816667097e-11
-2.02859130029621082e-09
-4.54866860869076495e-11
-1.87404262089625806e-10
-3.39100472608451509e-09
-6.66671373518840067e-12
-4.91657835256742809e-10
-5.50854756673409914e-09
-2.17711296508319355e-10
-5.61330688346388342e-10
1.02695520621709818e-10
-5.03435949519942652e-10
-4.43144742327991353e-09
-2.84695941956775722e-11
-2.01704627239363113e-13
-1.48292480560009782e-12
-8.8041429185477925e-11
-6.01311844925665023e-13
-3.26982008628967598e-12
-1.78458515517215848e-10
-3.9472970139584574e-12
-1.45314037657021513e-11
-4.08556198969874255e-10
-3.89873032126618474e-12
-3.03282591652849521e-11
-4.56215941013882312e-12
-3.80210047899263748e-11
-3.59547952300873114e-10
-2.17275401744713066e-13
-5.53615688853276189e-16
-6.60108916057519743e-15
-7.9028563113734305e-13
-2.99225311852618605e-15
-2.36742891737289527e-14
-4.63746097226350404e-12
-2.56983848288494046e-14
-1.37750206735474605e-13
-1.20876119344261342e-11
-1.19252908733946092e-13
-5.21740776075955787e-13
-3.25384034033442948e-13
-1.25222191376753028e-12
-1.70208784511173316e-11
-5.72015821776979139e-16
-2.05432245919164982e-19
-7.79216986943706605e-18
-3.42584069904411036e-15
-2.43474752482029173e-18
-4.78285715431649549e-17
-2.86864591253339955e-14
-3.96577868277245869e-17
-4.07442871063960118e-16
-1.4668757773368967e-13
-3.93581121614595312e-16
-2.43528819963890494e-15
-2.7199043456252045e-15
-1.49415253983460779e-14
-4.64353671212809138e-13
-1.99147527460892029e-19
-3.73938448673362932e-23
-1.78695511261941753e-21
-2.54533868434243182e-18
-4.90943173963184104e-22
-2.40055155659064386e-20
-4.17988303814322903e-17
-8.77305146946665733e-21
-3.51703739159751182e-19
-4.32550882754465857e-16
-1.2414958651680762e-19
-3.37214882399815855e-18
-2.11041433711680822e-18
-3.49513025765541246e-17
-3.2492178879693935e-15
-3.67701893978421682e-23
-4.46406255988640103e-28
6.37255695808526828e-27
-5.13187653517522301e-22
-1.67875780577369096e-26
-4.94983452381552663e-24
-9.09829306776045095e-21
-7.67324328243494734e-25
-1.69077849483419359e-22
-1.26867267545697092e-19
-2.2746566076522024e-23
-3.0947622517820041e-21
-4.9701011995887761e-22
-4.87178762911596529e-20
-6.51736589067990701e-18
-4.40172367872751315e-28
1.07191937095516262e-30
-1.70570756077313553e-26
7.32560387106777929e-30
-7.61810211333491638e-25
-1.79174062487168358e-27
-2.00283761040764366e-23
-1.19202591266907167e-25
-6.51417811679824253e-24
-1.13834216516940265e-21
-1.79842281553859588e-07
1.15430209461372175e-07
-7.23456635232339566e-08
8.203209326729191e-08
-1.9479770217691813e-07
-3.61783309298035038e-09
2.42579439058767922e-08
-3.73550959430804399e-09
5.14577266413749907e-08
5.2002869907087319e-08
-5.15033238013971564e-08
4.6583157830154851e-08
-9.55873375332903969e-07
-4.8802882181535055e-05
-1.26579179995650677e-05
-2.53419110290133298e-07
2.3227931208189619e-06
9.93161388941104286e-06
-1.33280804426637331e-07
3.872308534036566e-07
5.34842632089010995e-07
-7.54188913494654489e-08
6.27071356110937002e-08
1.1090582642987178e-07
9.3745600448025057e-08
1.89394476133615796e-08
-1.10880143984110483e-08
-2.12915678087609487e-06
-4.62412738561742488e-05
-3.98657863276383533e-06
3.30346596220372857e-07
9.23784676621941193e-07
-2.55842090883489493e-06
6.16345041743680935e-06
1.28117573879948283e-06
-1.19388229446625739e-06
2.84292234313467038e-06
3.24004307765730158e-06
-4.93039087850074427e-07
1.45335921876794655e-06
-9.77917096370872117e-08
7.31133252288415884e-07
1.58689046364723717e-05
-1.40412118846238366e-06
-1.25934477457447633e-05
2.5086354085614277e-05
-4.46529433574776888e-07
-3.62358239089450579e-05
2.53587337232328667e-05
4.55779327078974742e-06
-1.47152219818889799e-05
1.93090926272720847e-05
6.24071457593704318e-06
-1.63903700100402803e-06
8.37671729747767846e-06
4.11219268460238942e-07
1.10332860525033372e-05
8.19841427145401784e-07
6.67503028774617679e-08
-8.57021097259902626e-07
7.16338918728190268e-07
2.3045005993871552e-08
-4.53344708171615003e-07
5.12508932292472819e-06
3.17927174215889595e-07
-1.89774306711826571e-07
1.09299471405410047e-05
3.49987399046279618e-07
3.90435587428164805e-07
2.23742371852421579e-06
1.15156638688184002e-06
1.17889193902321075e-05
4.08750144247105766e-08
-1.55948069086387051e-08
6.22724409332420793e-08
3.80883593121389156e-08
6.15204585547267655e-09
-1.57178222757736237e-08
1.28048746435600182e-07
4.37917179390917885e-08
5.49482970452764609e-08
-1.96254401866390751e-07
2.8106699733470732e-08
2.6858301657933493e-07
1.87368287357397449e-07
3.09001036643377613e-07
-6.99929795508167509e-08
-2.4204925089378847e-08
-1.43497691920385193e-08
-3.87044497887994201e-08
-4.28699102166727655e-08
4.78948159793031178e-09
-2.19834355707125891e-09
-7.89097110992007074e-08
1.30635097809028841e-08
1.19039742730037716e-08
-1.58165085853451211e-07
-3.55877191943314137e-09
2.95389449152297298e-08
2.96958887862684918e-08
4.0443964909556833e-08
-1.35196555059116643e-07
-2.18440630491174989e-08
-8.48684117623826662e-10
-1.28984347265792375e-08
-1.88077302384403127e-08
-1.58702761814472601e-10
-1.8096469327935974e-09
-2.57093428000000485e-08
-2.43599941904427031e-10
-2.53083973909882146e-09
-4.21923467361473837e-08
-1.4979045583070138e-09
-9.90469596301518596e-10
2.9004536264452704e-09
9.58999537109357912e-10
-3.45241538488450331e-08
-1.39526015058190713e-09
-2.50841375661639569e-11
-2.71425866054699274e-10
-1.75484299134798282e-09
-3.62459144150917531e-11
-8.67342753057257474e-11
-3.67814899488374548e-09
-2.45954786803015162e-11
-3.09610628816983807e-10
-6.02850259374880091e-09
-2.29832927693836473e-10
-3.20538264159717298e-10
1.16357769415829999e-10
-1.9503960580953414e-10
-5.00430288757204502e-09
-3.38155014398886721e-11
-2.5493998907148682e-13
-8.78852922090051921e-13
-8.18606491379455588e-11
-6.80804769437666902e-13
-1.66397971425249803e-12
-1.81671246648294469e-10
-3.71071909394806962e-12
-8.27068525294848596e-12
-4.42156392971777871e-10
-6.13080287752566406e-12
-1.67733954457185755e-11
-6.71485053281904804e-12
-1.66559073784899242e-11
-4.10592354503121469e-10
-2.79474708453866192e-13
-7.65955332989316396e-16
-2.9300548217998381e-15
-9.43363657968132308e-13
-3.84544453740877375e-15
-1.0495934543590708e-14
-4.69015358702184741e-12
-2.95740429310419369e-14
-6.44260109926416081e-14
-1.29533457960460075e-11
-1.35124470566122633e-13
-2.84097670360773026e-13
-3.7552477938902768e-13
-5.76011987346046484e-13
-2.13232853600474481e-11
-7.79121751167087077e-16
-3.14175005671239691e-19
-3.65009828734777987e-18
-4.42362780114133033e-15
-3.54707734250654068e-18
-2.03868854617558576e-17
-3.40153057074767977e-14
-5.31521073470474458e-17
-1.57785507601156636e-16
-1.70073206578541997e-13
-5.34648769419393093e-16
-1.157598034580756e-15
-2.65500304452192208e-15
-7.31616629623729894e-15
-5.43871726925398959e-13
-2.94937488211138848e-19
-6.96347285886276929e-23
-1.28992137064287943e-21
-3.74500964371616546e-18
-8.84378457159884231e-22
-1.39046943402007484e-20
-5.68519208670746163e-17
-1.45048594671084411e-20
-1.59269279058537535e-19
-5.82936335191885812e-16
-1.81453966191417663e-19
-1.17562885472014362e-18
-3.5306809126129626e-18
-1.80506088279153479e-17
-4.00830736615290555e-15
-6.855992348255456e-23
-8.76337974790680391e-28
-1.54183566109309432e-25
-9.35100471034967592e-22
-3.16107973077100228e-26
-4.585561874069275e-24
-1.53712626281720887e-20
-1.31079187711425066e-24
-1.09753036966201084e-22
-1.85207486378360408e-19
-3.23920088827979029e-23
-1.48449360398943648e-21
-9.05996989965620106e-22
-2.88889075763645122e-20
-1.09788335244021937e-17
-8.60710037733905117e-28
5.31180643400651336e-31
-3.21528837211399992e-26
-1.37909197562072414e-29
-1.26302054212553892e-24
-1.39014801508101009e-27
-3.35289159349749604e-23
-6.45954319138131944e-26
-3.38225802438747955e-24
-2.01559461939838003e-21
-2.92668048720845049e-07
6.10665773455823098e-08
-6.29900330982039783e-08
1.03340229995259234e-07
-4.1925703415544309e-07
8.4537690568723993e-09
5.96518769759867254e-07
4.84077559430001295e-08
9.23657204342326376e-07
8.97346576225039441e-08
-8.23732864364762442e-09
4.15470935239744104e-07
-3.0243054586511228e-06
-4.47776342366511284e-05
-7.83635447016269582e-06
-1.74421317543867582e-07
-2.00146698883278026e-06
5.94841331713027918e-06
-6.68518898480295375e-08
1.29375695629588537e-07
1.02980397275412456e-07
5.80150953511056246e-09
4.77978262143553057e-08
-8.58599407153568018e-08
7.74260003600288739e-08
-1.24640751225143006e-07
6.94942319908742602e-08
-2.81937006503180037e-06
-2.92636807621289779e-05
-5.84445965999222879e-06
2.98889187231055832e-06
-6.27858218722806297e-06
-6.17928620540337753e-06
1.09380631408098508e-06
9.91688690505760005e-07
-2.25053711101283735e-07
2.21783808655520453e-07
4.43500483587675137e-07
-1.22066374061867402e-07
1.50086223797292261e-07
-4.03622058323690105e-08
1.55224644950987191e-08
4.04070391972118905e-05
-1.62357693543772829e-06
1.02629039167695183e-05
1.02066868292752252e-05
-8.84928823142678083e-07
-9.93892395292673144e-06
5.22331000691744395e-06
5.32672996151858059e-07
-9.03471587000830373e-06
2.90454194579218746e-06
1.10356261126009154e-06
-1.57250866559123537e-07
8.84970716035402238e-07
2.23404381618468954e-07
2.18978038439857366e-06
1.07534347354176687e-06
-4.49408195017703904e-07
1.41706339946157531e-07
4.38577035672520964e-07
-1.67627042181451652e-07
-5.6863246634681444e-07
6.24361700236991441e-07
-6.19519575145686251e-09
-5.97136724998747229e-08
1.39133961555906752e-06
1.43180930725367915e-07
1.41215098221208361e-08
7.8498105036295677e-07
6.40628265760763455e-08
1.37459047785925903e-06
-9.34676830150673547e-08
-1.57264441897980248e-08
-6.80009312143115062e-07
-1.04913706801914428e-07
-2.5414135168550509e-08
-1.76284671360622839e-07
-1.13693511689508574e-07
6.2185595944184809e-09
1.61614257744841565e-08
-1.69178165020207424e-07
3.70604141233452706e-08
4.50509152579608072e-08
6.16752731422278556e-08
1.60728849777398889e-08
-7.44384352573562017e-08
-3.01114537175669652e-08
2.71148066327999888e-09
-1.71197320395839266e-07
-4.98140984131538693e-08
1.93298674799842155e-10
-1.25024890401368618e-08
-6.47853869592954827e-08
2.4446657367372039e-09
-1.52404649552746012e-09
-7.6055436166554082e-08
1.33381297786480448e-09
2.22132958587526042e-09
7.89289876594327592e-09
8.90262461075441899e-10
-5.29465423911960957e-08
-7.67793479835978693e-09
-5.1326079876635089e-10
-3.32751118387687752e-08
-7.28389178949156648e-09
-7.5206056669100138e-12
-1.91788930842957601e-09
-1.04428649231214728e-08
-9.1790462471321111e-11
-7.39179290712005707e-10
-1.45597857111140803e-08
-3.44761917720031974e-10
-6.94995746391725225e-10
9.77634782478950134e-10
3.08666704700644302e-11
-1.16644746532506885e-08
-3.84799417185031435e-10
-8.74129077748978279e-12
-1.23136156240317112e-09
-4.61601145341203081e-10
-8.74513493630426392e-12
-6.01572448873088504e-11
-1.15065877119427855e-09
-9.72624594972918172e-12
-8.01079916487690688e-11
-1.90154441073217027e-09
-6.16204690318906646e-11
-1.1446940623369358e-10
4.69684600840524684e-11
-5.76053099498895817e-11
-1.54362206898366966e-09
-8.70828865535137457e-12
-6.26590710951547293e-14
-2.37918212950326777e-12
-2.29236949726162994e-11
-2.09354856825604679e-13
-5.1233849400425409e-13
-5.63759953597049291e-11
-9.83728078366102238e-13
-2.50865163183085018e-12
-1.34909536738030957e-10
-2.3513136983770863e-12
-5.16916945636163158e-12
-1.17201515889327556e-12
-4.55176070159766379e-12
-1.20478931751597621e-10
-7.10141290801617984e-14
-1.73616081668910423e-16
-4.90845014893040114e-16
-2.85058136697884095e-13
-1.09771425520499208e-15
-2.39036561675872657e-15
-1.31332231669791376e-12
-8.64304586044270781e-15
-1.75971624578475064e-14
-4.17588068762936427e-12
-3.9519461315574428e-14
-7.90679066254314138e-14
-1.18153735398612371e-13
-1.43887715824537355e-13
-6.05746597496514829e-12
-1.92557957146853217e-16
-5.62166260771769119e-20
-6.53074056475352521e-19
-1.29556659648172127e-15
-6.6869205993838787e-19
-5.04208673194043574e-18
-1.00335242918332786e-14
-1.07408555165822111e-17
-3.86492217971514479e-17
-4.99279800685398003e-14
-1.24203320294020707e-16
-3.01800618887960019e-16
-3.184827633948276e-16
-1.72796113879362536e-15
-1.6977488211611362e-13
-6.10256775891573251e-20
-2.16415188524483513e-23
-3.13013314641484722e-22
-7.31964872178069227e-19
-2.79555340940294502e-22
-3.5887984180231941e-21
-1.15561830718514303e-17
-4.09019534016217342e-21
-4.06714061509596296e-20
-1.95664806791290302e-16
-3.9479868838447767e-20
-2.89519646919031212e-19
-5.3223117073445535e-19
-4.67046178007938467e-18
-1.31645181019622619e-15
-2.24080632171909334e-23
-2.575972224714981e-28
-5.60636955008607368e-26
-3.02150065214446755e-22
-9.21878620314903482e-27
-1.3701171045952006e-24
-4.40072490128987478e-21
-3.58445777416134567e-25
-2.88888799946812091e-23
-5.02871426611587063e-20
-9.18775235874449621e-24
-3.93794325999043543e-22
-2.45364772361857809e-22
-7.68686573193301204e-21
-3.53665567308122097e-18
-2.58062568918348126e-28
-2.15685727135944114e-32
-9.43973837480056106e-27
-5.63111688364360893e-30
-3.46988649615839583e-25
-3.7623722116619844e-28
-9.55038998641496316e-24
-1.61877152371299261e-26
-7.81690611004558766e-25