/*--------------------------------*- C++ -*----------------------------------*\
| =========                 |                                                 |
| \\      /  F ield         | OpenFOAM: The Open Source CFD Toolbox           |
|  \\    /   O peration     | Version:  2206                                  |
|   \\  /    A nd           | Website:  www.openfoam.com                      |
|    \\/     M anipulation  |                                                 |
\*---------------------------------------------------------------------------*/
FoamFile
{
    version     2.0;
    format      ascii;
    arch        "LSB;label=32;scalar=64";
    class       volScalarField;
    location    "0.0299999999999999989";
    object      alpha.water;
}
// * * * * * * * * * * * * * * * * * * * * * * * * * * * * * * * * * * * * * //

dimensions      [0 0 0 0 0 0 0];

internalField   nonuniform List<scalar> 
7248
(
8.49119246404428396e-05
0.000112099868190453908
6.67640673420647585e-05
5.20400441657885358e-05
0.0446293018478089928
0.000113196005568889661
5.94177411998077446e-05
0.000236410911262690626
0.000317728439865004369
0.134095483323180525
0.0111585907835055637
-0.000622087141605072945
0.000181932645489755931
0.00231567865985421581
0.173002635175672048
-0.00149195549417521409
0.0179086437378590882
0.00513285551825438165
0.00131436234940855733
5.09121130344409141e-06
5.64793294781079766e-06
3.27190057578643692e-05
8.4620853938375916e-05
0.000441310210548663236
5.14969515658106186e-06
9.19382098596416507e-06
1.81781452719469897e-05
5.18751229002665837e-05
0.000344336613112357207
6.29764136677909157e-06
1.01779729959591659e-05
5.65336410063133863e-05
0.000164897942595391582
8.30425797945971077e-05
2.14705077530398509e-08
8.24261134895486231e-07
4.21738413043006027e-05
4.91128752115875227e-05
1.15809373750122609e-05
-5.70691846075086383e-09
2.29698132551339303e-07
2.06608378054861904e-06
1.62221653717974787e-06
9.20593759042563555e-07
-3.71262479238753026e-09
-1.94598535453656287e-09
1.20847019749577286e-08
8.26752914784299117e-08
3.60277349978734989e-08
-1.19301949621487699e-11
-1.35855622608082398e-11
7.86049819365255114e-10
4.01277737289646384e-09
4.86694070585589731e-10
-3.73047613985245967e-16
-4.21359906955729268e-15
-2.16714103139911731e-14
-5.95118794818085357e-14
-2.6121901028252304e-14
1.34842521936249509e-13
3.36408291323310878e-11
-5.92080927619561941e-20
-7.88394787537314991e-19
-5.69992875156873564e-18
-2.5283645564627644e-17
-5.78647103899453297e-17
1.16383015096248652e-16
-1.73868624085162511e-14
-5.46225023041843628e-24
-8.02597554256265991e-23
-7.12287737621497957e-22
-5.38070255827882195e-21
-1.04544840625333034e-20
1.63504127358026683e-20
2.13932910226483086e-15
-7.93726357605456779e-30
-2.36255923900549744e-28
-7.12253665377433838e-27
-1.15293954523439426e-25
-1.46203608480270337e-24
-3.23811211668697814e-24
2.5640900348049358e-19
6.55743108261055421e-05
7.23761346510996503e-05
3.79945516745191594e-05
1.596874750407999e-05
0.0627215501404185249
0.000149735833946002548
5.37038645663678491e-05
5.77657037329767114e-05
0.00013527870421373221
0.207360494751972768
0.00256288859373492595
-0.000393376007752656992
2.05212459625842729e-06
0.000230401496741625188
0.106185181710083371
-0.00235236050600902587
-0.00130563376994002715
0.000707453226523894509
0.00302257733882186665
7.88376647766554943e-06
4.37945941333596177e-05
1.18159094318361509e-05
3.79882613662307512e-05
0.00202466635091803904
1.02352310859300471e-05
1.80007798427957985e-05
2.46169356822399197e-05
2.32162456369069086e-05
0.00144912201359866121
7.91606127873010327e-06
1.57813816040026326e-05
3.65933841922442686e-05
0.000126368647934709623
0.00013567830051294287
-1.12442198004334214e-07
1.31045966697879528e-05
4.55005669279599892e-05
5.01170347347043517e-05
1.9319719177730551e-05
-1.94129337221573161e-07
1.07645336750091656e-06
3.78120540985243864e-06
8.9572157667491424e-07
1.59339917475950632e-06
-3.29961375814641082e-09
1.91711339337571992e-08
7.29512881963247027e-08
2.80796967965175398e-08
6.6228053063144476e-08
-9.08205316134852245e-12
-1.37135214071110527e-11
9.58157855192580331e-12
7.05615395603492435e-09
9.38614286139465374e-10
-4.86002432901334134e-14
-5.06585055798859272e-14
-1.70234813702563872e-13
1.2393592974961016e-13
1.92753270134622909e-12
-8.82502368011438947e-18
-5.03400823954248937e-17
-2.26761203134682223e-16
-1.71188382544112828e-16
-5.93910047986203095e-14
-1.70187079999807866e-21
-7.85439791729124875e-21
-1.93965140762391663e-20
-1.8069358028162131e-18
3.4631345448371017e-15
-1.48339430329077619e-26
-1.17369122526059963e-25
-2.15313060951323556e-23
-2.66790849679581071e-22
5.12742791559746272e-19
7.41524097882106524e-05
2.15303876443130678e-05
5.57353469148393109e-05
2.76665107884566794e-05
0.106013865180846489
0.000702699080323742221
-3.99681820075243821e-05
7.53644818270057354e-05
4.9798007660599985e-05
0.121504812021856812
0.0118598091407170134
0.000247111649283735663
0.000363436497359662211
0.000367286127628760404
0.213292361781739381
-0.00284225463054277577
-0.000795037728117700313
0.000649056836714059543
0.00162446142228729737
3.36833427844362415e-05
3.25904991405123742e-05
2.7528569253146399e-05
5.40590599007880027e-05
0.0028387614089494949
2.52593131240289367e-05
2.61476901700469088e-05
2.14691864286576106e-05
0.000145625986643405515
0.00152807640138927182
9.8515526698161967e-06
2.13556249835963745e-05
5.21430856706673227e-05
0.000172738240727955607
0.000113761161550581029
-4.84158594020152499e-07
1.33445431785384635e-05
3.28732806882385163e-05
2.2425989814947307e-05
1.69916857127300502e-05
-4.23107876560903953e-08
8.72132651653916261e-07
2.21743089137916083e-06
8.90652423392066351e-07
1.493684767088118e-06
-2.18789289340179871e-09
1.76386139029506072e-08
1.04067022491138702e-07
2.3127623515098906e-08
6.8084614315893493e-08
-3.03729976988140777e-11
-1.71076367558542485e-11
2.05822219376915394e-12
4.39496559300611639e-09
1.13537317056360679e-09
-5.79532175145000206e-14
-1.24328401321984284e-13
-1.75250910749837696e-13
1.68090792492287981e-13
1.59576408744079438e-12
-2.18838081241442083e-17
-7.85246947924487702e-17
-1.63512936386595291e-16
-1.14098125862637112e-15
1.3381581536693978e-13
-3.03499086665293601e-21
-9.81807422577082549e-21
-4.00255358925496612e-20
-4.63971536036304033e-18
4.9087443539687373e-15
-1.78628215646621596e-26
-1.66787555866931832e-25
-2.31486616523414972e-23
-3.85129990433924962e-21
7.12179131542195603e-19
9.6533832485958077e-05
5.23508816910181471e-05
9.50646472537610012e-05
5.94104081776411573e-05
0.0621932523174028931
0.000376540987154506816
6.28381272716132757e-05
7.21503427764705433e-05
3.36675344688299737e-05
0.0986903142898052366
0.00332725302277883921
0.000159103295783816559
-1.29138202628876591e-05
3.85836012186248657e-05
0.179974084107715593
-0.00279153558545557762
-0.000643820505346531357
0.000567523691081665534
0.00143366780890776435
4.96821654733603453e-05
1.79747222723741907e-05
4.75217352108912123e-05
0.000721097166925093835
0.00585143083932927049
3.53157294337907909e-05
5.04848860309121456e-05
0.00011903784111374947
0.000449264562235199478
0.00194831460135843249
1.10760782166593291e-05
1.92798167118469108e-05
5.84641622704870607e-05
9.39761255800178433e-05
0.000123921757321970578
4.64342978754108077e-07
1.57441682357912241e-06
1.97727716460797427e-05
1.33861681796032058e-05
1.8478070798310792e-05
-2.45356795096937834e-08
1.55256611934202131e-07
1.73181368913190959e-06
9.57285119057834609e-07
1.65140367579647595e-06
-1.36818190918469269e-09
1.2372420471882766e-08
8.26736752156620945e-08
2.64160121829556096e-08
7.97982195133750735e-08
-3.75282495846649983e-11
-2.98652217072412041e-11
-8.73735703454480048e-12
2.30924799913016566e-09
1.5404459274108445e-09
-1.01107162518582105e-13
-2.55810100535105031e-13
-2.03514630624402915e-13
2.16620270141358577e-13
-7.63220151798919579e-12
-4.78706750124083542e-17
-1.20856609871708339e-16
-2.53867490785383685e-16
-1.20370302266809354e-14
8.61295472188381986e-13
-5.96241332554603256e-21
-2.06740724166101154e-20
-1.44169336162299482e-19
-1.50136821534023215e-17
8.24208742819387718e-15
-3.96213825967782303e-26
-3.38497473585030981e-25
-9.13929231014615134e-23
-2.05619938760842593e-22
1.2207636404967853e-18
0.000209455271238381899
0.000195471565941898799
0.000105849370376863547
0.000172206824001529414
0.0520932264963595987
7.44474350317428347e-05
0.00016722965307116737
0.000141902768103682069
0.000104897589789429272
0.0816942743015007244
0.0023776313242181964
7.27408804116663526e-05
0.000119848143461127806
8.66513578334283149e-05
0.0407427219435368623
-0.00169555732380715848
-0.000270942458985849526
0.000201247397994710261
0.00019078600555638711
0.000278989684740381524
3.95223302762100391e-05
0.00025373392542425786
0.000648209506081820182
0.0013701602004514324
8.57639368138878288e-05
3.39057389326735079e-05
3.99958776196545333e-05
0.000438199450891242376
0.00104845542443365923
1.04843185844127162e-05
5.00548987483265719e-06
3.66045406528061929e-05
8.45518343060040815e-05
7.9902536341018278e-05
-3.99621488511145816e-07
-9.68160948295062557e-08
4.44119206888432311e-06
6.25747127823637218e-06
5.62967132833845047e-06
-9.38631770753462723e-08
5.85377871725783501e-08
4.294399306311923e-07
2.97672586093349121e-07
4.95256736818210237e-07
-2.15199669918323462e-09
5.15184073106547357e-09
2.155633640572039e-08
8.71092747678336402e-09
2.45793060356998475e-08
-1.19058748133394013e-11
-2.63816974735277093e-12
7.22522903845063464e-12
3.93240143758198056e-10
4.49914916729059952e-10
-1.12513079485975857e-14
-1.06743154232901743e-14
-1.53413351862906737e-14
-4.05731139432311863e-13
-4.07398087104245783e-12
-1.79799946195367865e-18
-8.8623854145003031e-18
-3.54360826040955943e-17
6.71956469605892931e-14
8.98225862124662592e-13
-8.83469915139450505e-22
-3.43559387171183664e-21
-8.20636049417841383e-20
6.05870921476513678e-18
3.33730779888475203e-15
-5.80552971080643381e-27
-5.15074277141373453e-26
-2.49295951291852396e-23
-3.72721648321758989e-23
4.04964617438489634e-19
0.000327471204479248173
0.000461385025960389303
0.000336445128235858776
0.000497602366738656245
0.0445833512196113502
0.000383754909981819049
0.000261826428002411233
0.000515789568464167236
0.00047856751734787705
0.0699606217081888693
0.00574376584642508937
0.000173243405405226107
0.000109623037124926523
9.48508286918817189e-05
0.11976229523519169
-0.000465355356745178407
-0.000463733853578468243
7.12536665214750874e-05
7.34345142569208491e-05
0.000950058348362065909
0.000106389306555089474
4.01354959767657418e-05
7.1173935203924614e-05
5.21618803187664821e-05
0.000246020067244962263
2.37489943743468914e-05
1.16247148205175065e-05
4.18863506990913205e-05
6.14824160686845293e-05
0.000176874774197934291
8.83667099762258887e-06
2.78131874612401661e-06
2.24093695124929322e-05
1.09232715267667659e-05
3.09424651664289178e-05
-3.13123488701871499e-08
3.59175285619067542e-07
4.50801106881524782e-06
1.96162081859726444e-06
5.3598381847394669e-07
2.30512876504370051e-08
2.14708655059304972e-08
6.01183925517917274e-08
9.83546483829308932e-08
-8.9075105598669908e-10
1.61902486752701004e-11
2.06512357912443741e-09
1.4492548572824998e-09
4.82526782778486727e-09
-1.47919910249228012e-13
-1.41067272149276677e-12
-8.72723569680824184e-12
6.41247442903316764e-11
6.39611529897746563e-11
-1.50337396797642829e-15
-1.90988555190012987e-14
-6.82795629782814572e-14
6.04716480958263799e-13
-6.60062152530705109e-13
-8.1576723301949527e-19
-4.35359182164765411e-18
-1.44714474627285406e-16
2.97494895884415815e-14
3.05752787220674404e-13
-1.90833627678503599e-22
-2.28958285322670177e-20
-6.02326832643749659e-21
4.34567383390002575e-18
8.70848605369170629e-16
-2.1918758870801645e-26
-3.8999495859255662e-26
-5.61055502263811664e-25
6.61490676992802791e-25
1.04425958030225308e-19
0.00108564796068117146
0.00209835221445117941
0.00106342452778505295
0.00115775592917077928
0.0644234841473911579
0.00137379708358296797
0.000461941909282104365
0.000465689956867494778
0.000417454488844663091
0.111782265269042252
0.000511361383678580225
0.000106602485782827952
4.83250055752222049e-05
6.94814105735603601e-05
0.0637743777381620386
0.00218520719346091937
-0.000381280760861186022
3.71653289181293197e-05
2.02639730411253476e-05
0.002578323931178776
0.00207459197497382713
1.63787791802014135e-05
5.94838100250683351e-05
7.25858076076204837e-06
8.04912011937286684e-05
0.000132312799507952047
3.93379716121245757e-06
9.35509362031085236e-06
4.40564926955362212e-06
0.000155263223364122331
1.68963409159395812e-06
4.86160949475553316e-07
6.97852768518080821e-07
1.29493833534632035e-06
3.30536367352005051e-05
4.37918039709470112e-07
8.05803780589528502e-08
7.52507862799270063e-08
2.61949941893940187e-07
1.62092370978828851e-07
4.29053813205138444e-08
3.13705484109023696e-09
6.27861661287860794e-09
2.09756622088024129e-09
2.84550702489925176e-07
-5.12821135796590939e-11
3.13385874313728836e-11
2.78837843974812156e-10
6.9573358149516924e-10
1.58274150002957113e-15
-3.13897446031089903e-14
4.93613081113663748e-12
2.80257842926980779e-11
1.89301455210977225e-11
-1.37799395343656747e-17
-7.65021725593593416e-16
-8.88141494100080415e-15
1.19642663670079738e-12
2.43965854192699884e-12
-3.2624247602701138e-21
-1.00986154185472636e-18
2.44753199251719492e-17
3.58136191451474477e-15
6.42424345219539735e-14
-2.09011820186704519e-22
-3.30182183483004839e-22
-5.87508047017605049e-20
9.7610613075903883e-19
1.82006374362333049e-16
-2.08355401874026506e-28
-3.16856049882268257e-25
-1.5510486592173323e-27
1.2072385125171556e-25
2.21721496699733621e-20
0.00972580504144692978
0.00984073937768916232
0.000482348901310022666
0.00255755298431875741
0.0584079802145893723
0.00045396077272963169
0.000154365197758327241
4.64152329862554057e-05
0.000179721347957566198
0.0532481042606816612
-4.06738373896714338e-05
4.57151680099202176e-05
3.83961020242382564e-05
4.48587630923499256e-05
0.172297492861205159
-0.00022619542057975944
2.47668382104971695e-05
2.07895860631262891e-05
7.20480193032723852e-06
0.00400477908309197425
0.00627223557958998118
0.000579243629099842759
6.78041990252391349e-06
1.86378418070995681e-06
7.64865021952053961e-05
0.000559786625942842423
0.000345149818863641118
1.44176657500404722e-06
4.85688502829732057e-07
0.000158567756634372102
5.45689396875831406e-05
1.2769768174818117e-06
1.94994465139573981e-07
7.19038854545725657e-08
2.9237906926400212e-05
2.27887716844479276e-06
9.08747903071379491e-08
1.05486987785536459e-08
1.15354403280695801e-08
4.39033307360415147e-06
1.71887171921632801e-07
5.00375081490213484e-09
-1.16208229083667876e-09
5.42058796033252806e-10
-1.04879398498038045e-07
-2.02141067497484271e-09
-1.5932694158196087e-10
-3.22516359741083221e-11
-6.60673156737714041e-11
-4.64298470697164217e-15
-3.3228385635388762e-14
2.17882128674335202e-12
-2.66758128386176983e-12
8.175454710794485e-12
-1.28068692485241329e-17
-5.51672781322420923e-16
-6.96873372194390637e-15
1.59604434182018477e-13
5.23135254169231429e-13
-1.57854988472696435e-20
-5.3478754552911569e-19
5.52328493832375688e-18
3.00372882674176506e-16
6.3880854759030257e-15
-5.79899752026425058e-23
-1.70279057358223425e-23
3.30634992190013744e-23
1.05057275181614451e-19
1.86803149946758987e-17
-5.840175337340062e-29
-1.53961871762144664e-30
-4.08805696252805679e-31
1.38661200087385189e-26
2.41183259739007702e-21
0.00026979267221983105
7.5278419657981427e-05
0.000680311923911729307
0.000211867551919297804
0.0809360961837763127
0.00173896050840163102
0.000560722919860723551
0.000318583465473376202
0.000247357687803725673
0.0368248004228815193
0.000236930228848371266
8.27118739093188267e-05
0.00023156248375216722
0.00039379972528728901
0.0802985092935887407
8.35680689279420319e-05
5.42689320581964208e-05
3.0528354611813983e-05
0.000110661926758495632
0.0235220309016347488
0.000123476168587779148
7.30194577337847491e-06
9.37475802936311086e-06
3.39074258699463278e-06
0.00778092166974745075
0.00151713687203233446
2.8286946261005065e-07
8.78325238897418585e-07
5.88428004630535026e-07
0.000232206173030981083
0.00121718778215050365
3.58665510753669455e-08
8.54725481228737512e-08
6.59394780726496511e-08
7.24052489050367408e-05
1.21381100075221393e-05
3.11392138102528694e-09
5.71332152240233766e-09
5.21108238366540812e-09
-5.85573633803927618e-08
-5.87891469029235859e-07
3.0952040191219622e-11
1.85049058801942824e-10
6.85565056533776735e-11
-7.72212782678246278e-09
-9.22317912427505614e-10
-2.30257632007737221e-12
-4.59000349858263817e-12
-9.26216039995353129e-12
-4.87740125697603753e-17
-1.65300877152557913e-15
2.5961867657915095e-13
1.03893773210277405e-12
8.60914245006370539e-14
1.85580901216204398e-24
-2.19808133500188722e-20
-4.6800907274020133e-19
-1.12588082841263261e-17
3.83347750234885029e-16
6.10147079925528531e-15
9.79451892874466103e-15
-2.16880567133473692e-25
-7.893930924255268e-24
-7.12650392762551564e-23
-2.39157836319694439e-21
2.95423302130159756e-20
9.48042983480178594e-18
1.08676770133230213e-16
-8.6218084191491877e-29
-6.77064958348964661e-28
-3.02195784250058835e-26
-1.56311305970705706e-27
9.13933722192048051e-27
2.3043790805562546e-22
7.55813521590701594e-20
-5.35591026325723372e-35
-3.53677709767163659e-34
-5.72866058665075754e-33
-4.00992037248253321e-32
-4.10984112820079094e-34
6.87572533241163564e-30
4.3007691532801493e-23
0.000182411532888005097
2.92256746618496298e-05
0.00132586907816202603
0.000482362608786424281
0.0353872301781047865
0.000726744060757876357
0.000320774849421213125
0.000194517470625315826
0.000116646974369056082
0.0200461778739997563
0.000869822624510611106
0.00029993590171418648
0.000129647131249112775
8.72217591873239385e-05
0.0165217490392291014
0.000252722803618799635
8.03114035231615242e-05
0.00014694716648640504
5.74111010259097343e-05
0.000225578545236331467
0.000336766685185904062
4.4984781810070318e-05
2.73937422590541882e-05
1.33908540279839069e-05
4.54780422231783099e-05
0.00014284649192885897
1.87477213694562365e-05
9.25876049220898634e-06
3.13402987986850655e-06
1.84665372747275721e-05
5.57801983440148484e-05
2.20147944208640999e-07
7.26129972972101394e-07
4.03056543310722354e-07
9.1379007140129173e-06
1.51773976632006065e-06
-4.12199636048966606e-09
4.71578628278510591e-08
2.29847900721629186e-08
1.73439506596686022e-06
-1.10940832145566715e-08
9.70221040675218917e-11
1.70291602577019854e-09
1.32601066896820421e-09
-3.04717940812889034e-10
-2.50165611716926025e-10
3.8629866853659344e-10
1.09258226070047208e-11
5.6446051140906144e-11
-3.04947817326587186e-15
-9.24780865698682915e-15
-3.09892048748068532e-14
2.49982542252776399e-12
-1.05479016598358622e-12
-9.25050638618476863e-22
-1.65789756796753387e-18
-8.47051512020563183e-19
-2.95237694897957933e-17
-3.30249583451142076e-18
1.93256026054529862e-14
1.03944132018163198e-13
-6.91578074793279759e-26
-1.48722930110380575e-23
-3.06919883099121024e-22
-8.13715169434908379e-22
-1.00234967934506157e-19
8.96948612036611113e-17
1.03556695378273234e-15
-1.69388100294762121e-28
-4.18492401975890342e-27
-7.54382143110292977e-26
-1.61689412353414226e-23
-4.83890965479659025e-25
1.99861119344010419e-21
6.51439889483224911e-19
-1.41940547337701819e-35
-2.36624416855082134e-32
-3.45085330503178632e-30
-3.81588947744196886e-30
-2.60604695208036531e-33
4.08454011987717248e-29
3.58681390316777001e-22
5.9210445221471646e-05
3.29564494647639297e-06
0.000459826453805113155
7.62434769372222139e-05
0.0532519555381369553
0.000845935066693268337
0.000236662308519704499
5.99319129899392172e-05
2.34779661952833967e-05
0.0450318309398286751
0.00122074559948006376
0.000938907395691380921
0.000741091548373025086
4.26131629066065802e-05
0.0540697883680546568
0.00234940691414331319
0.000302740384899146807
0.0010038880802813138
9.95247069329502392e-05
0.000290874808188476097
0.00205620621798328126
0.00106050549296187553
0.000419041761009065485
1.1519940714701902e-05
7.54454514295724277e-05
0.000469258132145249887
0.000257938706609649898
3.09955881595347176e-05
9.79424839407623272e-07
7.84549067095162535e-06
2.15629642134941071e-05
1.84777437338543812e-06
3.33195110144518019e-06
1.17374767608141789e-07
3.43809674279932678e-06
1.02642544733640074e-06
8.6759824852433114e-08
1.2104473617283901e-07
3.93399674771262407e-08
-8.44928381027305337e-08
-7.79352914676311799e-08
-6.62162230511038721e-09
4.1949371398174806e-09
2.17559762589400304e-09
-1.85460918496786683e-10
-2.85602066620328143e-10
1.13601245071163531e-09
-2.0693125951368853e-11
7.00020544162217492e-11
-7.98778009381117773e-15
-2.05873329107460095e-14
1.9239694868310471e-13
1.19912790128578364e-11
6.28158621806865373e-13
-6.29848312805312276e-20
-6.84171878009224945e-19
-3.05709525005611553e-18
-8.56438573678643616e-17
5.03858959785378377e-15
3.74814445412176071e-14
4.9724695358758271e-16
-5.2412734351445123e-25
-8.85042429310287225e-24
-2.89600612913885407e-22
-3.18675947278126045e-21
1.02566761843148518e-19
6.52906984080479342e-18
2.33335321281154302e-16
-3.02192266592098089e-29
-2.08733428192811318e-27
-8.00268604961868091e-26
-4.04705768865462007e-26
1.6227213490707022e-25
5.90248897451561082e-22
3.87798036318441733e-19
-4.74272057410866208e-36
-7.0840560376107216e-33
-2.21146199699714705e-31
-3.70844217942838805e-32
-2.61126509150042899e-33
8.12580395612740413e-29
1.1568569022735773e-22
1.7735341505738763e-05
-5.45480185854100611e-07
6.73140086726030948e-05
1.55347001836835387e-05
0.0221042264385023744
0.000337235018287474256
0.000148914753705488962
6.83844002329359057e-05
1.1468400136188053e-05
0.0793760784474788622
0.0026027327586300433
0.00394062387747740224
0.00140665856097209351
9.05797601832717533e-06
0.146962991602484605
0.00468042686688348742
0.0025786986738037471
0.000805306471172192832
2.56027183532573444e-05
0.000533313656810003624
0.00686534401263805445
0.00347178672105954208
0.000582150381739721568
2.30775775840223607e-05
0.000141721010594437661
0.00147682340339679854
0.000607258376772996109
0.000115985440828334565
7.63478367030892519e-06
0.000161327150412667546
2.50295442410843421e-05
7.07484103385377331e-06
4.09329401647341576e-06
1.2797800187476213e-06
3.3237336955755155e-05
1.85768598607354915e-07
2.3213847729501384e-07
2.88433118060015068e-07
3.885000976596484e-08
-4.24547950412495571e-07
-2.42886159846634163e-08
-2.42047766680680993e-09
-3.24582079677057658e-09
3.55892532089388949e-09
-3.11478335996596283e-11
-2.637710406517365e-11
-2.12276471839500073e-10
-1.34036291397295386e-10
2.76797728664312107e-11
-6.72768343033109189e-15
-7.87852068005047601e-14
1.47530298002088583e-12
1.04740509424047981e-11
6.02852487124476181e-13
-2.78123362306710718e-19
-1.16332088816820609e-18
-7.48726148807493581e-18
-6.74867020786083304e-17
-5.54441808783602011e-17
1.02736934146314948e-14
1.22091448799015279e-13
-2.11335808720260764e-23
-1.33081027260919196e-22
-2.18035340730490408e-21
-1.70938121559122561e-20
2.13869344224625228e-19
7.24074581013760356e-17
1.27273492147963601e-15
-8.14928335622738779e-28
-1.35567787052125631e-26
-2.62663827898788729e-25
-4.64482393767534054e-25
-1.44621644894073874e-24
1.09459737822501409e-21
1.64756257359976432e-18
-6.98511046305283428e-34
-3.23751420925937006e-32
-3.0780954821290858e-31
-1.35987885556912604e-29
-2.46098489224452948e-30
3.2700905511227264e-28
2.66255809432163217e-22
7.36492455281845883e-06
4.8531027084158316e-06
2.32839866570581492e-05
4.29913833960036203e-06
0.109544376059313414
0.000992526258901065602
7.18204175206992479e-05
1.06194289403447956e-05
3.45164962951158127e-06
0.12630737046323498
0.00350887050975705762
0.00107418393638447434
0.000172622770995428865
2.32681742212516203e-06
0.0476497211632225873
0.00820193897037356165
0.00299403173449326295
0.00107535299758728439
0.000187268304351418481
0.000141945361538761071
0.00704759197439654584
0.00542395161714504751
0.00101232280204818803
0.000131022999149353375
5.74899436370502042e-05
0.00187876032378368296
0.000151463521202942062
0.000281370194234416987
3.48606680889009213e-05
0.000235137231187288587
6.381038360088995e-06
4.85779677682786422e-06
6.6607736755672903e-06
3.72159317843284411e-06
2.10361063855954225e-06
-2.8562623730328264e-07
1.12145511015632012e-06
4.38360678343383967e-07
3.61169904914135764e-07
-5.55875598655330364e-08
-1.44253133810511136e-09
7.11895048851785383e-08
1.0641412812217375e-08
1.07600587451133658e-08
-6.76778031957195787e-12
-2.09277255840752138e-11
-2.46994126946832542e-11
-2.77597591442654449e-10
4.9032658599895334e-10
-2.59571162004569326e-14
-1.16892693566232073e-13
-5.66851858585218731e-13
3.13386881680896505e-11
3.94608513878710658e-12
-6.68820360672060286e-19
-4.78528354671374804e-18
-2.25151604283803294e-17
-6.05808398526787142e-16
-1.01864114964774073e-16
1.02127196944040715e-13
1.10624220724025414e-12
-1.86445478026040044e-22
-1.53509899450945128e-21
-2.38628158619236161e-20
-1.05440045670983463e-19
1.12751103875308432e-18
3.95650658056043607e-16
9.00734277901263294e-15
-7.19137891628042339e-27
-9.2304768750613417e-26
-2.4777196681346148e-24
-1.07434649795979815e-23
-9.95507636137888283e-24
6.38867616800292915e-21
1.36017885500261918e-17
-7.51114134428970976e-33
-2.57565733854493413e-31
-9.64653595218637118e-30
-1.32872653007076329e-28
-3.36299992474789258e-29
3.52872958129539355e-27
1.80581555369715766e-21
2.32956239580848423e-05
7.45493815933658423e-06
1.65552520159437139e-05
8.65438167631403208e-06
0.0333120827068244321
7.60522272764366941e-05
4.41190394129468465e-05
1.81128906644949991e-05
1.9570322122349009e-06
0.0752789431532970565
0.00182253483134468082
7.00704396541958874e-05
5.22992903150330357e-05
3.01048657955204806e-05
0.126727931369256697
0.000505627413173754463
0.000952840335428647902
0.000237425134548024019
0.000274905192186144154
1.93505469536063647e-05
0.000357642239572920342
0.000776049891515404803
0.000513977789357640763
0.000870771598444137779
1.62637152278748606e-05
0.000143649885799890855
2.47644380237021166e-05
0.000148159485016313139
0.000304782479549508363
5.16667969604949829e-05
7.93208703749012e-05
3.91523105144043627e-06
1.32023451733170428e-05
1.26764894255726355e-05
-4.01307799139357482e-08
-1.4153801879702925e-07
1.19614392613679536e-06
2.50336517078554694e-06
1.25978465347229214e-06
-1.2132995917487765e-08
-1.1312042504377492e-08
8.09290422761003846e-08
1.23843492776285464e-07
7.34909618542498105e-08
-9.0604426967973653e-11
-1.2163365771268851e-10
9.21406113083370189e-10
7.66559550131151047e-09
2.01007188809355198e-09
-2.39137688574548366e-13
-6.35114464224265619e-13
2.32905137726600947e-11
1.16833733838201167e-10
1.88084800137310066e-11
-3.14013574895956318e-18
-3.15764552583953248e-17
-1.70043473075611824e-16
-1.96027326630525084e-15
-1.75544209571405776e-16
2.00443286583508223e-13
5.08665347458344179e-12
-9.12536153364079304e-22
-1.01429253525610923e-20
-1.15725828444820018e-19
-3.72016172308976921e-19
-2.23162568065212065e-19
1.39333224878126679e-15
4.03651187573894172e-14
-3.784269858616102e-26
-7.05919622096642544e-25
-9.15676455540920924e-24
-5.92462602215797928e-23
-1.74662412701503909e-22
3.35685726698253406e-20
8.13979906130432656e-17
-4.21816915523691631e-32
-1.38636862772334728e-30
-6.69418702901645675e-29
-2.18002838996996366e-27
-1.37116963825155659e-27
2.09172336004072877e-26
9.15688493094136621e-21
0.000168520817385636084
8.33543104528307761e-05
2.54946372939047789e-05
1.67933922734007773e-05
0.0369753519460794405
3.17671684493438453e-05
5.60895315785650317e-05
4.50977882873927505e-05
1.8525341737209243e-05
0.0409384005633012735
0.00709837754616343079
-0.000127688028768159419
-1.09397648775109627e-05
0.000189417683277927015
0.0997232861496936684
-0.000581439144534251972
0.000379025668593262958
0.000560304304945985748
0.00140114767948340676
1.20357096844119678e-05
-7.22839387163002473e-05
9.67935274511510943e-05
0.000353016028269581984
0.00288502964402789948
1.05097132211504491e-05
-1.69533664300220827e-05
4.37391750352328652e-05
0.000177779796537672009
0.000733590219776066488
3.26551489871653519e-06
7.85195593264616774e-06
5.10289128427404771e-05
9.00101456149138176e-05
3.1936867479048603e-05
-5.51233979218739404e-10
3.71685099572895311e-08
8.19561372516069365e-06
1.05896182688960507e-05
3.60519824866148764e-06
-1.02194089281717435e-08
-3.27856357724668727e-09
3.15742239389100853e-07
3.4394291227742486e-07
2.3209572066707371e-07
-3.65411743698384002e-10
-2.60551904357963607e-10
1.97758974468339331e-09
2.14767246031470542e-08
7.20561591691861718e-09
-1.53785966299514704e-12
-1.91306670185750652e-12
9.46194916572291717e-11
4.48486424671405725e-10
7.69208623890124416e-11
-1.80465886904603377e-17
-2.73520867193476111e-16
-1.48747833452423145e-15
-3.08543964083062908e-15
-2.28849906681475813e-15
2.14839413312526409e-14
1.48495873428940614e-11
-5.26973703594259219e-21
-4.92645202090681698e-20
-3.06258272707831638e-19
-1.9958206554692821e-18
-1.75691713560322867e-18
4.24189127598597965e-15
9.12115632217770981e-14
-1.65523695018655234e-25
-3.13954785263189373e-24
-4.96597669648069818e-23
-3.13220884020153334e-22
-7.25458841123981492e-22
7.31429158216465433e-20
3.32717672602746506e-16
-3.1747687824360732e-31
-7.41073137128996315e-30
-4.16066342122028472e-28
-9.84270891869191854e-27
-3.81089547023541911e-26
-8.07651544010801119e-25
3.52152443350371926e-20
0.000389453987750948145
0.0003902344373270365
6.15382556906718479e-05
2.74616887302946789e-05
0.0324371581049921406
5.5449162356795438e-06
5.52060922227657328e-05
0.000118948956930687536
0.000177567268970802447
0.104052891311716536
0.00254771482965376796
-5.30226855971422243e-05
2.29724339883474662e-05
0.00175796512817368673
0.176556886035802191
-0.00216634267731291227
5.05041637730707101e-05
0.000956870820637638862
0.00265692942291190313
5.21149121816954562e-06
-3.63553043000148127e-05
6.05845861089095085e-05
0.000297847530710452048
0.0019433785979453787
5.10809769629828388e-06
-1.56814315046438359e-05
2.71856757042350487e-05
0.000150166713840205288
0.000721065729547565163
2.31819100074244646e-06
9.74744342363837371e-07
3.35577405006357894e-05
7.29989379608233174e-05
5.66906987998654131e-05
7.49588217747487989e-08