/*--------------------------------*- C++ -*----------------------------------*\
| =========                 |                                                 |
| \\      /  F ield         | OpenFOAM: The Open Source CFD Toolbox           |
|  \\    /   O peration     | Version:  2206                                  |
|   \\  /    A nd           | Website:  www.openfoam.com                      |
|    \\/     M anipulation  |                                                 |
\*---------------------------------------------------------------------------*/
FoamFile
{
    version     2.0;
    format      ascii;
    arch        "LSB;label=32;scalar=64";
    class       volScalarField;
    location    "0.900000000000000577";
    object      p_rgh;
}
// * * * * * * * * * * * * * * * * * * * * * * * * * * * * * * * * * * * * * //

dimensions      [1 -1 -2 0 0 0 0];

internalField   nonuniform List<scalar> 
7340
(
40.4837030044648927
42.9296041006366735
45.5689041796550711
46.6189354737765811
47.1331092572725225
47.6035924548933025
48.4026888453859385
50.2483944982859967
54.4467460227372229
64.1018038885234915
80.5006831385329065
101.937828300585181
102.621787655466264
172.318872067490815
312.881048885070584
1202.31816939464898
39.5454688180901712
43.0949337759157061
45.5054316372720464
46.8372669171280691
47.3214859657163487
47.4903294462962862
47.8622500520527367
48.9223414756523169
51.8347595695277263
59.809719453020719
75.6285315509975078
99.0516870433250602
105.238839434997971
206.09313187328263
367.002366281240199
1307.68152552377023
39.953253902174751
43.4388903831808193
45.9256667872107442
47.0273617389788399
47.4154265298363384
47.5922311262942728
47.76865721993601
48.4123356676586027
50.7691120310639121
57.9517942941350341
73.4563216403174692
115.019653050621386
280.217354150910069
402.635262136493111
587.834034248095691
1475.9122077726845
39.2002108374567797
43.5441471575866217
46.0285736224556388
47.597827876303981
47.8281535861110356
47.891959902150397
48.166233927679535
48.8257892598552488
51.0948055063314399
58.5045255503201247
75.0396873429022691
127.113231187360768
898.46503096189349
690.490376017471363
1382.15913915608439
1539.48990054424121
29.3294895384113801
31.5936498993892236
34.0851194993231488
37.7116658197019063
43.653791994105255
46.1991073431234156
47.4657282157143783
48.7864510630522261
48.5204518094866302
48.9489747996915483
50.0253829223988333
53.5182965257124934
63.3482385108192432
87.3029293348484572
315.849440299870821
1072.26360887025953
1290.01981596820292
1353.00538705169765
1508.50270855565736
28.6758696857247273
29.3440662076688703
31.7356477080919106
36.5118124206657342
43.8696677423652375
46.9231017053063368
51.7912182444678209
51.6294376973962628
49.9078740120502218
50.4862354937326501
52.8972316434752656
59.6831232288619233
77.0805639880861264
119.481580525049026
639.111706634029474
1239.27706759028479
1421.17207082755044
1022.72531403858568
1713.33465419719209
35.3067312519308132
27.4828551202883773
27.7145553123389021
27.810242630935587
30.217398884063396
36.9120648586771196
71.5931391232723939
76.5697034070933711
85.4304194105527444
64.2072927230358346
54.1369566100479176
54.267162726363992
59.4474690112415303
72.9811713981492431
101.903228703230937
176.73083373298536
854.966652075257457
1352.88788449210824
1514.85639258875949
989.647212438323322
1922.96930746523208
44.3417692079482535
46.0614383171080632
46.8347156442674759
47.330386406440212
47.7122020099112945
49.0787290352431853
51.3975771545471858
55.5127339136272298
63.5563832622205069
77.3191830739652204
96.2014630110184754
106.531958864443013
262.651803752621277
847.869674666270271
1414.31435084377267
41.9841918893565307
44.3084887637270697
45.8262039397481331
46.8082718838103631
47.3012090679921187
47.6073309634364819
48.3466303201147767
49.8639639305739948
52.8154033168475578
59.0716512651235419
70.5924163511491827
92.5196180489564739
121.584301681835683
366.16241232088322
622.080574140356134
1518.49395200665276
42.0529781032578214
44.449290304130642
46.0592310490871597
46.9721202539110649
47.3614467690578209
47.6955250835875404
48.1382304238173191
49.1470860450003997
51.402325382798189
56.755565283612853
66.9505664056612062
133.470507231528131
309.005103717264831
989.317623365109284
837.053281620453731
1583.09140145923766
40.9861847254928691
43.7273228700552181
45.9010039395421288
47.3531824708581368
47.8775319920308817
47.9897733257989927
48.5965742648599388
49.3567775893230234
51.0682351216491597
55.9967482285751714
64.5537207643141784
238.393418386099569
1026.92456554201749
1284.03045378564184
1014.18720613590426
1624.84416723267077
38.3497472768947034
38.3431037452343375
38.0075423772231318
39.8470746948182537
42.9843268369674618
46.0590723952222234
48.7151945594363056
49.183213451110916
48.4592072259730671
49.2354802263739515
50.1899786783809532
52.0922523297568105
57.2417640482989967
68.823370580165431
173.986125226306513
1217.41083592221048
1417.22345272164671
1208.49667690978526
1381.17167464363479
62.4152320471130153
39.2980027818691866
37.7269573851927902
39.2286056306543429
42.828753220369606
48.1398846945106342
52.3371569957339062
53.7718837402954009
52.0578999775111768
50.1373117772908685
51.7027401692678836
54.8058522953582354
63.1735032182712217
82.4882847423917127
273.302648303063734
1253.86791873563743
1553.52804004532777
1673.22457540693949
1702.54690910406566
50.3302523008059239
57.9987879631666843
77.5312390023834581
58.6847114094734721
40.2896933113791036
39.3723999163073302
45.3145750708754846
53.4157039163655583
61.327568692269125
64.8954970822407802
65.3581321968263893
56.2189923365835114
55.0641408248157944
61.8954088251857826
75.9104386476404045
112.629007369916806
303.495350608959257
1486.04381995967242
1697.47256135241309
1916.86240586092435
2079.70008990927136
45.9369728952883278
46.5169230588357365
46.7417488918160586
46.8092466301847239
47.1397423955708419
48.089290281368676
49.932476702044255
53.2969721439262187
58.5747646650500826
66.6119926067437831
88.7702246659566754
309.443205688105991
594.407035292913747
1147.38411250881245
1586.5318728874945
45.5047512314919871
45.9521539683247795
46.6780337305856534
47.0369118256460865
47.2484163209777464
47.5223006798551282
48.115841004670564
49.1987021862258587
51.226889780091696
55.9709504983017609
63.273791460970557
77.317699046389734
144.943161222899249
1076.22186091351182
947.73546940840049
1632.54607083274277
43.8138754131606234
45.9936481978209528
46.99334301430153
47.3086511375643965
47.4830888503994899
47.8005391628400176
48.3974161900952566
49.1651238516159097
50.6429283906665617
54.2830078917267045
60.6171418565712017
72.2875899211550035
210.16253654563053
1251.67382302769443
1402.90013656126189
1684.12227570828281
43.1627379234957047
45.0812783114015119
47.1561232173448914
47.7471978000634394
48.012928032574159
48.1967244905478154
48.9074046806420881
49.6063989865766644
50.6323869274604732
53.4631613141773414
59.570629619373122
69.8080093264536856
410.573688266923227
1361.10455676484617
1689.77839105197449
1573.22453078649301
110.081575786931793
135.05948119901359
88.2279377673892355
43.8442371968713545
48.0780091473077604
48.3637889712827729
49.1929919967026166
49.745288542071485
49.6248687914739577
49.3138402569711332
50.5018604854706439
51.3105066582805591
53.7288484948753222
60.4753708901985547
74.5477903974810658
630.855269488288172
1502.67996127257334
1775.32228944146664
1594.66662089020724
95.2951531161485832
125.321393834149575
151.712970246911652
71.5815668976319017
53.27084454960778
52.6424747964310242
53.2313445867394037
54.5785560019887157
54.6684766513686569
52.5529742061064908
51.184820937080616
53.0359548188922858
56.7497008174685433
65.5583322577104042
86.0521296625285572
389.777385809177304
1631.84600032667618
1882.03570473337049
2023.07396994421379
10.0690824181208782
13.2161328449065092
47.3483819723806008
110.245322810842069
146.163521893947916
131.661804206374995
88.0749528074345136
85.6090820569899051
62.2754607107210632
64.9608051101998427
67.7891586284181074
64.5476772445376241
55.1406122833572709
56.5457154634160801
62.9906787200861231
77.1769429378956033
117.290313617605435
369.93751432656893
1773.86341939960516
1998.97708010737483
2149.88219620117525
58.1181236346919761
48.7385123007636309
47.4429497713943888
47.1944847332312065
46.9229776004990953
47.2184295637348512
47.7938468306732034
49.1548668342125126
50.4969099211201353
53.4789085312437891
59.5459839012859646
69.4706224844243536
442.803263140692536
796.414039345226911
1170.38212208896812
1716.47563006925952
53.7515580599843545
47.4730529275508957
47.306914890957529
47.232878346100307
47.2169409272671743
47.595317966813802
48.1445689727632242
48.8999749838458655
49.9318226786478476
52.310502636574931
57.1270369481318951
66.5356459661428374
100.053991754227283
1171.46715217373139
1507.53152707761978
1718.81368193340882
65.5546011757725182
47.4555316716752813
47.5516741041825526
47.7920421941378066
47.6813964133220978
47.854904542339284
48.4921465065671597
49.0002760628256198
49.6662026173075191
51.4709347308559799
55.6389227370775217
65.0496177001489002
143.026191921372629
1302.78462171369597
1693.73720389950813
1779.86400687126479
155.945413629190398
50.0476062010803417
48.7498790640407407
48.809317683885844
48.1760404657970795
48.2960108827084298
48.9391114205406978
49.585775966621533
49.9235542775434169
51.1982359958116646
55.0190085221312231
63.7715524557428779
179.111157773225528
1414.5583255729
1728.05562801360293
1845.46051307801599
103.495795140467436
149.36878822800017
179.12909544198456
208.220967461431712
103.519073223943721
53.1709666500767355
52.1408104749170036
49.1982369105110635
48.920200338966545
49.3695168220489649
49.927518598990936
50.4708376296580354
51.795126760246184
55.5601882772351559
64.9047171207994467
121.080004410294208
1238.55124752189136
1790.39406991514124
1939.50497567779439
32.9278456382146913
139.791149375259664
176.816197119058131
208.993199391238363
208.867153025068717
117.378647593056883
60.8300024545785263
52.374828776690542
51.1363726439398292
50.343995658684733
50.3440381874045784
51.50666165826064
53.5474184406634421
58.0126852209062633
69.4038767005357613
84.3599432474850772
714.55564767536373
1876.8836530508172
2036.14603233272715
9.07336714767048491
8.4995147636752737
12.9716780173508912
56.5463951321068521
172.86371940607512
206.692059618068186
252.399853661028914
234.189129527171673
112.88784506092918
63.6071632788680361
58.3031292992551684
54.050788503753374
52.2009902550017344
53.3259456494115511
57.185041090550726
64.3399217606700091
80.2623621667501226
192.249304868217195
1057.54162992704778
1992.99786751713214
2163.83186942577731
194.966467686956037
72.3805751682143637
52.1407202403534669
47.6908749492996122
47.3364657157056996
47.8150130870981371
48.5904139397534749
49.6638631692773629
51.1378950681285218
52.8970899325609452
55.2840039460578225
62.2914176033502613
90.9708453604981884
963.851915714751726
1338.28615602152649
1798.52845678275639
208.3917625599681
71.8538315989588625
50.3513135279089568
47.4048863336184425
47.3226862581779599
47.9292712473998535
48.5801407263797316
49.3934540892012706
50.8213550925687443
52.4553647385270665
54.3184906696119256
59.1826863269260599
73.5974238996168992
987.527246999936892
1588.98809369642436
1835.79345536514074
218.147591177354343
93.6041390343499842
52.3181735419811673
48.2534630840379535
47.828370735148134
48.0369203357518728
48.6222075236860718
49.1647304774899325
50.2563288584916421
52.1623046725966262
54.261001286174853
58.3195027220763578
67.0885496088191786
998.690842577526155
1645.82212182838794
1834.94998364891831
230.409629850432538
238.733646461755654
58.2472641912040103
51.1297646551165954
48.5267249921725039
48.7092654684066773
48.9835175032783638
49.3096940506663302
50.530252405357146
53.6599601437759546
54.9059174961791072
59.1024842371472516
67.0315523497174865
1031.81860104952466
1652.79006555596538
1862.94747964472003
134.652893313706755
177.922222824357362
213.836478330158457
241.299312935469203
272.74151493986875
93.7045103554538201
58.7373656862344902
51.7059490660787304
50.5880547266875311
50.0102524583558292
49.6695878241493745
51.2480144523586247
54.6592370194030153
56.4025242926961994
60.808826975177972
68.8295751669189713
500.217127161402232
1708.05835554950841
1926.08032711229725
33.9668880945194473
137.504490386017977
208.68003587526303
246.004007266990442
282.121012370160201
300.382864287751204
80.1868918155814896
62.0114421680155701
55.1095480836617782
52.3351754870294954
51.5591995273390964
51.4940014503921901
53.0289714214300361
56.1614919640177419
63.2088761890652293
73.8245611813954241
159.68085643085962
1790.98387097424461
2026.96002133392085
10.5769139308046327
8.09104922327731657
12.5516612303832584
32.0448511322171399
168.673352894491785
247.452584939260674
298.473802172190915
350.585028201074635
311.168483496735178
89.7716525885773535
68.0927964951074784
57.3553171502274637
53.6224091191847307
53.2804663733074264
55.7849549773422311
60.7954077725767164
70.5786993308010011
88.1423280586243294
219.206651342768907
1922.09993282599225
2121.16180171752967
275.756836959156885
186.948126242732371
77.1530939102001128
53.677893694752278
48.3826187511561798
48.7002501902673259
50.2651842422053079
51.6734031715746625
52.6941528142605478
53.9883416846668638
56.3060137948860771
60.5136954556610576
84.1700198403321878
1138.11680366386122
1664.62408657656101
1987.0901850343123
268.481857611776888
252.594487407518955
77.2723322152130407
52.1930550958572681
47.9104906484814848
48.1565527610235122
49.7227591463556138
51.1574719062005911
52.400872445939946
53.1572129749237661
55.8232324759878509
59.1747909024248528
64.3241234000111888
828.091664335777182
1585.25608419005721
1913.15273964818994
275.471987594738096
272.65353211150375
96.2260112432540353
55.7714312770882472
49.3405604926637693
48.5227030902413645
49.5092082234739337
50.6692554609532024
51.9331846374888997
53.2151315496772455
55.1253926632726916
59.8147718534291641
63.3846397456148196
317.449190445348279
1518.02231261247107
1869.35261640390331
285.83478765476184
292.86974201704254
281.53734558387049
65.7304126284282972
53.0544634142424698
49.7121914146515067
49.8371807042957684
52.7876886975864181
58.6737988631932126
59.9038598861546063
57.7970781939051506
62.8285784805246763
66.117758309179905
78.1722154344402895
1539.42056781062524
1854.01509908239859
158.273714491031399
208.781681563897195
254.044413581669147
289.28942850697797
313.322986521619043
330.188887167502457
100.499804599562992
62.5405868188988094
53.9283785073786959
51.4794148588106779
50.9049825605272517
59.1136880535035729
74.8607056344644661
70.6696617298703558
63.5062481672420702
69.8964163670356982
133.002908523990413
1619.11765916894433
1893.84623600247664
68.4972687886305351
137.970565932005997
248.543739574200856
290.689344488507118
326.162149294357562
355.849592577335784
354.727413972091483
89.5918741823180369
67.2519190786238426
56.0287766150453592
53.0283089885722276
52.1982730306720981
59.9018344786316561
67.2594826239360231
66.7525434726579192
72.894886215905089
178.913682267474059
1585.07894542454733
1966.36196069517837
27.7208571714874772
10.8621501325226113
11.0797716793877541
26.1048387751719773
132.094687545265657
294.815782538215672
348.027574328792525
394.013145444663564
439.660477712692057
249.101969634346403
99.6978840794144219
74.2344645805205943
59.7139501780349988
55.3274726173901001
58.0164195878459594
63.9072309761580115
72.1332731581957063
81.6972919913365558
154.133424614154052
1247.39063393402716
2057.33251504739656
263.934878457089781
247.641536637062728
163.269770734453687
95.6753057362670774
65.5298229400060279
58.0992184017393498
58.8496491653445659
58.1498398468056763
59.8585195705322803
61.441183439980648
68.6798483764616066
69.7342095107849644
116.84645822436508
1129.84678904350881
1690.03135969408413
2035.81480438948006
284.64721899369755
279.005650938955682
176.434847558834207
89.0020049980139305
61.0666499062535522
54.8863937500003161
55.1293312776517297
55.5421279456977359
55.673045903276936
56.7601506885424953
61.3686502650588608
62.6758347056394882
70.5152380139459893
896.682676845859532
1565.86025484921424
1961.48560830875454
348.690749171849632
368.684736386043312
339.362517512222496
101.391869523755091
62.0200990569249626
53.2246707006694137
55.4108885431168261
59.4945934929632116
57.7113773170434925
57.3923476265537502
59.6740846719970079
62.2322983252417572
67.3833260930123004
102.515213209600773
1419.96680324529052
1895.33967996023352
350.065637740556838
357.719485819905231
351.439899237760926
283.47133082281124
71.8666702243043289
55.7798399636741209
56.7775240917699122
65.4526618144494563
66.5074875849452667
61.6219433431901606
61.9648166234030668
65.3347237219405343
70.0652361614082793
77.7410216025411103
1498.96282506345256
1859.97088740392428
135.772362872633209
219.608638771924433
290.681082021806105
339.075915614347196
364.287573918663327
372.566804825554016
381.95582527908465
124.464529477924515
67.4856685574672071
57.28012914838515
55.3586427398563643
64.1035612642238135
93.4332911091069747
101.245149194830859
68.2382697649571668
75.1894644493442996
79.7505843062684789
1582.84674191381987
1863.02640993981299
67.8824090352748755
116.146328103566859
241.160421098779295
337.446367719600914
372.802970743322533
392.888064842548033
421.090992455479125
394.103241929061596
104.502085979339654
70.7642709864352781
58.0940740974421388
57.3421818328398274
94.6249123688273528
105.440720971551499
76.4693437488716938
82.511209060540466
89.4969535573845718
1375.12610952186856
1902.92231949003099
54.6420407523247889
33.3844158820276888
12.5147471434351747
18.7445817519585951
55.4433650576178962
290.560451843485737
396.861043106001944
437.900537213017628
478.667483771294826
529.323206931620803
274.532854350945058
111.730230776652135
77.6706857629803267
63.9037256012904109
63.3844859886559817
68.4564620825610604
78.2433425997930954
91.7599497102075219
116.077353306155885
819.556484581788595
1978.30233734846274
319.557552834636795
329.263719292399969
301.48744473528717
223.902356436506011
148.322709783211849
106.753351211437746
87.5534406872386342
95.0563783868280581
112.908081774495869
183.433494100098187
251.670035768963203
204.622061095515477
612.648079271526512
1478.99583955888102
1840.68725405765349
2093.30616611220512
299.638082191701699
310.559899622831153
290.102657512143935
199.206558547956575
126.583883900341888
93.2645255316695767
79.6173468813145604
71.5558411972434385
65.4790873374111158
62.5794301726445781
64.9591465929164684
74.843480608750852
133.067246110631658
1125.59654818112222
1722.68566444164821
2038.81769653516085
282.987532044761792
302.225190384805614
285.421251778421436
200.983965548522349
119.424715176701
85.9526436550941639
75.6318346732203679
69.1729774853006774
64.7918890813673585
64.5381243387670196
65.7038894130739806
69.2797144911435936
79.3569505932217396
344.448124795671447
1441.07565915228952
1973.28411310954448
363.651773846813228
392.478067852663742
363.866264928963517
334.390906908069837
153.567642447024014
89.7198439239019905
76.0433489565486269
71.1028582212326796
68.5905568015187583
69.0122319423410744
70.3185898469636896
70.2646739498747053
78.7932565065671469
117.444074909611231
1591.35904822782959
1917.79847317819394
84.475216501638144
207.575214782096253
291.879793951492161
359.948701207738623
398.973430274915472
441.560624366799743
463.673024933920999
443.303343105592546
162.790374689670642
75.7316718441526575
67.8101638359736398
69.1515968634792273
77.0580297353864978
82.2882370708432944
75.0532669944113451
82.5411891668449869
89.1917350315804924
1601.47401678685719
1892.01147853922294
52.4347928641036631
80.8001816076238129
207.385206532524535
344.332251237070921
415.690595336121987
454.214845994277596
467.467246863848914
503.06509129184883
482.311871959629627
109.076848900382643
69.0107539600244024
65.5807001540690777
93.5432873251285173
94.3139487690295653
82.3606094881624102
83.4486893579789779
95.7536621507991299
1314.38724487882018
1874.15137229982952
46.7056388066626553
30.7327632754038369
21.2830753145152443
24.557154863470565
45.0012899839746723
256.059710542571395
413.606543499192753
479.824615590560484
528.072061722739363
559.453911859520986
610.609513878511166
471.711311234895163
349.971505522203302
78.7208011680787365
64.6566621429053896
88.0696642758864243
94.3591304560342934
91.1849352730500726
121.136700078874199
773.559634116019879
1927.98986986568775
70.2204095868549274
65.5756313211353046
62.1475523173511775
63.3092089325578371
68.5235848740986029
59.2045226399725877
61.8734034965919477
72.8968988768468193
88.0470451285241893
102.283038615216228
113.369257414746585
401.890024914448077
492.559781847755005
745.4259621625406
1203.14982088418674
68.8759035563265769
66.6539370319456026
64.176965392010402
60.3804428455089024
66.4387458580794146
72.4993112172234362
78.9648324601170657
78.4050283013700948
75.6419360315037892
90.8918367802340867
103.377536813029877
122.171389563185173
390.645550875774916
651.967115843083889
546.343241063411028
1293.35809568822833
63.4675710665216002
63.6999169505505662
62.2537402721206519
58.2584325726233132
53.0787270497916381
51.1655242313246177
75.6911475916999308
105.807119755435622
122.019880897727674
123.047256084272902
138.571738519755826
186.164246878564541
262.230907379185169
835.064454687923217
1129.5686624596799
1398.96059162262281
61.1787059059275506
60.7126651789220304
59.6294173899261324
57.9512189696477051
56.1870248306760232
50.4480055874821218
55.5036897735314767
61.7716708121695959
75.5482587568414203
130.859447639990719
227.347590694494897
269.785272705824696
269.605964652320552
749.957499045703798
1382.07879769443002
1509.31190876599885
64.3436193795744629
52.3197850888856237
56.5531685112718492
58.4205788365990344
58.2656096558592935
57.853591909011115
57.926820667512132
60.7133411091465973
58.5355095991681225
55.9595004011198114
68.4333472598317627
82.18070973295832
98.6073500870125628
123.369325336528902
167.131065105641625
402.12304547547626
536.778397243183576
1476.63266806578008
1621.20649498665807
69.514845682778116
52.3658059787764998
53.5004922693860721
56.1208813851976984
56.078630414991089
56.7762307728270841
60.0149113294936143
64.5329070409820815
61.8171837726910596
60.8109585907774104
72.3789269579257706
93.8632627187307946
105.08506122089274
109.003602191027241
143.659156102159443
383.634681375112052
754.661241079685738
1498.36206593674297
1733.50654434282728
49.534110897744803
57.4854431990219297
65.107258993228271
43.2591644571496587
49.0894758990253095
52.5457383905577586
53.7392360712505237
56.3264285374477325
60.5462594963187968
64.4015165243281871
63.1750004846287752
70.3214328808077767
87.7355362025467826
99.6362856979341132
108.271485815707592
115.635866238615137
133.101673371488317
597.458375348838217
1169.880373943829
1302.7379537672175
1843.75200384691198
69.9299935985840619
62.9823498640783512
57.5677158088967573
52.4206716289601644
48.0830471217741717
45.7383996631810419
51.4986853361278563
62.8218589681990807
78.6214674738345991
92.7646942050889294
111.377095811053707
136.196321066218758
155.831222076002206
909.221617309952649
1203.70069034937205
73.1798903695766967
68.8947730466447155
60.8123923377030096
55.8036860244891457
51.8965301301571955
49.4786867150106318
48.3111966923978287
51.5923859449150299
62.5467576309645636
76.648427378843266
91.201612713229153
117.310373151591193
155.611288354146325
183.883853741197555
295.73188531649339
1286.48019851713525
69.8104467258360302
62.3915076729322351
59.193966596819017
54.8570174726114672
52.4700311590446802
49.7360335388208412
51.3884810909282734
53.5474174768944664
64.1882623719870935
76.3063412317378891
89.4074948780937007
113.839343830729277
282.22713453377213
513.646762302182424
371.50118269426082
1183.56678461613978
60.2467119071055706
60.8758260530188053
58.3367039877499138
55.0201470033976534
54.2878792815567195
53.433168093716823
55.0602459632162393
58.2841807455344139
64.4438231253653981
78.4429317967710773
93.2342002339667602
119.590306602854881
295.942125664373009
796.846866431007129
625.713830109640185
1142.14225398747044
67.6730629732804232
73.4622518582107773
59.1761337680596426
57.9235679002226291
58.9860693659831483
57.0720300499910209
55.2099365118221357
56.3259514817639015
58.4169296525741473
59.6722502655401925
61.2411192650598863
71.7105824422838936
84.3306755788243265
99.1313001612715397
127.181639948599226
175.861643615918524
634.426187398897468
1329.97997140322559
1601.30121390573254
69.4105163725267147
74.8709259527913389
51.642288316973854
54.4656043405800219
56.007159217784853
54.9846757419037573
55.2934991576803228
58.3524991016441064
62.5407502779072075
60.2253955693517398
69.1526580065761323
79.8470740181165723
91.1601771848360016
107.667977590863927
136.110764943852217
180.382149155527429
424.771951480279824
1528.60025540377319
1706.13046710190247
49.6489272057783495
57.5490358166869171
68.0254105228624582
62.773757291562724
45.5439493040199821
50.2540691970001916
52.3759311910746206
52.8033935045382066
54.9293150277275899
57.491662373160878
61.5277294572330007
67.1050472298407641
76.7708104670529252
86.3163525176561421
98.4545831681282522
113.970559692933506
136.607527204564718
172.341184930990437
592.328893200050175
1318.85480425028936
1812.56652996629464
64.8434379462170227
63.8676760182852732
58.5299231846303485
54.2754043666531345
50.5053159757647379
47.3751341108234456
45.6240812551107737
47.4545049507701791
57.1241348183245705
73.3559954298107186
86.9748468119974092
100.45018140742097
123.802428561372039
140.65646487600344
138.408156401148204
1100.9396115876375
70.8537985513774657
71.1253012342412063
58.4202993724446102
54.1567173085187861
50.7641358998167647
48.5457825647876504
47.5697592701584924
49.7818519560780786
58.348935009497886
72.5524720774683374
84.8147458361941773
100.771026178617589
127.563455780238726
155.671071698922418
175.515345608137409
1248.41758519406517
73.6193366511088101
69.7780281346025788
56.775972915764477
54.2119363379597274
51.8580506841080222
50.4058238919792387
50.1001226722207562
52.9155510275957539
60.63997772424716
71.857788275914956
83.5834499045758861
101.596764599605137
135.134845094921985
318.750789040968527
456.248347101001116
1191.73070799898778
76.2663417969826867
65.755300617058154
56.6815613112825218
54.9676270933224771
53.4360979374431295
52.9789399640817038
54.2980534184640646
57.8203402079303785
63.9973693289538303
72.5411139143086388
82.4005703077428819
105.779071390661912
149.768820386004023
647.823491434807238
1137.49055509381697
1157.03100994397937
69.3023231928193866
75.3889420110321851
79.1729440684127042
76.2328391034142783
58.2666690275062606
56.9870467371594671
54.9809597525635354
54.4542529933518438
56.3292834609346684
59.6613686526385649
63.6084049022554012
67.4521890158528947
74.4340741122007898
88.0254931102429339
118.710460141628928
163.69170066896649
373.603069343704931
1054.10449738559441
1408.25129277444557
70.2519467418892987
77.8239866322973484
81.2887931700765591
55.6505001679638909
56.2526238574365749
56.4920238388814937
53.8578754831482627
55.2701370266076282
60.0740562802069533
63.8009938455142276
67.4580074186541054
73.3805350436786483
82.8384481302857267
101.251878384399845
135.153544758094739
173.680337702412174
369.579201853507072
875.035127096320707
1650.90310515876786
48.1618308020507939
62.604939158173849
70.6082389315321848
79.8703782440649235
70.7595570363483688
49.955708910105777
53.8374702124943241
54.5993107394789945
53.6221971870034295
57.2415025560107935
80.6331930803738288
90.4830322700437506
71.9214283265028769
78.181608018305667
90.9054061575539976
110.391242281254989
145.749503573607029
181.966430907412217
372.71596800260312
1225.55981688259521
1764.44623364932977
55.0534401713928503
55.0208056073592147
53.6979622832880281
51.832854819418209
49.7360723023495126
47.9564619644896482
46.5400176819735591
47.2791779907970593
52.9080702713994739
66.9527481214333307
81.5420407648603316
93.1435619601872844
113.207676032957167
137.628430280686587
136.411082235400613
1054.69342707136025
56.6985401607001336
61.0965296864165524
54.515519261103691
51.7660745500363575
49.8387634098811745
48.4075873416868347
47.4533786949967862
48.7115711122172854
55.0373355989529642
67.2834293818407758
80.5525135488320387
94.0710813119062266
119.802185548419914
168.546518434364515
166.624999736844416
1125.99436498584373
62.1184682592718573
52.9662730273944931
52.6965670594104409
51.8732805001402255
50.5691288748641838
49.3720484294704747
49.0456194035267856
51.1293451310857989
57.9565588541951868
68.8475307929653439
80.5568050366840538
96.5807658056156555
127.848935807263061
228.23693484751189
423.978643632794046
1216.46160245580222
58.2944456217439892
51.7867746362078094
52.5615650944548065
52.3952749600196199
51.3459503319986652
50.4972196076680504
51.148056930422122
55.120436457112099
62.5762282056361272
71.7352040015667001
81.2513718790498132
100.380350433662272
140.62321024106123
317.027738341505426
1152.85558821896575
1194.40777791807182
74.4345924776049657
79.8855676757517159
84.8814038979729162
72.4621448790298217
55.2124381790505723
53.2607909877070682
52.5228754898591674
51.7120951844216492
51.7769180499287032
54.7826230213499059
60.6957149131075866
67.0193217287414171
74.6699323913770883
83.3086321614346161
112.369493233027185
165.002288187250855
218.12770603496503
909.779198038285358
1299.81627396169483
74.0916596718180358
81.9693406107291054
89.8250626427929149
93.9234106874567232
58.6128152160405733
54.4800525761254377
52.7488430499638952
52.7764960659801332
56.1420447138893195
57.5773232318229375
65.8382890394896521
75.0115898846132296
79.7616399701778533
92.0212127781429672
130.758847238275564
191.942765244527209
227.069328307483175
449.270949265877562
1570.9165051388477
25.9917092595582915
67.2251298026588273
75.2056233647421379
83.401113779145831
92.832806308947255
103.195046986905098
61.9863769329096286
56.918334689153312
54.2534640449133931
56.8097006634939561
85.7563837165613876