/*--------------------------------*- C++ -*----------------------------------*\
| =========                 |                                                 |
| \\      /  F ield         | OpenFOAM: The Open Source CFD Toolbox           |
|  \\    /   O peration     | Version:  2206                                  |
|   \\  /    A nd           | Website:  www.openfoam.com                      |
|    \\/     M anipulation  |                                                 |
\*---------------------------------------------------------------------------*/
FoamFile
{
    version     2.0;
    format      ascii;
    arch        "LSB;label=32;scalar=64";
    class       surfaceScalarField;
    location    "0.900000000000000577";
    object      phi;
}
// * * * * * * * * * * * * * * * * * * * * * * * * * * * * * * * * * * * * * //

dimensions      [0 3 -1 0 0 0 0];

oriented        oriented;

internalField   nonuniform List<scalar> 
20856
(
8.4341710746002103e-05
-0.000230256849975374236
-0.000221517652970491195
8.66673784275475198e-05
-0.000189107846798233737
0.000284822816189526939
-0.000346072636358875265
0.000114102382252509132
-0.000156982786337225811
0.000372057735936082005
-0.000455231032202749099
0.000167962107212383979
-0.000109809621415235368
0.000418549989169904779
-0.000493080188261617574
0.000240797877545214045
-3.21752878054662228e-05
0.000422203286018213897
-0.000487480194023937529
0.000320954087918502425
8.19022698457798115e-05
0.000369946744829763308
-0.000445140318493611486
0.000373285622038848491
0.000201323033921734179
0.000274860480669513504
-0.000358030782257686699
0.000387137640196973196
0.000355040477753929451
0.000173681995189616255
-0.000249533017415824829
0.000340268242714613397
0.000521726847610768925
7.82949902428532035e-05
-0.000126784428610167172
0.000211138087176463731
0.000709170934297224183
3.26339312858225309e-05
-1.40689406438512912e-05
2.76631353177503683e-05
0.000849204860049090102
3.38008401679118942e-05
4.23185334685722382e-05
-4.67146144308338692e-05
0.000765501523951820761
-0.00021491796120520735
0.000254605757869969451
-0.000145559616209686948
0.000514470992500800891
-0.000548357931814951989
0.000622960812748277627
-0.000118088272607567025
0.000646061432260958872
-0.000368937559669744585
0.000351183772330640551
-4.59231350945982014e-05
0.000835543192438267909
-4.42757758514983817e-05
-7.14548034842655552e-06
0.000945297010147630999
3.82692882179301493e-05
-5.5713715216189245e-05
-0.000170112551811310716
-8.34706534214258388e-05
0.000366786819207500794
-0.000511912469188118913
-0.000119015597118313302
-0.000103645696524833335
0.000406971538111084883
-0.000543529676362826918
-4.08497629257980116e-05
-0.000123099678840305469
0.00041752685950507978
-0.000529575118002384134
5.52101312978232217e-05
-0.00012906995898353266
0.000431164127681871146
-0.000507963775384887104
0.000135584236161179921
-7.29492499507450608e-05
0.000406146320089304424
-0.000445746084243517175
0.000186773593700658943
3.1728912523695521e-05
0.000369536629482158788
-0.000370553263514981836
0.000215347943294666428
0.000161984888271878876
0.000302061810582826399
-0.00029129694468480751
0.000218789636883241778
0.000359176290613049689
0.000214469480718360608
-0.000222045067276111662
0.000183348141949910655
0.000583356291552361399
0.000112933485378371662
-0.000139120510939365588
5.95469823261738295e-05
0.00080328264096036074
5.09444200541500517e-05
-2.12539794689168325e-05
-8.11119045760758312e-05
0.000886308510173538762
6.37656847126866926e-05
3.97896113314949017e-05
-0.000113612557327878152
0.000698956299190666526
-0.000208634896723888254
0.000307681061704386091
-0.000187858872504425862
0.000515623224560756268
-0.000488528216924667366
0.00056162246699532686
-0.000144109219847188833
0.000628557449618861964
-0.000356820219538630536
0.000330574778399234483
-5.73104425890431381e-05
0.00080120602654490153
-5.36502332898159824e-05
1.18868567550266659e-06
0.000905197486528088596
3.36770727488153095e-05
-5.0887907166033098e-05
-0.000441451295047080123
0.000146793784384049726
0.00038109510668954405
-0.000579877895051583324
-0.000387113569309746066
1.94485439622573593e-06
0.000318579547052457628
-0.000478507027070048004
-0.000275280521892841857
-0.000128328427226883057
0.000274504493238015169
-0.000381108584552357376
-0.000140227361009247328
-0.000187416743272764933
0.000246338288226107612
-0.00032304532019758746
-2.89393748227327527e-05
-0.000142814055456130578
0.000233698630845658465
-0.000275122153413153206
3.00419438369180174e-05
-3.28026378584307085e-05
0.000225928503482702872
-0.000220376640838124149
4.89091996112758139e-05
0.000121583590712347694
0.000209697091274270241
-0.00018816227194024275
3.71187440646481172e-05
0.000364793156961346402
0.000178896790766694614
-0.000172723943646880369
-8.36568250333716312e-06
0.00063682436457163029
0.000114301628439446643
-0.000122284369796244038
-0.00010646039174907809
0.000850556764996854525
6.8028255738397642e-05
-1.72064046087501441e-05
-0.000187210567861287335
0.00082159232954512188
1.93253834529064398e-05
0.000126141014312886241
-0.000190464711337896082
0.000596501579107500601
-0.000304569067102149877
0.0004102784570483514
-0.00021959528310518231
0.000486946245860432961
-0.000451161982970192221
0.00050896965111738295
-0.000160777648131884394
0.000597334164569954598
-0.000320373194366130711
0.000292778902817332118
-6.12541005184706426e-05
0.000750862627194717747
-4.76651830389167991e-05
-1.51484113754219926e-06
0.000860570444228141856
3.16641605806668061e-05
-4.829112302377723e-05
-0.000654873737079116427
0.00023820766082616437
0.000124009164467168954
-0.000251950285533195366
-0.000562274218629544567
3.53774545914945036e-06
7.2625216810721032e-05
-0.000166817354795871894
-0.000463559758624193139
-0.000166952731412301625
7.00600608568255638e-05
-0.000130150704672434979
-0.000346161576070051573
-0.000245998075675198514
6.09892955337801347e-05
-0.000119804824804191099
-0.000224923356499745226
-0.000198446221583428598
6.22784545982332051e-05
-0.000127883160216107358
-0.000143859212393071642
-5.80730665411401223e-05
7.52368717399765736e-05
-0.000131029244326987389
-0.000115875996218212779
0.000123483508839467438
0.000103707188309025886
-0.000133590508845195824
-0.000134029412019117473
0.000394637792852981276
0.000112625246959410292
-0.000124317859151315882
-0.00018291083346162637
0.000660407760739903046
9.03971466721976166e-05
-6.50988481953385697e-05
-0.000234440328935352736
0.000782117701915096175
5.43003511690120063e-05
6.5668887326635571e-05
-0.00025376041747362881
0.000669730525363329554
-9.48202790738635363e-05
0.000266002168961243643
-0.000240884055012241446
0.000486179177881207317
-0.00036296264434071922
0.00046040891796228343
-0.000234837558234851846
0.000438158470966310237
-0.000402505730424306484
0.000445247130731201866
-0.0001615078622570765
0.00055799720458282547
-0.000265160091834110102
0.000231167438650928573
-6.27817020545891401e-05
0.00070382988547856005
-3.79520132875288448e-05
-1.37412407008412872e-05
0.000814463875015486688
3.06638246381294843e-05
-4.73388975912340999e-05
-0.000742704651546410096
0.000587887088262321975
8.59091071458179277e-05
-0.000340389840419316899
-0.00076656727775546653
0.000705710569396168904
1.52037607340581684e-05
-0.000223653030089595401
-0.00073310593867185797
0.000527075653758886332
-3.94485528998017267e-05
-8.91307257848450202e-05
-0.000665992383263829327
0.000243422583882480805
-3.92518572680281721e-05
-3.30757183701092049e-05
-0.00058014487896740222
-3.2783426452704158e-05
-3.65164359127828945e-05
-1.30089440976660824e-05
-0.000505454230856143246
-0.000223996472426693944
-1.06395884754964506e-05
-7.00697272950103742e-06
-0.000428601551237867064
-0.000306251617281337054
-3.40271352882433203e-06
-1.31953897398473506e-05
-0.000335405507456497712
-0.000242666114681247867
-2.58973075948536707e-06
-4.63864298120402607e-05
-0.000262746150564795937
-6.51159675945243359e-05
9.10702566721351694e-07
-6.65274658381827071e-05
-0.000239699414430071108
0.000155811185425357688
1.20207234139605371e-05
-6.73958000047069039e-05
-0.000264116200349903175
0.000404464844311341919
5.26498065833095187e-05
-3.80611111248237597e-05
-0.000294138749987120471
0.000590022093544186011
5.05071942058361281e-05
4.99015016895388116e-05
-0.000302834299239411226
0.000606561450975392157
-1.22716867700926568e-05
0.000196523749854552029
-0.000286522187630393744
0.000478181042630542374
-0.000185446580626447285
0.000360683756197347134
-0.000267507210958332236
0.000377337738954845335
-0.000347066939112957037
0.000436893553426630742
-0.000242527243063915597
0.000390670689727703145
-0.00034174216109722201
0.000364250114743776483
-0.000157455592968951043
0.000519898582059842899
-0.000211813057979857311
0.000164840124766841959
-6.67308719744516077e-05
0.000666396735767455731
-2.99612665966882034e-05
-2.33302278267052707e-05
0.000764051793711733782
3.09250301079532327e-05
-4.72438350632868449e-05
-0.000756504744609019374
0.000718787833205657058
7.32138289256934176e-06
-0.000115046853755748792
-0.000739738532805592924
0.000752795949833475007
-8.32438718513809825e-05
1.93923112918580404e-05
-0.00068345465502922813
0.000511240077733112201
-0.00011971351769626289
7.92662905761070633e-05
-0.000600447934127880563
0.000194821779814297117
-0.000115632393868643152
8.12275527656658274e-05
-0.000531272172506146471
-9.4382074291110324e-05
-8.17189395957067737e-05
7.41425833634248366e-05
-0.000483815733805796958
-0.000284173775905764204
-5.34180816780457313e-05
6.61392154616545654e-05
-0.000441718498949403185
-0.000376655378076420802
-3.07233473990050677e-05
5.90299765851436651e-05
-0.000394077852305974334
-0.000298541473682814693
-2.52379401805664692e-05
3.34726710385855521e-05
-0.000347416394510077081
-0.000100417708730074463
-1.63956495046483827e-05
5.03641532266318705e-06
-0.000336620233148633903
0.000131394508308130351
1.90336722448240217e-06
1.17159715116649512e-05
-0.00035052602787987656
0.000338402707363609219
2.15300834824213666e-05
5.84373500325692237e-05
-0.000352502940519878322
0.000429124792797279289
1.17984833258302771e-05
0.000151076414669971986
-0.00033228460598797244
0.000395158992029179886
-7.34202837214698598e-05
0.000264604955890275072
-0.00030122053645309239
0.000302257630528786304
-0.000213189995163197828
0.000358049660456483164
-0.000273830727182686271
0.000279405099929560705
-0.000302069523314435918
0.000372612647038642422
-0.000236075890414750916
0.000349190071939089704
-0.000278880738500049484
0.0002826066729104907
-0.000153231495518959561
0.000484748661008932555
-0.000162516098783873605
0.000114821580398198785
-7.04431517251049086e-05
0.000630971668751962363
-2.15429466473830456e-05
-2.58203591507662222e-05
0.000708574328180168272
3.12401409441458527e-05
-4.62056935966571888e-05
-0.000686115607267856606
7.09827068713373213e-05
-0.000191108505882565331
0.000386605104736580238
-0.000714251212627757363
7.8217793089946472e-06
-5.29755429717764816e-05
0.00054060176998954124
-0.000706857443684859007
-4.80529088704342421e-05
8.26468521254860932e-05
0.000676799725330354978
-0.00066039122209705513
-0.000117152497301361975
0.000157846310423134307
0.000665636058343473547
-0.000596826132917789034
-0.000151249766796005978
0.000170695364826457813
0.000428229804339959948
-0.000528136641593675337
-0.000150030962592059798
0.000159206513494058912
0.00011695757934235859
-0.000480876655366228986
-0.000131136997451802265
0.000147872921235149617
-0.000158377722647139819
-0.00045051892793539737
-0.000101640878321585773
0.000129714347065690787
-0.000342605175077080549
-0.000431592686219977012
-7.05044426009416973e-05
0.000113462106288647052
-0.000438539370686786656
-0.00041898338378274538
-5.41967358979487734e-05
0.000100716223795432777
-0.000357670239944770253
-0.000425640166111428619
-4.28321112383357145e-05
8.1980626499014123e-05
-0.00013290933663240973
-0.000428851242567972277
-1.78143368849383272e-05
9.12348273277077129e-05
6.11852599995683748e-05
-0.000418431211444697504
1.94132555242172488e-06
0.000134149543302886261
0.000191892678462350142
-0.000392464671728250309
-3.33863437867071863e-05
0.00020370281710031148
0.000232842294512381636
-0.000354668962424429905
-0.000111663284106187243
0.000268980217472489496
0.000200046367138678781
-0.000308137798637340607
-0.000201223755256208317
0.000316582560910524122
0.000140368065600467206
-0.000271938955856602309
-0.000254170280600218585
0.000305166662947647515
0.000192210019586837636
-0.000230244987826268239
-0.000224006210076447323
0.000214530531612289177
0.000316971690065344803
-0.000154821278292857997
-0.000121537433234562969
8.09042462580138958e-05
0.000449958039328670343
-7.46809968198507124e-05
-1.075512265298178e-05
-2.01538438801437508e-05
0.00058174037054164302
3.16664315471459369e-05
-4.41961962615767824e-05
0.000646423092739135843
-0.000121421837030142492
-0.000164780556915817259
9.56389391057379926e-05
-2.02160495764055733e-05
-0.000112044929100055504
0.000235452168105540537
8.09542809565823513e-05
-5.65166876521457889e-05
0.000303256875462664668
0.000173133599057293013
1.68935613422125698e-05
0.000331712031010767858
0.000251073716682802392
0.000138638556627205086
0.000274689486072452686
0.000302605646544292016
0.000270982519042605027
0.000189040167609970573
0.000315651556281429683
0.000395095871524726177
0.000102835107014063925
0.000286053235332157279
0.000510921807889440469
4.12029274119734529e-05
0.000198924739494401052
0.000687486662340258442
4.05366899589153042e-05
7.88691026316195047e-05
0.00088459335611821286
5.7417085562795072e-05
-2.01265013960963948e-05
0.000842709488999151147
-0.000158231311063677092
-0.000160264898966046483
0.00054529092485993086
-0.000458887041660367917
-0.000134069406750307081
0.000696969216791276311
-0.000395601881458592026
-4.65107296560625738e-05
0.000842810073166845022
-0.000108958640166681691
0.000937529802339450618
9.94514487600334877e-06
-0.000323950908957747706
-3.32508259709064593e-05
5.33999150444471911e-05
-0.000214830247077723381
-3.5852112876263954e-05
0.000168923080302501568
-0.000116645933731981713
-5.97543800254859715e-05
0.000267052162749039116
-8.21535842779148729e-06
-6.60913325494501909e-05
0.000332305964436551316
8.53450504832649651e-05
-2.13559278855463805e-05
0.000350836541899733352
0.000155777851652832061
0.000106123174729235773
0.000331621580616087532
0.000210726313150598309
0.000254606937367200185
0.000263487310342494562
0.000231142349558007747
0.000415826022033159801
0.000173323234628933382
0.000204657527996469967
0.000559166602524165373
9.11761502460647444e-05
0.000119597036109309526
0.000751940171181415058
7.15517011033451591e-05
2.13030040498549567e-06
0.000959906567222634159
0.000105919868658008737
-8.45986192256137565e-05
0.000830948612425149195
-0.000110144325281845182
-0.000199412073863494688
0.000576472158334657633
-0.000404895796341574828
-0.000155927878521822821
0.000671565951911313607
-0.000374900998762983185
-5.9349059037225809e-05
0.000815608448345196365
-0.000123027453654040006
0.000907007983724035863
4.84988848924228954e-06
-0.0004677603081125079
0.000240233447356377272
4.19290141911723982e-05
-0.000382661958182605648
0.000112756836710479835
8.48727383682798715e-05
-0.000291261937352882015
-2.91250855682574152e-05
0.000152477030866847636
-0.000185005803982425361
-0.000111326511227499838
0.000185318891962517752
-7.30827040080814889e-05
-0.000111668462135075083
0.000212089965143058649
1.93252780580917516e-05
1.65235919235777299e-06
0.000237991988829008941
8.23921004104176174e-05
0.000180902075632731398
0.000220333110600127438
0.000118099758355372472
0.000385519365341427324
0.000173495059806780071
0.000103457481572972372
0.00057975767173237228
0.000108354168150738843
2.01506781325163563e-05
0.000811308868869788677
9.19670923271156341e-05
-8.60433500613239793e-05
0.000966344642454810437
0.000119082121563719563
-0.000158732164482294156
0.000734245733045349588
-0.000135176961941255988
-0.000219680517980892103
0.000560516241345770353
-0.000374257732134116534
-0.00016552610521485453
0.000636162966155749709
-0.000339124548442076097
-6.66715285935089695e-05
0.000792564298697093152
-0.000123475594500865778
0.000868848423327759863
3.15223306537522803e-06
-0.000566242638645989612
0.00036882713112380448
-4.53284158609194821e-05
-0.000503174766079210489
0.000164927909900921361
-4.26100907960557938e-05
-0.000439452609294481791
-4.05044559608236805e-05
1.77214727167658933e-05
-0.000367487906590681216
-0.000171521878660852898
4.92215049362751736e-05
-0.000271128454586345817
-0.000209825589153958276
6.40750961999267128e-05
-0.000153823218013077867
-0.000120576236088180912
8.0159692702670807e-05
-5.91374480579783061e-05
8.00917991369032875e-05
0.000109831901581122096
-5.32766156562714834e-06
0.000328506917407309085
0.000115826108003843511
-1.15923888460982988e-05
0.000581045580016737633
9.53742387681162255e-05
-7.85514541204330172e-05
0.000823356470543814222
0.00010921297659193419
-0.000159023181175225266
0.000863144088826608871
8.88525224787160492e-05
-0.000211011222219560423
0.000604504799601481989
-0.000181233374010286708
-0.000227070731705943454
0.000513143478416232062
-0.000339073393780465169
-0.000169953876615509136
0.000607670401915147472
-0.000293784255133093693
-7.11350207193681047e-05
0.000769819040935370365
-0.000114025647590535281
0.000825593260524153582
2.78403575101964241e-06
-0.000655475477959295821
-8.08569335325777646e-05
-4.80651581692622147e-06
-0.000641207077694648216
0.000161290538329172332
-4.90505076161051011e-05
-0.00061877439108831765
0.000348770321117923955
-9.14348938601327677e-05
-0.000592030700728945255
0.00039367364044727484
-9.08402047713452974e-05
-0.000539749773234547096
0.000164053426458275238
-8.79207239677033442e-05
-0.000482218987824935806
-6.32077544713783776e-05
-4.54654842130011559e-05
-0.000430466377867201133
-0.000223032500436306613
-3.64554817604500829e-06
-0.00036614325803223884
-0.000289712786846863565
1.29730277019213225e-05
-0.000269912106919077298
-0.000231896536995052907
1.5999802498033324e-05
-0.000174685863498891096
-2.09897299590914481e-05
1.78768217077955932e-05
-0.000115226748935926538
0.000272226469439114621
4.94721063167793311e-05
-0.000116195222913463656
0.000554464178570580153
7.80602537116010392e-05
-0.000153926765610196717
0.000742426651224469014
0.000106390620907941317
-0.000197841232707766419
0.000681246070122435354
4.03657716067258712e-05
-0.000227988097740835702
0.000480081801608887707
-0.000192497034973826702
-0.000227894472535586124
0.000465206228307320821
-0.000293898503106595241
-0.000171377438266612599
0.000583663073672677549
-0.000244322791809857315
-7.39738992735675902e-05
0.000739120953943631998
-9.66666848548606601e-05
0.000777189757715991041
5.3547083010966347e-06
-0.000619987947164589177
-7.82138336935034924e-05
-1.51674353705193252e-06
-0.000608759661345533625
0.000110418635287469046
-4.35998995694712819e-05
-0.00060586020473080409
0.000308750698477945618
-8.25933706963439011e-05
-0.000566717588018950807
0.000344196284539162911
-0.000105296877972761661
-0.000519641561683470399
0.000136745517221468094
-0.000101486195518082868
-0.000471897609319119017
-7.67068224623589404e-05
-8.76638970732560827e-05
-0.000437296260804992344
-0.000245031099452214793
-4.33284502050100881e-05
-0.000398755117421562639
-0.000342447689483604009
-1.10447041977080833e-05
-0.000340775524025526669
-0.000311420255354529754
5.14907824603711575e-06
-0.000261253683503458829
-0.000125512046766834532
2.69043649197569067e-05
-0.000214949982005351877
0.00019481626625175762
5.26387194473679185e-05
-0.000209232196966934819
0.000468447428170500448
9.21000186799616328e-05
-0.000220058550961222229
0.000575850179104549372
0.000103983349795805599
-0.000230778754877749074
0.000469417106169255647
9.35944846542149933e-06
-0.000241823405001142573
0.000365660695434857777
-0.000176603790112491604
-0.000230217822019133732
0.000417897714389250257
-0.000243177866858559184
-0.000170297307114965619
0.00055755044294320238
-0.000196324027537345342
-7.65143265780488305e-05
0.000699714884295366793
-7.59198035853249668e-05
0.000721933577032446688
9.98203959408898732e-06
-0.000571673819081393612
7.66271061302674535e-05
-0.000213262241437502185
-0.000590212415391181528
5.89831020166431538e-05
-0.000217048422338148001
-0.000602065729186149982
1.02347861071933754e-05
-0.000124648525261666508
-0.000594038699390772584
-3.73362128827655298e-05
2.2574868994798379e-05
-0.00057135352800303206
-6.90227706211791916e-05
0.000203839083549350799
-0.000529684808716100156
-9.74425640970686909e-05
0.000249940121870481896
-0.00048724751280562257
-0.000106979940731858318
7.01513166207890621e-05
-0.000449925608825269062
-0.000104378685209575571
-0.000111291881501649861
-0.000428101923862172595
-8.63400860573476664e-05
-0.000251020091792295897
-0.000405130748103443199
-4.45952497278129755e-05
-0.000375020166670896266
-0.000379167558574436295
-1.78009982265857136e-05
-0.000362414066670367066
-0.000342990659531445077
1.41814538678376869e-05
-0.000193683770247835832
-0.000320986934469541887
7.10986981201939806e-05
0.000103658711812014241
-0.000295816304095620933
0.000115567405060597504
0.000294323618835616195
-0.000286718754101444959
7.54588689482658622e-05
0.000379629765209044655
-0.0002664796317318653
-1.8123949115528916e-05
0.000266078046395772962
-0.000255462184095742368
-0.00015923526316415822
0.000259708231596274264
-0.000233771919026727056
-0.000204180298551171998
0.000376381484439089551
-0.00016855260743544478
-0.000154714620055106025
0.00052550838170345763
-7.96243875605549194e-05
-5.49736315291932831e-05
0.000655005209664482778
1.49993248461139346e-05
0.000658976324926061671
-0.000204416063730367218
-0.000268972835354825757
-0.000112218260653182823
-7.81300828201780015e-05
-0.000183189325211889316
3.47206832467583578e-05
2.70778258029326328e-05
-0.000118077578963088911
0.000126043286908701521
0.00011071201939284301
-6.43164420873628643e-05
0.000176058364779869384
0.000183118883399778937
7.87820149384204607e-06
0.0001463582128568058
0.000240484579912842149
9.59149595002341384e-05
8.44581225588276666e-05
0.000278036441755281233
0.000191606748066023766
3.06362759631431344e-05
0.000285131048081648571
0.000337090622383884569
1.28050714427444445e-05
0.000251460307629630328
0.000543724752995394648
2.96345498637916293e-05
0.000189775685790654236
0.00078072334650635311
3.66063842125245224e-05
4.32097369058614175e-05
0.000876843542541102085
-0.000105499104948112742
-0.000125331340199350932
0.000583109058761935913
-0.000348164228668239274
-0.000130862077877885328
0.000703893872413827626
-0.000385569306814808309
-4.93938753980887476e-05
0.000862163180189319403
-0.000180107236977343607
0.000919010819545576963
-3.46360743653074759e-05
-0.000373918697933342352
-0.000327531468571579153
-0.000145702892750914341
-0.000274620706034000791
-0.000157731337713530736
-4.16170062155561983e-05
-0.000164283210890605908
-0.000112761239721882915
8.62901009816147418e-05
-6.64248233380995072e-05
-8.85814103149132966e-05
0.000204956964299355868
1.97207210673421516e-05
-4.64165671365915456e-05
0.000246795728373478134
9.63018642658283633e-05
3.00116098724236479e-05
0.000232905550267363461
0.00015736499737799712
0.000127197668473939406
0.000171139615729017607
0.000198102145304120239
0.000226552921540365239
9.76405029540973631e-05
0.000210784014409868799
0.000364691852838261649
5.08925738502640399e-05
0.000193035586762072345
0.000576580146979087903
5.64449258027406464e-05
0.000131672627009735767
0.000859590946355036248
8.84165620443247793e-05
-6.80438995032682829e-06
0.000942544522069697389
-3.73680846524080339e-05
-0.000152101533660208742
0.000616648308092787091
-0.000293138005200113856
-0.000143064841790789104
0.000678267432811087076
-0.000358311151225711253
-6.21342144118420799e-05
0.000847254244461984269
-0.000189048964236876335
0.000901733075522313386
-4.00067060756321012e-05
-0.000428873677100364463
-0.000235188130794047819
-0.000108480454567059671
-0.000356316647120157937
-8.95602654543141999e-05
-5.58527594822492531e-05
-0.000272001377913441169
-7.87562908680410003e-05
3.41612116197223021e-05
-0.000198242879402516387
-0.000104513426845951224
0.000127491997493110412
-0.000121027494660653752
-9.81691096386485846e-05
0.000186624921686586408
-2.82860254996056855e-05
-2.87399331367783206e-05
0.000203999352472977545
5.47844195502689119e-05
8.88203621415800226e-05
0.000175640299536088931
0.000112949224307592227
0.000219511330036764986
0.00012237196308346565
0.000134455588931532461
0.000376735483538754234
7.48043019397418561e-05
0.000125410796480080275
0.000600550833457536319
7.70417951445676443e-05
7.40971966527999933e-05
0.000909090166828843368
0.000120897288232878067
-4.52550758842889915e-05
0.000918452734217345499
8.26708747177836312e-06
-0.000156417778334078914
0.00061083857619966442
-0.000257285229335627095
-0.000149522824612128658
0.000653124627975705985
-0.000320876593784825829
-7.15244677166533864e-05
0.000830738740531292348
-0.000184958432949227102
0.000875200815514577332
-4.18400133060850877e-05
-0.000474745760441217424
-0.000231871907642934257
-7.54208612612335344e-05
-0.000422674884416633352
-0.000108756410191640827
-7.54816954141620102e-05
-0.000367083245023693862
-9.21041076591999392e-05
-2.45211060644492135e-05
-0.00032277714834438745
-0.000136916442848222694
3.73173147434601785e-05
-0.000268046303371663919
-0.000176975966663050636
8.81471902922340727e-05
-0.000172037861920804958
-0.000148437162211530465
0.000103847240996846391
-6.02877167580948258e-05
-2.45474358206595978e-05
0.000111451443026715859
2.16274072465321053e-05
0.000159551497189968413
9.3869868098896253e-05
5.93074703531867577e-05
0.00035918025670450272
7.52522383546311345e-05
6.13957275932614015e-05
0.00061522812191516286
9.2448751055326133e-05
1.63202847706753291e-05
0.000897766023616522403
0.000145251283876304566
-8.08082903583313755e-05
0.00082307713030255387
1.12706245027777095e-05
-0.000158783771116549399
0.000569579810323947444
-0.000219838958590045183
-0.000154605263988355523
0.000632072672298508763
-0.000276910835539900997
-7.82591608480007553e-05
0.000811702120419116385
-0.000171335188839115567
0.000839502725700305296
-3.9776945137287898e-05
-0.000546798177306375885
-0.00069465779860239179
-3.30460196149670552e-05
-0.000536151333352415126
-0.000680980658590448103
-6.13969084438677041e-05
-0.000509926170189355403
-0.000533980855659780531
-6.02259952013209566e-05
-0.000482802741271603402
-0.000295724967222384138
-5.41084053221496273e-05
-0.000442224458922819193
-0.000166350466050602764
-7.09035611973425389e-05
-0.000397352421426101928
-0.000128691053161333657
-5.37498975910883527e-05
-0.000370867823769886762
-0.000152042070433043016
-1.50058632161176818e-05
-0.000339709811231849812
-0.000223114801945947642
2.79522847975963534e-05
-0.000273147342537640022
-0.000246141560390602968
4.71432697995492306e-05
-0.000165106177847683345
-0.000166034150718286718
5.13245414992887259e-05
-6.37883537574316663e-05
4.9954984196029094e-05
5.77527389791288102e-05
-1.54871523475446098e-05
0.000319127420362893307
6.98161449162838582e-05
-8.39044986071774796e-06
0.00060542100043774541
0.000109102351945553769
-4.25322331845664423e-05
0.000816115642421575424
0.000156157536045782147
-0.000108931796840737211
0.000688573758577522245
8.4061284924581833e-06
-0.000167761519610446652
0.000517232487379358074
-0.00018272133990423101
-0.000162418306084730128
0.000614441768456828953
-0.000232035171121061857
-8.42818875934451688e-05
0.000787670271648302891
-0.000150771278788222417
0.000793836308230254709
-3.32607867349980814e-05
-0.000529150212639900629
-0.000643229862219348264
-5.97523844072356909e-06
-0.000536129353512693608
-0.000672633303825989496
-4.49678732855860076e-05
-0.000516113301938792338
-0.000580371470062624557
-5.62188521419384969e-05
-0.000481124825383552992
-0.000389163625231401741
-4.68466849285012498e-05
-0.000447651554902532697
-0.000245926835326292122
-5.53826296427839624e-05
-0.000410834940775227527
-0.000186477938854627177
-6.66939533654204559e-05
-0.000392055491618683574
-0.000162888642376599535
-5.12619400845470348e-05
-0.000379366239857562373
-0.000235288744567948259
-1.1559478844065994e-05
-0.000341910701842958978
-0.000302351947936683324
2.39048573426884405e-05
-0.00026491574302615515
-0.000270742891245641826
5.46185316460603981e-05
-0.000160381655519757041
-8.29685772991888091e-05
8.1028283529296772e-05
-0.000102395858065557475
0.000258753726475444276
9.44854642063085116e-05
-8.80843196924777777e-05
0.000545813940584967037
0.000149278455277178428
-9.94468832722170549e-05
0.000669552751535644388
0.000167286094061207225
-0.000136379278037521015
0.000523846678279563387
2.5055687730737054e-05
-0.000185484566475852095
0.000467669638154347817
-0.000144509465971163153
-0.000171838548601765311
0.000598171126861594786
-0.000193699498752096375
-8.88047327588952401e-05
0.000755387387259283719
-0.000126670645013233476
0.000739218361524511211
-2.42047106615280625e-05
-0.00031750951200956994
3.32957000354313479e-05
-0.000294926354687010273
-0.000412929450206803834
6.04322601360762475e-05
-0.000425434287716905456
-0.00049496187350600053
2.13378371143576392e-05
-0.000572299918939970413
-0.000525381834731135778
-2.77447909400118877e-05
-0.000651804103528743056
-0.000517369663019206323
-5.12057840652188872e-05
-0.000606200874397116985
-0.000484219243744923801
-4.9286327962076857e-05
-0.000470470613688198851
-0.000448589614094760608
-4.87802160779613543e-05
-0.000339756570045945429
-0.000416679747423697681
-6.17591798423561115e-05
-0.000261007410670865969
-0.000391633568380971584
-7.46215629655030748e-05
-0.000199652477898746542
-0.000385737909689826922
-4.94284111643547013e-05
-0.000236350080720989651
-0.000369942661833040523
-1.29092098078117029e-05
-0.000323039030144012837
-0.000335788551731441951
4.39360135866524609e-05
-0.000334651375895733856
-0.000267418983871428291
0.000106864897373934572
-0.000187101820857536521
-0.000211594741089047992
0.000196852514344310922
0.000121645308643486723
-0.000177334686052308977
0.000192008370113128319
0.000395003336076814109
-0.00017820094402258525
0.000147352907011233109
0.000504941917824227714