/*--------------------------------*- C++ -*----------------------------------*\
| =========                 |                                                 |
| \\      /  F ield         | OpenFOAM: The Open Source CFD Toolbox           |
|  \\    /   O peration     | Version:  2206                                  |
|   \\  /    A nd           | Website:  www.openfoam.com                      |
|    \\/     M anipulation  |                                                 |
\*---------------------------------------------------------------------------*/
FoamFile
{
    version     2.0;
    format      ascii;
    arch        "LSB;label=32;scalar=64";
    class       volScalarField;
    location    "0.900000000000000577";
    object      rAU;
}
// * * * * * * * * * * * * * * * * * * * * * * * * * * * * * * * * * * * * * //

dimensions      [-1 3 1 0 0 0 0];

internalField   nonuniform List<scalar> 
7340
(
0.00164812841775374848
0.00168886110288278351
0.00187594305683145396
0.00232927583930588825
0.00294253163382667991
0.00268316196179603809
0.00211731775987974427
0.00161280274610433108
0.00113220281772760992
0.000786257692540842006
0.000595550761434129861
0.000300675084128940553
7.3954769083602078e-05
4.04737703173588541e-05
2.39922770467883291e-05
8.09458668707633213e-06
0.00191248225998796938
0.00205313145453887586
0.00257717654398392391
0.00373069966850400007
0.0045427413743769178
0.00448993524227218454
0.00359738751110347602
0.00257150471954135148
0.00165022877511197125
0.00101619777578998362
0.000592418606488553327
0.000241796582689310065
5.42426163262107298e-05
3.29480126696050403e-05
2.07820560860585425e-05
8.13152689158588869e-06
0.00219009802696368619
0.00263186984322264861
0.00282674584988661408
0.00354971346972406945
0.00529405628698290977
0.00743925824733415557
0.0059589331871696561
0.00371501674225850143
0.00214813335467541359
0.000993952468039890034
0.000401788493404322373
0.000113465765551386957
2.53168356665175244e-05
2.03051316051337829e-05
1.43037100219634379e-05
8.35981037102669045e-06
0.00174523081608146256
0.00214461362889805914
0.00201550562212287699
0.00221202943541879901
0.00357022612467539297
0.00628057098624195276
0.00567265885726344916
0.0031961191777700633
0.00153848417779470811
0.000593465368120125146
0.000216611474276397984
5.33674349461881484e-05
1.51926129920191994e-05
1.49571973579173614e-05
1.18508995679285312e-05
8.95779432507952504e-06
0.00108529659425247462
0.00111780786338511878
0.00112412622882859716
0.00118724337567981727
0.00137226576029394402
0.00119998832355597794
0.00118472535190975001
0.00191700094658868426
0.00456660665526021671
0.00408446053974743147
0.00208040793841796729
0.000872922497855790273
0.000322140097498590638
0.00012746256489608803
2.7936924141372478e-05
1.35612137463476117e-05
1.20463993169906008e-05
1.42981360103920267e-05
9.32078049995104888e-06
0.000873140668332290991
0.000818777613566743986
0.000751056690211650908
0.000728521968465099552
0.000742600948957976379
0.000651410704220813661
0.000566430915761902761
0.000785409037588416362
0.00225479244032422005
0.00248427190229755495
0.00114122407344424085
0.000485312444106355482
0.000202341151385777374
8.58135857292660333e-05
2.3407920792545457e-05
1.34243643224861593e-05
1.21595379996761369e-05
1.64363967811591269e-05
9.32908231468414361e-06
0.000468653273967888496
0.000506735237896439763
0.000598611111294319875
0.000561851450131250346
0.000522736384657638089
0.000491899408265346729
0.000344015587080687048
0.000264334824895829669
0.000254217975489829751
0.000312306267945445062
0.000721974315549328213
0.0011593518724872865
0.000610282486625189874
0.000310751441164544302
0.00015033054152233612
7.27218768519183963e-05
2.48845385137825108e-05
1.47378969692835801e-05
1.34957390102943508e-05
1.61372292308753787e-05
9.60290631114253756e-06
0.00253370330915585846
0.00303322184487318878
0.00368532808231621664
0.00401474565210607412
0.00290178653250043475
0.00198881063401614051
0.00137208084564239825
0.000929599992586636068
0.000658748812624791692
0.00045388921288695705
0.000249707575973870811
5.80483931310235208e-05
2.34635611238105858e-05
1.42932623081727482e-05
7.65070571580670312e-06
0.00239391797229428823
0.00281865834108191524
0.0034084552217422538
0.00455871550172498152
0.00545929734998394298
0.00423661712669981712
0.00299247363625993173
0.0020437993887046221
0.00132648244490759376
0.000827185365835443566
0.000499296776559820989
0.000229258040053984712
3.9843407713628827e-05
1.54936509831330191e-05
1.42931584135128323e-05
7.74164729570581801e-06
0.00284987283424640312
0.00339028387082925117
0.00373056732544202766
0.00397542752158491774
0.00509621430081918375
0.00680660107598817562
0.0048106895064956726
0.00299742271366101876
0.00178220519954820785
0.000958477808951539224
0.000429596074954962997
0.000115501968928617926
1.94288215040649635e-05
1.02005258331103498e-05
1.21894790988377538e-05
8.06864099940888937e-06
0.00210698755370904113
0.00251998000181421003
0.0028914063092764287
0.00250086984016882922
0.00279363352659974928
0.00500951641737311555
0.00621855770215963034
0.00403622433840016177
0.00214709096850396403
0.000873314758214778649
0.000283300572620567663
6.53755541344651104e-05
1.20897815428661336e-05
9.52629464223793876e-06
1.09379172331113468e-05
8.93303802862525955e-06
0.000598841373138313238
0.00113352923632851522
0.00116211471151650859
0.00130643669422959266
0.00148701917075609699
0.0017846383712429015
0.00145715798888767286
0.00134598405797686457
0.00219267062290413265
0.00584518382858981254
0.00366158960092506083
0.00170565873939425359
0.000634152250492560202
0.000187794544235139835
4.96084871701591907e-05
1.13718270208705774e-05
9.40156809556221717e-06
9.72949064826389961e-06
9.38915131778718598e-06
0.000387649732555544818
0.000559183869168622155
0.000691375883363965133
0.000756635873373825052
0.000873383148801315599
0.000964501675617961303
0.000820801156881626197
0.000660329947163783466
0.000815381954893052872
0.00222612672030150695
0.00267578040579628286
0.00111727102085623447
0.000398607446265857046
0.000139894990360432821
4.63225432554003762e-05
1.2330882936304565e-05
9.38870674920323054e-06
8.89131676445722599e-06
8.99230334504577623e-06
0.000379019679108184534
0.000309012139825124354
0.000302653993200053346
0.000353383028169619118
0.000464821146035164783
0.000499327931141696881
0.000571114388879880616
0.000521954622613842573
0.000465675743194326206
0.000369161738932733969
0.000338767079281565651
0.00059348207372625513
0.00138415197121945568
0.000590030012483781872
0.000256190429556929305
0.00011249799214383164
4.18847419885624503e-05
1.27447913175279024e-05
9.51306960013200868e-06
8.94185413702020752e-06
9.05918892481416348e-06
0.00174636513030087897
0.00381803532136695736
0.00423556436988670355
0.00450529954290122391
0.00423376320632844628
0.0032966380263846286
0.00201366564966309891
0.00117955460502114926
0.000728736798371943544
0.000437051151196310612
0.000228151012335741808
4.17932536981022984e-05
1.32055177963759715e-05
1.02619179788101207e-05
7.37130885250972958e-06
0.000880450487663802096
0.00265956597611287371
0.00413984093669190079
0.00489129734217859987
0.00570615529103560108
0.00576179108933725509
0.0041823371152106617
0.0028892359492079852
0.00169495904960449044
0.000909338319575627124
0.000484398592867729227
0.000246463027329391288
3.76045679568321397e-05
9.28940350501434097e-06
9.75342896021550095e-06
7.4357958019057708e-06
0.00104490202667384641
0.00271113922272636209
0.00418794188454392653
0.00429302326954732107
0.00481910951556984053
0.00647172442669770483
0.00564865974993340996
0.00387399588780140821
0.0022487143995922605
0.00111413709078202693
0.000525645631138791768
0.000232872960453552616
2.53359107260255119e-05
8.50453332083747271e-06
7.96163579578042955e-06
7.85953240740167596e-06
0.000903985382516821331
0.00190330801693964309
0.00297025684043944601
0.00301971994830970434
0.00296646387188580826
0.00390554577635593382
0.00626224329141406542
0.00512872224859858838
0.00289680370430992103
0.00127167828205497426
0.000551929734771438728
0.000186037813634583164
1.90509993957411638e-05
8.351073957875477e-06
7.45959992887764331e-06
8.41814477551102877e-06
0.000117192875923731617
0.000111275463588140499
0.000182208231657123064
0.000563330620300148935
0.000967764437190066456
0.00149796852815806017
0.00177483488418191072
0.00161557959020843227
0.0017067684987354015
0.00304871662157990596
0.00558018477778431457
0.00308706241463584715
0.00128006020096876655
0.000527281938075106955
0.00014440037685480695
1.98500050794216395e-05
8.41986008119963041e-06
7.43178167400296457e-06
8.33569069613805091e-06
0.000136991034886924042
0.000111555275654784736
0.000119397994731071082
0.000246612665743231867
0.000501972084618277823
0.000725090369141651449
0.00089799092572990266
0.000869160224527025125
0.000773216079821655218
0.00095997893089282073
0.00270814928237584403
0.00230800725850105904
0.000952334592940513413
0.000419985484733688137
0.000121810927211732823
2.58451772419167686e-05
8.63169853203125896e-06
7.48894659924498707e-06
8.25194844497997615e-06
0.000884324637154038215
0.00045359560436969502
0.000198485717066552628
0.000127497498873832234
0.000110338420622921923
0.000139063596141140853
0.000220381568276042559
0.000314628493255458841
0.000465506655690218292
0.000464141600238330936
0.000393387579822212575
0.000364197929004575548
0.00061845058753734819
0.00127390470381229769
0.000597650570636527965
0.000268448293474538415
9.33087877218943677e-05
2.26903138922307278e-05
8.59089455098555853e-06
7.67583753776610526e-06
8.72130443266687732e-06
0.000180924579129000782
0.000449636846805900848
0.00138397285127525604
0.00347672183758101962
0.00431426068208169786
0.00420555229696523061
0.00373038341883034745
0.0032804528467305122
0.00211386168201840125
0.00109746478319339429
0.00053296198398634215
0.000234888519340560673
4.48089598641931083e-05
1.00870875702627005e-05
8.94328382032817165e-06
7.16847552835468172e-06
0.000168606897646726256
0.000519148870303358552
0.00173042507492308993
0.0037997258469855584
0.00487772147512367284
0.00520192117141012739
0.00514390641527248411
0.00482395166457193561
0.00286494229972515625
0.0013690135676156141
0.000633863675397775277
0.00030817006155317556
7.85742618573592115e-05
8.70206120900386446e-06
7.31108570947560383e-06
7.09186350397488588e-06
0.000136658329186156691
0.000460850949111702162
0.00128210542547448612
0.00300821457975623168
0.00444145023323701781
0.00558637338943590491
0.00676262920189723161
0.00684161822479766816
0.00373034032198629522
0.00169930073058153792
0.000730161737394597211
0.000356506942244414577
6.47608375107136498e-05
8.66987410412202512e-06
6.81030754782387697e-06
7.12531425427766463e-06
8.84575016441583657e-05
0.000281916695206406659
0.00070887508154384945
0.00182105203811242845
0.00346816636801497435
0.00491785433855399141
0.00704810882766557407
0.00812148418149455376
0.00461256531059994236
0.0020018013995743919
0.000821585910894639341
0.000418684587248010045
7.64337472684814464e-05
9.34013624860820432e-06
6.73337821361017992e-06
7.1775173205097271e-06
0.000103028461318582052
7.52174607825541566e-05
6.33171152894765777e-05
6.74991398369492154e-05
0.000139920719771880798
0.000383881622935775045
0.000841754212822915546
0.00205387134151344304
0.00321051360045411906
0.00516656369338888352
0.00718673551958913612
0.00497482937533029641
0.0022328364760616907
0.000878480456315156727
0.000482549459886384377
0.000106714928327486926
1.21061887074519683e-05
6.73358991009431313e-06
7.37081631041450647e-06
0.000158116969832968547
8.47470514207328995e-05
6.68000597580275575e-05
6.13925564005128328e-05
7.64434772955446942e-05
0.000157542348401014571
0.000378936706214734443
0.000878919193134630825
0.00138874774884714496
0.00226881049062810152
0.00361623797927551182
0.003727029928566506
0.00196774570347279338
0.000857076845017567005
0.000514663926694203635
0.000110898760999950251
1.46248153655886649e-05
6.838883100150123e-06
7.69430929901856625e-06
0.00161982540508737801
0.00079500667337713965
0.000321456214516057444
0.000118213568712548369
7.38222932661029293e-05
6.19511811559953868e-05
6.04735749647394835e-05
7.66672047256229726e-05
0.000149465727748464701
0.000360435186993151311
0.00052364348524831458
0.000757602992275637974
0.00093431534979425304
0.0019902103582632477
0.00119536759682606201
0.000566681617376607496
0.00030183238315185869
5.71048319670307571e-05
1.07760056320103286e-05
7.04274717872546187e-06
8.15882157517819344e-06
7.9342074664755634e-05
0.000159335283185275554
0.000370139530841903056
0.000979738190345599272
0.0021621636299918208
0.00269733966180566234
0.00230828974718997205
0.00211506481050671106
0.00205571358616966123
0.00218201090816118109
0.00116113659838275145
0.000348699717563624788
8.83040770185496057e-05
9.72479054150292659e-06
7.7482360994108461e-06
7.21827669610087331e-06
6.25610386924487264e-05
0.000143449061523184742
0.000419329101459961604
0.00137265328134145918
0.0031535379508496413
0.00429660283517763284
0.00382197269601371094
0.00335721207792569762
0.00279255428714666283
0.00279452320514419561
0.00145110783332675036
0.000580546860167525567
0.000163934168928373859
1.04574334536263734e-05
6.96070877799251179e-06
6.99924431850267496e-06
5.49541419938506131e-05
0.000107606610599070518
0.000334517867807580837
0.000967907838494233737
0.00240807975149606767
0.00420963144293097589
0.00451502374610497203
0.00465822934473662017
0.00407827472470555143
0.00360450068228465115
0.00167991343850691817
0.00073370131909808857
0.000290777634674891782
1.32884060047739703e-05
6.85459391988841479e-06
6.91405189154243533e-06
5.01575703661231342e-05
6.54118687035871879e-05
0.000195435443936746456
0.000511409018274270547
0.00138041130435537555
0.00319081738908821421
0.00422058986069784314
0.00459453675221841665
0.004423410590445505
0.0040964067494640051
0.0019757195349489852
0.000810452836510286738
0.000381532629275311999
1.80487982719022926e-05
6.80296680452550876e-06
6.93441432445834046e-06
9.16089302212540234e-05
6.68149021590544933e-05
5.39027377498357092e-05
4.73512946430291196e-05
5.13490491065908428e-05
0.00011176228072309236
0.000277185514223240699
0.000657389035930124629
0.00164560155266427329
0.00303078017982332014
0.00396903625237470924
0.00398971852892463993
0.00337617855367776864
0.00190543561806707042
0.00085140281764106956
0.000427470199810315807
3.37126421865037882e-05
6.88951747165871997e-06
7.04446699050446822e-06
0.000145717082468811959
7.80777121099318584e-05
5.69268525940922065e-05
4.73578806207767739e-05
4.49255488246610928e-05
5.68636571533416725e-05
0.000135091710450091306
0.000296744907745859535
0.000679632771918354107
0.00157587586153302745
0.00283603762407534871
0.003134212825105143
0.00264303744243700846
0.00159525909269561607
0.000826494571696788968
0.000496486499793326709
4.0661570246096053e-05
7.16100950236696737e-06
7.28412792114256689e-06
0.00104710843810117203
0.000731830313775640715
0.000333801101976971624
0.000119345714881967659
6.55482706233041649e-05
4.93860317571380412e-05
4.30860794607017112e-05
4.33661022723233187e-05
6.21951382670994808e-05
0.000135997048472919152
0.000281638323620480853
0.000555973065659525747
0.00119943230340384096
0.00184912641214483604
0.00147817472663082481
0.000988447629178882759
0.000560076867287289466
0.000260208138438350626
2.97036067768057821e-05
7.47160397167962945e-06
7.62017600983127984e-06
6.99441296663004221e-05
8.40191665293198983e-05
0.000144112387306667158
0.000271705132939949212
0.000536789673379586656
0.000838570780829154768
0.00104494903589306509
0.00116153623795280168
0.00122959165067847674
0.00132847928024334158
0.00146036062200751533
0.00058797371680981939
8.61108852226863186e-05
1.01720835993861876e-05
6.70995622790277518e-06
7.09183533037642531e-06
5.31804721558302304e-05
5.85633486567453966e-05
0.000136010949915662345
0.000354395159105632177
0.000902702047645141214
0.00153173298400801987
0.00165180343066121337
0.00155497426773609369
0.00139537463193381713
0.00148820862471174997
0.00194764161162677934
0.00201775869920218631
0.00024282570631333942
1.58242296667970511e-05
6.77727588337331047e-06
6.92458006176986162e-06
4.51046724175449917e-05
4.65882998645914995e-05
0.000104893757035839845
0.000296061697624766247
0.000842234187766755784
0.00182782760032278516
0.00206219421240951733
0.00193596684116655884
0.00165107248575784992
0.00154092802485142062
0.00173647889515792897
0.00229936980250266881
0.000688992868208633058
3.89979713585305565e-05
7.16433374490594977e-06
6.90027598539100084e-06
4.22072842452010842e-05
4.04168114867030096e-05
5.82553497215333797e-05
0.000169255326729477368
0.000445741796985366415
0.00121599114536762726
0.00199277118175801571
0.00192917847351823301
0.00141234366604905482
0.00121067705616717731
0.00143259695129882309
0.00176475769312105994
0.000940625331092801234
0.000124167007572869258
7.64186928728383198e-06
6.97679645130608192e-06
9.54420881002465249e-05
6.59182211573020949e-05
4.94218726402816767e-05
4.08345314299817557e-05
3.65007670249408489e-05
4.15760843106487569e-05
9.5063630031857449e-05
0.000223768085773681238
0.000555074634588289921
0.00133916410099617703
0.00197058406333146426
0.00137385248812149489
0.000823415257097738799
0.000925064986679180923
0.00140028061275809085
0.000843956053516115566
0.000126776889892681266
8.41824352800403152e-06
7.09526475269101255e-06
0.000139993747315580715
7.96496681018918123e-05
5.21289877331871109e-05
4.10003061993047968e-05
3.50266651830868819e-05
3.47845756848321592e-05
4.87073673175456625e-05
0.000111068921291324155
0.000241987950069826128
0.000579895375188664184
0.00127130429222569938
0.00157403089408465519
0.00106605283953269125
0.00114711718209846588
0.00122522668214218307
0.000654842211084611585
0.000112973750226623857
1.03662490721512929e-05
7.24876449469287222e-06
0.00049844643484418848
0.000556014425678582301
0.000313432437007248195
0.000131608893403262358
6.5527164767933968e-05
4.34099397725409727e-05
3.48012134055627331e-05
3.11163445842081843e-05
3.27132887852633791e-05
5.74164043964350336e-05
0.000116761869294847195
0.000234227755645990488
0.000532293679518185407
0.000945139089489848154
0.00102682579794741006
0.00109387804406754384
0.000835099938023136225
0.000425258573340313783
8.67657150340156398e-05
1.19323106885689731e-05
7.54483938040458389e-06
0.000101546632376194995
7.55081369408275158e-05
8.25541523071147379e-05
0.000126237524082934105
0.000219992996597217962
0.000339143334024852024
0.000475895780008663504
0.000606340660004211682
0.000709008636394526932
0.000662844688325423133
0.000435193734214510809
0.000240683920503592999
5.45244481457307791e-05
9.97205905458279986e-06
7.00700308775065317e-06
7.96168455949382692e-06
7.59540262271605105e-05
5.98026052109770583e-05
7.19715170149174294e-05
0.00014118222779686311
0.000310755780051701796
0.000557230382896121848
0.000785604551351554875
0.000973501412558764917
0.00118229809302041757
0.00119345467109338555
0.000972487809918759082
0.00102227816143027491
0.000177248954235031969
1.65185982106036725e-05
7.13650791344502645e-06
7.57296824954884736e-06
5.42363928880893316e-05
4.34879307509184615e-05
4.66043939880709851e-05
0.000110551157871512716
0.000288881276660099724
0.000635777478432492755
0.000943908970148666401
0.00113889261436392222
0.00137899182649260568
0.00115270940135528258
0.000902132778298265505
0.00106488421848179352
0.000603554768345773685
5.99601316479239009e-05
7.78783654798635283e-06
7.41571077616456507e-06
4.2612221867026844e-05
3.52805720089739878e-05
3.61256378948633254e-05
5.96361534932016385e-05
0.000177713245600827406
0.000480036275994792433
0.000925724279047588586
0.00109593464328218079
0.0012875401333958239
0.00128018779527128666
0.000932670946865102953
0.000950799129380044549
0.00107809833992298407
0.000128362603037527793
8.48402150130648317e-06
7.41817077300798005e-06
0.000208362402851035755
9.63581283861809061e-05
5.34388796513898207e-05
3.89494190450751789e-05
3.25910452760910701e-05
3.16192241098415752e-05
3.67252064079144944e-05
9.28228561915392028e-05
0.000237838135965214384
0.000639810339411591594
0.00113270040121174931
0.00123879198102945401
0.000759799517592320587
0.000596266572718802857
0.00101528535273882111
0.00104683147443545687
0.000246834121086263549
9.97414257452643563e-06
7.52748205360030532e-06
0.000335446446735952471
0.000114955739575365752
5.75697327190683591e-05
3.93918610767711816e-05
3.17563714936471903e-05
2.89318164723945574e-05
2.97280195608737649e-05
4.57769699278019239e-05
0.000108787477400616815
0.00025939596479886037
0.000560212417332132864
0.000960257093247159619
0.00055057325302222725
0.000543853539047283005
0.0010436267433829912
0.000968887333690326437
0.000308206059774344759
1.56275654228366757e-05
7.76929706420407123e-06
0.000313893867263377471
0.00042518575152583843
0.000665034036633055099
0.00021591233547405182
8.95084811183876402e-05
4.42449938425268691e-05
3.20988716019727285e-05
2.75325271716405897e-05
2.60916195531081486e-05
2.95282270106121304e-05
5.51600728669834436e-05
0.000120651581290699326
0.000235187961312048583
0.000426516451485847454
0.000499827927721029227
0.000657432387082562187
0.000943340168922278703
0.00082139894134007792
0.000241501089082551669
2.75392615704589115e-05
8.10881812023483465e-06
0.000173916060195159139
0.000121284344574998999
0.000103133077643643607
0.000104753825876958203
0.000132866066807548275
0.000173949239925970514
0.000251975373685302739
0.000249908612903055694
0.000206680055826020042
0.000112231889884242835
6.43291880289170894e-05
3.83126759126564063e-05
1.63754854714080976e-05
8.08566913633531429e-06
7.4636388610291043e-06
9.46782178890783388e-06
0.000107651045383489152
7.96097384799141991e-05
7.01773768446393721e-05
8.04508788681291827e-05
0.00011946533729576068
0.000204706021989467215
0.000330945512902034833
0.000471740722085514435
0.000648015341426761479
0.000908660959313445133
0.000692433845770608065
0.000227781788569914018
5.65824785902584014e-05
1.18809721656873986e-05
7.40652359929720596e-06
8.60846059948308041e-06
8.40014757840115516e-05
6.06080185401814274e-05
5.26585699956475065e-05
6.09006485568110896e-05
8.97730177702661572e-05
0.000149201934842842633
0.000235103881237990934
0.00034116217624700825
0.000510513564581000423
0.000757904248072834518
0.00103785518303406779
0.000985948768461142756
0.000169718106256396142
2.9990653529086827e-05
8.15611359930332549e-06
8.212540349966874e-06
5.80684776411820522e-05
4.40315282041443086e-05
3.95637856145043593e-05
4.22838527590442138e-05
6.50507598948268272e-05
0.000109292709646587394
0.000166947500887383327
0.000240538645562853276
0.000338407169117000773
0.000517434539357728828
0.000822646078028030662
0.00105984712696605881
0.000437182722236611543
6.04615939255737366e-05
8.91568569526191818e-06
8.11949236366930709e-06
0.000244118760339185638
0.000176212816644991539
7.50342547152435264e-05
4.55562095317019549e-05
3.52036721035039565e-05
3.13529118202383197e-05
3.06053921666452771e-05
3.80940357978114093e-05
6.79597453056736948e-05
0.000123701329796932914
0.000175960925067147791
0.000239994763956485142
0.000326742253727928787
0.000555786014577847021
0.000877176594051240184
0.00111026007767406495
0.000114861122585338145
1.08253065361045378e-05
8.21896632511103599e-06
0.000315866585451087282
0.000215194635472176982
7.58202511774362474e-05
4.35900130878513536e-05
3.31867202292535735e-05
2.84370436714956789e-05
2.61561847951439138e-05
2.76754972274558085e-05
3.75325783615989143e-05
8.16166915024574128e-05
0.00012295464303671482
0.000167613866386037371
0.0001962297791550894
0.000325583940245116144
0.000642971237216603125
0.000829282777661087089
0.000189139095219807523
1.76522572723632098e-05
8.51315135579842841e-06
0.000303603059066407961
0.000355599917684258616
0.000494492897335008295
0.000337093602630196348
0.000119383683010688933
4.98454774559683382e-05
3.35961436636943593e-05
2.74582590568436311e-05
2.4116926634841745e-05
2.22065906716052015e-05
2.53576459926904666e-05
4.13047595618364177e-05
6.39809445180917439e-05
0.000130590182374677868
0.00015261496792626827
0.000210582985362503273
0.000351743883164902114
0.000768938397854913771
0.000246762847190894728
3.30640929231615163e-05
9.03342498090098997e-06
0.000802297658811523557
0.00083662827384794428
0.000791915495225965185
0.000691415076239224914
0.000564619328679026524
0.000585438942448131771
0.000595577037538422152
0.000589683935582530853
0.000569420524378617412
0.00050403187710069291
0.000437776379976682081
6.56612837595398389e-05
4.85536680602708206e-05
2.38524934711362322e-05
8.97497926895213302e-06
0.000791121102631186417
0.000879875310273773702
0.0007891392388105576
0.000720363932358739274
0.000593490199912805614
0.000451630205448046228
0.00037425505471341857
0.000384584461241392617
0.000458543663615037112
0.000491524060883418118
0.000476897360072450912
0.000400515219684006659
5.76132312496685083e-05
3.82999086546240576e-05
2.34328557914271392e-05
9.38532239720435727e-06
0.000821525357683607483
0.000969842091314094363
0.000785061511396282726
0.000679592097186243341
0.000642945894526728966
0.000649300486441296647
0.000490009021069794689
0.000339563214846368697
0.000279575076209782739
0.000283795227366806903
0.000300303770935557175
0.000225960105688199632
6.50816832474948728e-05
3.36771893255963749e-05
1.58289884223096694e-05
9.95882781581054282e-06
0.000911631219799335511
0.00100363457604584622
0.000870244620874597013
0.000725429033129768551
0.00061567261729785893
0.000579888131577058902
0.000533425838235668725
0.000491925239517580944
0.0004862804903144098
0.000371283511557802333
0.000206747995245665792
0.000127232092402597961
6.42036320680425943e-05
3.52432766411448482e-05
1.48374321054553534e-05
1.067312637878594e-05
0.000417413012789505616
0.000485091668514472723
0.00068324108788685872
0.000849954014685938434
0.000981840895846498212
0.000932396251933637087
0.000782958051500714331
0.000669395852220628956
0.000632833497849274789
0.000644545603919061951
0.000599366618386593716
0.000548298214991810285
0.000480020940021679693
0.000317534325933378119
0.000140495872332288871
5.2016339106546884e-05
4.03285575449760731e-05
1.64116554016251927e-05
1.15901821331556024e-05
0.000335110131517309963
0.000387393632766456239
0.000517392146802955191
0.000770688190301052969
0.000872433627586989362
0.000891184813779212145
0.00076070029971777068
0.000656059530581504474
0.000631742139542068571
0.000712839087391473991
0.00071378050570395713
0.000576224616353498693
0.00049360613486721305
0.000517641360244927747
0.000161591937120433897
4.48086028827402331e-05
3.8435891550899859e-05
1.95281096073848038e-05
1.28178922632507939e-05
0.000395606555743730393
0.000338599721997476374
0.000322275705392472095
0.000379231162194969479
0.000523835652716278109
0.000671602640569480581
0.000734812109408458365
0.00075508738115444209
0.00069065563375645875
0.000634116847259455735
0.000616470132814417706
0.00059268871400670962
0.000504420036625876267
0.000396423381410629177
0.000339175665737324091
0.000405833712974194524
0.000192666786427574566
3.67820483444899183e-05
2.36233114235047487e-05
2.75240986966988775e-05
1.44730244901436829e-05
0.000767900823548803117
0.00085352514863898919
0.000948050510229257043
0.000991508633341667408
0.000941196493690996008
0.000836485841203275858
0.000682092392212334362
0.000596595064253142523
0.000525750010604918378
0.000505843094244395343
0.000511069402773104212
0.000416968827039333756
0.000219639980024934376
2.36120337288818602e-05
8.6101699545502574e-06
0.000825118706156543948
0.000767313665896196409
0.000915678184199612767
0.00103165651288995505
0.00101261417500378838
0.000892842332204265752
0.000760527356688447541
0.00065865977457282756
0.000557000743324967212
0.00049187352326686255
0.000456044319188875376
0.000433917427859706025
0.000295861618850151047
0.000265801769001109886
4.54755617461566922e-05
9.23129680600482267e-06
0.000781920766125042714
0.000909176194821587828
0.00107041745138516334
0.00111477160425573385
0.00105322267772449125
0.000922588464654401012
0.000747952186396129946
0.000604199609603564493
0.000473823050802618466
0.000391094906078149121
0.000359413167724868766
0.000358166780448708087
0.000129482118689207542
6.69702329766166677e-05
3.59049002208538823e-05
1.06015373454784164e-05
0.000728470340116008867
0.000992831986563394138
0.00108786290384932805
0.00110301179627619742
0.00102654071691334189
0.000874898270736710866
0.000719838669150241607
0.000587484242921559809
0.000474306085014564475
0.000378950069911059657
0.000299277010552912847
0.000271399450277686144
0.000107833683667994838
4.02234671748238074e-05
2.16432214999426036e-05
1.05155090323978337e-05
0.000367365432531352562
0.000381125986635909156
0.000464537416774798322
0.000629076139961449337
0.000939297614944173995
0.00100264835557345184
0.00101815162709155849
0.00095421100198411421
0.00080663821636239386
0.00067115758731031499
0.000553878187214442135
0.000418995908368885288
0.000322884265665253638
0.000267519284106568916
0.000248203539774283981
0.000131970979981795743
4.4546970043553428e-05
1.58226043705175688e-05
1.01437162423922942e-05
0.000329325588693093075
0.000327759109390694098
0.000407987470495190072
0.000564526876796139472
0.000786524746727755293
0.000826467366736990169
0.000807105683506070554
0.000744700551587213996
0.000640972542834944924
0.000566310219977201701
0.00044051405768468963
0.000326166167307471175
0.000246719689324330046
0.000214642210061147861
0.000254792223593262065
0.000117170069938602887
5.03798277395259693e-05
1.71734939780772129e-05
1.06734779375024907e-05
0.000447567604312208082
0.000358963485378102523
0.000314935037900187619
0.000317990314695552857
0.000393282312271125848
0.000526157569800846667
0.000633293766742588199
0.000673648218457493738
0.000642999661855010469
0.000576889802739295309
0.000502806757182775095
0.000411833758484246993
0.000321919282756519634
0.00024674459812173028
0.000195643545010527252
0.000182215456621304573
0.00026047122094977396
0.000102545588988619881
4.72559218046092277e-05
2.34892129090326841e-05
1.1279982093137967e-05
0.000929457381060629843
0.000994542283842620584
0.00117161325290588087