/*--------------------------------*- C++ -*----------------------------------*\
| =========                 |                                                 |
| \\      /  F ield         | OpenFOAM: The Open Source CFD Toolbox           |
|  \\    /   O peration     | Version:  2206                                  |
|   \\  /    A nd           | Website:  www.openfoam.com                      |
|    \\/     M anipulation  |                                                 |
\*---------------------------------------------------------------------------*/
FoamFile
{
    version     2.0;
    format      ascii;
    arch        "LSB;label=32;scalar=64";
    class       surfaceVectorField;
    location    "0.900000000000000577";
    object      Uf;
}
// * * * * * * * * * * * * * * * * * * * * * * * * * * * * * * * * * * * * * //

dimensions      [0 1 -1 0 0 0 0];

internalField   nonuniform List<vector> 
20856
(
(0.269893474387207011 -0.417766298354329879 0.963822447248361525)
(-0.123129712238802536 -0.368410959960600137 1.18780877079137293)
(0.708803399784757149 -0.305737985562429149 0.708856489505578446)
(0.277335610968151847 -0.361397931520186511 1.27140258296644992)
(-0.118554763670693439 -0.302572554877174715 1.38700469446656838)
(-0.155394375801565204 -0.376224987971315428 0.911433011806488391)
(0.594923810253241259 -0.318603219527629156 1.10743243634840227)
(0.36512762320802894 -0.231688346053734895 1.46334353428785868)
(0.032889651860251827 -0.25117245813955924 1.49079344703814787)
(0.0537206562539852828 -0.276133769793504014 1.19058475499545402)
(0.523127318846888567 -0.220551625399816931 1.45673930304878785)
(0.537478743079628396 -0.0479455294606792246 1.52211046014252238)
(0.208024879461476797 -0.175695394264377053 1.53595273756843542)
(0.252032857406023381 -0.130104166619092465 1.33935996534369961)
(0.52119791432336382 -0.0668417840616685605 1.57785660243718162)
(0.770553208144681756 0.147608490133106757 1.45289716301376171)
(0.467240816661720015 -0.0514804604887460909 1.46686311133464664)
(0.50238378869596656 0.0495380519775215911 1.35105051525828346)
(0.670536397046062604 0.0799263878600435934 1.55993662087659923)
(1.02705308133920936 0.305320096880963454 1.23758493244579548)
(0.707849322818835724 0.131043631753246875 1.31336284254702695)
(0.795998962032458013 0.248962201019463064 1.18382958345524147)
(0.871622696128200203 0.200274967905949453 1.42444901917955669)
(1.19451399052432383 0.462949548849231007 0.917733554334238089)
(0.880759779688697675 0.322116854274772657 1.06574649480841699)
(1.01972723200718707 0.40127248546345351 0.879553538142441638)
(1.03124285261587612 0.288963549854000801 1.1456985032245961)
(1.23884044863031617 0.670399414398441196 0.549630052223546883)
(0.959592071218748677 0.568064764406294276 0.76249412772127545)
(1.11525256767512237 0.576141180499292083 0.55578238460677909)
(1.10001766756912889 0.471146724920816828 0.798505655730645914)
(1.08885837668676455 0.917949533136354634 0.221825704611859242)
(0.908553739068903132 0.834762956177226956 0.399917709169845148)
(1.08673016933341282 0.773881906648199336 0.250543968777128923)
(1.06774843184212975 0.726375816003347885 0.405710171552532917)
(0.675641878964684306 1.16878250798192007 0.0380873988281813097)
(0.775568274451534978 1.13467349487556413 0.101490691122853416)
(0.933199919898860974 1.04689063301858676 0.1044285801146312)
(0.958032905224736053 0.996438564344179323 0.0450206100603243037)
(0.0885220330168011577 1.26049538580967058 -0.398471436279171032)
(0.136528144652050459 1.35872777607853723 0.0145182197241047924)
(0.392485359285389523 1.31433141560937172 0.108162688537315407)
(0.454917329483337352 1.22820128651065508 -0.135419307099431507)
(-0.149486766178668434 1.02410294250828304 -1.34272198162434053)
(-0.160384545602897666 1.22480243832290547 -0.816442691211963223)
(0.0543807268087564966 1.30071576562706892 -0.687737475856658453)
(-0.0409187913113300897 1.16850304943514516 -0.814738425183900827)
(-0.465790771870998488 0.92402942398370902 -1.51480380744490795)
(-0.426150272044167278 0.82315358800128402 -1.79105764424213421)
(-0.331770568815301814 0.818386510431931891 -1.75474538180785267)
(-0.272363655775535174 0.814906821058187014 -1.99347460079449745)
(-0.377882472344227893 1.19067870695709499 -0.587843463770017727)
(-0.647776016659314502 1.03369829161753857 -1.10875565572707102)
(-0.645282426904437156 1.07415873509791893 -1.18060019094318558)
(-0.512507061345690129 1.011327263817829 -1.12378807145805504)
(-0.146954032302701765 1.44424609025828143 0.0583728865102319111)
(-0.242981927401302117 1.33686910790123514 -0.0588765747045624163)
(-0.191056962592616203 1.3521386118958223 -0.141682482724799413)
(-0.208240005265942552 1.3172379499933955 0.0228655371149682207)
(0.012331522669409423 1.51247521623620185 0.152869789828563585)
(-0.0166162029603207223 1.53420934186797031 0.122461722297377007)
(0.0637566104093385821 1.55174672667126323 0.178283888691808057)
(-0.544360165796195172 -0.18836908066681024 1.61099101800958033)
(-0.992148881856046438 -0.133553045474282345 1.65824042546321171)
(-0.892257122234709876 -0.220247522026202125 1.17371782146400694)
(-0.257540936050994429 -0.128594502663219701 1.63811990140198405)
(-0.380849910778602752 -0.150753733797533401 1.60639555853826743)
(-0.939467260011513483 -0.165833114439735307 1.51437364279250852)
(-0.680266628732397183 -0.14099841199865451 1.30230892195547798)
(-0.323979419739100938 -0.0599880148127389032 1.73929496436105113)
(-0.130719241362556499 -0.164941303728533356 1.56340265031872394)
(-0.661596813087787505 -0.196959486144486162 1.32701964535966677)
(-0.377816108418807584 -0.132486034925689361 1.33608595041624367)
(-0.147649489460037808 -0.0837923395120439285 1.69464037760761133)
(0.176672420153031778 -0.136552666814194867 1.48070538876056101)
(-0.34148725166807925 -0.206511934373652506 1.23451669111698403)
(-0.114194332094034443 -0.132037324019981056 1.37972520858199177)
(0.0705785671563605305 -0.129355210633626261 1.62548408123164467)
(0.433869555715775845 -0.00672403232214902665 1.327328790867915)
(0.0306964560791275869 -0.116718799921192079 1.12025738498337835)
(0.222519928127489552 -0.0529857545156163373 1.29966822428577755)
(0.349504342858927841 -0.0911704465855917162 1.42638746957925977)
(0.597675499842107549 0.192458441997557267 1.1415244049096509)
(0.268214207391228088 0.050766260037912625 0.980862084467050144)
(0.450364220542328442 0.137056883845462441 1.18251721434290724)
(0.499935302422905625 0.0265473675548210594 1.18577044324793923)
(0.6891134185429314 0.446002547023115814 0.910507068195455349)
(0.379829267543963345 0.259175821235005488 0.840072621748969128)
(0.616471889708122944 0.367907705300272669 0.966597793865037302)
(0.534302276751626559 0.194183203222072998 0.932150222991379396)
(0.700126838026388754 0.744580341136827029 0.612781784667578378)
(0.402581620291757591 0.574682064980881924 0.685806863009825518)
(0.706601448094903661 0.630751693669690527 0.686302338298756642)
(0.455087943673967099 0.469097927332111031 0.710544215283563152)
(0.586714054239694915 1.05851138815986623 0.279582695680843707)
(0.329800798143807083 0.933370066483790395 0.419761112182405083)
(0.675096564954426936 0.883381707578146491 0.361387153210790624)
(0.349102503629727667 0.824958516012638698 0.44518563500596936)
(0.190550343443756542 1.32896741267539431 0.0779215120187774779)
(0.250795756525002467 1.28525222553656882 0.13891550831109642)
(0.570783691156702133 1.18830464703025362 0.163022144173280037)
(0.331970853602027383 1.15700619155905482 0.0680127343005286766)
(-0.259558094643442538 1.325249149091422 -0.403453035208690913)
(-0.327690065760900762 1.41809361627765407 -0.0786166869252156175)
(0.0257925027723346634 1.46979888089242117 0.204050191080596383)
(-0.121972973520011796 1.3826204490781393 -0.127326756260783019)
(-0.363560183449216701 1.01599696145534257 -1.26477835382976433)
(-0.419220756458927868 1.11833007870507162 -1.02150757412262227)
(-0.168848225586757023 1.28206865034383566 -0.667631669516446258)
(-0.302148066037868424 1.15866743733351374 -0.984579397454027561)
(-0.601148392014160704 0.919062022116857502 -1.38500949252428929)
(-0.597506334944534423 0.824997159297204741 -1.61517441138733786)
(-0.51553762226624722 0.863304597715876754 -1.56329029415892573)
(-0.455240000567562864 0.824393238883649238 -1.79719189438504978)
(-0.461149503511004477 1.16111299345306263 -0.579788766661592514)
(-0.704269369436287707 1.00569191939018343 -1.02701042004772014)
(-0.711061812501818769 1.05810787151830543 -1.14182470252361967)
(-0.589199290547953614 0.982372640666505315 -1.05783929087755491)
(-0.183393416284938521 1.39696487957966897 0.0356203286137680986)
(-0.306505546418151475 1.28192964247184737 -0.0555372872019507732)
(-0.27396488284911924 1.31555867737894205 -0.17168074652741197)
(-0.28878674742843613 1.29028617043795313 -0.00380379416161173278)
(-0.000199190290291154445 1.44831597844493443 0.140243504010058861)
(-0.0331451963994377277 1.48521499407252144 0.107766632796208447)
(0.0484101850934762559 1.4901140389570855 0.162841302931304943)
(-1.4126441441506572 -0.00622141456015559702 1.56162305024614279)
(-1.81364727481000321 0.234870055014480994 1.2486220409515385)
(-1.51314392941411535 0.122744736560377987 1.21950434140654407)
(-1.23167649112920374 0.0950522439766609273 1.85560926416507144)
(-1.23876342179118759 -0.141119800083266217 1.23499772961390608)
(-1.66116872515281422 0.00311176703395972878 0.917142827150627449)
(-1.38096677876400076 -0.00469728147619158376 1.01945455056786249)
(-1.24580819382979446 -0.0763850882364666556 1.5312224866241535)
(-0.880897670057087301 -0.224594796947096165 0.998133686157925748)
(-1.35933326652725395 -0.205325483563014 0.698561313661537842)
(-1.08014172587960555 -0.12086696038908043 0.878414378361641046)
(-0.94794065330309929 -0.211823535038731914 1.21954747056753421)
(-0.448727555229592401 -0.212747224582266914 0.874068687339803141)
(-0.995043363062165787 -0.299866789236420461 0.581732599470595746)
(-0.726961863425232724 -0.180350035810304399 0.788282522323543566)
(-0.547350037467012163 -0.255344423436680623 1.03374502463227813)
(-0.092605999432744765 -0.101117384097660953 0.773790678582516489)
(-0.588771564275181625 -0.228502488729810577 0.552595460301666508)
(-0.342359340443082916 -0.132061898566172092 0.747835618706109817)
(-0.192902425479936912 -0.182713250111595504 0.880390890922092773)
(0.0961342202781376026 0.0860442749321423117 0.679410301306368258)
(-0.270935587912052744 -0.052484220573489386 0.517045573278440251)
(-0.0243808670289151486 0.0344106463648938196 0.72297121114465035)
(-0.0248809670635797842 -0.049528179763479438 0.705205250681999019)
(0.156509438756082198 0.379961817190218931 0.615372416563340074)
(-0.13983013633356034 0.194533745139756381 0.494834923920351555)
(0.141527857150460179 0.275196019000497727 0.671030692077661417)
(-0.0353796539243746364 0.159113024188733659 0.602119270208775981)
(0.118779981006874036 0.763070928221142419 0.492786190524656276)
(-0.142525646531139749 0.583669051138154593 0.485080714229413512)
(0.230205104977916519 0.607222486014354801 0.572469730453424863)
(-0.185717149123184266 0.508258652253118837 0.552716619670016174)
(-0.0267701840106581851 1.16609505146511649 0.279093924812664262)
(-0.24382421709405161 1.01891898331461173 0.349862660387598168)
(0.195643735684467635 0.941609091060611303 0.365765211006232216)
(-0.336581328318917683 0.921664105770579445 0.391309983347984391)
(-0.340673253597048142 1.3912350946331844 -0.0176226906328980082)
(-0.328542189200180468 1.36089082399496908 0.0851937234035775592)
(0.132541644395050645 1.30994620169067377 0.217690418362875088)
(-0.346293608930291985 1.28719253525966049 0.0550604947480002951)
(-0.599073817156119404 1.226593509016632 -0.696671225839156527)
(-0.692858788202886378 1.31454772727218616 -0.417082284898730005)
(-0.355806425767619616 1.49975076850337974 0.061841227049302408)
(-0.639477874096738619 1.32386293749424921 -0.40365124580123668)
(-0.609487076281271412 0.929957160778601244 -1.37190363168020291)
(-0.660487136087325011 0.954402526572013299 -1.2815702160745972)
(-0.45818626381487737 1.15987533185103531 -0.974621014726890889)
(-0.571544820041123725 0.983391930066457753 -1.31289106255472965)
(-0.702704905936583746 0.904673239934912221 -1.25717533891075606)
(-0.729782669137111539 0.779113993376680192 -1.45153340505745176)
(-0.668203853157262495 0.874481603920094108 -1.4437183455045941)
(-0.631599674756432306 0.792941105570012406 -1.62870288357561854)
(-0.514488474022029796 1.12187943141663915 -0.502758940588065029)
(-0.720568863715337349 0.955734663311931687 -0.870838785596413478)
(-0.731239641228426995 1.02284290603660621 -1.02519422197162191)
(-0.654051928206984878 0.949402380163403836 -0.936892489015464958)
(-0.196013121659058043 1.33554378066039003 0.0490858881943416064)
(-0.335437443026367133 1.20138020351153241 -0.0197332991138271206)
(-0.324126045339289237 1.27184587689594397 -0.152528585724532623)
(-0.335322687140795939 1.24595942029575291 0.00484749164013738992)
(-0.00726563172978838406 1.37691271076504429 0.133269906108404834)
(-0.0417876997555885893 1.42081038552814687 0.101325313858133939)
(0.038460455691733092 1.41623234186786462 0.154531593676087098)
(-2.09559595865317361 0.18119509928563679 0.604141817856027719)
(-2.23080260950651477 0.381132257321867784 0.445458064550370625)
(-2.04265713587266484 0.42623008252934852 0.396829326294943885)
(-2.25266328588088172 0.17498739970374988 0.80624091370623463)
(-1.79927749961454353 -0.0961486499590085281 0.380706411198259653)
(-1.95837503268141111 0.00566039273463914139 0.237646570533413315)
(-1.82067250307906137 0.145976962616034878 0.232400693794307139)
(-1.90452940446843999 -0.0947837304257718727 0.533815535346790271)
(-1.48339122759742281 -0.281305331029471251 0.28216022697420573)
(-1.68119849006751765 -0.267124370259681332 0.158958980399563993)
(-1.57640426546703116 -0.126815652061178619 0.224192194741843182)
(-1.58171694712204824 -0.292089924704861947 0.416482254951792141)
(-1.10771704342415811 -0.30681093564965578 0.260259372432459501)
(-1.40281960925183546 -0.393596921080318907 0.109309836465733792)
(-1.30893814419950005 -0.276621586238406714 0.195165745708094474)
(-1.21917713376476389 -0.357143967206346502 0.383375439373411175)
(-0.719754740799186554 -0.176982738436725823 0.295850354997592602)
(-1.08888225369466318 -0.317513954533483189 0.138577526775869986)
(-0.98991071922452778 -0.256404299645860034 0.19929105471434605)
(-0.850529385811667704 -0.242246091459483087 0.409226112691543242)
(-0.460349479657830463 0.0490445984604614971 0.332470195892424769)
(-0.748353706381815753 -0.0929169064658250665 0.198045096726012698)
(-0.631048779214722799 -0.0738444351720789066 0.240757989567926489)
(-0.635082927415853815 -0.0374338627794024298 0.419293581846361008)
(-0.37080318789827782 0.384419978154546371 0.364543221586425104)
(-0.590976186860306174 0.197573614143147558 0.251305420882035058)
(-0.365166551302468168 0.197912291954918718 0.331863002588881073)
(-0.612859647794255835 0.231031835872152785 0.427489628304628777)
(-0.428894118461175589 0.827760546280678633 0.342157184092356126)
(-0.603167092268720229 0.63142046856476941 0.293893267749115505)
(-0.241559573898545821 0.581135998244945329 0.360400790270113847)
(-0.741491095701590996 0.620083288595152049 0.397817149284206029)
(-0.585314667077224127 1.20721240754792336 0.155962458978511492)
(-0.708873266336867203 1.05665241718385716 0.186787795674722062)
(-0.259581028360484301 0.99479709166526642 0.289270869351033133)
(-0.865642018332101637 1.02880555712291155 0.208316314225084731)
(-0.750209052593083681 1.27867658687700092 -0.314265870862260543)
(-0.786504719118480633 1.25138832306412517 -0.170811386836421303)
(-0.326723390502506206 1.34258846064424997 0.173761123740834217)
(-0.884791378891246705 1.23786654417933351 -0.210140439445229338)
(-0.812033335915612553 1.03088142174932895 -1.00198127513418322)
(-0.89239629020281197 1.07156884058134061 -0.785403527275071234)
(-0.624658627825979917 1.34987237727568488 -0.30342489303636605)
(-0.916218714843754722 1.08483533432142276 -0.85120694067598035)
(-0.770828976039142577 0.807034912900552404 -1.3611999894518465)
(-0.809187719730155908 0.777886684609926937 -1.32540504237195544)
(-0.685553161759049567 0.959586131341382265 -1.16148046189030518)
(-0.760811744168391257 0.78819884969066889 -1.47330853747931267)
(-0.751480186351526247 0.846502925917006044 -1.06519685174310208)
(-0.813161158671539708 0.701053553546098218 -1.24046812789435545)
(-0.747637111930023912 0.818791781535458507 -1.28801833735777427)
(-0.751520273124029137 0.727897301306472344 -1.42479081833983878)
(-0.516825159222638053 1.0552799317846 -0.387813144122179321)
(-0.706294417091543281 0.892795527332519989 -0.689807193429506027)
(-0.723288308054126139 0.96448160384128756 -0.848512293869152723)
(-0.669636054078761034 0.893111179411297029 -0.739735803682977644)
(-0.200901446574730275 1.258681260083234 0.0644507188002399756)
(-0.348328476385025343 1.12612781676570273 0.00589395178251998515)
(-0.347092080627827815 1.21425069319035184 -0.121446442520090042)
(-0.353902752962091005 1.17695952941137927 0.0439719702426867656)
(-0.0115408630313689024 1.30314220002477055 0.130993897019498345)
(-0.0465631052122706182 1.34815775531247839 0.0981242388420178607)
(0.0315804959573513858 1.33836225791961994 0.151484472291950001)
(-2.3766548849485134 0.838291566888475059 0.835246461026986964)
(-2.37511593406306298 0.940619341219710248 0.651495730650485494)
(-2.20044473643144922 0.268312216185880359 0.274909142866615608)
(-2.09496034540859588 0.671169856743247917 1.08924748934180737)
(-2.45301528881749098 0.88339315816892694 0.508270165922173223)
(-2.47320526044256983 1.12913691103386538 0.332961740457237809)
(-2.31102772984134308 0.621728174953426804 0.0486520343489847407)
(-2.46172262651112339 0.78196251255997018 0.715689696286706201)
(-2.34593900374996212 0.601173992025073489 0.219588656368719271)
(-2.37167987846177342 0.843321046014220199 0.0538558289358130049)
(-2.22496520421172805 0.668159814950879505 -0.126235369279361909)
(-2.39174550004913433 0.52214146235787906 0.285218322511498201)
(-2.13117562644425274 0.192275743657241871 0.0789628172277527518)
(-2.14918976740427592 0.389476134211968861 -0.040215268411010599)
(-2.10291234551070838 0.53714583109990155 -0.125605943257691338)
(-2.16583156029782264 0.139935594443653472 0.105842298784352931)
(-1.85646361269568683 -0.165251020644557711 0.0158991397347180291)
(-1.88037298212535098 -0.0524534823243279352 -0.0708439985305890363)
(-1.89264986514311073 0.127130341719867201 -0.116852594920904648)
(-1.90123052998126374 -0.186577870271964236 0.0416286211125290045)
(-1.61745353873965891 -0.376704625722880326 -0.0138914101089099989)
(-1.66564813333859485 -0.358394355882707294 -0.0778758010121890915)
(-1.6773338284095396 -0.197950834721327934 -0.0340466831215872345)
(-1.674438980001558 -0.380179369152694679 0.0224223127344067713)
(-1.37152496396117796 -0.399766580618573841 -0.0123720091908562889)
(-1.4796015782678611 -0.490002587650140875 -0.0922940875121652238)
(-1.47722002566997079 -0.383037752827028344 -0.0108886832922390139)
(-1.45027655589124893 -0.441616745783825426 0.0422252471675086047)
(-1.07329762386078942 -0.228040775945234975 0.0407722685042900476)
(-1.3028464793735548 -0.388265783489996519 -0.0617413138486436475)
(-1.27157406895107705 -0.384155660194698934 -0.00828713843035116388)
(-1.20485977094044117 -0.274107514071650571 0.148436575398530557)
(-0.840787681807347864 0.0649651286427450625 0.116880321715623209)
(-1.06696582381293648 -0.104185548151239385 0.0159064352182044025)
(-0.997455828123171795 -0.198693786527046723 0.00291424821350910399)
(-1.01598659932346758 0.00847709314121770918 0.212887890682182973)
(-0.767038126176223134 0.446479179243236379 0.180655467044725265)
(-0.92512528510494374 0.249297896680571784 0.0927260385316645286)
(-0.744948706445004438 0.137977860557069676 0.0384663149246725206)
(-0.995464501433681592 0.321897812392653138 0.215666560015063929)
(-0.845171841119703782 0.852414457619422805 0.138523879331484107)
(-0.954341660366962996 0.647143750898152681 0.109898430550218723)
(-0.62177604101052053 0.569886711313713712 0.168479381066594158)
(-1.08979351307863204 0.683499496405436169 0.121795555599436348)
(-0.94124399995876884 1.08959024861684095 -0.139986050140210622)
(-1.02505534746716553 0.944035349670693913 -0.0691504348422857934)
(-0.62382401803578702 0.97686253797592415 0.161623021458675659)
(-1.1556611102964085 0.954573422795648385 -0.159684805406524494)
(-0.969069757566114243 1.02695944570082376 -0.641949043249242512)
(-1.02621349438332365 0.970498321560612887 -0.474334633017916729)
(-0.659243831492940302 1.20961445990961636 -0.0392693976642959977)
(-1.10846305136488876 0.983942334428701271 -0.628875999534550645)
(-0.916871000417275761 0.807580014848999439 -1.10882729451284456)
(-0.979081356311192974 0.765089668208885798 -0.951022981199182937)
(-0.775065348010670174 1.08257704661865528 -0.59342905800464063)
(-1.00079121273548144 0.791554212311951888 -1.15418801983152797)
(-0.8560230750666874 0.683175383407915948 -1.20467318081446528)
(-0.883956366506386426 0.603740382327756175 -1.19667210607947694)
(-0.772961476920257518 0.785312969408290651 -1.11061420516146314)
(-0.864755366768120481 0.638201157678316422 -1.39805937096521271)
(-0.776087177804529516 0.767712044970912499 -0.865078469580754961)
(-0.842422202999185576 0.625073103564317112 -1.00956919131387224)
(-0.79090964872943248 0.728876949661146023 -1.09357491551110431)
(-0.824431494230323691 0.634229447562680626 -1.16560036718007476)
(-0.503857897500634477 0.978207627249329859 -0.296100097524807759)
(-0.680694740619062766 0.831837731295745342 -0.529683649381263111)
(-0.708819700775396022 0.909461737638329382 -0.677801785535539159)
(-0.658888480340910077 0.835103308117115195 -0.527488399253889684)
(-0.213538790318254845 1.17615162244188709 0.0724371300017806197)
(-0.359051286220038679 1.06623477722794591 0.0198695857503218658)
(-0.361964670477285422 1.14866475579957461 -0.0958760531094035584)
(-0.360019136207501533 1.08740726376296881 0.0746567290454601407)
(-0.0156838080194614538 1.2224828699387611 0.130267727308764653)
(-0.048819951636970664 1.27282252501475113 0.098960096345446405)
(0.0269558043618597157 1.26077790191925176 0.15118027220251401)
(-2.4208151827488682 1.20030883913540842 0.149211010080740641)
(-2.38516232049417276 1.15006053312904744 0.0862394882973490928)
(-2.21797519299771473 0.508836887256818637 0.0234284252562200063)
(-2.34820165323635877 0.987793934519790473 0.368149932018394244)
(-2.36716330497787153 1.05525171384724437 -0.12145259652912585)
(-2.33237289422063476 1.204473519733543 -0.227669033402919163)
(-2.20578107208063212 0.716681290651493996 -0.266380389924420369)
(-2.34230014116275287 0.885461234460995894 -0.0620553961339400037)
(-2.18705489609352588 0.607748562462714137 -0.20594809584391871)
(-2.17077184275467561 0.817984124372988175 -0.342556571487942607)
(-2.1402518105443411 0.689008481484621904 -0.383083256628043101)
(-2.15655808028552398 0.464095037498581553 -0.253652129843548346)
(-1.9214333892092208 0.114991934784865552 -0.190022084169351596)
(-1.91388717208750458 0.311714847702875886 -0.33496202200601688)
(-1.97152706443173109 0.472046042522375364 -0.370023660379656949)
(-1.90675750862325755 0.0163730212325386634 -0.259928168850134089)
(-1.70007095201967595 -0.277005338657872358 -0.16461893927749488)
(-1.69043718945820043 -0.151011318865777067 -0.301009394039135625)
(-1.75828331782790914 0.0589529387350347725 -0.261500606706259853)
(-1.70147488473561403 -0.316591433796244159 -0.23725626676296091)
(-1.5482103481785483 -0.495599929512376414 -0.156278478415444372)
(-1.54209874614466735 -0.454678041449220416 -0.257339229476230114)
(-1.59221495548541858 -0.275796439162661278 -0.17093786136974648)
(-1.57001764830564361 -0.497598623612977076 -0.211645489477289561)
(-1.41349919663809831 -0.497689766855273552 -0.141663392169952829)
(-1.42756583222743516 -0.60264860492226946 -0.22735395035550432)
(-1.45963530021122745 -0.473521759111447504 -0.0983147116768169765)
(-1.45301393391137479 -0.521378713438592101 -0.188895925072461085)
(-1.26104912737911978 -0.277007291627130003 -0.0866071471347297783)
(-1.35251381935106552 -0.477666357892505222 -0.189974206050978728)
(-1.34597248045722528 -0.478075875312119147 -0.0807614085778143725)
(-1.35069801019179248 -0.323588418339712747 -0.107112547323473806)
(-1.11173246243225066 0.052969771038863217 -0.00824784796575456919)
(-1.27999263495406845 -0.160668333968119997 -0.110934391479445615)
(-1.20264253117280973 -0.28322430591355896 -0.0524660784148747242)
(-1.24812001902711334 0.0063527059636123975 -0.0161165290325243314)
(-1.07718474607562298 0.431093072916224451 0.0219690020371574313)
(-1.23094100870038092 0.210231213293006675 -0.0423986681683638025)
(-1.03399000075805292 0.0438897541962066928 0.00609077511834082985)
(-1.24202820509947198 0.318333143933202223 -0.0374911088373238444)
(-1.12168328921560545 0.756032524094128133 -0.0977758836235483458)
(-1.23633503580893378 0.541444331781781085 -0.0924631033192673257)
(-0.923128679651354589 0.472634323707590065 0.0688962671437512303)
(-1.29860504645257802 0.621864472995517392 -0.186999520104223882)
(-1.12800940966360996 0.859105379866951568 -0.40349901771999136)
(-1.23002173189378494 0.686599668475642577 -0.308477357870052982)
(-0.899539159582979586 0.858527068836065999 0.0377551466426575624)
(-1.29538427948877555 0.764316338181828314 -0.483444526943911324)
(-1.06331073916153995 0.746523659695064068 -0.783408570967865092)
(-1.14616163865808374 0.632254387246689475 -0.629606290516248945)
(-0.878947470937710973 0.981495426624438672 -0.234944907908698902)
(-1.18848770522214275 0.701469477710969014 -0.846735858848875034)
(-0.963905716649886113 0.591046234807619864 -1.03886779276581431)
(-1.02012140371754345 0.483612208846054492 -0.917523252398442013)
(-0.863704337574784042 0.800244939934237731 -0.682207984522237187)
(-1.03421794980528259 0.549677661481494662 -1.14575891346076042)
(-0.876258326984578839 0.561086116383039957 -1.00156811657888634)
(-0.91865312260597709 0.44704815988729435 -1.01186723709436954)
(-0.831169109509085291 0.605521103037395925 -0.966622474606191773)
(-0.917267061731669275 0.467996873190416496 -1.19236047052365812)
(-0.755442849327218613 0.698015773755172209 -0.674174371114375615)
(-0.831443936715926646 0.558704115102550913 -0.801119819592367)
(-0.8030705924682362 0.644407561534935391 -0.892418363200157438)
(-0.826881821113403803 0.541478092606383687 -0.904341353313571017)
(-0.490340785660679956 0.917781710765491865 -0.213713966106127223)
(-0.654955274301794566 0.775597857614284125 -0.38861695312336042)
(-0.68629506402733953 0.860416677388228246 -0.520051516108394618)
(-0.639635112734556199 0.770172616163765644 -0.36742905727423808)
(-0.225418085520326578 1.10458333004181619 0.077700183057305125)
(-0.373559810610581633 1.0095546700031468 0.0298779071391948557)
(-0.371179663932715953 1.09312117474098458 -0.0689374292716290193)
(-0.365083509915639481 1.00252529431104365 0.0826251492824509604)
(-0.0221394334494167226 1.13371892508826222 0.127603139975530522)
(-0.0516186315623921171 1.19133166573951699 0.0999684510212658778)
(0.021674836770154568 1.17911731261168273 0.147858219509302558)
(-2.19556994325714472 0.662855858223744931 0.193600499136882515)
(-1.97060280991916925 0.0813546237991874532 0.227144661988280011)
(-1.82079656536237167 0.746299366490621452 0.611547218824210259)
(-2.08313672885992363 0.618568167578535277 0.310076466324407773)
(-2.28560388040882545 0.97091234560167361 -0.0516056073780157692)
(-2.04443643556428567 0.240697423766137841 0.0250296937887843386)
(-2.16096941834047751 0.93346838795006537 0.169521737509685189)
(-2.15021865739359885 0.864962831983267733 0.0441012534864399855)
(-2.26194381979154358 1.1511008166991592 -0.290640555186305716)
(-2.12203429713837899 0.484906088471019958 -0.15376930838538827)
(-2.21351729991798329 0.948075779678407726 -0.264469926801553457)
(-2.22666895781085117 1.08287956052856016 -0.167919569534811575)
(-2.11325191071058516 0.965262206429013059 -0.448773008361734838)
(-2.07063761510364941 0.639018374466348682 -0.374887991364355244)
(-2.07026322721967393 0.774018681058064706 -0.505108193354022683)
(-2.14881777886221403 1.06501769334955165 -0.407092084248464048)
(-1.90984362533693464 0.494589059400071418 -0.471570497650040998)
(-1.95877607326558567 0.603733539133137653 -0.483999253747228242)
(-1.88273646781128923 0.352291162849100392 -0.546225167444672643)
(-1.96924721629000121 0.685167686943948917 -0.488495399873366432)
(-1.69003725309975428 0.00410564401076340957 -0.445949331875801713)
(-1.77752115059075044 0.361150230297429709 -0.48009908029459214)
(-1.69316191465644494 -0.0978877356158129319 -0.50946084318098761)
(-1.74904517668446879 0.187132126947768901 -0.482436008988923248)
(-1.53880529717192815 -0.370372037966016143 -0.393729684237872413)
(-1.60906780833360052 -0.0216010039679847832 -0.419638391845765624)
(-1.54167798085715768 -0.413145293398364588 -0.473193347952477195)
(-1.57176244649357844 -0.253404356235424344 -0.45192786227707904)
(-1.44166056939326959 -0.593282271880251177 -0.328414701416290811)
(-1.48088610939465704 -0.33463009845827002 -0.325250810629071685)
(-1.44237424031740269 -0.590925726691669095 -0.41508591061020228)
(-1.44683589570404925 -0.548168280123323082 -0.391882112375609548)
(-1.38109659590391787 -0.59436360456459969 -0.275664764236529969)
(-1.39609072491015707 -0.536602316299037763 -0.225614216323013039)
(-1.38084365094511297 -0.610542905894595145 -0.363078740123674415)
(-1.36486208197127801 -0.701662993098861376 -0.337475240859061332)
(-1.34074682810478119 -0.331721228681757019 -0.214301450395695203)
(-1.33922284510260448 -0.555186847754165602 -0.173429554873435782)
(-1.38314077127598267 -0.38415771546339772 -0.322291916145384327)
(-1.33067575796626336 -0.572272383911632487 -0.295608185411757929)
(-1.36204853155657668 0.0596052113201470113 -0.14508521168205557)