/*--------------------------------*- C++ -*----------------------------------*\
| =========                 |                                                 |
| \\      /  F ield         | OpenFOAM: The Open Source CFD Toolbox           |
|  \\    /   O peration     | Version:  2206                                  |
|   \\  /    A nd           | Website:  www.openfoam.com                      |
|    \\/     M anipulation  |                                                 |
\*---------------------------------------------------------------------------*/
FoamFile
{
    version     2.0;
    format      ascii;
    arch        "LSB;label=32;scalar=64";
    class       volVectorField;
    location    "0.209999999999999992";
    object      faceForces;
}
// * * * * * * * * * * * * * * * * * * * * * * * * * * * * * * * * * * * * * //

dimensions      [1 1 -2 0 0 0 0];

internalField   uniform (0 0 0);

boundaryField
{
    inlet
    {
        type            calculated;
        value           nonuniform List<vector> 0();
    }
    outlet
    {
        type            calculated;
        value           nonuniform List<vector> 0();
    }
    top
    {
        type            calculated;
        value           uniform (0 0 0);
    }
    bottom
    {
        type            calculated;
        value           nonuniform List<vector> 0();
    }
    left
    {
        type            calculated;
        value           uniform (0 0 0);
    }
    symmetry
    {
        type            symmetryPlane;
    }
    interface
    {
        type            calculated;
        value           nonuniform List<vector> 
67
(
(2.83614965890422787e-07 7.56679149328251691e-07 -0.00253844721448210752)
(-6.62882724518241146e-08 -2.88736537893342503e-08 -0.00191320134997247093)
(-6.19456644503966437e-08 -2.43843270475041887e-08 -0.00182807222746322732)
(-4.78559417569225114e-08 -9.31380077431669802e-09 -0.00208578188713475984)
(-5.24510862692361508e-08 -1.55683126922006062e-08 -0.00188650880991915828)
(-4.74244845259235813e-08 -1.49336310387070281e-08 -0.00180118404884239101)
(-4.53241584394116161e-08 -1.35225110859000805e-08 -0.0017285396502443361)
(-4.48397741640904756e-08 -3.3398826272471915e-09 -0.00156830722934896182)
(-4.14731133644868764e-08 -5.56842507135386567e-09 -0.00149486792948733214)
(-3.96461257690907819e-08 -6.80271733104123692e-09 -0.00143838861984259183)
(-3.64157659441463545e-08 -7.55805989496797229e-09 -0.00139234158083846463)
(0.000863859480569744071 4.70229317712680717e-09 -1.1818939284206583e-08)
(0.000913295919113410438 5.79552965888167402e-09 -1.02221768822479784e-08)
(0.000969374507347571133 7.83613128650918911e-09 -8.18159561813888983e-09)
(0.000820852751887030455 7.03587011964411354e-09 -5.60116265725486836e-09)
(0.000880023930492937652 8.77813977565280802e-09 -4.60398637460231268e-09)
(0.000949876617412288501 1.0873517771637127e-08 -3.32041063637356334e-09)
(0.00080086387936278221 8.65937284724726755e-09 -3.37684943302516878e-09)
(0.000863319858097039042 1.03295604576338019e-08 -2.68862245301463753e-09)
(0.000937491927705243829 1.2649764691851396e-08 -2.00903307330315828e-09)
(0.000794191303345227273 9.62886965947972511e-09 -1.80766501697976523e-09)
(0.000857671339945679633 1.13240472641357279e-08 -1.40377553395889554e-09)
(0.000933173271589922784 1.36026999526327031e-08 -1.01190529964632986e-09)
(0.000789172392483177671 1.02523197861402306e-08 -1.12858583156405705e-09)
(0.000853042821413098925 1.19637311138731928e-08 -8.73234930657087083e-10)
(0.000928980065385201633 1.42425675796556815e-08 -6.40942489180131239e-10)
(0.000786007684130918174 1.06341796492545097e-08 -6.68948065086868248e-10)
(0.000849993160519077907 1.23542106799020261e-08 -5.14034664594875505e-10)
(0.000925942056564900136 1.46139141777264532e-08 -3.92290781747396046e-10)
(0.000784165081966124071 1.08575274431128937e-08 -4.11540768686181563e-10)
(0.000848251427801819204 1.25707947776534705e-08 -3.67642814353856511e-10)
(0.000924108204997201054 1.48078008949178441e-08 -3.69066686347420987e-10)
(0.000783618679109531228 1.07384324382053306e-08 -1.72836595932460645e-10)
(0.000847871710129282025 1.2494263173962431e-08 -1.82986929364636941e-10)
(0.000923727481363133111 1.42935992988841269e-08 -2.28549922157913324e-10)
(1.00683565693892475e-07 0.00363052535974994891 -3.83026249115423282e-07)
(4.79401827790631751e-07 0.00256492619946397391 -7.39498703687224966e-07)
(2.42662550921394938e-07 0.00397894169681954363 -2.66719174891989926e-07)
(1.03490432667292567e-08 0.0056129750969654852 -1.04081198645506949e-08)
(9.85501443899859451e-08 0.0050643451275207297 -5.49815017166603876e-08)
(1.24342310239127607e-08 0.00349726619900422994 -1.06549618321871159e-07)
(2.58660212235423063e-08 0.00236249979497731325 -7.40121241419898546e-08)
(5.58755105595783996e-08 0.00129461478435999528 -3.06512043669718295e-08)
(-9.86269536364223493e-08 0.00325017258261616447 9.05651473749008567e-09)
(-9.89988677713983769e-08 0.00337330762284034904 1.0576946613742589e-08)
(-9.9757087389740713e-08 0.00350191586067072911 5.00998599409336004e-09)
(-9.47885564832524201e-08 0.0035464278369049672 4.72868472312447933e-09)
(-9.56138891428928364e-08 0.00358970654255498251 2.50191317429751798e-09)
(-9.35730505026642211e-08 0.00347745483344489258 2.30387688266781326e-09)
(-9.46204244646448589e-08 0.0034243280938890965 -9.45241825589039965e-10)
(-9.2834709887085602e-08 0.00344810084310897148 1.69653611228038067e-09)
(-3.91938533249736759e-08 0.0028973436066205404 7.2404566656013855e-09)
(-3.57740039698477591e-08 0.00295800451909783739 5.75463199332680088e-09)
(-3.49031840686274869e-08 0.00301446268904769898 3.33237515088359322e-09)
(-3.50387985530949142e-08 0.00303930418689522547 2.41838301306727758e-09)
(-3.50277719910904388e-08 0.00304169990139064803 1.09566010816561697e-09)
(-3.4683064848062371e-08 0.0030053359704800605 7.18425402182892156e-10)
(-3.52885084423255892e-08 0.00298358195786392177 -1.31396290979933841e-09)
(-3.4306336568161806e-08 0.00296739189036271563 7.70567328178992621e-11)
(-4.28526860480736585e-08 0.00256442510297694897 8.18101458090672457e-09)
(-4.37327404654393123e-08 0.00261672839272612812 5.49854987601515344e-09)
(-4.3374107434872485e-08 0.00265076525541359676 3.05526980200926294e-09)
(-4.27798321110729881e-08 0.00267564350325446036 2.1317007085202823e-09)
(-4.27052815354223815e-08 0.00268106199663574983 1.2637604797794673e-09)
(-4.22515317799844391e-08 0.00267408847957476686 8.15730655641536526e-10)
(-4.26879276929864712e-08 0.00266830918463218086 -8.85176286610112369e-10)
(-4.11553364725318961e-08 0.0026513310966707654 -2.93473835515974631e-10)
)
;
    }
    procBoundary1to0
    {
        type            processor;
        value           uniform (0 0 0);
    }
    procBoundary1to2
    {
        type            processor;
        value           uniform (0 0 0);
    }
    procBoundary1to3
    {
        type            processor;
        value           uniform (0 0 0);
    }
}


// ************************************************************************* //
