/*--------------------------------*- C++ -*----------------------------------*\
| =========                 |                                                 |
| \\      /  F ield         | OpenFOAM: The Open Source CFD Toolbox           |
|  \\    /   O peration     | Version:  2206                                  |
|   \\  /    A nd           | Website:  www.openfoam.com                      |
|    \\/     M anipulation  |                                                 |
\*---------------------------------------------------------------------------*/
FoamFile
{
    version     2.0;
    format      ascii;
    arch        "LSB;label=32;scalar=64";
    class       volScalarField;
    location    "0.209999999999999992";
    object      p;
}
// * * * * * * * * * * * * * * * * * * * * * * * * * * * * * * * * * * * * * //

dimensions      [1 -1 -2 0 0 0 0];

internalField   nonuniform List<scalar> 
7248
(
29.0893462862610477
12.8539477519495904
0.471512816637279286
2.56487742911428995
-2.81789319560696327
-2.93422612975185926
-2.8682227057300631
-2.57667714044823004
-2.83423772421551234
-3.86180762643072661
-3.61321022295062066
-3.55640413079928752
-3.68137272181989683
-3.4399353809885671
-4.10220316584621081
-4.15962399220057133
-4.27445133779544406
-4.4961130828317053
-4.1201387717604625
-4.61134511294860872
-4.62838272131361439
-4.70928305713393769
-4.88803591056846187
-5.31263460796763098
-4.99757898304820714
-5.0595824777693128
-5.15291256577822665
-5.2904425448426835
-5.87488570209405658
-5.36378677374157675
-5.43788965103156041
-5.53441398698009035
-5.66307301112010553
-6.05541605245938896
-5.70466198385588807
-5.78912766417998981
-5.90849947436391076
-6.09047652007327844
-6.43913173545567386
-6.0214857770288015
-6.11110732813785695
-6.24284056658881958
-6.44650902771171808
-6.79142268918912428
-6.31779086588926209
-6.39701288523964262
-6.50981518962505401
-6.67957197541196912
-6.96193765716296209
-6.60023592871026388
-6.65808995387224734
-6.73481747537110742
-6.84220054023522728
-7.011712304542983
-6.82413924715502862
-6.84932525439252071
-6.87817300458728642
-6.91217771550410021
-6.95206924232096846
-7.00082528352616063
-7.06505495607530776
-7.1329137983756814
-7.1455440563674939
-7.15914170413715922
-7.17337192833890569
-7.18702045253597888
-7.19736074217423205
-7.19781529476616733
-7.44482435012730814
-7.44670622423040562
-7.44809635579066764
-7.44841792851406925
-7.44653747615850214
-7.44032855060702669
-7.42573529379394337
-7.76213331978005439
-7.75501957883870485
-7.74683836865187825
-7.73754149262845914
-7.72711693252836795
-7.71567460579802145
-7.7036335180209301
41.2884267610606486
19.5484670074347378
1.85787379087294013
3.53835083765659419
-2.71483466561360842
-2.97474459170108663
-2.86593041304411322
-2.16222984642581295
-1.31694708465524002
-3.75223031628288162
-3.58770128931254817
-3.55941389361333727
-3.62651983368104691
-3.51942130663308284
-4.05996398021301452
-4.14056978140278709
-4.25095856361595814
-4.46270421936363348
-4.02169894646893056
-4.60597808675248377
-4.63209598324519334
-4.67032018594044906
-4.83151471718575376
-5.3778338851283749
-5.00733870512928458
-5.06171785756445303
-5.14350012381899635
-5.25099231831092794
-5.8561714559234801
-5.37967876442844428
-5.44051793009284346
-5.53121181494345571
-5.65359376155578097
-6.08682260935989738
-5.72595278191197643
-5.80197741845150716
-5.9157543894302238
-6.08896426910084543
-6.39804169310774373
-6.04387146166954459
-6.13250710163787005
-6.26415110179502932
-6.46238889205764355
-6.76902380784857005
-6.34083201493833215
-6.42480931024758473
-6.54425649815595456
-6.7192146957303569
-6.99707261000815794
-6.62351408718357426
-6.68865081015495822
-6.77571509352822332
-6.89617199913105239
-7.08320154208682595
-6.89887869273460108
-6.93976357037660652
-6.9892659287623502
-7.05174824691162705
-7.13778244912122073
-7.17536791135099872
-7.19454908837603035
-7.214677291201121
-7.23361871986146987
-7.24600614128056542
-7.45881545695824855
-7.46193597923967999
-7.46343871028565342
-7.46122446102350878
-7.45112625798676387
-7.75181934393703465
-7.7433508791457264
-7.73373495077020401
-7.72310245929186667
-7.71202770133371107
54.1924176333944274
35.1547670462614406
3.94796810349726002
6.99617003178815366
-2.07272834813938545
-2.69736394368225074
-2.56579680886083494
-1.69306668464369992
0.251454270345462305
-3.70021161382295993
-3.53093887414909746
-3.44896083277824372
-3.39825760040867575
-3.32922762764695612
-4.09330808476928532
-4.12803280173472498
-4.18616898018778372
-4.30614377466072185
-3.8824058279704019
-4.56947736943525307
-4.60736572275137135
-4.65315660170089718
-4.73546577068440921
-4.81947654013338145
-4.96981771969860819
-5.03874953835748762
-5.12631002935023883
-5.23307455561364954
-5.76804215971276601
-5.35159574619651313
-5.42839254049800157
-5.52557760047708157
-5.65213479692056264
-6.08433990139748371
-5.71570641304385862
-5.80081119657600386
-5.91419624814791423
-6.08011494834827637
-6.35065916543713183
-6.04933707292982081
-6.14254695077180912
-6.27247588943637702
-6.46056942156739478
-6.72752341913531282
-6.35491035846859198
-6.44381667883853382
-6.56624556468434761
-6.73809222964366317
-7.0028150671169449
-6.64121076653110265
-6.71236228887612718
-6.80665084371961004
-6.93613878763864555
-7.13512047908386915
-6.91634034256533248
-6.96332501489168632
-7.02121131202375626
-7.09596351290882144
-7.20208143350970076
-7.1897491383639176
-7.21360094413360198
-7.24001369078389079
-7.26773706965570288
-7.29303697937479622
-7.46862865662398967
-7.47450474491275596
-7.47948229003327913
-7.48162532330433905
-7.47688330036096982
-7.75651315945260489
-7.74891036983519221
-7.74021553083577096
-7.73065595866665767
-7.72106157790347858
68.7395994914887467
52.4379811321480247
6.94147489656054262
10.8465362148464237
-0.468957252682486114
-2.04656368401719391
-2.02738558527205726
-1.19210710574152934
1.04693495502547052
-3.50657534248975544
-3.40327895181445861
-3.16020189187409439
-3.00100832905305204
-2.60812880912337874
-4.12411713093205101
-4.15241065759427919
-4.09965271329291525
-4.24566584325232377
-4.0909242818471192
-4.55011524945340717
-4.57974260415246537
-4.58942376554640763
-4.68110182300394229
-4.79608817720149183
-4.95394179933998924
-5.00928616916362213
-5.07703842033746078
-5.18628396970568328
-5.57810324691895154
-5.33851902219128771
-5.41523044636151418
-5.51401055800961881
-5.6351236724983611
-6.04009689138896988
-5.70543355143448494
-5.79343408880629518
-5.90282665620863956
-6.05290888581270359
-6.30896481984204005
-6.04763350794640431
-6.14441842204551225
-6.27260930163157582
-6.44924253546844284
-6.68928436065457088
-6.36297063870783486
-6.45530103576186409
-6.57861092379879864
-6.74803353020688945
-6.99700441371315485
-6.65388763751359313
-6.72995178078308598
-6.82975455224558736
-6.96581803801061916
-7.17169254534080824
-6.93044094123480026
-6.98268668894496258
-7.0480587682519964
-7.13361710981101194
-7.25679347447678413
-7.20198283153229646
-7.23008714576170242
-7.26239650867628228
-7.29883645059778186
-7.33844309300703923
-7.47723726289256252
-7.48571369976853074
-7.49410548907317065
-7.50078155890104981
-7.50211716207388779
-7.76074603346422442
-7.75400283894609821
-7.74630025751151408
-7.73806730106912255
-7.73061292190409599
83.6841790804517984
63.9672774719736026
10.6028044786084266
15.3575622619352998
-0.258737905686537317
-1.56436384435028275
-1.80028439696057863
-0.870546633699104788
2.15156765287913032
-3.34106071894603129
-3.20292187573198284
-3.01106349761455094
-2.79813760471040673
-2.09237377502876853
-4.10062293145388601
-4.05749279353822168
-3.96869148258897342
-4.06855713372625871
-3.96135185260160938
-4.51217792532106454
-4.52266411101006049
-4.55631479609601975
-4.72522730576207195
-4.8389956399981493
-4.91243313826894834
-4.97267828972765802
-5.05093604121046358
-5.18107469883432437
-5.53283029950428951
-5.31713019782410345
-5.40232138283979957
-5.50410973923134339
-5.62204663469328292
-5.97876898599639883
-5.6963572607739783
-5.78747800012384861
-5.89464334340203333
-6.02682566066601222
-6.28139021540502362
-6.04600789505127079
-6.14431784788386537
-6.26876309056968051
-6.43573898809147238
-6.67075826520682647
-6.36687431832335626
-6.46173415880586699
-6.58552150679814119
-6.75348715117987197
-6.98928546964484187
-6.66284117284778254
-6.74249152711280875
-6.84676421104747934
-6.98983834971223494
-7.19619552246594729
-6.94125457678334268
-6.99788926224202434
-7.06964394108094663
-7.1645446143740843
-7.30305924715447752
-7.21189522628216917
-7.24369986229088703
-7.28120690655014169
-7.32575237344534713
-7.38148733384173461
-7.48441020510860788
-7.49521907081475991
-7.50678038592100272
-7.51783732133453775
-7.52525772378075075
-7.76435851104796537
-7.75842588151483525
-7.75171996984883727
-7.74495772624463807
-7.7400897037330596
93.3396417792704938
67.6952767526959178
13.051192909407888
17.4083896131927531
-0.139584776332732474
-1.34551253612582489
-1.6137691524012352
-0.578518439167597265
2.44339469344953386
-3.28141175404044816
-3.14348950318932419
-2.99388858443390138
-2.78252967369139093
-1.79203655065701639
-4.01895468183618032
-3.95621371706707947
-3.8370269631042877
-3.88360157867068434
-3.81857082430894579
-4.47757300478937204
-4.48426159440066296
-4.44747870318024319
-4.62836408776234087
-4.59284395573555315
-4.88407987345722283
-4.94533529150207407
-5.01737033898607709
-5.14248188218804181
-5.41371320487405416
-5.30071742302730353
-5.3926887169800759
-5.49442860873779448
-5.59517359386204127
-5.90088965512038843
-5.68516090182093414
-5.77949737881064873
-5.8832878842331251
-6.00681167135789362
-6.2660465247369892
-6.04203224856021848
-6.14102545438755421
-6.26189072798323476
-6.42157729597123073
-6.65112024257397305
-6.36902701499598134
-6.46513822169242935
-6.5891785350264005
-6.7547172105974731
-6.98036463818194441
-6.66899025766318942
-6.75135113077152749
-6.85905208645051356
-7.00580500273087736
-7.21467307352960496
-6.9491941819820493
-7.00927666638125668
-7.08604641378039979
-7.18825389847084129
-7.33998014606273852
-7.21945590242534241
-7.25431413861575791
-7.29636712307310198
-7.34855489324652833
-7.41868948565037645
-7.48998703540522293
-7.50273944723571962
-7.51702482329479071
-7.53189846926602957
-7.54431745529951669
-7.76721995458542658
-7.76199357656193367
-7.75619883058497184
-7.75082539591899522
-7.74841484294367433
101.555270640148166
70.3130816962307108
15.2502501350919744
19.2602844417833694
-0.0470954667873400012
-0.996711092121612907
-1.31516687847001457
-0.283866809927872055
3.46224539531687014
-3.14227053026431769
-3.08124417088774916
-3.07529038467054372
-2.96065577921571377
-1.95155981274976398
-3.97111724605243355
-3.94194388816368724
-3.87240194964514783
-3.88104630756647406
-3.65305406262318755
-4.45376775083762233
-4.4619200429285959
-4.39309104462113176
-4.51904177250594952
-4.40015735457986068
-4.86529792834058217
-4.91143597874003124
-4.95256442326096469
-5.06968196312389541
-5.10780129769210056
-5.28790392386382635
-5.37206242658781452
-5.46439589020137095
-5.56231743977215398
-5.8179039395399732
-5.67647245874824602
-5.76966108379972464
-5.87049960464677856
-5.99011381113384722
-6.2535501698074194
-6.03797664211178908
-6.13656311720364922
-6.25408429472934468
-6.40761078995664768
-6.62789671765951649
-6.36957711578922581
-6.46624683361687325
-6.5894264265059288
-6.75194578378335653
-6.96899198158609146
-6.67271314331875676
-6.75684304797574953
-6.86628215649957774
-7.01403522220530817
-7.22726069086555167
-6.95440844180434059
-7.01682621610377133
-7.09680318567376744
-7.20375231282573392
-7.36500915160146796
-7.22459167287235449
-7.26163942758506575
-7.30699580258295445
-7.36486279754328166
-7.44536878989725626
-7.49382389608735355
-7.507994686363614
-7.52432797804419007
-7.5422256469707305
-7.55884372414769157
-7.76921396560950228
-7.76452212031354705
-7.75944436577015839
-7.75515577179424742
-7.75446173024408658
104.841458636810302
67.7390656689244679
16.7981858307277747
22.7223919741946929
0.40409805241818475
-0.364458003696718436
-0.59920258550918426
0.572729446335308978
5.02351853788150038
-3.08892336907336684
-2.98059713142319449
-2.88422011550457968
-2.71499339958124475
-2.17665118733886942
-3.95619862006718126
-3.94281479719096017
-3.86874362078597667
-3.82673321169830327
-3.4549400698519932
-4.4306294325801483
-4.456357652422966
-4.40912374885498526
-4.46393570795753014
-4.24036530505933484
-4.85056635623627574
-4.89653457760143684
-4.92264657138122796
-5.01339816998514554
-4.92749251737825045
-5.27636073029422725
-5.35432841855792496
-5.4414532630515744
-5.53879791812904099
-5.77916545102436086
-5.6710187133508061
-5.76302832022805678
-5.86194598316441962
-5.97823949352330786
-6.25016586268509933
-6.03573573885606951
-6.13337901247608741
-6.24801248513939012
-6.39714542355255844
-6.60461294826257905
-6.3695365189780091
-6.46631199715089267
-6.58788395895406964
-6.74765886859395447
-6.95810523217680466
-6.67444282742081629
-6.75957951819302671
-6.8693506753058875
-7.01512156978238455
-7.23308366281533566
-6.95702898078575771
-7.02064729231048368
-7.10208288091800632
-7.21125246603712355
-7.37690197731116193
-7.22720727298195165
-7.26542815865723224
-7.31262008251553741
-7.37359471890241291
-7.45873278023518083
-7.49578844891290608
-7.51072307234885717
-7.52820249147979137
-7.5478751587020092
-7.56706125870896429
-7.77024602019333877
-7.76585015840816162
-7.761187939803321
-7.75755204479481186
-7.75789201952218033
0.658864425364679818
-0.86346740237591435
-1.73856158949136308
-1.9064653477979201
-1.81960188938658263
-2.66283354501511349
-2.6943499263077344
-2.55982653841990748
-2.38412263594116958
-3.7541298917424939
-3.63463247200467521
-3.53141762671766601
-3.37340458448185831
-3.0818137113000601
-4.24511777696409442
-4.16390307146537264
-4.06648145060410027
-4.02774427099065235
-3.93402636452892285
-4.60969818333205872
-4.62905120219210087
-4.52229468078651742
-4.45018340366446274
-4.43112529872701799
-4.92546561705519537
-5.02811216428566965
-5.00906656969175579
-4.88218036326712301
-4.8087474314878893
-5.24752318323377676
-5.35674753423939354
-5.36775813635498089
-5.32694432149620756
-5.24536675101284455
-5.5172857440769274
-5.56731941928941598
-5.57170775420460451
-5.54721875387877894
-5.49904569314294189
-5.79865700463850153
-5.8130614270780212
-5.8139183253654787
-5.79824402148427875
-5.75201477095279934
-6.10532178325748021
-6.10900421621478618
-6.10164298410856265
-6.07950710682948081
-6.03332286468185863
-6.41620733543063171
-6.41239058982082266
-6.4000512458493084
-6.37551545399772746
-6.33389428241582664
-6.73855875136331317
-6.73791457735947574
-6.73399939433189321
-6.72541557604907503
-6.71034398086614914
-6.68636717406847669
-6.65202569565882929
-7.06967145691815801
-7.06454691406486557
-7.0567088227625332
-7.04552651396627549
-7.03008348069594469
-7.00951003906273762
-6.98358174126303144
-7.40351294471007204
-7.39517045711253296
-7.38507657497568903
-7.37304577130274552
-7.35899906899903744
-7.34292926432585791
-7.32523928562902427
-7.74204026606946005
-7.73117311180664935
-7.7195604016256425
-7.70758552062088143
-7.69573737999104601
-7.68455977597600093
-7.67467423445707908
-0.0278633896179698581
-1.03592341028370649
-2.13271018667116063
-2.13807780814043102
-2.34850299550370778
-2.89514904572825937
-2.9488298528693262
-2.86739408390714612
-2.76522667912628339
-3.94295275809205137
-3.84541392016277639
-3.69225957145782857
-3.54132487730056544
-3.42916851782809395
-4.36353966549392069
-4.41960833923905572
-4.30370770665622882
-4.14203561919076968
-4.10958750480931734
-4.65094967954704863
-4.87172294278781592
-4.87445353230950218
-4.66539341758037729
-4.58249480446559421
-4.97012481138373552
-5.15195174455090044
-5.25619349889339382
-5.11413123765967548
-4.96104816047410679
-5.21175083953080431
-5.306012845519259
-5.34885030921824534
-5.33968669409263352
-5.30774898020954744
-5.50702756972157648
-5.54704433938119923
-5.5686531505639314
-5.57090479240570957
-5.55346429561250154
-5.80305597134582118
-5.82088146526757466
-5.82978269505737057
-5.82716396881501097
-5.79785071311936839
-6.11150507411315669
-6.11797114209176129
-6.11599674479027478
-6.10102407855920692
-6.06079794196715849
-6.42260079713717325
-6.42059040291161764
-6.4110783401267879
-6.38967386387484471
-6.34917721474371
-6.74188387328909755
-6.74200507331943033
-6.73897104848016504
-6.73146647366640316
-6.71763380819942846
-6.69484613856107913
-6.66005882805890614
-7.07197619909942521
-7.06741052030525641
-7.06021080055775041
-7.04962380851473114
-7.03473475393914427
-7.01431655171584367
-6.98766950494010075
-7.4049767835859166
-7.39692995141308884
-7.38710356994147244
-7.37534062984885352
-7.36143019546567334
-7.34524949936015137
-7.32707880933537137
-7.74278706154732088
-7.73200547821651618
-7.72043468126925436
-7.70845218789922981
-7.69652730632390902
-7.68521389967494706
-7.67514321302707181
0.257679016017787532
-0.734257466981902418
-2.08349192357698154
-2.17543046820094066
-1.41954731491759389
-2.66199894671326387
-2.93325102432494589
-2.91121914483769562
-2.87570760163496031
-3.7777876912422137
-3.76736001293425593
-3.72707694892820607
-3.56727040120512884
-3.4555703200159309
-4.31825013799384383
-4.37676759785536618
-4.37655221527957483
-4.2621254924606049
-4.17160192919159556
-4.56195663559248032
-4.70227676029931185
-4.81777274621391438
-4.81262962104240088
-4.77144772928985272
-4.85429180236479407
-4.94774859895527808
-5.07011997091977396
-5.11986433182594425
-5.13413012816669045
-5.18902135698247768
-5.25488866143073174
-5.31727867419929989
-5.36346132725808467
-5.43476344412384549
-5.50846509037172183
-5.5510368239072081
-5.59118359674149978
-5.63261370159868946
-5.6783603585086011
-5.81624601857545098
-5.84211766134081412
-5.86585851277493209
-5.88736658243266575
-5.89194813368653492
-6.12650746588256911
-6.13902319378728389
-6.14624708714343804
-6.14458992903605239
-6.1188295657120344
-6.43572861037182342
-6.43787938125270554
-6.43355173918771417
-6.41816414069252872
-6.38150786560987449
-6.74811073587176047
-6.74995850819215626
-6.74903724196817478
-6.7440068386054195
-6.73281402687868447
-6.71221260044038459
-6.67725517185725082
-7.07653755957645458
-7.07310957287435915
-7.06719978010268957
-7.05794653719563758
-7.04416284508134805
-7.02419820120831684
-6.99640331421843165
-7.4078960904210609
-7.40047033611262961
-7.39128933149190992
-7.38008018596898996
-7.36649532761781245
-7.35017000196940629
-7.33103490402061553
-7.74419118432743758
-7.73360287738573327
-7.72217878169424043
-7.7102504546784294
-7.69824471835425239
-7.68668093642971328
-7.67616911790755552
0.754428851001388345
-0.0752855714491564854
-1.92005410216464534
-2.11207169523783911
-1.7171704979898621
-2.80898579910137425
-2.91335070412517716
-2.86975687779526911
-2.88974805421996273
-3.79266676717541351
-3.75907366855305769
-3.7260978859444398
-3.58306317684431175
-3.55454834489572313
-4.37149409024287916
-4.38510482283903524
-4.41384600713200914
-4.36132282911264735
-4.33443071136771785
-4.65137905604830681
-4.75084092345745734
-4.86873085591648369
-4.98504913020232898
-5.02819254089832501
-4.91470471494033045
-5.00673052874994795
-5.11859300275801665
-5.23433983501621114
-5.39545456843379245
-5.22118874940343236
-5.29128825646851642
-5.36842357997464248
-5.46962764823542003
-5.65888750521870598
-5.5311531574512518
-5.5847005933574243
-5.64887928030539843
-5.74079494091237219
-5.88921282190128359
-5.84205716360966143
-5.8794941123292519
-5.92370913799766718
-5.98172755255177258
-6.04729570016996831
-6.15012193312788114
-6.17197166152768517
-6.19313706695550437
-6.21301955940840056
-6.21794500134870098
-6.45539103391081248
-6.46400650460497417
-6.46803642510211674
-6.46340594052734296
-6.43677241767393848
-6.75713496376589795
-6.76160441910487542
-6.76394499593896192
-6.76284020634565408
-6.75607116127548313
-6.73972351093373501
-6.70629930645141581
-7.08314011544482636
-7.08143282765395909
-7.07750217808994897
-7.07037642640938913
-7.05857767935640812
-7.03980782355202184
-7.01100647726394932
-7.41215601014504255
-7.40567263085027605
-7.39748533314376289
-7.38720036419821557
-7.37426931417570586
-7.35795646616599619
-7.33763014285680448
-7.74623027731684299
-7.73595052105463044
-7.72477612670423586
-7.71297662245478488
-7.7009105796588937
-7.68903361157531684
-7.67791552203606109
2.16037527431737963
1.74621085165767376
-1.58379529507141426
-1.75109402979592099
-1.41748302599528841
-2.63234057739108884
-2.75641235296004083
-2.73880602653877148
-2.70976367238653992
-3.69530798862827226
-3.67199438847739312
-3.62203064691442123
-3.55316061693898355
-3.59446979751887685
-4.33045715230006678
-4.33372696245708511
-4.39429898877737468
-4.39394901482002886
-4.50802767378512392
-4.66511658344407198
-4.77368884492302126
-4.93747492974095259
-5.05426693412366657
-5.20211807666364034
-4.94744257913759533
-5.06568703800748832
-5.20387133331076157
-5.33963284539288718
-5.57187419724539801
-5.25403124297546498
-5.34528903476575401
-5.44884100255272674
-5.59306345066432709
-5.86173689318582891
-5.56628570198632566
-5.63718999558969447
-5.72938224449879119
-5.87289396858424873
-6.12703604729635742
-5.87724955778841274
-5.92990564569455092
-5.99827979778220577
-6.10156346708511244
-6.26325683852727799
-6.18092638728608534
-6.21513475189203124
-6.25509087623762294
-6.30650324991191091
-6.36562269638878586
-6.48079374985118317
-6.49805626271956172
-6.51386735099007996
-6.52604732667518483
-6.52213431284061063
-6.76854650032619354
-6.7764738523496364
-6.78316529603565055
-6.78745624810012593
-6.78716986229614516
-6.7781766079628909
-6.75055779945491352
-7.09151696976053891
-7.0920703545881727
-7.09079535730061483
-7.08665323916300416
-7.0779207281383183
-7.06166796277049524
-7.03311452909149892
-7.41756310435459909
-7.41233572906686433
-7.4055067849396341
-7.3965676085659755
-7.38475111486359115
-7.36888380924372211
-7.34756920839060523
-7.74881605829002851
-7.73896750039000825
-7.72816130500812903
-7.71659386588702301
-7.7045442798091468
-7.69237938638813379
-7.68060323949438306
3.91229988344451129
5.00904746898646636
-1.43746612106805705
-1.08058408542859219
-1.24674066090179281
-2.6280611676745238
-2.72914106447867422
-2.6797650961413173
-2.03047173342921372
-3.56117732079635552
-3.63662054123299194
-3.60201120023322563
-3.52279200977990081
-3.29339271482479878
-4.23963375311834945
-4.26859474326114263
-4.33443383958393103
-4.40639797956856238
-4.54792646237962828
-4.62733132884334086
-4.72597642762809755
-4.89998484285937064
-5.04003895634812693
-5.28529640112246835
-4.95382740692364365
-5.08527453108144645
-5.23105853698945911
-5.35470885060939317
-5.6378803396212227
-5.28411983252247097
-5.3852474752639683
-5.49868469323881293
-5.65918603472315862
-5.96023559596733676
-5.60368998812220642
-5.68817837594358977
-5.80154055880854713
-5.98089681137929574
-6.30482066328572088
-5.91594791451452107
-5.98427316425913514
-6.0783876428560788
-6.22979102120938677
-6.4891799076601
-6.21610665463136236
-6.2643317135279295
-6.32633302859273439
-6.41720348179925182
-6.5573352214959888
-6.51024923577007986
-6.53788434862283374
-6.56849691337604469
-6.60451100165664773
-6.64345395420402518
-6.78181760624298402
-6.79379660810671115
-6.80568407133674036
-6.81669908046336381
-6.82504307338437144
-6.82732123045625183
-6.81290169986822569
-7.10125502785837703
-7.10451610579053838
-7.10649703046334924
-7.10618059676189873
-7.10173171992809493
-7.08985985330728852
-7.06411328054229859
-7.42386284005274444
-7.42017083183544379
-7.41504943506087955
-7.40790528328207998
-7.3977734046267134
-7.38306915269929043
-7.36152667819095274
-7.75183600018773511
-7.74254065836699112
-7.73222955168876069
-7.72102638735373414
-7.70912433190617552
-7.69679907888538661
-7.6844643287134824
6.44073703713313428
9.8905895239173276
-1.68964761746312941
-1.49296032623256281
-1.33574481248621169
-2.57018841750686811
-2.73425400858305911
-2.87182145661775712
-2.35227349859271584
-3.55207375250041757
-3.54356334121607786
-3.51602111181314081
-3.53767732582307959
-3.1617230304912205
-4.14876477929791321
-4.19042430735887628
-4.23492161913595044
-4.32940551560149345
-4.51043209615143503
-4.58283350730361061
-4.65268566253492555
-4.77208847992017748
-4.95189635677193518
-5.31070298080953673
-4.96356328035980621
-5.07598710172785417
-5.19282942570674866
-5.34087309532340804
-5.66342406518651842
-5.31438088355526261
-5.41091921086107508
-5.52073772590868117
-5.68345498770707991
-5.98597638526343001
-5.63933089972185009
-5.7296496101627028
-5.85298307426905051
-6.05116070567024167
-6.41978938478041172
-5.95404368166010922
-6.03444967344081018
-6.14807046240169885
-6.33373248553209134
-6.66562245771642115
-6.25238297479408889
-6.31391665621381648
-6.39767759316385121
-6.52631049857409362
-6.74469543740507582
-6.54153556459454677
-6.58024231210289035
-6.62762555497099459
-6.69168210509482009
-6.784078832186621
-6.79617226152919951
-6.8125381160636147
-6.83012503055126352
-6.84878227725939404
-6.86752738449381361
-6.88499929484292217
-6.8932485872542486
-7.11181584264111066
-7.11810111501373655
-7.12378630682404967
-7.1279938103111089
-7.12897326966763423
-7.12337216511907112
-7.10374747736930878
-7.43074209757610227
-7.42880424745254775
-7.42568463542878288
-7.42074944810581272
-7.41290672484078605
-7.40025651524583683
-7.37971792891920231
-7.7551598264563113
-7.74652345188418767
-7.73683010215701383
-7.72613521151225946
-7.71455033970480297
-7.70226589759707636
-7.6896276264405472
14.1308274405003047
18.2249973389037905
-1.42647455844296367
0.0102458361726576186
-2.29074440883321984
-2.70203080724809208
-2.74149717220062872
-2.85379939252275694
-2.81509818475817042
-3.75462911516278197
-3.49367908421169204
-3.44334098217642648
-3.57649941777774849
-3.12305611194225285
-4.14509611700582781
-4.13013484751741267
-4.22938840579471087
-4.37836197249594061
-4.26209051912177195
-4.59893859812353689
-4.62674093324252045
-4.7069702068894701
-4.92150968646721232
-5.52529184107813975
-4.97790858845464168
-5.054020344912038
-5.15673963693408055
-5.3425045124673618
-5.84613335896485964
-5.33859470823797011
-5.42543080101320818
-5.5325474466061717
-5.68479971356971703
-5.99279832677299495
-5.67370530776512716
-5.76301881825872542
-5.88808132997767864
-6.08546886297057021
-6.46131349553852186
-5.98949062541669708
-6.07712489383019694
-6.20293512597833985
-6.40306668061718742
-6.761227813097344
-6.28695244835731604
-6.35922698145499865
-6.46007466987900703
-6.61561358206572336
-6.88481911614002229
-6.57227821349899965
-6.62138027279439623
-6.68482580085239153
-6.77365232047643229
-6.91306585268901941
-6.81065723718246829
-6.83148909689441286
-6.85483359220726207
-6.88134881659951692
-6.91094305235198281
-6.94484676531377954
-6.98221106314706397
-7.12258329104024579
-7.13204476840164237
-7.14167192195181233
-7.15083201600533425
-7.15800286933570273
-7.16008423372422254
-7.1497580761455195
-7.43784871929099722
-7.43779965287789846
-7.43688549033283142
-7.43448015335301537
-7.42943908830686528
-7.41969633245050808
-7.40156114937905496
-7.75864180804214776
-7.75074406281774486
-7.74177118937005915
-7.73171991040187034
-7.7206319479762815
-7.70863716723328896
-7.69609163916251582
20.5480352791050471
26.1447822952159399
14.0140683916335469
20.1364171773215048
6.36607021404753937
9.55651772223339258
15.7977531532274789
2.40494132988849074
3.45339741056528648
6.47123800988185316
12.597751982234513
22.8290004617433198
28.6854466451437062
15.6411564049559288
22.101411126845143
6.72625176746373477
10.4963593640587902
16.9970200992071803
2.42843010539903403
3.56564826159642578
7.0080334636093049
13.0749146937465497
26.5995107317946733
30.22912509659119
18.3087306520317981
22.7763875704780645
9.00120421166680273
12.2865547597808629
17.1238699368386662
3.64428588454066293
4.80691971118170969
7.8277300147058817
12.6532432718578178
26.4761689991277933
23.8844725003128815
16.4833648324189426
16.2779070023171641
9.64381573755839128
9.97992476173038767
10.8197926378910836
5.16597196959884286
4.35881292779197693
5.04962148056287674
6.36029178905718595
14.2064537066989942
3.40555986515971654
7.34101464992608044
2.0891704230817254
7.96958748686313356
2.90326905534908519
2.98467804747093624
7.28361928382778245
1.23099912702804204
-0.270805158627183573
3.02788708909943693
0.39692051098779757
-3.37429059672621001
-2.67208641441698092
-4.07174820456510034
-3.02378300510201825
-2.59818419649894849
-3.49567090960563753
2.59917193187141038
-3.08473026857035393
-4.00961042135082835
-2.91329503428512915
-1.4245755633930699
-2.03349801423262377
-1.19532434185545111
-2.49451853095937626
-6.90137247049531055
-1.90265218779861578
-2.79976563638177867
5.64699571841936176
-4.23981733339236655
-2.32560623870694005
-3.04848580503220568
-4.16994369246535967
-3.86181886441841993
-4.09834799748865475
-3.73688525279269257
-4.46737664850525995
-4.16852757518988071
-3.62347747753572946
-5.29056518541457876
-4.60745644273993982
-4.06060455161177458
-3.52750976389550353
-0.778528024684488784
0.336202724297566036
2.95525831162998642
7.96541184740158315
-1.86990395312442992
-1.45916028506384432
0.190367846026649801
3.6990879183073595
-2.18365312573720249
-1.95907528707069734
-0.999002694408719805
1.08484469354841373
-2.73955692102303772
-2.53858851869706914
-2.00943475341120426
-1.0124268299649426
-3.6482513426722325
-3.30676516828401068
-2.91277509443019955
-2.61343188885984823
-4.34023835944381631
-4.06256616810708859
-3.6979877268319834
-3.55141329192363964
-4.74796862864186942
-4.55685198196611996
-4.25649625771595908
-4.11284697014755096
-5.1114489240376777
-4.91687294828373567
-4.67408207840363765
-4.54823582764984646
-5.39047363630623
-5.22825327519491356
-5.05233119167429745
-4.9539728509077614
-5.66193626773720027
-5.53885459210102926
-5.41674596249465701
-5.34709476539857853
-5.95843579603174778
-5.86803352211802576
-5.78452407670209734
-5.73479545943971569
-6.27651625444090211
-6.21358957028019265
-6.1573021638302059
-6.12141300624150642
-6.61050647889606058
-6.56854284386718135
-6.53165108848481868
-6.50672168495640779