/*--------------------------------*- C++ -*----------------------------------*\
| =========                 |                                                 |
| \\      /  F ield         | OpenFOAM: The Open Source CFD Toolbox           |
|  \\    /   O peration     | Version:  2206                                  |
|   \\  /    A nd           | Website:  www.openfoam.com                      |
|    \\/     M anipulation  |                                                 |
\*---------------------------------------------------------------------------*/
FoamFile
{
    version     2.0;
    format      ascii;
    arch        "LSB;label=32;scalar=64";
    class       volScalarField;
    location    "0.209999999999999992";
    object      rAU;
}
// * * * * * * * * * * * * * * * * * * * * * * * * * * * * * * * * * * * * * //

dimensions      [-1 3 1 0 0 0 0];

internalField   nonuniform List<scalar> 
7248
(
0.000156267844274958511
2.12988303997645878e-05
0.000429371685958647312
3.88566646969756515e-05
0.000491233504278138443
0.00678690608954405847
0.00491755663138143586
0.00146493885613852666
0.00015182373981395184
0.00207566971491073438
0.00922046557183260097
0.00787560607163807422
0.00440381067022038199
0.000356432227644264338
0.00286117884441544753
0.0107402256437369812
0.0114067734404291795
0.00520667619140473444
0.000646926137924998495
0.010907089893044836
0.0121041402286934455
0.0117290661206318671
0.00766428081873164052
0.00138323918990187512
0.0126080983524585414
0.0128435366901044311
0.0130516074563506602
0.012727085707078447
0.00319688502530524922
0.0139204254173372864
0.0135675574313208515
0.0137672275465030008
0.0150460059540390226
0.00543947415908910877
0.0153928461944295193
0.0147862945861339679
0.014623511905751653
0.0153111134191324608
0.0101324696609885138
0.0166142904677968536
0.0157805707142897496
0.0151259738759494597
0.0149064562862749814
0.0163251880458398189
0.0174956510863001867
0.0166633687964445228
0.0157206736164136988
0.0149007110797035724
0.0148407968687693098
0.0184247942885262736
0.0177679476802322274
0.0168871427167065456
0.0157583179631774969
0.0143165458933575303
0.0201119708306637425
0.0198077533873867347
0.019464014316567569
0.0190636961502483222
0.0185188916059578386
0.0177167185586870959
0.016701820475724747
0.0208041372334535797
0.0207242783557478258
0.020627699437876134
0.0205170745169647416
0.0203798345289184953
0.0201723840349431506
0.019929180391476637
0.0215686613836142752
0.0216886242112165444
0.0218442134007930701
0.0220477699438188061
0.022317672706444882
0.0226909925724855452
0.0232720136264142341
0.0160803212123684439
0.0165888551739419542
0.0172575758009551709
0.0181541827822042125
0.019386504599131358
0.0211378157509622966
0.0237554970530212822
0.000122163691339188319
2.24340078493666397e-05
0.000324795243149791923
5.22435205506221261e-05
0.000390482469084113125
0.00608620106437474714
0.00488131555186899907
0.00118185018640433242
0.000176848293967535493
0.00207310778385033168
0.00805675011443862665
0.00669108209425661651
0.00363420723540274111
0.00028530885221903651
0.003096978005617897
0.00893753460505396224
0.0081361850077611049
0.00353113714714488498
0.000512673261644429378
0.00892588823221379668
0.0105440567797574318
0.00939194566767584567
0.00608451834454489578
0.00112667094091042225
0.0123122772600519261
0.0127336184398177763
0.0131393190046012638
0.0126839348928245547
0.00315524174202417348
0.0138109214271343265
0.0138631992822528353
0.0143899464418887329
0.0153120446982554816
0.00811035170204945505
0.0154940788165701445
0.0151096866282088432
0.0150825981588799344
0.0154115198505843671
0.0123987484921569604
0.0169019905923058211
0.0161393081338872674
0.0155732825965005494
0.0153921525168091346
0.0170059081716003591
0.0178379742755660452
0.0169461999314776193
0.0160249653823158721
0.0151996089165065528
0.0151856827386209741
0.0185362772030121768
0.0178671579782485081
0.0169776177755435742
0.0158418312928808661
0.0145647605044374635
0.0194910153855482153
0.0190567557422685017
0.0184621449800964101
0.0175840960517127248
0.0164308659523510828
0.0205973825225430202
0.0204460622328366259
0.0202418360078594622
0.0199157520824862558
0.019448017747278612
0.0217839673566136358
0.0219518260765158742
0.0221697324582732225
0.0224628487021036119
0.0229013052042316943
0.017123833601780665
0.0179816677445743568
0.0191702400475575324
0.0208772476021445372
0.0234623288283761812
0.00011260358907856973
2.26804862016505647e-05
0.000298095643586829241
6.37967303854753234e-05
0.000364793791851138834
0.00664485029181644243
0.00545244099756331604
0.000959440820341478438
0.000157092764774605196
0.00247958301266294669
0.00796352378516834193
0.00722501496455203642
0.0033055227245828633
0.000258984398312075298
0.00505929707380282489
0.00915997007049886187
0.00884908415865510826
0.00439497795471757539
0.000472983407546011269
0.0105810447096912896
0.0115539563406362022
0.0115186732493785162
0.00880885396518176454
0.00117592068415630735
0.0129373964618006258
0.0134998689936614083
0.014633263649049608
0.0143363525538142203
0.00511615233791695538
0.0151397954211316792
0.0147441702619504952
0.0150005888207901811
0.0155810014443757729
0.00939587411540072567
0.0166908124887410365
0.0159312738441628153
0.0156374864302368174
0.016000946556322785
0.0133544504203665631
0.0172632911604070349
0.0165708075173189272
0.0159889950191572441
0.0158047767751136048
0.0169227466602755311
0.0178429018947872907
0.017154620438585285
0.0163108374253940688
0.0155356950100700407
0.0153932020947915131
0.0185878652079134142
0.0179813960552526776
0.01713349477635542
0.0160301741070396041
0.0147765203385237971
0.0195086570312299305
0.0190791580830834001
0.0184799214525537513
0.0176000959884862612
0.0163364394241030594
0.0205848015450855841
0.0204082289398899164
0.0201545269774622178
0.0197399587927886908
0.0191067080513580324
0.0217400953021138661
0.0218798515318195351
0.0220547816247655612
0.0222769279684336512
0.0225742049718105457
0.0170008137343156049
0.0178219460493459908
0.0189670697971827569
0.0206254002580476235
0.0231534746258593889
0.000102257974183994358
2.04019633278193461e-05
0.000251342156669021825
5.45513316561488197e-05
0.000345999428966818981
0.0018189347310202848
0.00453859478855859859
0.000756821845427768235
0.000144478839378676938
0.0021147528341536213
0.00226287798888060278
0.00655353921770616271
0.00247766611035074146
0.000238340179637538838
0.00827981410517153286
0.00578376753517562125
0.00858968713845321107
0.00686594042575362946
0.000430680328300642168
0.0124041517441517476
0.0130434598765041231
0.0137223817569258506
0.00833748678102408901
0.000997282345001271418
0.0152970973172532401
0.0157885394363676476
0.0174335439251460007
0.0156116501674991547
0.00390051104184860808
0.0170886186996763341
0.0164870851387592214
0.0171169611066383197
0.0166316574543949637
0.00880376530240486489
0.0176887082576716835
0.0169975178597349813
0.0166329359942086821
0.0173381716014129848
0.0121350971854821636
0.0177068563403141969
0.0170964642100299366
0.0164847613256175612
0.0164305911661936262
0.01745586995121199
0.0180054420854790821
0.0174044426417336445
0.0165981566926261259
0.0158492902160827231
0.0159961796051072448
0.0187132323532347676
0.0181222920540429801
0.0172744417697907049
0.0162103212793609022
0.0152090837849954592
0.0195643425225865766
0.01913972285510444
0.018518151817764221
0.0176105998903074296
0.0163872032242832928
0.0205967881865976726
0.0204035234948748943
0.0201084572402831577
0.019610520255018471
0.0188435378103454683
0.0217146616447082795
0.0218327272435401218
0.0219723580133953968
0.0221301335884052687
0.0223075968858178833
0.0168927435585582847
0.0176812024888039244
0.0187862337984306821
0.0203969084793611671
0.0228606465730165735
9.22330609632227878e-05
1.96582994844277497e-05
0.000208243866714218941
4.9207568339134054e-05
0.000591743539541696954
0.00354116837520827713
0.00344517876133035696
0.000598895690620881343
0.000135284993215697839
0.00316179848650512694
0.00982227231534869502
0.00926177091939206325
0.00181488810745314292
0.000214712674831215146
0.0124145973797398466
0.0106525108797428832
0.0111050372402633889
0.00529853975272340672
0.000375145525476106218
0.0153882937133812195
0.0140029489362524639
0.0118881010193479346
0.0061525322531641672
0.00078290703755106968
0.017317672610446512
0.016961518359694637
0.0186368874845931343
0.0127144065359422066
0.00227462207874781731
0.0173218502631847134
0.0173526212296511717
0.0186803858124825993
0.0170995461598511429
0.00915744786860812898
0.0174426531608567366
0.0171431781489116905
0.017358304651059947
0.0180635222447367016
0.0103297417631797433
0.0177063130719804229
0.0172609998722637534
0.0169111502927284593
0.0171896881957253264
0.0174462017946579763
0.018190499169428026
0.0176103243453085874
0.0168925307172195192
0.0163076949139857423
0.0174378172222567768
0.0188381783647678554
0.0182666154713724757
0.0174400285991005675
0.0164361062966327451
0.0158426059624966267
0.0196493274635656384
0.0192184733432807751
0.0185529408094600376
0.0175967173665806213
0.0164900289926914953
0.0206343926529349783
0.0204298031185080817
0.0200916817626311112
0.0194961018860529307
0.0185979316318152336
0.0217096329629926747
0.0218117725511341037
0.0219221335662959094
0.0220166200636668329
0.0220662237565934505
0.0168041288203966306
0.01756445154433817
0.018634307991296669
0.0202023486989561761
0.0225942773255932289
8.90367030035002543e-05
1.97032420620572416e-05
0.000197177888010899554
4.55222170836936136e-05
0.000429083322589114897
0.00295031287529943674
0.00308773016333505198
0.00056031346894818031
0.000131180326162977324
0.00271313555175518341
0.0112409922629612916
0.0102118929346220032
0.00162825082579150476
0.000199049088470060431
0.0131233047974592537
0.0176016515737561635
0.0134818280440441619
0.00495585972680129706
0.000337432279213528957
0.0166294084650268244
0.0144324911233739712
0.00818673468962070015
0.0102545335339254747
0.000688215836523669178
0.0168458006878636213
0.0147106493502402874
0.0121974640728434985
0.010332996595763767
0.00174569136930291329
0.0169534542314673242
0.0174842829953354775
0.0194762259334834917
0.0161620255969894613
0.00752587425663082867
0.0172936770195895595
0.0172777964817479278
0.0180557460644542936
0.0189152878947011632
0.0112838370335042598
0.017824301681520438
0.0174419157908775983
0.0171672551622004885
0.0176841257332233381
0.0171191008648276556
0.0183897769499518984
0.0178614166884019758
0.0171757623431117654
0.0167785472827181141
0.0182357511383047441
0.0189870155490439486
0.0184403157068928104
0.0176517657902155421
0.0167302073200353979
0.0162612301566224561
0.0197587250957020552
0.0193285579556939785
0.0186436637961631541
0.0176755436820794851
0.0166442140464772674
0.0206962758140019527
0.0204882084134500875
0.0201274595944526749
0.0194895152081438483
0.0185379159257842673
0.0217248001087576165
0.0218168991058861027
0.0219022308999905664
0.0219237995362282952
0.0218161852921561344
0.0167376148033036888
0.0174754954365813758
0.0185157054319923173
0.0200469528712088271
0.0223776646494556995
8.64149729368341964e-05
1.96814480859910548e-05
0.000189421437729415921
3.74806410442659287e-05
0.000776703847155700415
0.00398007277555213236
0.00268142908941657607
0.000581190649519347687
9.41218845442135394e-05
0.00436515388946757087
0.0137668608751691582
0.00856344441636031593
0.00152712626627193372
0.000184014385249269284
0.013141822438890496
0.019064647970511852
0.0175758354032781831
0.004972611861604582
0.000301332028946054722
0.0164123958589627757
0.0170565545551434848
0.0144264533649553529
0.0123203813266338814
0.000608513609077516592
0.0165491990949820124
0.0158640511398106185
0.0146010440467311976
0.0161872111685218874
0.00159434100308859035
0.0168591108429708147
0.0177993264595238884
0.0192851780160617631
0.016841595011582406
0.00745405381307793179
0.0172756709310957109
0.0174644165492742788
0.0178816504962032684
0.0183846147873992609
0.0126751574021561359
0.017995381125961607
0.0177406920249727033
0.0174697832430603939
0.0177640526780931604
0.0167660892049333425
0.0186199610767411629
0.0181439747527955206
0.0175526873838843071
0.0171615321486613785
0.0185289095937711812
0.0191693575490170104
0.0186562176916616126
0.0179186788070281947
0.0170762214199811357
0.0166768227032543202
0.019891594213960969
0.0194789043347610227
0.0188047602985142275
0.0178393548667022846
0.0167587840518146278
0.0207795375453124834
0.0205799885960714357
0.0202228431654154078
0.0195770724834758644
0.0185656972766009183
0.0217592219959222982
0.0218506351755737918
0.0219252248033423823
0.0218991762170087194
0.0216879448962958091
0.0166956322954347341
0.0174180086821886862
0.0184363265885921987
0.0199353743714403703
0.0222193477708754264
8.28032249016726161e-05
1.91160478942358977e-05
0.000183817220218661549
3.23396338656151304e-05
0.000466105335505964126
0.00231739149781310565
0.00313686804311268368
0.000567421025913325766
7.45429661635235946e-05
0.00227604826096795094
0.00654647035401128945
0.0111423448886766169
0.0018981729475316927
0.000182914165956040066
0.0107683078065557766
0.0123824535452787717
0.0186800260194977946
0.00799559134879510199
0.000294734982482607749
0.0163152345013350582
0.0173697860972093811
0.0200884569628663398
0.0197188869089600718
0.000603665269557278274
0.0172036405691087212
0.0174355795240441307
0.0182985019288432783
0.0186896090462855546
0.00169049727205815899
0.0171890022523966748
0.0178764364668217469
0.018388907815904746
0.0176974436520004469
0.00954037229181137723
0.0175153610568907388
0.0178395633073077688
0.0179013422384252871
0.0181548923724997591
0.0138734721146504432
0.0181949239897863657
0.0181083908668405631
0.0178538580734044564
0.0178440747354834499
0.0171977739151271368
0.0188410638316563045
0.0184584939380850223
0.0179696630603371037
0.017551839438132235
0.0180393309031834474
0.0193580950270742999
0.0189042991259734394
0.0182348148657383337
0.0174934092336052234
0.0170704227908127018
0.020021305114478756
0.019653106683403216
0.0190424650309286292
0.0181314140226649656
0.0169858102547961153
0.020860297591305775
0.0206835410133130171
0.0203619677153949394
0.0197574648820819342
0.0187547539213410094
0.0217910433592657278
0.0218912273219068025
0.0219748236035900817
0.021949619457882534
0.0217121566051635372
0.0166684402117276559
0.0173830375833014389
0.0183899463725521288
0.019869731322543379
0.0221207366616294823
0.000762748406751995959
0.00208661391233240599
0.00368920349364009218
0.00934371943417683197
0.000314707700601053579
0.00127272220185063842
0.00365788327274210083
0.00923469376753871529
0.0114335013111979116
0.00197840291233080095
0.00532042948468035553
0.0097889451205370754
0.0122047551177499776
0.0118759822096716292
0.00922678046502517848
0.0109239028015808703
0.013049306263592686
0.0162154423992815801
0.0130401283207259282
0.0114221449042780469
0.0117817649162031586
0.0107714919305454959
0.0148284719361149019
0.016247586837493215
0.0103327252196842041
0.00841216372629458205
0.00905338688661467585
0.0117970021595178182
0.0168567951894236824
0.0148692118578263848
0.0136249670658880467
0.0138151028570458086
0.0166131738557895939
0.0156434264176844168
0.0160523582168411588
0.0154940064063998698
0.0156425441320143695
0.0162514383836568702
0.016566931893855226
0.0169440128407364506
0.0168049384125446288
0.0169876878183537298
0.0173616221478820748
0.0178674717105033534
0.0180264038041631561
0.0179348063012904277
0.0181217450023483384
0.0185210304939940652
0.0191799294805917141
0.0191732789049966629
0.0191928640246392772
0.0193915420864248372
0.0198398192806315474
0.0205899070708964564
0.0201263029794022733
0.0201432689759965776
0.0202215881706598287
0.0203904020560479876
0.0206909802849032619
0.0212267717231627677
0.0220122930612341138
0.0210426695070532084
0.0212069791163583821
0.0214279781843487761
0.0217221422538165718
0.0221299116278738973
0.0227356630981698747
0.0235309736449076309
0.0218855320506610336
0.0221751117899402564
0.0225434610506624715
0.0230037626007715337
0.0235719720986303609
0.0242964893747826885
0.0251541284873668392
0.0165702446965345675
0.0172355874361311591
0.0180755760544868034
0.0191330875600271705
0.0204581239764677798
0.0221236729221820153
0.0241773758880144164
0.00108650660706967653
0.00328350543828340776
0.00568319131202314667
0.0119489568051782437
0.000412166401724354137
0.00196289780037333349
0.00606035700044050673
0.0144112899219973715
0.0089270398721811306
0.00217530809859133511
0.00655916503104965985
0.0123163568045001285
0.0129094906469180079
0.00824587387737211498
0.00893631120033027727
0.0122358810795844489
0.0134757022315868513
0.0114773721172730901
0.00935014401602450931
0.0139101963786129497
0.0138335720482896194
0.0121350501683255996
0.0109888429047578107
0.010441676303288806
0.0132253473875016906
0.01255380858669157
0.0124964209483257992
0.011862512078959114
0.0113024051368886495
0.0142192505679714261
0.0136729716772855878
0.0131581030118849435
0.013621596829168664
0.0135068567583730408
0.0152183698423957268
0.0148046469102992989
0.0147294423017131533
0.0150411522519404411
0.0154223046749657876
0.0163626631706285941
0.0160966283090547731
0.0161033472366054267
0.0163257866381413541
0.0168365739616979093
0.0177351429682616087
0.0175660635785683528
0.0175803676683511066
0.0178549793990976334
0.0185534057745299907
0.0189290011246380334
0.0189370656744833089
0.019069829055149496
0.0194484629600149873
0.0202609913943134594
0.0200790034248774368
0.0200840425750717991
0.0201382075297137295
0.0202765009183288637
0.0205475793964980218
0.021043991400424622
0.0218315795344803873
0.0209689742731346204
0.0211118480846045897
0.0213190208947217179
0.0216134592792233404
0.0220343403603207033
0.0226450689877961027
0.0233930290646700151
0.0218331019261922207
0.0221133357246290733
0.0224753037211173554
0.0229380509011948598
0.0235228174664881863
0.0242637043212633047
0.0250679002625306437
0.0165339153269721574
0.0171932369855531883
0.0180302888353247662
0.019091762607432769
0.0204353785586905007
0.0221230936400659585
0.0241809797513344651
0.00110396535643700919
0.00290418061342153982
0.00640014496941219632
0.0113648555549299719
0.000552434524467157397
0.00257373624448883767
0.00791464280196445789
0.0158015515294585296
0.00970573610538065512
0.00313249141680343535
0.00892538440418901534
0.0130102254830628556
0.0125724035065847509
0.00851530294018590199
0.00902021673466916162
0.0126625623200729807
0.0125604619735993576
0.00997303778705448986
0.00853717551528633371
0.0128320409191413423
0.0127008621684004067
0.0115457715337206526
0.00980773332288116702
0.00861624367226752202
0.0132800549741308969
0.0127172087606994104
0.0123098860489239056
0.0109789535012507471
0.009410288092287852
0.0146575704293428546
0.0136423647036624865
0.0128338404440269845
0.0125686446436402005
0.012001346643829184
0.0152149203632181117
0.0146772584258236822
0.0141752627430408243
0.0138930076626694078
0.0138640569502197428
0.0163781023209375251
0.0159632037411539703
0.0156306382951961476
0.015438006928557969
0.0155826670082940665
0.017595078200829499
0.0173358033880384663
0.0171775205709839458
0.0172059853059060019
0.0176575768371073465
0.0187810582678139756
0.018700764374460277
0.0187317491039381244
0.0189835366406994645
0.0197011915183542517
0.0200083569615295866
0.0199838327770958599
0.0199987552622121478
0.020084524587239843
0.0202951301864950917
0.0207350758399070349
0.0215551359290713333
0.0209082724627817143
0.0210299089647042747
0.0212101104800077392
0.0214737901322686366
0.0218636592260753465
0.0224584345712040591
0.0231983304894930326
0.0217844721741552345
0.0220505042242536142
0.022396393283939834
0.0228426244234320036
0.023417319973332875
0.0241655985555702946
0.0249550993188907173
0.0164950293275747846
0.0171448055325571398
0.0179725661108750996
0.0190284913251206785
0.0203770808146953759
0.0220982302787057598
0.0242078879339177946
0.00108759760115070261
0.00202962573496680591
0.00651785625774210352
0.00764302462916287978
0.000518545406269243754
0.00347207656239164296
0.00979344132917253467
0.0138759566318284889
0.0123608827405118447
0.00284824277798082903
0.0119363324585674557
0.0151324793992602367
0.0138270411976306982
0.0111448096450542915
0.00993273549770216577
0.0127450048380257815
0.0127378216831144798
0.0100441205105075027
0.00964043679872339694
0.0115883533562666872
0.0120938360030717808
0.00979064429659282261
0.00877816762130086831
0.00926063858953137843
0.0123082256807349865
0.0116468335594272741
0.0111105749619223957
0.0110831717843602774
0.00902824886768802473
0.0134839250043910838
0.0126456486695610236
0.01192353093944311
0.0116170809141155264
0.0106301886114620586
0.0147974338920457225
0.0141946358026963301
0.0134670854458592126
0.0127625962618331274
0.012079687732129446
0.0161643671044800138
0.0156330260192674743
0.0150266655693768476
0.0143714557597906627
0.0140408819786492882
0.0173726190769653496
0.0170060445383424692
0.0166361969666174794
0.0162963915737626489
0.0163245694483446224
0.0185970189937520111
0.0184168057817489378
0.0182958695635102135
0.0183086070650234391
0.0187424626027619598
0.0199406470917732892
0.0198754773582759149
0.0198366973944726181
0.0198518107296572766
0.019966143607476141
0.0202828134220992967
0.0210418868650155376
0.0208495948185854103
0.0209422238100522295
0.0210839211369438818
0.0212998588693582049
0.021633098817544761
0.0221730831295947999
0.022951999213566391
0.0217334520609816298
0.0219798188225773447
0.0223022684815151438
0.0227220485318908906
0.0232720302177424274
0.0240080788630218922
0.0248173803484285742
0.0164419734436894935
0.0170771072785041583
0.0178899444115138521
0.0189348643894003028
0.0202854760816876846
0.0220429383096669637
0.024243448120522728
0.000880311645624038438
0.000769762962359992159
0.00534679738220923337
0.00235438684811974368
0.000720358182928559389
0.00439703714802102113
0.00824773698361689137
0.011793204023408969
0.00505327594474572987
0.00421600552219063198
0.0135313390053652949
0.0114847870233426678
0.0131413727991466257
0.00988488523647482187
0.0113709696347326847
0.0143091364854452657
0.00829200990497516027
0.0105812754992008831
0.0108325781555119894
0.0119900686366108868
0.0126231323984909525
0.0089523898839521561
0.00894209685971002546
0.00955816448786457086
0.0119871079856714441
0.0114961757429109107
0.0109044419169508564
0.0109660307777953211
0.0100937134704428277
0.0129687857144298088
0.0122571499012880548
0.0117149926836179318
0.0116636498723817206
0.0112274157431786013
0.0146903588335565508
0.0138842023312663581
0.0130521862501064706
0.0124321121402123941
0.0112287878695295617
0.0160474358315386353
0.0153441654485852626
0.0144924509789178708
0.0135509041680400566
0.0125189013298424839
0.0172184858901412302
0.0167056568231162966
0.0160830281546801845
0.0153325724116919783
0.014855696370435139
0.0184435298819327631
0.0181463545851887273
0.0178285455754814554
0.0174987685614393096
0.0174927776895227802
0.0199043577107033375
0.0197916969385664096
0.0196888284390901031
0.0196156845692566709
0.0195989073957701203
0.0197092763296611399
0.0201942309411990879
0.0208028918501149962
0.0208621042694639887
0.0209580144071255282
0.0211123733344460128
0.0213646790736735613
0.0218023508759434374
0.0225826920897363691
0.0216851903822461653
0.0219083497964760697
0.0222013410477405991
0.0225853239357161166
0.0230948548130919286
0.0237933526083593389
0.0246580860794946496
0.016378303777513821
0.0169942370150368179
0.0177864667224646757
0.0188139547057612662
0.0201601123471138073
0.0219482552855233097
0.0242704101931028593
0.00073772193191164149
0.000210726064917095003
0.00427471045847931629
0.000448503373363100797
0.00046621877581928421
0.00266743473811884403
0.00563023297746353003
0.00943708317219093575
0.000895970610076894441
0.00259284159538573141
0.00914184511755899293
0.00832930554370718383
0.0116733025186222562
0.00234194764111018755
0.0134727647882753772
0.0133334918552479795
0.00702889111581673186
0.011353865933591856
0.00795043953327421657
0.0127893599566309794
0.0100283855154747227
0.00647202059325750929
0.0114198266964884668
0.00841909807265814152
0.0121661728376198132
0.0114049199717749326
0.0109749266424205068
0.0115161974482541913
0.00817610639145621883
0.0129910212972668814
0.0122831405001793924
0.0119328597678060172
0.0122638293498620581
0.0112763114835249621
0.0147527235233770333
0.0138692109856468609
0.0130920382755135827
0.0128862138173378681
0.0127892726498709322
0.0160319366394820195
0.0152146852320714926
0.0142673157322897662
0.0134242305179131695
0.0116171261416506254
0.0171495448692873774
0.0165109472516030385
0.0156764073658835802
0.0146435072412092315
0.0136167886496618012
0.0183372646308002929
0.0179186749241763768
0.0173860206647879663
0.0166778825432997956
0.0161154286810650908
0.0198981930941236895
0.019738613272591566
0.0195699149504232547
0.0194005886934673494
0.0192285708081398263
0.0190578862032449413
0.0191118135302300075
0.0207744128906051269
0.0207976659282751372
0.0208425491190049814
0.0209265718516431151
0.0210800138745263071
0.0213692939192331802
0.0219862695359040357
0.0216434611792508357
0.0218408887666490664
0.0220998204134946058
0.0224403052145885906
0.0228955876822673973
0.023530572824914376
0.0244413738600829655
0.0163075181928864985
0.0168999859304526587
0.0176662346982483648
0.0186691896244713176
0.0200013985683904667
0.0218075719844181698
0.0242654480351809469
0.000712984093402172121
7.65419657856334442e-05
0.0040914900115019805
0.000152058680763374844
0.000499576144979839388
0.00345377166659490385
0.00797478979237696908
0.00840338217950525185
0.000300130411472337229
0.00270878900552719987
0.00700881770614009136
0.0101277400254712446
0.00942070064835827219
0.000679075846408124916
0.00734355394383489225
0.00578709622186696516
0.0082829785064399454
0.00955774591339129086
0.00205415920235068683
0.0115045300581037412
0.00653236029224840697
0.00635082520396089076
0.00942690705237280747
0.00491045557302415871
0.0123893663870137481
0.011783435994279173
0.0113313066168521902
0.00997202813813624286
0.00507384884633279177
0.0132220234662353015
0.0125591681593805599
0.0122803971898826098
0.0121787955408881564
0.00868441739767419896
0.0149625523170027631
0.0140803650653525247
0.0134419989257866107
0.013467705077062686
0.0123352188352006259
0.0161403511962964416
0.0152734402981294249
0.0143793486768665265
0.0137294415409643794
0.0130946098444325865
0.0171794825464455861
0.0164459139221551677
0.0155204092180941857
0.0144837548518032856
0.0131597057074871078
0.0183027862948626462
0.0177766214908104125
0.0170685275304805241
0.016101405785291234
0.0151154673786788613
0.0199370869233404767
0.0197273543320831864
0.0194914938717714627
0.0192291120409436266
0.0189043833078050248
0.0184530046620674931
0.0180483466089981746
0.0207700130666556258
0.0207545051504893809
0.0207467331069257979
0.0207583795657454787
0.0208054903142812081
0.0209165127459336568
0.0212395834456427512
0.0216109065338771743
0.0217810246718220003
0.022003737538289006
0.0222968049275394341
0.0226895124395437089
0.0232410187709371045
0.0240969645374217549
0.0162326339636900685
0.0167984208453346891
0.0175342610028055498
0.0185059767089432135
0.0198133576063379106
0.0216189600551056869
0.0241879069246826416
0.000290472376289933681
2.65028140218104154e-05
0.00102176081513111953
5.12108917585837712e-05
0.000359867541429693494
0.00688176263113590789
0.00615685831494420469
0.00291878954272295271
0.000177477774379705266
0.00263690787646715837
0.00674018679888002247
0.00758069058875901047
0.00568442451800027938
0.000465911009780553271
0.00477483500555852571
0.00545336326429435216
0.00944543694343751711
0.00762051430407869983
0.00098738253039436035
0.0108021006849800625
0.0101736433286106868
0.0113808304140679169
0.0066603676929333543
0.00203096822857194107
0.0124587734952371545
0.0125473983539269966
0.0125827374249928396
0.011031639830380276
0.00317317925831876691
0.0136550065547100634
0.0131016537720668597
0.0129995894505523634
0.0133285861361176292
0.00616286405464199372
0.0151803501370011227
0.0144186937473176711
0.0140012154188837064
0.014406972484356741
0.0111008131961663169
0.0163416879979904964
0.015482434720190074
0.0146925579123015557
0.0142504313299161578
0.0138924687997852275
0.0172980371417774843
0.0165008517644843408
0.0155473961356800208
0.0146025500519395852
0.0135065850398087949
0.0183401669118112738
0.0177405179653969264
0.0169368433251722468
0.0158675474169324739
0.0145314767226357808
0.0200185041021387622
0.0197547731340147747
0.0194580239715971964
0.0191171861751636384
0.0186687737479514573
0.0180196730045181185
0.0172475691843311484
0.020783351117345316
0.0207321140328175016
0.0206754912290944282
0.0206203469839115923
0.0205678314123731894
0.0205076643348994885
0.0205294329457727555
0.0215867057559405127
0.0217304036721251183
0.0219176854300894355
0.0221638336290224808
0.0224929764723605721
0.0229534929568962591
0.0236760359429162952
0.0161561929035889083
0.0166935282060880555
0.0173961749909963374
0.0183315833664351273
0.0196045930364314898
0.0213905118429946299
0.0240099688146820298
0.000373175101195037651
0.000320234145950215046
0.000563043787083390809
0.000432291612321447302
0.00115284337167182805
0.000851004244628296501
0.000604152048513653867
0.0013861876647960473
0.00191449166527010261
0.00127926508697431417
0.000850507293195096911
0.000242120747828037254
0.000215386694761991509
0.000342115272150679149
0.000277778334069290361
0.000714195366017501073
0.000491098653321876883
0.000352811856522334362
0.0017919664748553409
0.00124763721922255266
0.000716603244050759538
0.000429088189455236651
0.00014999548381294575
0.000110331242236144187
0.000199425923658081236
0.000130871696883533804
0.000397928028295299672
0.000256523551496722622
0.000146416286421234375
0.00104597293214593861
0.000603699960043717343
0.000311054127059176393
0.000150996627127515204
5.67666972972240966e-05
4.74697438498053079e-05
6.89966725884868463e-05
5.38514826318357991e-05
0.000159633976619710024
8.17708354676440667e-05
5.99612514046682328e-05
0.000461188740853445123
0.000200928691143996782
8.94066872025406584e-05
6.55389609224043185e-05
3.14980017481279238e-05
3.79922523721514885e-05
3.5169739825466387e-05
4.32740976880221741e-05