/*--------------------------------*- C++ -*----------------------------------*\
| =========                 |                                                 |
| \\      /  F ield         | OpenFOAM: The Open Source CFD Toolbox           |
|  \\    /   O peration     | Version:  2206                                  |
|   \\  /    A nd           | Website:  www.openfoam.com                      |
|    \\/     M anipulation  |                                                 |
\*---------------------------------------------------------------------------*/
FoamFile
{
    version     2.0;
    format      ascii;
    arch        "LSB;label=32;scalar=64";
    class       volVectorField;
    location    "0.209999999999999992";
    object      U;
}
// * * * * * * * * * * * * * * * * * * * * * * * * * * * * * * * * * * * * * //

dimensions      [0 1 -1 0 0 0 0];

internalField   nonuniform List<vector> 
7248
(
(0.746901543522014655 0.79258112910716938 -0.368036982046003491)
(0.532096557169654649 2.28529935866672584 -0.989860667109293435)
(0.518988471365881887 0.768159497214016884 -0.298945577261619411)
(0.543370593674368352 2.11903554810068684 -0.740972248104210474)
(0.00632879437356280439 -0.935075041553974251 0.00981896705524206749)
(-0.419196215033290298 0.147021050452529334 -0.266246614312749319)
(-0.124570230748264787 0.323045417872037777 -0.51939592394640488)
(0.204804196846896241 0.416693025918525473 -0.431437561136897185)
(0.535685640673196017 1.69691501965035285 -0.596253034298945939)
(-0.22751300424109494 -0.477993522702888418 0.063472086309793424)
(-0.58416741507026293 -0.0518713519093429165 -0.0384563145483361596)
(-0.218860839930454215 -0.105935236032076635 -0.324539948029280489)
(-0.161404858555042746 -0.0704260572254479245 -0.526467935374551721)
(0.489710661722343621 1.24345103815760161 -0.520104467757685707)
(-0.366582514501084922 -0.36479276791243892 0.112284346269000648)
(-0.505525241826595528 0.0677162547816347743 0.0976319306502433232)
(-0.343096250132717662 0.00356025750045478942 0.0451072603605687447)
(-0.356203502907024794 -0.0982952746373769587 -0.153938636313605243)
(0.300014952849222194 0.637578561980868819 -0.417378467415405463)
(-0.640535379594030618 -0.581358879222742764 0.272486518232729236)
(-0.540210725526615532 -0.353740644487361977 0.275893356678913348)
(-0.343258856029276804 -0.405005371497493549 0.265941062782450666)
(-0.230457936995785817 -0.377955810129733005 0.150083391218718692)
(-0.0600673117197897538 -0.0493915585172622629 -0.204240142557539306)
(-0.449929454147995067 -0.674845435845786046 0.308793574443280483)
(-0.348273564375255196 -0.634606361277718078 0.321195376869853666)
(-0.19786009186031514 -0.554949982215394266 0.315438029716727963)
(-0.00196839322040143205 -0.455369334832625816 0.220539336473101422)
(-0.208571578570415583 -0.327318800001704657 -0.019185520284606683)
(-0.308776627356483313 -0.646869473771947145 0.244201441261678059)
(-0.285226870490069284 -0.68156436295442735 0.275101535017209742)
(-0.21143146545082131 -0.611611609739930451 0.285159969459270746)
(-0.0817408364256326514 -0.445799731790355036 0.203774585100590711)
(-0.267504310079515306 -0.154919592005994256 -0.190573898612346138)
(-0.222950788309547454 -0.608383480435894186 0.172341881869101071)
(-0.227842976074812159 -0.632116802878732842 0.208296871682329687)
(-0.213892705270128575 -0.597497273495556591 0.231718186658808584)
(-0.153526947649751166 -0.494289187693920773 0.193587600152903744)
(-0.176874359467121128 -0.310680966208625731 -0.0462438775719275427)
(-0.183327958652198975 -0.574487245996588292 0.121058698030245326)
(-0.215872991906120526 -0.579336717752321317 0.161387357693618338)
(-0.232018955435201346 -0.581191367993019514 0.199337303886209072)
(-0.216114312752697157 -0.528231007244856055 0.205887357833285517)
(-0.157316273734587952 -0.336649372185220175 0.0657928156265335518)
(-0.183932843109906041 -0.500764941029799404 0.0872894398243705127)
(-0.223593989471903565 -0.505530158168587485 0.119779028272947063)
(-0.265332659472105381 -0.521271907271927182 0.151399203262047893)
(-0.304616023576979811 -0.511932718029833755 0.160841700405944255)
(-0.327992187593021067 -0.365124525716663872 0.104343913361207699)
(-0.173462816267198228 -0.445659494997801553 0.065214557441639287)
(-0.212478651899371151 -0.434447714519532791 0.0846904805674996292)
(-0.264028742093365409 -0.430295516749286455 0.105104414331653323)
(-0.334163446254873764 -0.429038955130311206 0.119680155476782193)
(-0.420149598484579889 -0.38918760915914008 0.115215422497314549)
(-0.10397098460569465 -0.433776446319989406 0.0234252347682040521)
(-0.123905863918136211 -0.41855072816858685 0.0338001622932050522)
(-0.150672208381875977 -0.398863973721300891 0.0447645864144294928)
(-0.184600010108414092 -0.375013489682125889 0.0557451279205236766)
(-0.228645963573895689 -0.349202351797600619 0.0666492738999118345)
(-0.293724896641026023 -0.323885319994576371 0.07607816136024112)
(-0.394220221482001865 -0.281635528659977652 0.0738723698541493279)
(-0.07979084850702374 -0.413191055285682285 0.0166233965480312718)
(-0.0950140644539548829 -0.390152880642082422 0.0224770277716110113)
(-0.114997801712180076 -0.362312749882234664 0.0283314897111613881)
(-0.14089113983291221 -0.328715819490041805 0.0336602016246163177)
(-0.174596237984885827 -0.2881833908973917 0.037644542729747002)
(-0.22041645815332328 -0.239665392248155529 0.0387914678421438647)
(-0.285969276171172682 -0.179210600985229979 0.0332109438989213607)
(-0.0502771464511395441 -0.398278363949218006 0.00976154194125169322)
(-0.0598944678746098358 -0.371029926722808601 0.0126669829348298284)
(-0.0719624087027038589 -0.337968354204590704 0.0154142255356014175)
(-0.087296403162458111 -0.297872730257824792 0.017625603605871485)
(-0.106933286720830814 -0.249259761169293159 0.0186724147862285979)
(-0.132054989865308114 -0.189718918684610882 0.0175132700479239956)
(-0.163406183795998472 -0.115260667046109877 0.0122005905808150843)
(-0.0175727793151407331 -0.392017311397420576 0.00327155738904357819)
(-0.0210635720611753695 -0.363125503465203336 0.00413033994220188619)
(-0.0252104288286391851 -0.327972109957312907 0.00491590558102105932)
(-0.0301677975960310783 -0.285244261996629889 0.00548598005078108041)
(-0.0361050821171714637 -0.233425024075827769 0.00562170288148902339)
(-0.043154913170044773 -0.170858655632532636 0.00509902294165999557)
(-0.0514823043566475097 -0.0958352849369725202 0.00355188063525652565)
(0.705520434693582499 0.98370985448817394 -0.403865842684087095)
(0.515614496374874443 2.51028690917388042 -0.718913495518603174)
(0.5230014501125263 0.931459567667506927 -0.385931676596064921)
(0.536511841254806332 2.30382265583464863 -0.608719657684642312)
(0.128353279013825677 -0.861491525264275637 0.0733166864807562324)
(-0.411966570686988109 -0.129664950563798287 -0.330491221741789742)
(-0.164832426490937489 0.176728649234406843 -0.578084073092067885)
(0.212627409919938393 0.519512757369341438 -0.462111722888639276)
(0.528796215079412879 1.95100474888645214 -0.541962397344288305)
(-0.0083207663842707856 -0.546025798142774077 0.133557568262337778)
(-0.550107487867076195 -0.441643867685058811 -0.0196992957813214679)
(-0.228153183946847027 -0.499939335078638081 -0.288129610708713624)
(-0.157749197098356997 -0.217713401247353555 -0.539198961198437909)
(0.500128013676572225 1.48413877996324906 -0.498176072119181135)
(-0.221283858311729226 -0.381758399455606412 0.212392029374697505)
(-0.585033653819157617 -0.319802603067060154 0.167494952621844218)
(-0.446619523052346756 -0.521234632957342736 0.0262567107587201379)
(-0.427250169060838569 -0.390867404029441479 -0.249086494041954626)
(0.352010287847727588 0.815844324469777282 -0.429527560191603819)
(-0.69732382989301489 -0.417160593571107352 0.316768302100631616)
(-0.584459275236625775 -0.433353442062715866 0.316084999903634312)
(-0.423295310970155658 -0.599683648593226204 0.207516427978873153)
(-0.471609891783589086 -0.552392251790918665 -0.0223589226267927703)
(-0.0319306602031710629 -0.0812845002727804328 -0.338631270378048355)
(-0.525645530419752371 -0.609940412532205989 0.300891625546512553)
(-0.393130550811674251 -0.596235638694617265 0.313400299639206847)
(-0.22051153378101418 -0.549235085725643057 0.250177680164231753)
(-0.0242152700785961406 -0.520335851348945555 0.0555641065927490949)
(-0.18453521382434343 -0.471228069889297774 -0.24347967842830523)
(-0.378200962937609353 -0.62828520389880893 0.199730462446347956)
(-0.295761116505699417 -0.692335088840712931 0.233339638979308289)
(-0.180348352226608249 -0.641519022845622788 0.233071907049123866)
(-0.0121507645809299791 -0.536611991043286274 0.118252101140023436)
(-0.230723391155431834 -0.326624731125374712 -0.251017936443075351)
(-0.23887315556554875 -0.6117977859339091 0.133842103968130122)
(-0.21096761604013356 -0.667257345279103964 0.173991748017604003)
(-0.184579251311739773 -0.639531616308239625 0.193406438450273666)
(-0.131618855523549738 -0.578100019705353407 0.146893239241600471)
(-0.133217453742670244 -0.391960190525543706 -0.0871951006105803617)
(-0.153055627239133157 -0.579534952308474294 0.109481155376336389)
(-0.179943424801293994 -0.604547232648128374 0.143178383687336236)
(-0.193588497779268731 -0.610016045334404788 0.173374562909361263)
(-0.178099632807995151 -0.593247159674136992 0.160507477555937389)
(-0.1174194126894747 -0.391848955821497313 0.0239672106083489919)
(-0.145049285449445842 -0.52065108101190638 0.0857703945971075576)
(-0.193877690024305604 -0.526300664799050799 0.109606660785277157)
(-0.231928559871132922 -0.550076697412147819 0.13486284026506265)
(-0.268180955158527801 -0.551220649585255851 0.141090997900204185)
(-0.28837736702338812 -0.424190759223289304 0.0896360661585936663)
(-0.158368125438161561 -0.457120060296226816 0.0634507054778407908)
(-0.195136957312391029 -0.453528018572273928 0.0796834188471244459)
(-0.243728866052850546 -0.457318496391354079 0.0979409073117068901)
(-0.306649673795893751 -0.466476629321830594 0.112401819298533559)
(-0.387594030593340189 -0.432237628116638462 0.10902626281970991)
(-0.140913415131806302 -0.410725325999095059 0.0439549417156548106)
(-0.174900346691738012 -0.391275027743642256 0.0537466350600007553)
(-0.219129210036075051 -0.371081863263769018 0.0642488121347452312)
(-0.284051329803271968 -0.353023571256241842 0.0742927290083380265)
(-0.384007217893196473 -0.318635743603049248 0.0746934809935911048)
(-0.109915717790095069 -0.371975685375170673 0.0278799074256361572)
(-0.136444526762040386 -0.341126765483975303 0.0330641873759243768)
(-0.171610020694817345 -0.30375546886753696 0.0373308411032751836)
(-0.220685495329722425 -0.259283179859608803 0.0394409883258617644)
(-0.293377162774611622 -0.204735464979090509 0.0359970468408636682)
(-0.0695902654623242467 -0.345820638348302456 0.0152310974249853098)
(-0.0855705654506986046 -0.307248438317083206 0.0175366920791733237)
(-0.106466618846310548 -0.25993379485640089 0.0189197067111469275)
(-0.133922946091042105 -0.20116031627539066 0.0184356518764869776)
(-0.169992887666369191 -0.126658269449001187 0.0141982731003574073)
(-0.0245873190498091046 -0.334789973367796811 0.00485096098906474642)
(-0.029763973323616421 -0.292999421294385554 0.00548715280632378587)
(-0.036077508151392372 -0.241690817518501661 0.00576587173020604981)
(-0.0437352288627685729 -0.17884583635832263 0.00556257919195096359)
(-0.0531737904009123019 -0.1022536587693436 0.00462020224184190014)
(0.658651710582903727 1.08995060834599844 -0.363660708093371088)
(0.467216724342856438 2.65823629023339958 -0.628036932034939932)
(0.535059137681797026 1.02088920164041075 -0.382964711771985378)
(0.516556469874351554 2.38778685407460545 -0.544452738382296131)
(0.148401503288351888 -0.963301737982733775 0.137287383875475233)
(-0.217405628528215794 -0.346589864037481821 -0.168399325269380923)
(-0.132395741392697275 0.109053394768216419 -0.497789548981597552)
(0.255691899060044525 0.573338551969726828 -0.422421561442331894)
(0.525128001056255234 2.02445009980582169 -0.476010667171850699)
(-0.0682790285897627441 -0.736931261601226018 0.215454444669909262)
(-0.522287735176998114 -0.617485690708770352 0.0818936570766575916)
(-0.140886565693906618 -0.651999783647954856 -0.230709673670373872)
(-0.0369009439859593336 -0.183349433755288393 -0.448285421675412576)
(0.505188857821260884 1.55580176681792692 -0.434242737934174727)
(-0.421780018739129847 -0.562794082017299524 0.308247498106213491)
(-0.592570807516755615 -0.667067244917482927 0.20000032850336022)
(-0.418695560311262649 -0.810204458363702584 -0.0734108679770113792)
(-0.348243635346743408 -0.4563993361831577 -0.32635812537371478)
(0.395341150332574276 0.944295313060017127 -0.391930270268364522)
(-0.659198500194196235 -0.568646776406504406 0.3249294360235917)
(-0.488590532764342944 -0.67941502732575898 0.237504832492623552)
(-0.32478127685335878 -0.823862191586893888 0.0675112806744779248)
(-0.23482223052182935 -0.776858469065185964 -0.164235132563121361)
(0.125928421202939012 -0.0246996670175647463 -0.334185030244859904)
(-0.452839989423421629 -0.655945719796729998 0.224445793577246866)
(-0.317130134392363594 -0.706348716293058732 0.223966217277690421)
(-0.120281566273679918 -0.755689538956061946 0.125758389198481202)
(0.161030515127611712 -0.84824770758651924 -0.103914335252633036)
(-0.0756963482587980074 -0.604423960603976407 -0.317972361634338452)
(-0.259139554881525236 -0.69532937691392116 0.0912623336148483538)
(-0.226431902661805046 -0.744644450409015501 0.161553940185268002)
(-0.125006593789507459 -0.750996646418085834 0.160254429115947644)
(0.0256905004607335952 -0.675650212257307592 0.0279373664124813945)
(-0.187356520961989514 -0.394196222473907565 -0.30605842713747744)
(-0.144914805057961504 -0.665744021306552858 0.0698147642683543818)
(-0.161397359011375419 -0.687131049804887706 0.119750717983553578)
(-0.141759466177294347 -0.693892690469122275 0.140903550863281268)
(-0.117422007110680487 -0.695395735399952697 0.0813452077483713676)
(-0.134526756895737842 -0.446201046455829753 -0.131080117148556219)
(-0.135366749060102182 -0.604578782113877278 0.0884488801472539388)
(-0.158043976819964238 -0.618859272825330931 0.113322782030956401)
(-0.165562100000850698 -0.638438053298237551 0.13470226249031983)
(-0.166631631249748891 -0.615911133790232102 0.110521929103633898)
(-0.129853008766296296 -0.435775622693548526 -0.0141455854114423008)
(-0.141617630185119081 -0.532929289354116542 0.0801124957178686176)
(-0.177172082565314193 -0.543108722568160784 0.0942052263594164163)
(-0.209753972932124833 -0.570773281401983024 0.113032804837469109)
(-0.243173363887180805 -0.580839287660044556 0.116945565909953364)
(-0.267253171793984612 -0.466985223552419004 0.065155498165147957)
(-0.147303055553717421 -0.473813734556573996 0.0583572795620238005)
(-0.182050478446598274 -0.470822248643659458 0.0705796062259944207)
(-0.22742228246291557 -0.476112832684043363 0.0851082184530649877)
(-0.28750413308770445 -0.486404108226799858 0.0987949973844674534)
(-0.363743636083969257 -0.478264989471355595 0.0927985958784444953)
(-0.133479982095652122 -0.422590417745490665 0.0411304272729936943)
(-0.166760158838666267 -0.406017359365425767 0.0492806822203058631)
(-0.210011462518719466 -0.390004744136521475 0.0583588327672356771)
(-0.272667836086077198 -0.376725224626545896 0.0671909245799619248)
(-0.368375500805777523 -0.342760277201695107 0.0685099967331874726)
(-0.105279085254197047 -0.381458363434931336 0.0262052475777653365)
(-0.132161031465664131 -0.352650752699619485 0.030937360435971506)
(-0.168313367733630259 -0.317901819023013676 0.0351242126432986523)
(-0.219723757561236688 -0.277484064362828742 0.0377328773073740825)
(-0.296482847157762963 -0.228963527042043646 0.0357828551052173927)
(-0.0673278104991550108 -0.353286909679139838 0.0143692194268833298)
(-0.0837874067809590561 -0.316138845699406645 0.01660988659882804)
(-0.105656613000919899 -0.270134847566277758 0.0181484210355235959)
(-0.135039458209627095 -0.212299366661564598 0.0181016143928612212)
(-0.17523063712150308 -0.138285927249351875 0.0145160349218402332)
(-0.023956012784338853 -0.34127422548335451 0.00457025969037811505)
(-0.029297791387348681 -0.300464152572957832 0.00522356360996686919)
(-0.0358685345224824675 -0.249818136246922284 0.00560907011771204743)
(-0.0439243661824476606 -0.187033497953343675 0.00569959606753468219)
(-0.0541505124305829283 -0.109520728790498151 0.00540782600347120002)
(0.668755418750291097 1.14417956401902465 -0.317167579543109979)
(0.460679158898104291 2.70379345827182149 -0.453528383606400853)
(0.576544609959279475 1.03957838605618069 -0.344871701233811501)
(0.516590097276291682 2.42674043280874363 -0.421033837530870869)
(0.111337471599918553 -1.01573409945414772 0.0629894742300902283)
(0.15183438907256902 -0.719541547770568113 0.0673872809648499993)
(0.0369529106425856568 0.149375720500952103 -0.303814085605412898)
(0.343311644036571217 0.65565259738044801 -0.358632577477532022)
(0.532682958133436024 2.06389832152803843 -0.38799088888144867)
(-0.117272681392069963 -0.960053536935156826 0.16535059707333527)
(0.0514455584389737486 -0.749352136857454387 0.122153281330782654)
(0.118237581113569384 -0.379128827162636239 -0.0579752049656219043)
(0.120776724386324683 0.0816725876525436489 -0.3306545035954504)
(0.511986366842404728 1.63758146245225844 -0.362415124887465911)
(-0.421659275909743503 -0.858887467057207865 0.25061867059413151)
(-0.197049827661381738 -0.73944805341615083 0.091796241095489492)
(-0.041295129286180024 -0.409275131944654147 -0.0963663129952999353)
(-0.0767517733974747707 -0.144535596727842025 -0.35772521343134106)
(0.430150606615719799 1.11729260138796227 -0.345227721119810149)
(-0.517715500489032365 -0.729252362848251567 0.16116932047491489)
(-0.404204542177303283 -0.813052078877110063 0.00622614237319245659)
(-0.281801552960948332 -0.57924982915820622 -0.119770082542903639)
(-0.26820275689567924 -0.156963858049346067 -0.190902513473867247)
(0.209668935146304192 0.406358205283299245 -0.299152526645295902)
(-0.255973997470196779 -0.607464414321818524 0.0947774241216352564)
(-0.151401507778943678 -0.725840552863210475 0.0609666275585101086)
(-0.036042260499992769 -0.776460700444399965 -0.0343407462194188912)
(0.143802051419125471 -0.711906076798617615 -0.186504799177218655)
(-0.0118120833722979018 -0.330916057614786596 -0.292581270971726426)
(-0.12918460321650474 -0.635611300573826199 0.0605486121488207213)
(-0.100073732146772648 -0.726404757278651836 0.0855171342008840818)
(-0.0581380214795929329 -0.726085940499300531 0.0520659123998040499)
(0.136264570382214012 -0.621159457005058924 -0.112350333331493607)
(-0.146634202562902993 -0.295667797936681631 -0.365247248239434441)
(-0.099186367782171464 -0.625030936456933195 0.0645455949231284881)
(-0.0922005754852131543 -0.665040519626434845 0.0847942034065513189)
(-0.10790150418959267 -0.692612010631592279 0.0797520048286014388)
(-0.091083254843293493 -0.624204470182831206 -0.00437005512014173279)
(-0.141791945301631528 -0.285220584795481458 -0.190647981571642311)
(-0.114678963876476303 -0.614377316783030425 0.0682290410629007582)
(-0.138356355208656134 -0.613106860114609353 0.0840980305550695639)
(-0.154068333812589664 -0.637258318219705133 0.0947381448896144479)
(-0.160008952137239702 -0.623179278688717142 0.06681779057804621)
(-0.115786516670056211 -0.408187206581514916 -0.0429564582480919249)
(-0.139584284172056983 -0.534763381416782924 0.064314399960743257)
(-0.166329589007653267 -0.553476208892070054 0.0757279603257640793)
(-0.196880288704922302 -0.581138584932992086 0.0908002292895302154)
(-0.231667987317937474 -0.579429028057456774 0.0932499858769553908)
(-0.249301024807065591 -0.431089599825029923 0.0358988987125218248)
(-0.1386686666949353 -0.484591433107652958 0.0497339193974550842)
(-0.17210678533975915 -0.483034620934157888 0.0592663681272443676)
(-0.216850704165899355 -0.492682323256060206 0.0713845915253892571)
(-0.276149467310259078 -0.502160501016221117 0.0822564300971431461)
(-0.341750056593581208 -0.470194391557854474 0.0713047651785999603)
(-0.127289271047039632 -0.432346344364607005 0.0358852313643475626)
(-0.159641515588722527 -0.417926299248309763 0.0428010385665842513)
(-0.202608888179634822 -0.405530561785311439 0.0504340800977126774)
(-0.264972902799314736 -0.396612287607522152 0.0575347978618015038)
(-0.356188508746664634 -0.359117757884344191 0.0587548092268814631)
(-0.10122891709949644 -0.38976974441190182 0.0232663025883741194)
(-0.128265392721481603 -0.362672983515091585 0.0274733641484050939)
(-0.164992333746711017 -0.330283203501616607 0.0313655720497103413)
(-0.218361395732150021 -0.293642966721726573 0.0342610385704086307)
(-0.299066256830566979 -0.249427747354192042 0.0338194657605438084)
(-0.0652449913298416839 -0.360049318325111056 0.0128346161826644774)
(-0.0820724701685129343 -0.324168247884886684 0.0149323474315931244)
(-0.104700500571001387 -0.27936019729078021 0.016516940753652707)
(-0.135786004341685418 -0.222580456434634533 0.0167071067624037055)
(-0.179834450857473155 -0.150037319301709993 0.0133483971134688868)
(-0.0233533565108759965 -0.347174256254680291 0.00408165395531585613)
(-0.0288048358091923737 -0.307312757950516102 0.0047167251456397153)
(-0.0355140331809359958 -0.257405281092354721 0.00517259522166866638)
(-0.0437597820606024715 -0.194913346278083266 0.00552781691391415406)
(-0.0543326684134082666 -0.117010875529074382 0.00590363762827423883)
(0.67136560230287623 1.25840181402014695 -0.245524374210640578)
(0.441591767874762342 2.7882901030927294 -0.341823855946132793)
(0.602404068624323608 1.13989286738230278 -0.275745915624069582)
(0.508064076909340856 2.51812614805501322 -0.322881504189789614)
(0.198024825588363262 -1.09795350882573572 -0.0132298586153941269)
(0.240065541215100486 -0.479062449057914841 -0.113255652971236076)
(0.162612198355883364 0.37467298717462505 -0.309692056113042014)
(0.410438823316766122 0.822687735999661274 -0.298600977156016634)
(0.533571893328111613 2.17288186499545999 -0.30288783776730821)
(0.0393975226279894217 -1.08720674238803716 -0.0210663801427877287)
(-0.00118958587090195467 -0.342773608959085818 -0.103002829019498615)
(0.0713876543774330796 0.0895678110776812197 -0.180044900431956978)
(0.177870486464176997 0.405300062466906585 -0.293994289222843097)
(0.517051754366460892 1.78602764477435305 -0.287996876464334084)
(-0.177966874394727192 -0.845185663112173802 0.024320105060440883)
(-0.0777804833101226611 -0.39907575426982056 -0.0702032186256503349)
(0.105454485410731005 -0.119299749033105779 -0.0816844405747017277)
(0.0492019118658198265 0.0428565778266417202 -0.285539570569702972)
(0.455517445019507972 1.31038448332757174 -0.279133409154907808)
(-0.192214783767869407 -0.652219544633951265 0.0651228519909025916)
(-0.160805908476408826 -0.515400122455501597 -0.0276831693439722713)
(-0.304667676241775875 -0.212909550676571413 -0.0469127752216543167)
(-0.161173283268810613 0.0165667580280225504 -0.24940374471974569)
(0.294770863922413362 0.709768824639752882 -0.277347370911558866)
(-0.100293548575871028 -0.651191610521150599 0.0736522338562518031)
(-0.0470828624300630438 -0.697623601295274454 0.0415796736347618101)
(-0.0339684041078001375 -0.580810517755739886 -0.0128589177310009309)
(-0.0142705303056009924 -0.306176619776128589 -0.128345260891784274)
(0.069072338511303788 0.0914058602181348767 -0.298762003300606482)
(-0.109417891239442455 -0.688732048506163985 0.0734268758401126903)
(-0.0925279749042109967 -0.682099818668161939 0.0705495753045587981)
(-0.028972918984585011 -0.617880225168718988 -0.00446406034190339508)
(0.179857808867173619 -0.391667336212218276 -0.131197862816744892)
(-0.0693743695038828989 -0.123306898743445192 -0.298559290393953847)
(-0.111051887386091411 -0.666222531149985198 0.0584478220030784507)
(-0.130821331614513037 -0.661157214814629746 0.0607235947810556079)
(-0.11838560152423179 -0.63864685908395602 0.0381299140345228091)
(-0.0532547918461564046 -0.486698532014406771 -0.0457161028541951675)
(-0.141362517807092247 -0.07156657362261723 -0.195680904719909093)
(-0.119951656843392956 -0.605626521991140643 0.0645440764933084554)
(-0.140548980547517244 -0.618216174443578348 0.0694877866627361257)
(-0.150176149788127766 -0.625565801996785464 0.0714427613776052323)
(-0.14017748188699819 -0.574177440393859428 0.0458624789413763917)
(-0.0900380376271246174 -0.336216625176758599 -0.0429921703981072031)
(-0.133091660897574016 -0.546199781328386647 0.0508496261693656415)
(-0.158181383217854771 -0.560291535208434999 0.0609815860027534476)
(-0.186988671386122407 -0.580382598456009369 0.0739685953853861516)
(-0.214758160756743921 -0.578859218380985752 0.0756251800667507995)
(-0.213816058239826329 -0.355135743439775831 0.0259807101152930431)
(-0.132157287635349119 -0.492663103456160489 0.0406629095431610826)
(-0.163985207926812482 -0.494454113147371976 0.0484416490091743174)
(-0.207321545606349855 -0.5081124375805669 0.0592879514356497508)
(-0.263506663555106935 -0.508891319369654815 0.0683188986326106196)
(-0.308203530800445547 -0.420643669204188886 0.0588476902462722815)
(-0.12192207701907945 -0.440301258408507534 0.02940847944740713)
(-0.153745859610088381 -0.427270621326398703 0.0353558494272620122)
(-0.197600826097461518 -0.418244127805201871 0.0421943582046919174)
(-0.261579712388882946 -0.412564683257838627 0.0492559862255994713)
(-0.346751754855580296 -0.373546183151263256 0.0514809146478552859)
(-0.0976949603644073905 -0.396667806577619964 0.0193187177680709671)
(-0.124716554990916245 -0.371010458020785305 0.0230740834790940028)
(-0.161700622450145853 -0.340771335936758235 0.0269369531615420849)
(-0.217204258610707163 -0.307640022223279241 0.0306107128727263894)
(-0.30441392371435555 -0.263871459361174954 0.0314973004728959158)
(-0.0633871657350743301 -0.365777780099148853 0.010707893562765752)
(-0.0804528696021816481 -0.331015139741558773 0.0126099384891908348)
(-0.103652708950650485 -0.287259780352645266 0.014207681679831009)
(-0.136280295009398866 -0.231656356063574265 0.0145646394843068176)
(-0.183852037040453858 -0.16173444231114531 0.0113142470487385405)
(-0.0227956358882215777 -0.352233557503304096 0.00341085718575769893)
(-0.0283060242980340722 -0.313266703516447975 0.0039938984766715183)
(-0.0350365819218376798 -0.264130022788112484 0.0044944435907497424)
(-0.0432457518676430883 -0.202119492112132787 0.00506181381855694279)
(-0.0536849766411597248 -0.124244492380753219 0.00587554779451215578)
(0.656969181230045773 1.32074027418680684 -0.185181847306893854)
(0.434038096655604555 2.846860572373346 -0.223976414394428253)
(0.599493706374583435 1.19062846620793494 -0.208846637252549511)
(0.504198065665781292 2.59676180886042651 -0.220834039713166341)
(0.254206285664263898 -1.19612236284194173 -0.00211241017212867883)
(0.284025160351607242 -0.66725408965096733 -0.0518704211603613491)
(0.216035613619620065 0.409648330798104532 -0.205538625621856486)
(0.436060825435536648 0.888111390059109551 -0.231964708064426622)
(0.533383916541877889 2.27071264999191325 -0.219497359522462326)
(0.27068954036869719 -1.27924641372500791 0.00354366521791169703)
(0.0763702685989226804 -0.569678557911445171 -0.0336837946244426256)
(0.0839994668048591048 0.213552990719308167 -0.13355155950518463)
(0.221224521153192993 0.524618992681811447 -0.220742081309994759)
(0.522103487446238468 1.90229825754017368 -0.213295008348037218)
(0.126427394493946521 -1.10691735112655509 0.0398305436270200569)
(-0.0837029219681905273 -0.400922761426765306 0.0317098690389950033)
(0.173480841293776472 -0.0975788707078401041 0.0189868171652559786)
(0.0978309512641119816 0.190397118025588952 -0.214657597802001582)
(0.469199849382800627 1.47038673634099482 -0.211578387331107259)
(-0.0863888897488849228 -0.743261161618023358 0.084735749852906106)
(-0.0927713543215193115 -0.534349065986532312 0.116157519962192674)
(0.0715657818778717425 -0.158977702711245478 0.11689307937295064)
(0.0310003454008485127 0.0897006557983966168 -0.221930079544192249)
(0.362254572009380715 0.930755054722321784 -0.225318562696547625)
(-0.123989148799405119 -0.706395060761129012 0.0535516628196370456)
(-0.110737022100145938 -0.623572352940280683 0.0730182268401220747)
(-0.0986202305313743227 -0.419083341290921452 0.0702959767429927607)
(-0.0290239903063800181 0.0986121232024292638 -0.186005400064878812)
(0.164860288696271812 0.395449883149699477 -0.252174370001340631)
(-0.145690235701294052 -0.698099199374903501 0.0353520815298141444)
(-0.132310283340185769 -0.638063933914609915 0.0228452871125470365)
(-0.049209310189282679 -0.519847598237045849 -0.0283414659741956787)
(0.0860612630310400306 -0.231215046827476955 -0.0970921203740116451)
(-0.00594752676617247081 0.0215023706799099372 -0.250892119498635879)
(-0.142210385526398808 -0.658587868866611359 0.0450938822419827204)
(-0.15061178227179528 -0.655911122366750865 0.0438969902363902861)
(-0.110534144919003249 -0.60954860576836889 0.0327848620699013188)
(-0.0118037350412322772 -0.441850985740502078 -0.0158047901960186483)
(-0.126447061288957496 -0.0439225458732185881 -0.141848218924321062)
(-0.123723473327574801 -0.610225628196557013 0.0499498132528900726)
(-0.142543892801994754 -0.620065682880441948 0.0546113790398225218)
(-0.145441934128862416 -0.634889653232624029 0.0593594137158517596)
(-0.122313506184722712 -0.544874614965277781 0.0469247306749723536)
(-0.0854964080369374491 -0.277726568586546763 -0.0224204528859208822)
(-0.126516950797088662 -0.553303371347506401 0.0379535804193493267)
(-0.148624557284483705 -0.565400253117805729 0.0468062719381066791)
(-0.174188455749813009 -0.580979520570032326 0.0598247053650204641)
(-0.19548054041104887 -0.57502941425790155 0.0650978045083917961)
(-0.183666465082557323 -0.331305355864751128 0.0334844326556250488)
(-0.126601788040275581 -0.499327246006283476 0.03059858940491475)
(-0.156230182450937838 -0.503338803472267338 0.0373771732066736154)
(-0.195968524012045758 -0.519262423488700886 0.0472012092166567004)
(-0.245732774078127075 -0.512710611131509952 0.0570407135039800589)