/*--------------------------------*- C++ -*----------------------------------*\
| =========                 |                                                 |
| \\      /  F ield         | OpenFOAM: The Open Source CFD Toolbox           |
|  \\    /   O peration     | Version:  2206                                  |
|   \\  /    A nd           | Website:  www.openfoam.com                      |
|    \\/     M anipulation  |                                                 |
\*---------------------------------------------------------------------------*/
FoamFile
{
    version     2.0;
    format      ascii;
    arch        "LSB;label=32;scalar=64";
    class       volScalarField;
    location    "0.630000000000000338";
    object      p_rgh;
}
// * * * * * * * * * * * * * * * * * * * * * * * * * * * * * * * * * * * * * //

dimensions      [1 -1 -2 0 0 0 0];

internalField   nonuniform List<scalar> 
29184
(
1373.98027492902474
1378.01512762942593
1382.97955747894434
1389.19268229143472
1397.9340816590136
1409.61582000376529
1424.80147214384965
1444.39882577060916
1468.80923489608836
1497.61682327623816
1529.63421784004299
1561.80251112457995
1590.20194538837313
1605.35544917326183
1607.52621854024824
1520.69531761878488
1373.16933219375164
1376.88879397405276
1381.72502982125843
1387.91912288455933
1396.53334745890493
1408.16280190946054
1423.41360069923417
1443.08585939779505
1467.62314592527764
1496.72319469909871
1529.14420140955053
1561.97789893299614
1590.9275065024583
1607.17523088516282
1608.42666918642408
1522.81064557157811
1371.42718750128824
1374.62874143027057
1379.22372326703294
1385.35272259737758
1393.89835240041248
1405.51368948788104
1420.80703130946449
1440.5524830655022
1465.30202713140557
1494.90555248512987
1528.16246657142005
1562.1994615584324
1592.44183729067367
1610.32409427773109
1612.6043644860606
1528.31027529523658
1368.64816169858454
1371.25549467142991
1375.54359414230225
1381.58404136280842
1390.05570783540156
1401.59720658353854
1416.85743892763935
1436.66124929155581
1461.70620109394213
1492.04151623899975
1526.57571928168659
1562.43223368501504
1594.72361406612799
1614.83203298567651
1618.89258128018423
1542.5129940952786
1364.74552241847505
1366.74800256524964
1370.66917651275753
1376.58319030395455
1384.96076286478979
1396.38404956869772
1411.54990468743426
1431.38062489446497
1456.77471780693782
1488.05936803841951
1524.33717641577732
1562.70223531269107
1597.84733197001697
1620.86806995879124
1627.29256297392931
1544.18136196572618
1359.62774843429361
1361.01031554042765
1364.5207862202758
1370.28675745261035
1378.55470507206815
1389.81234953357375
1404.80172892020914
1424.59002037145137
1450.34983871280338
1482.79045511536083
1521.31780372115077
1562.96737199879203
1601.85446500275884
1628.59340551900323
1637.99927803626179
1554.4472666096251
1353.14128683230433
1353.76954623278016
1356.82177352421922
1362.43784126616038
1370.60484074288092
1381.66112049876801
1396.38240987327777
1416.03408329059766
1442.13470193270132
1475.9438237848949
1517.32220384331958
1563.20512564825026
1606.8568848591251
1638.15701902861201
1651.08029231013734
1568.79355168895268
1344.50095322993343
1343.9872435254988
1346.63663669873245
1352.2353136409281
1360.44732071510521
1371.38432776274135
1385.82615418873343
1405.27128007133228
1431.60747310417651
1466.8979948840763
1511.84733833664563
1563.23967216165761
1612.90612594785102
1649.74027017311869
1666.58111746143231
1585.96663979670871
1329.75364286427612
1327.46592584384689
1330.46409956054163
1336.84614131094258
1345.84966399822679
1357.09039109248647
1371.57581165507122
1391.10285347929812
1417.96662314689252
1454.65076894333038
1503.73314731035043
1562.32461867446023
1619.58450162644567
1663.29200381416331
1684.58805218331668
1615.96954265121508
1296.09356421642997
1290.75243092357869
1295.28953274872902
1303.81096200589536
1315.1467332362065
1328.92321198630202
1345.97474808684137
1368.360650738912
1397.95489085633335
1436.57152359127895
1490.23111944982111
1558.0006241836154
1624.762245610219
1678.30709930982789
1705.14603507651327
1652.27356760962402
818.594896199299228
781.244630793254373
807.042581304567079
846.942976637699303
893.763936185157718
944.589251516965533
1003.11977798432736
1081.84274900262471
1191.60190141583053
1326.69202267442279
1442.18158808635644
1538.00216792884066
1622.76339524056766
1695.53420215047845
1728.11203224351652
1685.05994808981836
164.526023999995743
150.512836333583834
157.893832886718229
166.300056116270639
179.696774491691599
197.173406674264015
223.715522053096208
269.149083513529206
370.322732067519553
609.502388206060346
1040.29694308113994
1419.08287801157462
1603.36174583583352
1716.2688357270124
1753.46282653651906
1716.6323147107687
37.8951355794292724
35.1092871609559793
33.7415700441782249
31.2794532753929388
28.9697208924440091
27.3962720263175825
25.0622848794650608
30.8251149393788104
44.3482562820427262
76.6276723261899093
275.546372824017283
774.618963733645842
1440.08115223366212
1731.12447831956092
1779.27904859238151
1746.95920322796951
15.8863636812955278
15.3311010461383574
15.6581890838780993
14.997976846493474
15.5093396903232872
16.8789475119463326
19.8991834867152306
26.2580351252961748
32.4291570908377551
45.8795161122907089
80.3328208638898644
573.945346322532146
1102.0425217120478
1696.15987505993576
1795.40922639154951
1766.15593669864893
7.36785693786782048
6.55669183362774
7.04323418875481355
7.24880207116428821
8.38847946106104203
11.3117014047675806
15.7991227585394594
18.5813016278561811
26.176173807582849
59.0862726391881807
85.7729231408241475
53.5376110934676035
394.119971793305126
990.81125482386642
1765.19451250971906
1776.2045194810355
4.1252957443867535
3.8479217111673516
4.2374362145514386
4.26238710758810946
5.56227757252977195
7.93536770042272543
9.77761266055099831
14.2246324536058424
37.7069486281497177
62.1303338379595189
40.3609284095850143
4.22096271270329915
11.811048723364264
46.8235964734869228
832.683333455447155
1595.55423079032744
1374.84088305268278
1378.9096429178469
1383.99299332268015
1390.46284312736134
1399.63472631667378
1411.99417419866018
1428.18638733013495
1449.12013778447999
1475.15119699983438
1505.87239459064995
1539.99940051049771
1574.94412326342308
1607.1066977115297
1631.29778507161291
1642.8321390902654
1624.9363145797679
1374.04088216298396
1377.78987529231222
1382.7495994018534
1389.19710288648184
1398.24257547940033
1410.5580153120834
1426.82351043177391
1447.85293561575804
1474.05046849946484
1505.08158550775079
1539.64875111277047
1575.19433529193088
1607.85558829765296
1632.71514112992554
1643.70115321022763
1625.49766984283997
1372.32266250799307
1375.55186517911056
1380.27519304178713
1386.65241530182266
1395.62509751285302
1407.9310681519712
1424.25701590261292
1445.40360047910895
1471.88202045386902
1503.48077253041083
1538.93175686444215
1575.64020891676932
1609.47461066149549
1635.48966087188751
1646.93533961906314
1630.17738039389837
1369.58753851742017
1372.22985154670664
1376.64604406699436
1382.92214568205077
1391.80745217101889
1404.04072180048729
1420.36255941122772
1441.63585458908756
1468.51375643089204
1500.9525206880362
1537.75439853803982
1576.24005556466523
1611.93744246319716
1639.65815889498344
1652.16630843159373
1638.10118312421559
1365.75447591790385
1367.81345812100881
1371.85618437735911
1377.98279716005754
1386.74808025187531
1398.85565190104103
1415.11778615528624
1436.51118221405613
1463.88444638858277
1497.43216133200713
1536.08596205474714
1577.03397664013028
1615.33607548393547
1645.35813692221018
1659.37356147369314
1636.4589761291777
1360.74233579947213
1362.21489898760592
1365.83783914140167
1371.77921582700083
1380.38709948714359
1392.30180690912266
1408.42212195441516
1429.89566505892026
1457.83539565773958
1492.76346247404967
1533.81989183034557
1578.00774469067983
1619.73405641926388
1652.71939303663021
1668.73481688678999
1638.80222969475312
1354.40053174502646
1355.1606631735624
1358.33017237980289
1364.07331306252308
1372.49331999509354
1384.13961260253245
1400.01701932758306
1421.50644667249799
1450.06642321236473
1486.67697799528969
1530.79476306368269
1579.15714803543028
1625.24630667770475
1661.90682196557236
1680.39550729913412
1646.40531983793085
1345.9454449847151
1345.66179508375626
1348.4560001115583
1354.11034227342088
1362.41104448769602
1373.79414426603876
1389.38562948775393
1410.84540324482191
1440.03495830400561
1478.57261880394594
1526.57349903991008
1580.35402988834994
1631.95300919040915
1673.04852033505495
1694.48573011399822
1655.94004237797344
1331.57923235129988
1329.72101419793535
1332.87572483497547
1339.09819345519622
1347.8345519994748
1359.32682570160841
1374.88916133251792
1396.63683783172291
1426.8043510411419
1467.39884868176273
1520.084875415851
1580.97203767564565
1639.5813617441961
1686.25967256245804
1711.16714482087582
1668.6054122039825
1298.94579086835915
1294.51603621501636
1299.13361295918367
1306.99626045738046
1317.29837563776732
1330.72903456510562
1348.87777160104201
1373.90241868509725
1407.53924558426297
1450.45309756455595
1508.78331653264627
1578.63760262407004
1646.59762481089751
1701.73454613759441
1730.57616029295036
1685.87052740648278
842.132947286644253
810.631789300870992
834.973350177031875
867.577114611911156
904.617032415568019
951.095555190569485
1015.11060431000226
1104.82122174075084
1228.69796586908774
1364.26961094220906
1473.20520652319033
1563.0374307133975
1648.5155710355491
1719.55891568363427
1752.65647042768114
1708.23021469790319
173.490457468757114
161.376869799400509
167.974432945965674
175.386865101511688
185.261656390379699
202.642648848634764
235.699739169595858
298.32640455446699
431.856205639127893
724.584595954905467
1160.36926970973764
1488.62105864193859
1639.58856647708831
1739.81256388457359
1777.57021823260743
1735.60764671500397
37.0638037949342802
35.3213238942787484
33.6579516264640688
31.1150891138735268
28.8425769048604295
27.1948656527789865
27.4685730126970746
34.3547427692999818
52.4898400727066914
128.397552374302791
394.781238530678195
980.27037865594923
1564.92369094232663
1758.34752248921245
1804.30094233702152
1779.24553357971627
16.2822037629378649
15.907018536137155
15.8786473662668985
15.410686168332937
15.7821638713917647
16.9877822651608597
19.7734292465199957
25.1589568944941711
36.0576964630291315
52.4512183388311826
159.511768943638572
672.891443364970542
1260.20732313565736
1755.49203400860529
1825.59116957664764
1809.51147978277504
7.68706947364432658
7.13262577343399418
7.46965661321649677
7.42911530097576911
8.00863737307703438
9.83112729490685311
14.122706057184276
19.2498424554727698
28.2692038335516642
49.6962953539144081
49.1584198691755532
74.7040543542504167
713.757826757222915
1267.49065998058063
1819.35586294907034
1815.95357106518964
4.39065581492398316
4.24601811883304237
4.56816536842959575
4.55004932315266597
5.00084400359343118
7.53132267628934837
10.0586899320513528
16.0973469409468706
35.7606969670289487
42.0436000554216278
15.5159518261085783
5.72710020814308596
16.6903319704089341
444.592875753336216
1057.06696352790482
1760.60162825111252
1375.5399010951121
1379.63975966653152
1384.87814439945146
1391.66083371174682
1401.29640496164257
1414.32014556201693
1431.44180961048301
1453.56617355719982
1481.01949025826252
1513.35189923620078
1549.1971402998056
1586.13877110337626
1620.80576513847222
1649.60583052877178
1668.56258609084557
1672.57474484575346
1374.72546685621455
1378.51352112547102
1383.6399569738337
1390.40377720912056
1399.91829971545235
1412.90654005527358
1430.10997570505856
1452.35211333611915
1480.00118283545339
1512.65990209653546
1548.95458345683437
1586.4581417822269
1621.62496119726597
1651.02938418706776
1669.97797568440728
1672.78577284486687
1372.98911474208489
1376.27506421858129
1381.18494254492703
1387.8866705220014
1397.33287970232709
1410.31976600666712
1427.60198602786613
1450.00112653902283
1477.98597514354856
1511.26094086987814
1548.46534415455449
1587.09601587493739
1623.35628654488414
1653.74851672104637
1673.0340690934172
1675.78376020669452
1370.25069962194743
1372.97549163524559
1377.60075123987872
1384.20626451619
1393.56374906738938
1406.48639452147631
1423.79439344965931
1446.38090089086745
1474.85039731161555
1509.04780490848862
1547.64647597195994
1588.01082792780812
1625.9972152068292
1657.86755414530671
1677.87748954530639
1675.57023386891524
1366.44997876553566
1368.62134367734825
1372.891350683788
1379.34349351377773
1388.57083086538296
1401.37463366181828
1418.66221674185022
1441.45200909187292
1470.53773495597352
1505.96612627947434
1546.48013358996923
1589.25035763409323
1629.63034710629199
1663.48816040547786
1684.60619938375407
1679.83983104774029
1361.52890270074818
1363.14089594712436
1366.99677148429055
1373.24415927921609
1382.29089564641981
1394.9048254563229
1412.09844122590175
1435.07954211894435
1464.89959467275344
1501.87931518602545
1544.88077486214775
1590.82014108857015
1634.31927139116124
1670.71649849947789
1693.32436145352449
1681.31277438122697
1355.36264500649668
1356.28379892062549
1359.67181925317163
1365.67303069341915
1374.49232334711769
1386.8336594857808
1403.83638801343022
1426.97961716309101
1457.65665654055374
1496.55849742200394
1542.7210790541526
1592.71542692376192
1640.19402811475084
1679.70957172058024
1704.17148338662719
1685.74419442849512
1347.2155785468758
1347.11483214522855
1350.09427428059803
1355.89256659962803
1364.51813945377307
1376.5701741018961
1393.33695073467425
1416.64355079896313
1448.28614967075941
1489.48639261272751
1539.7091072559565
1594.81488901726402
1647.34544430333381
1690.61436096639136
1717.306933814682
1692.70966610807386
1333.46539552125114
1331.8261582730911
1335.01454519369349
1341.15671819233785
1350.03673851954863
1362.13892466388074
1378.93586908972998
1402.82943042677448
1435.91594639449909
1479.74133427568904
1534.98640924503138
1596.7175819143356
1655.55248003527686
1703.56347670832997
1732.94837764824069
1702.18455464429576
1302.08212484152273
1297.97382885882666
1302.29628523584574
1309.70520826059828
1319.85353133316607
1333.73189566719725
1353.38438919982855
1381.22734939393604
1418.2212416331281
1464.99611890503593
1526.56181074918663
1596.58299552964445
1663.56018007922921
1718.7282244438868
1751.27111734046116
1716.25022694284098
857.54701831502905
828.147296144377378
850.924220909961832
882.578947072688152
922.190199859280597
973.320777953801553
1045.28497729905484
1148.31022349519594
1279.5610556827296
1404.23043880201953
1501.74559928570557
1586.39095241950008
1667.42172757719004
1736.3592577951938
1772.33487478132633
1735.92165628861972
177.338980327379488
165.167328267359096
173.268835734820783
182.811405757406845
196.562577611561267
217.782132310093175
258.644734140916171
345.493779236703062
523.777572101545161
863.460909480134433
1263.01990764286279
1531.11731722784793
1661.92960689771462
1756.36686676958766
1796.28857850840882
1761.05007851776691
35.0803412759164956
34.6950195312539122
33.7470193567979564
31.4644869059542955
29.5194258247815853
28.1178628701667819
28.7001831444808246
36.2866363428529652
69.0596879479917192
194.613111752473685
551.824128793173031
1150.93267478610846
1626.7789691733467
1776.86174514989466
1822.6357854781013
1795.92504873463076
16.5497833929148292
16.1669149249925326
16.5269956076292281
16.2260693758087839
16.5412338415109055
17.0343301970246408
18.937456662747767
25.096742157885398
36.1583067813119499
52.8161813647218352
228.068834972396502
754.973893847313661
1384.50548537290865
1785.63938803446467
1845.19622916142794
1828.56640509780937
7.87263162067893152
7.72902027185018081
8.18986311876714623
8.08600155621649641
8.4855614152935992
9.53448484172820088
12.9761500175067876
20.1042066006024136
26.9568871940329373
28.0701937349627855
24.0930261049666861
147.490536641979759
812.216738247494732
1511.55579032876517
1846.57438070687704
1837.81226704033065
4.62629112989936964
4.67747549791653583
5.04782375336520506
5.15516508907010973
5.46539193931640277
6.21599020059815999
10.39449200696302
20.1041981577371303
29.4787099033578812
17.8873884885194698
7.65562515852424674
6.47375473266210655
19.3013805403235708
682.130821379887152
1265.15170031171033
1831.63310076991479
1376.14724998097972
1380.31547424527707
1385.72383576986681
1392.7993891142612
1402.84628088020008
1416.44822314219277
1434.36888506480386
1457.50765681342818
1486.14688152340591
1519.76880743806532
1556.88446154881581
1595.09450666102657
1631.0987775568874
1661.78458088346702
1683.62718542300831
1690.94547437617234
1375.33655621844332
1379.18948206596201
1384.49014652449341
1391.54971496160738
1401.48150372119471
1415.054009855201
1433.06209126845465
1456.3339863704532
1485.19062296396942
1519.14943736094347
1556.72641700354438
1595.49124236150556
1632.01414964588025
1663.32182466714949
1684.91772143529397
1690.52300355276475
1373.601755062763
1376.95406100458672
1382.04560714321451
1389.0525075886128
1398.92405763399461
1412.50232039566094
1430.60333298238129
1454.0638682944641
1483.30082253610567
1517.91509357555378
1556.42320024232322
1596.29377394452695
1633.86132949828334
1666.09673526928214
1687.83872972864924
1690.46587215450131
1370.8623768505031
1373.65766522095873
1378.4777256481641
1385.40221955781044
1395.19285386275078
1408.71617693756502
1426.86785954053289
1450.5669542470921
1480.36032828711177
1515.96578123489621
1555.90382470716258
1597.47686712947666
1636.68506293359178
1670.28257468278457
1692.59856158647881
1690.79531034538604
1367.06486685483537
1369.30461703847823
1373.79192511504903
1380.58097396904327
1390.24646778655415
1403.65996732801455
1421.82610522760751
1445.80173731368791
1476.31387369435993
1513.25019267690095
1555.15276030858035
1599.08170508890748
1640.54841467515757
1675.96453001225223
1699.23564516684087
1692.51235468578489
1362.15614873127288
1363.82357144539196
1367.92905288640964
1374.53663808367583
1384.02143629082229
1397.25398306448051
1415.37654129643602
1439.64646702343816
1471.0303594556724
1509.64993407404631
1554.1017140000863
1601.122042030687
1645.520840742058
1683.23538779512251
1707.80908034154436
1698.17309137369512
1356.0155000606062
1356.973389045045
1360.64814970490966
1367.04358198330169
1376.29867107823816
1389.27293850001797
1407.28106141425474
1431.85749528576889
1464.27541440741675
1504.97844340754295
1552.65638562473418
1603.61130600214256
1651.72094660725861
1692.24838018279229
1718.45498568370749
1702.98128567243521
1347.92183886935209
1347.85084729620667
1351.14951860948145
1357.37677914223923
1366.43993996090057
1379.16206518381136
1397.05743225665742
1421.99387959458477
1455.59679699003073
1498.80846489446867
1550.61687408986018
1606.49112658341164
1659.22486290954453
1703.15863823379459
1731.36134504394499
1708.73736491533919
1334.24808558452105
1332.7088161787558
1336.2712468943223
1342.84800091909665
1352.16342119640194
1365.00626570327381
1383.15300356144166
1408.9574090268286
1444.23040137702219
1490.36418056234129
1547.31463433779118
1609.39100585200617
1667.89723955744103
1716.11168852395895
1746.73554813424107
1718.31264847900957
1303.04182045842163
1299.09021698802462
1304.09801830190213
1312.01180409859808
1322.56219190019783
1337.33452411464918
1358.71257538957752
1388.74416058549787
1428.10881324726256
1477.64633857115518
1541.05487193641807
1610.76553178752715
1676.53972462633124
1731.25616324508042
1764.71025834084594
1731.81851518920166
858.418434718242224
831.865647764450159
863.66208971586002
902.904196857231227
943.859991416215166
996.006241495300401
1073.43736592705
1183.91776682826662
1315.52876656752142
1431.06062278224704
1522.19436555152652
1603.8256116421735
1681.83727784051985
1748.82562357571578
1785.30792101025759
1750.07400703954363
176.406237467846893
164.936118517279397
178.68280593843906
194.192683547300476
210.334095578935063
232.366363554937891
277.101176888644034
377.411900476844096
588.195802485088393
956.567319155434575
1335.11602966561441
1561.87794737150921
1681.21513422880275
1768.88033860866449
1808.77423344827253
1774.4845417910492
34.7327019995255597
33.8258931136306629
33.1341636680372531
31.3496939569183795
29.3381146714580439
27.9717866844968981
29.2205611401933822
39.709317744743899
78.0048835503553164
239.160665407018513
657.488366381687115
1265.77970675534516
1664.46836892900615
1789.86373349703263
1834.41275833101918
1812.24116381682302
16.2696209901908198
15.8539632501656573
16.3058966897255857
15.9029281876335276
16.068438742744803
16.4812265351248861
18.4113233802518366
24.9136176244299925
35.398836453527224
53.6715472667647475
292.288888273271823
840.103973683574964
1472.98810022338353
1802.68753449543283
1856.48190281592542
1838.14348851094883
7.73127552079288094
7.52325079528767571
7.87303308675644153
7.74877167544994183
8.0501659791794431
8.90815946686359617
12.3366514924183388
18.8424333185996389
24.0690994143996519
27.6382726928661242
29.139843519324824
242.470837397468216
885.640921986788271
1607.30081141724349
1859.38871829744085
1852.0394544764838
4.50004638289564518
4.4661885698405559
4.73696063024263836
4.80091771469075024
5.10644658277128904
5.71787399688958065
10.1713070709007187
18.6642478042582205
25.3872068326589186
17.9465960219700342
8.45277526583653582
7.7465923475123617
22.5784932399117224
806.393539624214554
1356.11478178297421
1853.00133572591722
1376.61287125183185
1380.864367482744
1386.42874765619217
1393.74855489519655
1404.12855841782425
1418.20003214623489
1436.77247851655943
1460.73987771551424
1490.32355340546133
1524.90389777933137
1562.88579210662351
1601.82465614303692
1638.46162044604557
1669.92418640425353
1692.67504835248701
1700.78737930129546
1375.77318014514935
1379.72825359416765
1385.19386831508405
1392.50442979311561
1402.77663694306739
1416.82538274003991
1435.49536172235321
1459.61323360765186
1489.43720286950997
1524.37985982732289
1562.84835452745256
1602.3567237245345
1639.52454415212173
1671.53700122417058
1694.06749438488987
1700.50801542779777
1373.99632154486062
1377.48117021166513
1382.75569253292974
1390.02199992234273
1400.23614358425539
1414.2932987106642
1433.07126990136953
1457.41016189237985
1487.65689870539313
1523.29496260089968
1562.71823427337699
1603.32458740330753
1641.51006033228737
1674.40348153465766
1697.03360402051248
1700.76754195992021
1371.22395659349195
1374.17672507808129
1379.20141750278822
1386.39125174399464
1396.52157051209997
1410.52838230958741
1429.38441899970917
1454.01386535149732
1484.88184293284394
1521.57086584056356
1562.45614929997669
1604.74501276837191
1644.51557603519109
1678.67362343957643
1701.84558261362008
1701.02094466225208
1367.42315394133925
1369.82324072996789
1374.53394762182324
1381.59044093616308
1391.58771588620471
1405.49225038582131
1424.40364465038988
1449.38167830332236
1481.05597421516609
1519.15738369926976
1562.05026203410398
1606.65819235078993
1648.60565751329023
1684.4600541524992
1708.52883735854425
1702.46593131817076
1362.54581575919133
1364.35298984053247
1368.68913307735511
1375.5605439336166
1385.36681943541544
1399.10806129619209
1418.03800030908155
1443.40413780920062
1476.05822353914618
1515.94710882915228
1561.44889880127812
1609.08823271059373
1653.86434852793445
1691.86892530469413
1717.15535600060798
1706.68790412755629
1356.4822191935591
1357.55615856019926
1361.42313217507512
1368.06896474225755
1377.63978900065831
1391.16574009711303
1410.0786899111597
1435.87093303207075
1469.67988692231347
1511.77587587583275
1560.58756137137289
1612.07713112745364
1660.39391422794256
1701.0402169318977
1727.85356165814665
1711.56088974620366
1348.60128651929472
1348.57589926221635
1351.9325615867167
1358.38417027032915
1367.7833405632291
1381.15512537008044
1400.10434345986232
1426.40224969519772
1461.50787952210248
1506.26212484939356
1559.28897396778552
1615.6267513692369
1668.28175421987407
1712.11632949929663
1740.78903033642837
1717.78748568158471
1335.35135165956945
1333.57561115040653
1337.0621604764051
1343.85251085121172
1353.61207842662884
1367.24792210212627
1386.68806162490887
1414.01375743204335
1450.85190037651842
1498.69477464669581
1556.98882247506754
1619.38360499309601
1677.4264408137783
1725.27505823311003
1756.15232941520071
1727.47155423542381
1304.74823793110954
1299.87480146744747
1304.89087904414919
1313.01759390126153
1324.17839788094329
1340.31942513963327
1363.4266476658272
1395.01273311209957
1435.72023721064375
1487.17089146187436
1552.11053993921246
1621.80918535223805
1686.83761914892762
1740.70996121454959
1774.08055163248855
1740.95162175328369
858.516713590719405
829.453060633294172
866.31492799270643
905.623642989693735
945.773083418881015
1003.8049086020834
1091.51193448277968
1209.34661795205398
1340.04019372810558
1448.80218002063839
1536.42400586662461
1617.29706258026704
1694.24506083863889
1758.35816403138369
1794.52271957487119
1759.40870293523062
174.220385402330322
162.582478238928388
178.762700608781159
195.195779724662401
209.502307763645575
234.206183243106665
288.26905333890187
400.542486602857252
636.779872653279199
1027.16923915637631
1386.20633551752462
1588.16765734890714
1699.11434707945727
1778.33548461311625
1817.77160436205804
1801.04250098128682
34.5254404493658811
33.1905563634657028
32.201654328129969
30.456803353231674
28.6059511405060469
27.3332572344567879
29.2743497829537844
43.0175419113595936
84.5221869690173264
271.995383497643786
743.199934169824587
1349.86883027452313
1691.38865131884745
1799.71628415044347
1842.82751495103867
1821.97199185193358
15.7374905404370846
15.4407614514775489
15.7083020379404079
15.1106386859039112
15.0465519441392388
15.8293474840009587
18.879387267058334
25.3100461629636051
35.8481301032033528
58.3713192395627587
341.439012024464034
919.403212380698278
1541.50611082282967
1813.7901902023782
1863.84257610336249
1846.23262004467438
7.25692974206948538
7.0535008440025333
7.2575160315908338
6.77700396697750129
7.10011682123063803
8.36715333476900724
11.8099457265928027
17.4527504638800401
25.0541552871920317
33.0771441828969799
37.4881590503231266
347.366102375310902
949.916476170805595
1647.84368691856935
1866.25100539259529
1861.00034125753814
4.08466514754108356
4.06601929653650274
4.19574807136425054
4.02278480631935409
4.22571051154445421
5.29240722946071873
9.72014086305538427
15.7592052606834212
23.5769636850746345
24.5602421289145383
15.6438178959729495
9.95844723639392448
89.4938460990782403
849.3791677261828
1414.64908622149392
1867.54496276690043
1377.11691075295084
1381.44865966727684
1387.12516230771712
1394.58362218651246
1405.16175331392287
1419.56338678917768
1438.63089760364937
1463.23340655829679
1493.5258947671
1528.79151961540606
1567.36374606638083
1606.74006679973695
1643.69421055224029
1675.28422105975778
1697.93268975321939
1705.01104474718204
1376.30466141945931
1380.32257034580539
1385.88632579430805
1393.32567079226283
1403.80156160442039
1418.19327175571675
1437.37520989481345
1462.14876376648681
1492.70147133588011
1528.34975508534512
1567.41584200930083
1607.35125459431379
1644.79023264957732
1676.90909516225042
1699.41860545942291
1704.80341437843117
1374.56052306627089
1378.07365015797427
1383.42673743774549
1390.81358340918177
1401.23727960329029
1415.65306012410383
1434.96903655815709
1459.99882190656081
1491.01202166815483
1527.38866560922452
1567.42360895955039
1608.44599635998816
1646.8704819520367
1679.85523959414604
1702.4427866195133
1706.23435078684065
1371.78325715347682
1374.73764062646774
1379.82570638244852
1387.13426037043837
1397.48467033172051
1411.87373837609857
1431.3070451043202
1456.6796037529391
1488.36992736754223
1525.84508897881801
1567.36319763272309
1610.05077139634272
1650.01360838500159
1684.22116782516218
1707.31148464332182
1705.49822774800441
1367.8963680696163
1370.3106654161279
1375.08937281723365
1382.27511871769593
1392.50837699200838
1406.82254280872667
1426.3596954901534
1452.14820431014618
1484.7193678865126
1523.67301510155244
1567.23017231474296
1612.21437279008705
1654.29023611156413
1690.13199792387036
1714.08380800492273
1706.52313313714899
1362.83735176393566
1364.71572953591135
1369.16366983884677
1376.19269121786124
1386.25341325425029
1400.42971832169724
1420.03899351571522
1446.29686060607196
1479.94243408765487
1520.77244235845137
1566.98308262189289
1614.97307984381814
1659.78873280715129
1697.69317434809545
1722.82555820463494
1710.33669108165623
1356.45865669120462
1357.69855582727791
1361.81188821832689
1368.67912470690271
1378.5217264228952
1392.49896423735095
1412.14366932015582
1438.92042224115789
1473.83573266237295
1516.99015866346917
1566.57195311690589
1618.38175996317091
1666.6128064569582
1707.04854002590082
1733.66252111254312
1715.38184110859856
1347.99390890250402
1348.36379119453704
1352.24397477787647
1359.05354294228596
1368.73704751405103
1382.55718333899335
1402.27748328112284
1429.6443179460332
1465.99071657310174
1511.96073270445049
1565.84170320127419
1622.43390459022976
1674.87454044689844
1718.35252275753601
1746.7529707783126
1722.21248723627332
1333.84825635704146
1333.10589566983731
1337.46360928703325
1344.74816034442279
1354.81734216042992
1368.84236013006648
1389.06617896850616
1417.51254640863658
1455.66509942061816
1504.91864248765023
1564.22056019331217
1626.82221322528744
1684.49553842502905
1731.7945255628556
1762.27126503537011
1732.46059499229523
1302.0421390279937
1299.5101281357363
1305.58297641716376
1314.33698971268564
1325.99108149201697
1342.61318957187177
1366.45109024348949
1399.13825115574241
1440.81988771405031
1493.90026137251448
1560.04233817741829
1630.08599014783113
1694.89110031061182
1747.53877560125534
1780.30303105030748
1746.65437346605449
853.853272432512767
837.198776302685474
873.393543693426977
911.316071255384713
953.305243047271802
1016.27411301002633
1109.30689733533427
1229.35888295890368
1356.91577367485047
1460.07168995240863
1545.85878689005472
1628.16259665536245
1704.79503566496419
1765.44909525140724
1800.87178251027399
1768.93612312902997
174.249378393305477
166.331022027628478
182.222494758293095
195.655048746323899
210.22708152282479
239.889887767020412