/*--------------------------------*- C++ -*----------------------------------*\
| =========                 |                                                 |
| \\      /  F ield         | OpenFOAM: The Open Source CFD Toolbox           |
|  \\    /   O peration     | Version:  2206                                  |
|   \\  /    A nd           | Website:  www.openfoam.com                      |
|    \\/     M anipulation  |                                                 |
\*---------------------------------------------------------------------------*/
FoamFile
{
    version     2.0;
    format      ascii;
    arch        "LSB;label=32;scalar=64";
    class       volScalarField;
    location    "0.990000000000000657";
    object      rAU;
}
// * * * * * * * * * * * * * * * * * * * * * * * * * * * * * * * * * * * * * //

dimensions      [-1 3 1 0 0 0 0];

internalField   nonuniform List<scalar> 
7340
(
0.000430739717160181037
0.000423147271518683479
0.000464270268794626285
0.000588963617450279238
0.000886012689696763392
0.00149191127040459569
0.00169779662317817346
0.00112673617082662382
0.000683875199863340525
0.000474995435901187245
0.000412603594852117644
9.70731183246352974e-05
1.81351999046958529e-05
1.17351908214534366e-05
1.02087526939274899e-05
8.80875154292588836e-06
0.000399659405542140142
0.000376158893946278302
0.000369351613576613964
0.00039596881487250575
0.000486618704267339618
0.000709403869040519611
0.00096029778954011128
0.00080125786306662521
0.000598862361628177083
0.000458030375864869506
0.000413394359158934614
0.000127271157478648403
2.12644815238085398e-05
9.61041091075796776e-06
9.50463222575705341e-06
9.0118828009928695e-06
0.000228742692654977198
0.000301232005236186666
0.000347545043515080259
0.000343209609384113456
0.000341537144869422278
0.000405754041157121526
0.0005780348509724731
0.00057488534976695533
0.000476832680338577146
0.000405734342200358858
0.000389641852936150994
0.00012271623268683693
2.73526627068968104e-05
1.03451478733580355e-05
1.04285793386300923e-05
9.2477036493698294e-06
9.22756299359837537e-05
0.000110891276364143422
0.000166013021996561647
0.00027435349268512037
0.00030430297070750071
0.000291778406525202577
0.000348388500885103128
0.000498104592105124994
0.000456378663235582462
0.000412011023508689566
0.00028512423861194058
5.57496800994184436e-05
1.5828176417139352e-05
1.07017702102964843e-05
1.20653917186145312e-05
9.70746375332117619e-06
0.000179210314685470241
0.00011207318226418959
7.68752738530110129e-05
6.31044639424430543e-05
5.79421851487624056e-05
6.78066170979445428e-05
0.000112800448038053385
0.000174535376343180817
0.000193342394213768122
0.000214787890740361816
0.000291807377468697839
0.000430878471549345731
0.000417249233591091798
0.00015907267337252084
2.9481536021218525e-05
1.22362835949695491e-05
1.00025174911938295e-05
1.08983532928928126e-05
1.04657032252070417e-05
0.000211759089907851919
0.000108635259638064946
7.14645969369913115e-05
5.35911490121450667e-05
4.42894964583691612e-05
4.13439571621559721e-05
4.95301200533209714e-05
7.79943412966585363e-05
9.65975187896402857e-05
9.52262643315135183e-05
9.58284285593971624e-05
0.000114016886852526231
0.000124720530825548162
4.3512846540509532e-05
1.77608377632284856e-05
1.1528675812269111e-05
1.01070937306652191e-05
1.07751227920183299e-05
1.15887939264080328e-05
0.000541607706077073051
0.00064415251528921586
0.000347045425425973511
0.000159819890357357404
9.05033367996427242e-05
5.6880200421943999e-05
4.32861890159794076e-05
3.67228887178806034e-05
3.53453248444788389e-05
4.12630983483886857e-05
4.89110037152997012e-05
3.88997434661723555e-05
2.85684264169329306e-05
2.7273129940225905e-05
2.6136008195564702e-05
2.12156134523617465e-05
1.47763979786245519e-05
1.15783619236481962e-05
1.07648950414287547e-05
1.2513375486720364e-05
1.32975719969255106e-05
0.000371792177013198716
0.000390050674493354474
0.000487341141640798396
0.000786254998171980195
0.00175276008007323896
0.00265961556557094136
0.00191185075430274666
0.00117906699753670113
0.000706891822165393782
0.000484050382550491422
0.000206255476828887298
2.12573281965303535e-05
1.01387441869912632e-05
8.99445526779639188e-06
8.72602375683311891e-06
0.000290975117594413223
0.000304122863301765727
0.000306354051181749161
0.000351597507370390915
0.000476737395384403413
0.000789155126563314776
0.00145881153494524301
0.00139513177361216736
0.000996528713239704924
0.000626732178534287251
0.000492768000187586148
0.00025971108898361359
2.28052058467103837e-05
8.65207185677517502e-06
7.9817987850493563e-06
8.63633392571086048e-06
0.000143415826141127115
0.000156193885788851583
0.000230654256416590222
0.000286634225505677466
0.000358742506808408393
0.00047495218137763828
0.000755661115533996135
0.000876001390778524615
0.000786027480831815351
0.000578797534128849909
0.000533460086765922929
0.000227228150584506697
2.75327989287300437e-05
8.51435932446634712e-06
7.95127651163215639e-06
8.79352329043932651e-06
9.11510741265136518e-05
7.42289581516520627e-05
9.05468102698857839e-05
0.000169918850269529963
0.000295984851127591262
0.000363096882304958025
0.00045186725414078844
0.000647517389051324482
0.000625854792980051755
0.000548449291538594379
0.000501198571674184778
0.000111929211035432583
2.02952141512485782e-05
8.69986991936732956e-06
8.50191359594167464e-06
9.13241715818687981e-06
0.000307371644655517033
0.000158862568707547158
0.000102679200612648493
6.95586483596741635e-05
5.21448438821986383e-05
4.85252821327564684e-05
6.07707442757734678e-05
0.000131726388501735698
0.000270761673021105106
0.000318115055329650908
0.000371682772845460503
0.000479643127483841004
0.000582689708984586159
0.00036210114407422329
5.42869764204566093e-05
1.29719035737968814e-05
8.90239048331689364e-06
8.75745889123400182e-06
9.74743613533570494e-06
0.000360645967639642228
0.000180595692865228924
0.000107963472374472284
6.47508243852162754e-05
4.57750611701528474e-05
3.70250139077991664e-05
3.46147718042391419e-05
4.78990958275750723e-05
0.000100440559552387911
0.000163320986607682868
0.000174680937253715043
0.000181471166128233048
0.000235902683576473548
0.000178697534834678729
4.05816782604737355e-05
1.18993517921813544e-05
9.09246146499911576e-06
8.97330217461036662e-06
1.09130884492704607e-05
0.000371736109721537418
0.000426668013371820905
0.000363489522543605163
0.00027229703035684292
0.000187265362306026181
9.06751297402027612e-05
4.99198474444247819e-05
3.5255826725792168e-05
2.86047626330828606e-05
2.87772922350773769e-05
3.68871817872316109e-05
6.95470713703349384e-05
7.22308975745900294e-05
4.54869790710320297e-05
4.42793026608309889e-05
4.32794118129749259e-05
2.68886327621800051e-05
1.16303301175926471e-05
9.20738293396825009e-06
9.28009843210405516e-06
1.27051180679664969e-05
0.000325407293209305898
0.000337911796240451541
0.000419624097587105557
0.000661382959373183832
0.00152018628314780878
0.00428144182614559679
0.00398139245406843676
0.00265764063591893054
0.0014561746532354865
0.000766997647650704173
0.000737199385582185552
4.12330234141461066e-05
9.0670053144564925e-06
8.14523730830004425e-06
8.5070474198987047e-06
0.000218711118187343417
0.000222978448805645214
0.000243576138053688232
0.000291248087380886571
0.000437336810177199554
0.000804487297752010761
0.00192563870983297964
0.00248809797755130584
0.00188390999409456862
0.00114753158723097763
0.00071162458053407394
0.00088759667590559792
5.74268208776019243e-05
8.81417109397374685e-06
7.5743344044178256e-06
8.24754603800583579e-06
0.00015319569822085826
0.000162033649663854572
0.00018098928446304505
0.00022165964302864582
0.00030698283382317779
0.000518466516746014881
0.000948306680160497474
0.00140896395533753266
0.00131946775330702998
0.000912958704157769483
0.000672962772528463873
0.000863655221618017514
5.59865174305443567e-05
8.9469801491567112e-06
7.47565678686018398e-06
8.30388671006135704e-06
8.57318913390551325e-05
8.20646487042908109e-05
8.35944358688950128e-05
0.000108075180981247673
0.0002043078883015545
0.000369524066466852619
0.000622157705668291081
0.000874656185236608735
0.000901284154563228019
0.000775524880611161882
0.00066859853389818983
0.000548747070401415095
4.52296096720288348e-05
9.05280869647044819e-06
7.46546457965349045e-06
8.53439158686388864e-06
9.14588373885870512e-05
7.91154708254272607e-05
6.98700017524240321e-05
6.69469890799607076e-05
5.85517881030205969e-05
5.08568470532907993e-05
5.02442248791971072e-05
8.15028745443079907e-05
0.000213673242849364965
0.000485212267528498976
0.000627119874084009041
0.000660147447903335332
0.000696735106385848674
0.000720214188409618039
0.000410387850239291529
3.43178896177071747e-05
9.20537526987413118e-06
7.59925889184173506e-06
9.02893166278267532e-06
0.000131146104193018777
9.09927248489024026e-05
6.83445822980193e-05
5.72521565373563127e-05
4.70580568775549483e-05
3.82470570459435998e-05
3.41926032829181762e-05
3.60932761856430013e-05
6.90935471891023487e-05
0.000238928356895401104
0.000504698214295531229
0.000484451891100120288
0.000563210459255207834
0.000536975238766345645
0.000303111638238726957
2.5498438862002676e-05
9.33875930637489407e-06
7.8053260343386148e-06
1.00424676859427548e-05
0.000865423715564672116
0.000660005775040718311
0.000296527433575725008
0.000160572592777527605
9.60487815833396331e-05
6.69966381236228379e-05
4.95448078249978387e-05
3.68979591735644769e-05
2.96134276860055607e-05
2.58422029365297236e-05
2.85687532917924332e-05
6.51909958587227467e-05
0.000185166758068901498
0.000188381348118522423
0.000179747715648252015
0.000134739206888308933
7.19208859301554923e-05
1.99210261150513119e-05
9.33804509914370635e-06
8.12815173166295901e-06
1.1446393704317569e-05
0.000166047169521544349
0.000250525014492111319
0.000344836574351736476
0.000425358191462099188
0.000607000158431539598
0.00115482944948234459
0.00280886011252826171
0.00392955008511245655
0.00429690996195344465
0.00413250484792115035
0.00168244860814304679
0.0018869007529135741
0.000125133756621342303
9.74561770745795375e-06
8.09093630252613418e-06
8.5311871160047417e-06
9.71462456933995256e-05
0.000161689377722934978
0.000229372434872668893
0.000291675831837898505
0.000405063359884990401
0.000711587549018719012
0.00160350890581502608
0.00338048603866790507
0.00428286926563874442
0.00275781147247441787
0.00137801632819945364
0.0014396360181740211
0.000219193734355909781
1.11584588685377451e-05
8.20910759038495922e-06
8.44246940497412053e-06
5.27459206356749985e-05
9.82841023498020645e-05
0.000151218923679225013
0.000197104491464674948
0.00026586723814758952
0.00045873520388373622
0.000938842367941395079
0.00203265048334636727
0.00283077973995659628
0.00179815772557701437
0.00112665789690145164
0.00116826511272348304
0.000186480512185352849
1.31325592146964719e-05
7.59843120464716289e-06
8.01417724140434493e-06
4.20638035467922429e-05
5.18499484768692945e-05
9.28440550117954738e-05
0.000133396323837477784
0.000168346969472322127
0.00028495176846111644
0.000626592518928146473
0.0012692672128033326
0.00164570744529452537
0.00126880604873912312
0.000935564341253802617
0.00101768741722408143
0.000151710386099095914
1.27450432238808623e-05
7.49701995946375525e-06
8.09475136964489708e-06
0.00019641739497952817
8.06398637052165306e-05
4.7499791687911192e-05
4.03290578417907642e-05
3.88850185279992011e-05
4.92363007935036717e-05
8.28368299117943069e-05
0.000108353094435307838
0.000164026001081388401
0.000378318129438534698
0.000924311558854933393
0.00110655363741798355
0.000999030771707195685
0.000862573518543283124
0.00107107429636938995
0.000129448351604249701
1.17513867793995813e-05
7.59951006803591879e-06
8.36754808185789971e-06
0.000441893890785133216
0.000159633301384611747
6.18516157065667464e-05
4.30950944061662882e-05
3.7124713957889024e-05
3.59326480408867684e-05
4.45353915793672182e-05
4.69034328645870577e-05
6.33370645944769097e-05
0.000163399691993658202
0.000564940912833487071
0.000919913707633066252
0.000747537529754697841
0.000705836351012925048
0.00101574643840765663
8.98390631173127729e-05
1.20075421271409902e-05
7.78522419829552759e-06
8.81386629196711111e-06
0.00416531875986410859
0.00381586886922041704
0.00121883233095297487
0.000368852492305970429
0.00012010398933303902
5.46921459468454674e-05
3.94597884553485529e-05
3.48419537620356178e-05
3.53672559795360523e-05
3.22068738125314702e-05
2.92667177048195191e-05
4.75198285091350944e-05
0.000146387412414186507
0.000436364580647485617
0.000644488355202708636
0.000505529373231104339
0.000377988232122916591
6.09690370438157131e-05
1.17678939033027406e-05
8.05175202528225474e-06
9.47850874899105305e-06
4.52761124280187836e-05
0.000115154295558181149
0.000238942932875051476
0.000439553912682236344
0.0006813324346908174
0.00103580693241123113
0.00171541600253145702
0.00197323053053694193
0.00227268297534341957
0.00288743275584722736
0.00352367808973928255
0.00279619823883369215
0.000265570229896958099
9.76886936860609318e-06
7.2287840398051865e-06
7.95300543798165195e-06
3.63292457687255924e-05
7.78678933048918145e-05
0.000154829548244949918
0.000280212104659990804
0.000447848861195514409
0.00068976732928503618
0.00119024330789968178
0.00203883463405028992
0.00289527865505457768
0.00341012704374160733
0.00347248417885645966
0.00308294581641901065
0.00163747924711128375
1.27763080711984371e-05
7.30114133203831709e-06
7.83152836929124995e-06
3.26544910554276262e-05
4.25172309019795973e-05
9.1168156650779471e-05
0.000165298728686517324
0.000273975020633038713
0.000435408068497214278
0.000740357804430152888
0.00132898177005775012
0.0022057287387788815
0.00277318081403609947
0.00234343224232557703
0.00202945226805967011
0.000956413738277582222
2.50408199403771346e-05
7.56300533719268267e-06
7.84315163270008503e-06
3.18425439229169855e-05
3.22517448659063883e-05
4.96224776047326726e-05
9.70538662957119713e-05
0.00016092399198896164
0.00025688466064606501
0.000443009270649626259
0.000816458594147583937
0.001503414415517951
0.00216686193550813229
0.00165865988828211674
0.00146302185018022429
0.00181569691991166214
4.66249054526873008e-05
7.9210729255314812e-06
8.0094751641569436e-06
0.000333370766165738859
0.000132381269628156274
5.28669070500907361e-05
3.3496139602422808e-05
2.97401819807244552e-05
3.14695419719056204e-05
5.25072185304878514e-05
9.60487805428732411e-05
0.000144257418982644082
0.000236490076393427616
0.000455362096373144608
0.00095276555450968367
0.00184152288065525765
0.00135389278152703513
0.00126941812481924676
0.00215171701664708826
4.13938645286040822e-05
8.18956869384804955e-06
8.21030133502179104e-06
0.000793845387936700612
0.000265524247631060027
9.7019832656339305e-05
3.93498825361996162e-05
3.03434787364396008e-05
2.80600095124419264e-05
3.12149730280354535e-05
5.53000492204569431e-05
8.53283845893515426e-05
0.000121570854770408672
0.000206854873859098007
0.000457799358188814274
0.00149000689306957954
0.00119274717273980756
0.00117640408616799096
0.0010056937957196449
3.45171890267142184e-05
8.50029897149414243e-06
8.57595668945074143e-06
0.00732922001334333426
0.00692960744414101212
0.00223050506985994837
0.000613387333866108981
0.000194551243852899761
6.28856237593456666e-05
3.41245485428470305e-05
2.80728200339282347e-05
2.67370536330614472e-05
3.12142689707855207e-05
4.47626424325674668e-05
6.71327989527638585e-05
9.29482794072252264e-05
0.000157646032781595175
0.0004368226397626862
0.00117434274429153301
0.00055145638500849717
0.000259440814071788546
2.94809063622293343e-05
8.87040643840842285e-06
9.13001318645800598e-06
2.70188469934726199e-05
3.50405408901489711e-05
9.20649780727433929e-05
0.000200632283783479937
0.000393833219276680372
0.000634643064767687255
0.00079067234529828093
0.000771700906165031413
0.00076452846951846089
0.000984552034729380696
0.00149840222276833505
0.00144424020941008504
0.00011993283663614032
9.96392077979175441e-06
7.45880247245701845e-06
8.47814577457447851e-06
2.60214409951744398e-05
2.86549297416127937e-05
6.81732330234955183e-05
0.000159005999466880934
0.000323474294899795366
0.000543659861148046257
0.000827715038461712357
0.00114656329507076705
0.00124668235256487274
0.00143223879776136409
0.00217907541180390818
0.00224643319729997621
0.00134626274423359574
1.47223957985018027e-05
7.47170525617042174e-06
8.18713422236307875e-06
2.62638223650441945e-05
2.53432777013279479e-05
3.62974412797106364e-05
8.8875200242190605e-05
0.000186761757605015719
0.000331488780004510317
0.000515054924057065382
0.000763846620536553556
0.00101039623699920368
0.00132499738435728088
0.00177389108122872566
0.00219916815473105744
0.00137354299605686779
3.74446095881495193e-05
7.909696605652556e-06
8.1129685828272427e-06
2.7498201407278452e-05
2.39964590992318961e-05
2.5883424478375036e-05
4.98853583990862412e-05
0.000105426901714735137
0.000191952621606639217
0.000302554387663417281
0.000446175677344479594
0.000645037356303022132
0.000980975212153488169
0.00132456969383359436
0.00183641665870739744
0.0017040954342194914
0.000251499613046829256
8.87256843362848799e-06
8.22336133274871088e-06
0.000431219474580801516
0.000170103228040188899
7.15193625763673444e-05
3.11797188686868277e-05
2.45705467136227276e-05
2.31907236431705696e-05
2.76783165643982691e-05
5.85478944294708841e-05
0.000109003295040053098
0.000171752944505790993
0.000241791824737522921
0.000357841984564720298
0.000585475213629698906
0.000974154651082903707
0.00153528644863233752
0.00134167479236370845
0.000176469807117775833
1.0017976222535944e-05
8.5166340889156747e-06
0.000967156276636432343
0.000327261750263338838
0.000126089663497383817
4.56396268283043444e-05
2.63175364958617052e-05
2.2882102220286247e-05
2.27906937569134352e-05
3.10500835371598039e-05
6.20014414177880147e-05
9.99230274200083469e-05
0.000129658257075188988
0.000171875811289193882
0.000285779891424262317
0.000612815838900941288
0.00145729474002839212
0.00131350376204084226
9.11113416632733863e-05
1.0066764254478367e-05
8.82453759252724916e-06
0.00567941182487010157
0.00562986758912138296
0.00230188342351286173
0.00070080448661983413
0.00023233560483917407
8.36761555888874395e-05
3.21811372366043869e-05
2.39297935751203821e-05
2.17491797713043403e-05
2.24591275309125268e-05
3.19677923803792614e-05
5.82066232006353616e-05
7.42427427739008965e-05
8.78995729787782678e-05
0.000116006637857130315
0.000233670736102549632
0.00160149238805765929
0.000606129225320454958
5.90079878170329708e-05
1.0522717604301985e-05
9.32482907381877081e-06
2.52580537288622248e-05
2.36121878246518246e-05
2.93044731086371117e-05
6.32358249284436971e-05
0.000105211382785084763
0.00014462651724657548
0.000157352324400568156
0.000151790412463697483
0.000176156917045367173
0.000295726087528777094
0.000646963584036144282
0.000835581122423998844
3.84435909914813094e-05
1.0215415151865157e-05
8.08849919814466348e-06
1.02298390093145163e-05
2.4237209993009701e-05
2.14989909671123507e-05
2.23676329488637936e-05
4.15778953720382768e-05
0.00010611960932275537
0.000171225656010252659
0.000207599292848750311
0.000192442084289482266
0.000176479809673022749
0.000292606340466893607
0.000614022666763712477
0.00121840173218323248
0.00104042755339787095
1.39121740776807166e-05
7.92824564172866055e-06
9.67777368642085209e-06
2.48708377843269189e-05
2.08670442604615969e-05
1.95961731540414931e-05
2.42393149337171659e-05
6.3048925854962301e-05
0.00010843666672495521
0.000146882006940612562
0.000161611173340234942
0.00014469889847629845
0.000259761814527624502
0.000492527594403564329
0.00102855939615367656
0.00138927988169469663
4.19411337673612392e-05
8.5902192304338054e-06
9.30288231592566198e-06
2.77878768317600078e-05
2.10399439318228893e-05
1.86178627946250362e-05
1.92524128521676762e-05
3.14226725366084468e-05
6.67312454792847761e-05
9.0967448608985434e-05
0.00011309811953947014
0.000121059488607624867
0.000185383666239381708
0.000362223807110480126
0.000734727866369690413
0.00114397036176759788
0.000325022258632513686
1.01417674381597062e-05
9.27301444079081014e-06
0.000742692438056276566
0.000287630168041752966
0.0001098805145728154
4.14701485053937946e-05
2.24176428847460408e-05
1.88364676254967194e-05
1.76037140099033674e-05
1.97109816566904947e-05
3.52266600597036356e-05
6.14666239520110546e-05
7.40531705005786933e-05
7.08254430681358102e-05
8.93833953292689761e-05
0.00021911249611821415
0.000501197570731391935
0.00100928168530012535
0.000686599347424509169
1.29471046176007609e-05
9.53780139204810675e-06
0.00194503128732304541
0.000676417922430061925
0.000222805677809075216
7.87849352306423697e-05
2.85578804134367393e-05
1.97390451996776513e-05
1.75535353273046944e-05
1.7183625155473881e-05
2.10234838270468895e-05
3.40221139355620624e-05
5.08845085289291062e-05
4.9496510900287796e-05
5.83239184112177195e-05
0.000117454328734658111
0.000231195961847299194
0.000588635383234993332
0.000236365833261479555
1.46478302073050468e-05
1.00002539023358346e-05
0.00533694507790963713
0.00593217619758354409
0.00429605253549223028
0.00164281955919542695
0.000483881965821814693
0.000149335479979161674
4.81420895262661959e-05
2.2327947324793051e-05
1.81160478508127429e-05
1.66159623272429367e-05
1.66844230986677868e-05
2.14741932783864814e-05
3.14009258959208035e-05
2.96688855575179249e-05
2.90278212605067491e-05
3.91662741462661239e-05
8.29562770461803457e-05
0.000182622725008416245
8.67795150116475492e-05
1.33320422098795892e-05
1.05497317308590884e-05
3.27862836945260491e-05
2.49653110167704017e-05
2.07018915028762249e-05
1.85122811149587088e-05
1.87734924590887985e-05
2.16013650941051543e-05
2.83066061132230608e-05
4.15731202732412802e-05
5.9428871683631066e-05
0.000110647954477992533
0.000225441101658433514
0.000111706715707357235
2.32646914498303244e-05
8.9257270200688368e-06
8.92910359969082632e-06
1.27741467980672002e-05
2.53414295710785513e-05
2.04596325727598205e-05
1.70308294516385119e-05
1.51157064208720297e-05
1.46261217808092852e-05
1.59570245691510755e-05
1.85779177468450029e-05
2.51705867157149672e-05
4.6815362104691824e-05
8.32957691581495468e-05
0.00024417066516266208
0.000713872513021152088
0.000144868218448581228
1.39854477777162942e-05
8.54868838826659325e-06
1.14761677772622878e-05
2.53933552407099382e-05
1.96387652630485958e-05
1.62881317097250362e-05
1.45064834903697155e-05
1.36026489526487422e-05
1.32769604180428525e-05
1.41175202830284103e-05
1.68922367952738462e-05
2.57874030661654244e-05
5.77354782518432066e-05
0.000147545018259560813
0.000493640571778529522
0.000964643137477374157
3.08455646005892565e-05
9.15236344722862171e-06
1.07039811061057243e-05
3.32521619081551021e-05
2.07628706927105868e-05
1.62587680266453933e-05
1.43020367915095341e-05
1.3208677975344532e-05
1.26183523589131637e-05
1.22797024107081352e-05
1.31430195306840305e-05
1.67128472555801323e-05
3.50477998936781003e-05
8.66123563781205533e-05
0.000298330549066695618
0.00119111368637168165
0.000160095913657302909
1.04875714162956397e-05
1.05034587619409428e-05
0.000598258164893502556
0.000367440854793938722
0.000155552417380735975
6.22357178200736073e-05
2.80859068978666212e-05
1.7175448959490262e-05
1.4472073792859811e-05
1.3040787259978391e-05
1.22566662848177349e-05
1.16879591961231725e-05
1.14266210556115373e-05
1.25825571801054316e-05
1.96637558464095512e-05
4.93430702503357797e-05
0.000142080152076053541
0.000666554841646433728
0.000376823407148346268
1.3722118965322526e-05
1.07483237300374308e-05
0.00232264340610525716
0.00107534135619628216
0.000390961154538070545
0.000139586044419726118
5.15353110393392775e-05
2.15808299421896461e-05
1.52185547019988477e-05
1.31839206676845549e-05
1.20908561027922146e-05
1.13549158200874296e-05
1.07838274235478279e-05
1.07581858386109888e-05
1.34075870873185407e-05
2.4676864130581722e-05
6.36921337949407292e-05
0.00021005416276272118
0.000264126809342494009
1.74694686147244665e-05
1.12028714604450499e-05
0.00424365228922554769
0.00511290417900493645
0.00530001146226743904
0.00286706559397357586
0.00101395851291510137
0.000317582275555924822
0.000103959336641392387
3.52635814805861997e-05
1.72938103857968473e-05
1.37094513644947561e-05
1.21998698694395692e-05
1.12333417782063993e-05
1.05167200923193933e-05
9.9553937295114868e-06
1.03199570848239869e-05
1.48584943990575032e-05
3.14978142391687788e-05
7.01393351744662935e-05
8.72909262285828988e-05
1.58591984502359383e-05
1.19498769108241775e-05
0.000281054396351631077
0.000256528452644415284
0.000253365611061838849
0.000276723374839552016
0.00036368005287856363
0.000324742072930595958
0.000249914301031870607
0.000166949368339307979
3.73780438739103237e-05
1.75365476642800382e-05
1.27072031861610273e-05
1.26656674100570755e-05
2.56119195276447002e-05
1.50374881799000674e-05
1.09223162308440042e-05
0.000236523321716263586
0.000241883238296230677
0.000237229626235324571
0.000229931325116235669
0.000242641426095127589
0.000294567184981061258
0.000352742625166218508
0.000327847165763743694
0.000187529987828305726
4.56205002396226203e-05
2.00301530419178122e-05
1.19743338665359064e-05
1.09331265514321315e-05
2.37803127376833514e-05
1.62200015146930956e-05
1.19790937830127142e-05
0.000395291911822905897
0.000417093362791279548
0.000385856909185683459
0.000381549423610913073
0.00038478949607841941
0.000417388788577501674
0.000382480631544373693
0.000331450831531482403
0.000206708432465027548
7.70890875258300556e-05
3.42866618463435623e-05
1.25888718658809225e-05
9.83979989095867404e-06
1.88320333399628251e-05
1.73727382400300395e-05
1.36265119452928137e-05
0.000370132908751914119
0.000367492837503921544
0.000343116124729703805
0.00035085747685635897
0.000389775828441316823
0.000401130548576694951
0.000363896910315802068
0.000338754803533962271
0.000309227879482468107
0.000124640187502209342
5.26001643688547336e-05
1.50699376628313442e-05
9.41859912253968271e-06
1.54204594316056894e-05
1.66578313176098434e-05
1.61980762692972571e-05
0.000252454724638647039
0.000261331995890614233
0.000283584233394680834
0.000283354362867425707
0.000285650222734023097
0.000307752121025328109
0.000319271543888626343
0.000314565658746158311
0.000288578117968316702
0.000247551695654163223
0.000220206455957555944
0.00022505303177576186
0.000146944590833634304
6.12896720075717161e-05
1.64295877382599413e-05
9.54789183274555047e-06
1.31965980500416744e-05
1.89669827304596827e-05
1.99526835609717197e-05
0.000233814387678291075
0.000236969533361174685
0.000246285732811819206
0.000216399597875879243
0.000187564321763792567
0.000176775159640357114
0.00018282520354186404
0.000190047684585600764
0.000176460615622508647
0.000161002104408961309
0.000148812299041567344
0.000160307146897557671
0.000174383439020995922
7.18438961671423627e-05
2.04872107007351073e-05
9.9006410814562009e-06
1.18985084573751096e-05
2.04215028785690644e-05
2.57821051982439231e-05
0.00022358300312068198
0.000222447516988684413
0.000228187490257772098
0.000232516929392985634
0.000238720332473550255
0.000258934276021553539
0.000177330911505668563
0.000131602862783180137
0.000122159116337738698
0.000119722835508309446
0.000120883482268369799
0.000118430469060319153
0.000118725098044040388
0.000140645087547195899
0.000208711124900411317
9.19865674328737695e-05
2.96355374922238957e-05
1.15829591043565668e-05
1.14298070979365356e-05
1.81141904397327969e-05
2.65885543991306211e-05
0.000290424502600244744
0.000277599721470775981
0.000284109348713718274
0.000303651596409647794
0.00027590710222839853
0.000301208850271846766
0.000299412037237130303
0.000270768178429067047
0.000145122514443237898
8.76090634652142928e-05
6.7555159162148616e-05
8.41276919203777669e-05
0.000158632804473627683
3.3835785664075963e-05
1.06981904041978523e-05
0.000268252352145754145
0.000290440780122129647
0.000281726613477088241
0.000284737715515902734
0.000311849041748737607
0.000295791270364216313
0.0002942189548206453
0.000270658186032126887
0.000248755553805179313
0.000136327223616940528
6.87954264567553338e-05
3.49872184545462571e-05
3.80160773305517757e-05
0.000104880533176097144
1.79260517551772762e-05
1.06300347593701715e-05
0.000338939216660962407
0.000414012237811127134
0.000432439601026608756
0.000442442912576167821
0.000369608706507477307
0.000322419068816083261
0.000289806555484734473
0.00025540954552773714
0.000240264386773134586
0.000137028234553085399
7.08791539491970829e-05
2.04874541555191158e-05
1.82409615586936489e-05
6.49487234036326123e-05
1.78152264475687699e-05
1.13205074304785325e-05
0.000281280858950571223
0.000283894243608247862
0.000289115375498902099
0.000335694544362590474
0.000339197375381148215
0.000287059887409658822
0.000240558959484462676
0.000205622805290597366
0.000201890559472205793
0.000128985611437683036
5.35050945184826777e-05
1.70240026093544998e-05
1.38783478520984525e-05
3.1938599064409744e-05
2.61407041854223828e-05
1.22706219484183168e-05
0.000241400629948619621
0.000244892618963774684
0.000262317671582101483
0.000197107421669653427
0.000135897224211286585
0.00014021778844833905
0.000199857997930331937
0.000244698336014625149
0.000207877886950911021
0.000171157115089364323
0.000141391943378409016
0.000132688816382470226
0.00010778037448872512
4.18058549648679355e-05
1.48694496308568925e-05
1.21096977747239998e-05
2.13920847512367542e-05
2.83576317356129179e-05
1.47123365281478378e-05
0.000239655260711586456
0.000261506765386556109
0.000311983364157523578
0.000170947351268985214
0.000106143643622238625
7.60956404859606909e-05
7.95350057973260422e-05
0.000110505184977115073
0.000115693719614919376
0.000105664000908271773
9.72433110904326201e-05
9.94432641154275432e-05
9.90987851359496143e-05
4.11664282560792317e-05
1.34123749398131969e-05
1.16653088053074708e-05
1.59874688234540689e-05
1.8938719281835994e-05
1.51930227107632814e-05
0.000174369664456025314
0.000213190653779935391
0.000234621004227100158
0.00027938469059223404
0.00033477853244838154
0.000245132065223864081
0.000115231392491283867
7.58921014746294646e-05
6.51806875901285747e-05
7.15241898828866647e-05
7.43154589163970262e-05
8.00840615805692581e-05
8.46916410206011486e-05
9.72650879803020239e-05
0.000118901700109527839
5.00654382177361082e-05
1.61357357409751704e-05
1.13696247320713768e-05