/*--------------------------------*- C++ -*----------------------------------*\
| =========                 |                                                 |
| \\      /  F ield         | OpenFOAM: The Open Source CFD Toolbox           |
|  \\    /   O peration     | Version:  2206                                  |
|   \\  /    A nd           | Website:  www.openfoam.com                      |
|    \\/     M anipulation  |                                                 |
\*---------------------------------------------------------------------------*/
FoamFile
{
    version     2.0;
    format      ascii;
    arch        "LSB;label=32;scalar=64";
    class       volScalarField;
    location    "0.149999999999999994";
    object      alpha.water;
}
// * * * * * * * * * * * * * * * * * * * * * * * * * * * * * * * * * * * * * //

dimensions      [0 0 0 0 0 0 0];

internalField   nonuniform List<scalar> 
7236
(
-0.000230505455623016274
-9.15137321602532586e-05
0.000482183091519658566
0.000581289083536258772
0.000597555119966961109
0.00115664998458942197
0.00466261761325694347
0.00694933897656621093
0.00967585096961566006
0.0121203401404866035
0.0152701166365912348
0.0179828805069988905
0.0180434077055965231
0.0163220831881472454
0.0130171462184250943
0.010228536786907428
0.0080394697860335599
0.00542907113933834094
0.00358439526298089291
0.00290442584163648487
0.00178174391237435285
0.000696885403668674069
0.000417591570085400579
0.000228478291354391436
0.000109007662186279627
4.44678158453582571e-05
1.38368622755256814e-05
3.51743718278592966e-06
7.50152559318749505e-07
1.34088511218560577e-07
1.99759385228029425e-08
2.45418926969396017e-09
2.44154380876757838e-10
2.09790349155334956e-11
2.72595320673745065e-12
1.92488891859822313e-13
5.70049983721738651e-15
1.53244752653354987e-16
-1.73059260791505135e-05
1.33879179851843234e-05
0.000232959874594045383
0.00028769770171001676
0.000256730663295526675
0.000327085930060027979
0.000371375503592977934
0.00045480029004557501
0.000572378161684478429
0.000659208791945545595
0.000723943159930076022
0.000769269063544304852
0.00079189007503038106
0.000777689609744697577
0.000750817443102794776
0.000829159503420788123
0.00104189818313539691
0.00127268687595134366
0.00131124703260582123
0.00120675145246307812
0.00107619696364462695
0.000819470675702830046
0.000621758015691854099
0.000379692583260555681
0.000160615738470624433
4.31685195197925326e-05
1.3567628987482274e-05
3.60830006554961719e-06
7.93095775654883207e-07
1.45051511978152238e-07
2.20547553244668091e-08
2.76579199454401308e-09
2.81246679581425912e-10
2.45928636078947195e-11
3.08529590953799209e-12
2.29966861094174979e-13
7.07400504074862195e-15
2.01914295874302802e-16
3.46519072164898816e-07
6.11784592620954668e-06
2.03237228775778262e-05
3.34280092290080395e-05
3.99623145067921521e-05
5.71306725744118036e-05
7.82602491204068522e-05
0.000112734397828744619
0.000155767195115695994
0.000201403531688404793
0.000241448444001823463
0.000268306044453859704
0.00028291131486740174
0.00028177362687625021
0.000279501585726794682
0.000268749490673682388
0.000247203574847710812
0.000330128272778457111
0.000368327623638294
0.000239324380924140552
0.000200014319694677808
0.000236991012755340764
0.000219496074698920837
0.000167127137578149435
0.00010732497774216641
4.69087035415790448e-05
1.3771692219649618e-05
3.13157476762447574e-06
5.11920699237432694e-07
9.46231477168208125e-08
1.45174413827799446e-08
1.8346921560917843e-09
1.87790989088961389e-10
1.70805460091423936e-11
2.97105510517066164e-12
2.03687101320413716e-13
6.17016152481896331e-15
1.36515876719801133e-16
2.6439978106882075e-07
6.31828587173993857e-06
1.58050178155563781e-05
3.15412616420250369e-05
3.03190864098819003e-05
2.14958163697405495e-05
2.37529905390376192e-05
3.28986845010284656e-05
4.48835678393607208e-05
6.21073605720949074e-05
7.89394608171908136e-05
8.88111682303906647e-05
9.2443469291675855e-05
9.69265824351879426e-05
0.000111217736009476878
0.000125354664909122545
0.000112691533084597253
0.000111841191715415287
8.72082861827091994e-05
8.63723751043624126e-05
8.4473468279935664e-05
7.88991426037983763e-05
6.65333326445373982e-05
4.67139437276017737e-05
2.91921824410943171e-05
1.98782771691726588e-05
8.05476065044493172e-06
1.98340970478457823e-06
2.91762024471522168e-07
5.29668230425773091e-08
8.20240845499433449e-09
1.04566535544517584e-09
1.15046840627857412e-10
1.54030807443831491e-11
2.17019900325832382e-12
1.22888893216326345e-13
3.8778142620569925e-15
8.0585063637460433e-17
2.63200504864124169e-07
4.1554683114682468e-06
1.52453236259825514e-05
2.30252719101372358e-05
2.22121436644539261e-05
1.47635073343209881e-05
1.68752592690181032e-05
1.67112208051698057e-05
1.86621513254020909e-05
2.47875447562928485e-05
2.94462465065609816e-05
3.69201784663492077e-05
4.13684445108624999e-05
4.50739286134451929e-05
4.92300981646572717e-05
4.97637877087069551e-05
5.29897645181838102e-05
4.20035052236030903e-05
3.88760342955955638e-05
3.90016655744300102e-05
3.85722783075061125e-05
3.64075594059275242e-05
3.09560445140073752e-05
2.21915540517340723e-05
1.28016927898893056e-05
6.12402427620502317e-06
2.45675114883725497e-06
7.89351123404464646e-07
1.5362963908794176e-07
2.71435830890528163e-08
4.23602392113561694e-09
5.44168281980839676e-10
6.32187171601508053e-11
1.23489323098725449e-11
1.34037842176437064e-12
6.90039321918590453e-14
2.25997513585943653e-15
4.38156843195038849e-17
2.4183002740305378e-07
3.44158216994850772e-06
1.09150162978282024e-05
1.60468511217305978e-05
1.87552839685186477e-05
1.37611854177652405e-05
1.13051867778385952e-05
1.168296848357584e-05
1.37549646714252748e-05
1.46446287843053822e-05
1.77235078308289933e-05
1.85844350689689498e-05
1.92584041233461129e-05
1.91350687574165209e-05
2.0041908445271604e-05
2.14432515551907517e-05
1.9856520916944997e-05
1.86835553499385556e-05
1.74059507844823481e-05
1.77424108227911578e-05
1.76352085572561374e-05
1.65789681205905907e-05
1.40315499460040886e-05
1.01082216547826602e-05
5.91152252897652189e-06
2.85847303941505838e-06
1.09457398957658936e-06
3.22489354763471781e-07
7.11968320589411565e-08
1.30551397963731753e-08
2.04863105527744137e-09
2.83030930896531239e-10
4.66086654690837011e-11
8.48916905678636395e-12
7.19688869131836738e-13
3.67719821968236425e-14
1.240661746053577e-15
2.23562608206213694e-17
2.70630964596061093e-07
3.49870626769969922e-06
1.52657510485934041e-05
1.28838629082663073e-05
1.36517474345608095e-05
1.05416954360917322e-05
7.8716912047759866e-06
7.6119374133013955e-06
8.06115942204421975e-06
8.7137592963908795e-06
8.81469452517587115e-06
8.79894971064004674e-06
8.49031116259962848e-06
8.34452642438194371e-06
8.74473244111902649e-06
8.46496146154523184e-06
8.28769076643831587e-06
7.92173025006550968e-06
7.48696325699899931e-06
7.78642056218021086e-06
7.81563385377057812e-06
7.30043960709819718e-06
6.21285428771922344e-06
4.45175384009311067e-06
2.62834361602782898e-06
1.27434647085050836e-06
5.02729936421757645e-07
1.42342250919900226e-07
3.20250053237606909e-08
5.9707301913545574e-09
9.68647346279413304e-10
1.44385987733713205e-10
3.35044258054874997e-11
4.77238780059920306e-12
3.53524010238506871e-13
1.8454498364053411e-14
6.37949160366700706e-16
1.10291508054002411e-17
2.92998474684708254e-07
3.69274409121378072e-06
1.0263301415184534e-05
1.32145041245125926e-05
1.03037084627195466e-05
7.65074542639796202e-06
5.60819541361951495e-06
5.14241963807892015e-06
5.03854042426592537e-06
4.85051364605451857e-06
4.53511463024659069e-06
4.25837856930973564e-06
3.93168530944189619e-06
3.7409155338894917e-06
3.74069591162763121e-06
3.6985288704300625e-06
3.5770963695882596e-06
3.38149501919506023e-06
3.15892337925957721e-06
3.2519504178923314e-06
3.3098055328671358e-06
3.14232243777400001e-06
2.64552004969744408e-06
1.90604291633971429e-06
1.13133719863598867e-06
5.42627076849352828e-07
2.11742924888670421e-07
6.29607955678543169e-08
1.40445846561925836e-08
2.66101264976818068e-09
4.5092353485180166e-10
9.97844301476949352e-11
2.08532093163754706e-11
2.27335834878028076e-12
1.65306927156725946e-13
8.78678315372317872e-15
3.10047680635941602e-16
5.44267301308164844e-18
3.68768168355159338e-07
3.06544351001225358e-06
5.08730653266078137e-06
1.11322194936999298e-05
7.89594084039990627e-06
5.19230819955203172e-06
3.91394028750550762e-06
3.5531608351569688e-06
3.21414939694068588e-06
2.76994267013718158e-06
2.40293369468367411e-06
2.11309072200027375e-06
1.89470389752626082e-06
1.73808324441083398e-06
1.68640486671648689e-06
1.64495637439446987e-06
1.57576234406039049e-06
1.47678252606294167e-06
1.36055078635335434e-06
1.36858939759180338e-06
1.38078653078880899e-06
1.30624125560047259e-06
1.10130792806298421e-06
7.96261035514780786e-07
4.73367225850410493e-07
2.26948117771897819e-07
8.78511302686902647e-08
2.62164300260055454e-08
5.97355573345345383e-09
1.17971353960444172e-09
2.53670339335891302e-10
6.46516055374786913e-11
1.02892392363457032e-11
1.01170441153239532e-12
7.39367823504554807e-14
3.99350270408431808e-15
1.43507689027089203e-16
2.57635846304044281e-18
4.26324578962700966e-07
1.89074022217350577e-06
5.20830030807746669e-06
8.79005850460611661e-06
6.12266020416864416e-06
3.67507508406604021e-06
2.84472607529210766e-06
2.4292049746506958e-06
2.02013463049045154e-06
1.62282894886177971e-06
1.30435592578862563e-06
1.08722922341795058e-06
9.37010277024256161e-07
8.31744081259791717e-07
7.86263507006077214e-07
7.46946311428794932e-07
7.01507811652594456e-07
6.47928498347154452e-07
5.89484334251064861e-07
5.78298714051380837e-07
5.74472930712498409e-07
5.37290408271670426e-07
5.0489443953706873e-07
5.15525400910063253e-06
5.52513348046139086e-06
6.78102841677676533e-06
4.23360095325304852e-06
2.5670310855071785e-06
2.04141226046975225e-06
1.66914301964735988e-06
1.28679503365625084e-06
9.75618065578023772e-07
7.43790668706228549e-07
5.87615814837489294e-07
4.82950558932084564e-07
4.12796024986775563e-07
3.75544919952725337e-07
3.43952397445840152e-07
3.14299430638629648e-07
2.84412279551572131e-07
2.54918676506485333e-07
2.44483055657578935e-07
2.38075833206967574e-07
2.18851849797237007e-07
3.21364126841454747e-06
9.48062592391349839e-06
5.5160895745578543e-06
4.06880522385463412e-06
3.07141627387252228e-06
1.90793357119332373e-06
1.47474188059620418e-06
1.20294700490239141e-06
8.93496703300171858e-07
6.33098418392115483e-07
4.47155357943703793e-07
3.29966543587862401e-07
2.58152455218615475e-07
2.10785754138573531e-07
1.82299163396228797e-07
1.59786156069873927e-07
1.41170443398847809e-07
1.24639808372884472e-07
1.09714505060584089e-07
1.0301393184413178e-07
9.79251072926982066e-08
8.80766961443848499e-08
3.60826285194514208e-06
1.36341378620066703e-05
4.59227418966851686e-06
2.18469455370495594e-06
2.09421781799241254e-06
1.4705072941833383e-06
1.19950121144815832e-06
9.26397920518402172e-07
6.48418881981697841e-07
4.33116428831110544e-07
2.82723016031893558e-07
1.9065962821618662e-07
1.40604566756897334e-07
1.09461829207784322e-07
8.93406285946253408e-08
7.45998079657139704e-08
6.33757376236922728e-08
5.43486255344199553e-08
4.68206284716475658e-08
4.29926914277302084e-08
3.98235475960227183e-08
3.49138419578984789e-08
3.09844383151088382e-07
1.98041493243174167e-07
1.20839165048622024e-07
7.56403538610477602e-08
5.71577062077217611e-08
4.40451679682945466e-08
3.49220053275184362e-08
2.84324896179233528e-08
2.35985041091531778e-08
1.98434597596394644e-08
7.88636184999745392e-08
4.54462188230286147e-08
2.88679896482138011e-08
2.18236565934277593e-08
1.6529120147060041e-08
1.29280162810402679e-08
1.03428318608141777e-08
8.54021086551780829e-09
1.54021260204973685e-08
1.0142470689405069e-08
6.89097513135891396e-09
4.63761264646463471e-09
2.38892583444154813e-06
9.81770556404788733e-06
3.94172879623329802e-05
0.000166321658618186392
0.00024778793126605447
0.000323495108301383844
0.000315581084555077566
0.000347730123062931298
0.000491008391254432741
0.000606875983677156324
0.000740242781595819429
0.000865637278196851562
0.00123657862309426293
0.00147849805917269752
0.00190241791520672702
0.00211764097060883729
0.00211610635445225789
0.00179159455535263072
0.00144141339546920676
0.00094074126473553117
0.000602358669099786856
0.000264678589536020983
0.000153022474215413763
7.74548719834925944e-05
3.38787889386366048e-05
1.26348147628378262e-05
3.9785569222887778e-06
1.0250114602920235e-06
2.03337286746307252e-07
3.38624901535332447e-08
4.71044866281168144e-09
5.41556134172499359e-10
5.40394735167115991e-11
6.69198017375529111e-12
7.20398097634007331e-13
3.42832874565623318e-14
9.40499734746311451e-16
1.91861239962248974e-17
8.1328992108684383e-07
3.43470541126858034e-06
9.56492339028691381e-05
0.00017528899912900805
0.000172875793767216033
0.000153639627040655385
0.000135510234327242135
0.000142870658295186692
0.000196623784688969988
0.000269511705824149943
0.000367209459353235964
0.000443848440640013406
0.000479710024631403416
0.000509511841393472291
0.000549364773032217659
0.00060391944574475834
0.000674642492172219249
0.000700802891442003266
0.00069360993737366543
0.000637659232769583178
0.000513012563057773882
0.000375092016073682471
0.000246989087394367272
0.000116394894482824748
3.45415254597257324e-05
1.15633189421248376e-05
3.89010483576102617e-06
1.06397345444137315e-06
2.17533207035805118e-07
3.69841159569612231e-08
5.24505175227899171e-09
6.15063492562429638e-10
6.21340887667615351e-11
7.27873399440215771e-12
8.32701844177312225e-13
4.1880916702144215e-14
1.17103424248231319e-15
2.55975163267947799e-17
2.47824320448421048e-07
3.83331775888191762e-06
2.05087186215078551e-05
2.65037502490908194e-05
2.71424533975854488e-05
2.50729783494089361e-05
3.38024856167005173e-05
4.51291820806302781e-05
5.97056103731268499e-05
7.80972560027203867e-05
9.26883538955678842e-05
0.000105005616876131192
0.000118576865572350405
0.000129884976626247326
0.000141774089602697008
0.000139694798912183039
0.00013989326241790526
0.000140026058011506966
0.000115232499600450335
0.000124668671721584368
0.00016108515694317156
0.00015110849967086659
0.000116134469531715547
7.50978934621348323e-05
3.69929675758965348e-05
1.19165137099285377e-05
3.41225351271996769e-06
7.1590525448000637e-07
1.39895349334172701e-07
2.40531243031622406e-08
3.44539102918678227e-09
4.07547461785970376e-10
4.3825880624715936e-11
7.43200206038725209e-12
7.37568310712444412e-13
3.43853226308144424e-14
1.02916452841378562e-15
1.7557618695447211e-17
1.03795202607469202e-07
1.74294536609088886e-06
9.26122591648019985e-06
1.45066389698165257e-05
1.57509831053344345e-05
1.6686941427014269e-05
1.65437613234030906e-05
1.75453337005743436e-05
2.25379976270288161e-05
2.95765162366380247e-05
3.62186291302696474e-05
4.18452906939885034e-05
4.29106016738236998e-05
4.44857340137056026e-05
4.61347956294162211e-05
4.49940458430902931e-05
4.18776912423703625e-05
4.09773771430087895e-05
4.25977237213751454e-05
4.44820979005598296e-05
4.29187954273857128e-05
3.70295389967466431e-05
2.63797242607847408e-05
1.70379842704254512e-05
1.32510258862368583e-05
6.64721230651270484e-06
2.0415361961742447e-06
4.01379962883774834e-07
7.72836469654352811e-08
1.34323317056566769e-08
1.94360656344254626e-09
2.40460519258472446e-10
2.93418351340514603e-11
5.47820613634273609e-12
4.61442781511114213e-13
2.11400961941676804e-14
6.48900554902258706e-16
1.04568597125589321e-17
6.07536981685637575e-08
1.15711355677488347e-06
6.34983811921690445e-06
9.21003145376557842e-06
9.00959619088004187e-06
9.13293253888395969e-06
9.25764135569719481e-06
9.64928611072508635e-06
1.11027143854888477e-05
1.42852700594770017e-05
1.60784692445085392e-05
1.64570399534177191e-05
1.63133482053647066e-05
1.72583204098607763e-05
1.82573667460790876e-05
1.86163650533247265e-05
1.69384262244454196e-05
1.69317941870699196e-05
1.76757402629864137e-05
1.8386795168799119e-05
1.80502150760496874e-05
1.60720500857328105e-05
1.18932883871277118e-05
7.52803302154135908e-06
3.98791860801453098e-06
1.8252171961698314e-06
7.5843726842730959e-07
1.95973296525469031e-07
3.91199407024849513e-08
6.86055260999898143e-09
1.00145044908886265e-09
1.33048832128966136e-10
2.47722008503046265e-11
3.6220970160054654e-12
2.53684034589250423e-13
1.20462283184444535e-14
3.79033556764717707e-16
5.93636334735994651e-18
4.99103724435145586e-08
9.63719912726518795e-07
4.26677694283479667e-06
5.81003807997660953e-06
5.45173219664309721e-06
5.19014437773508655e-06
4.85011700639675999e-06
4.82021003422879186e-06
5.43202566746405619e-06
6.11587566963892194e-06
6.57400449579128545e-06
6.41310229225080043e-06
6.19950997444391946e-06
6.4868364533369771e-06
6.98527809386887274e-06
7.10044212131686278e-06
7.39760506121433973e-06
7.20331544380327727e-06
7.24679464709763619e-06
7.53541979917507094e-06
7.53834972212165177e-06
6.73745791143475806e-06
5.14754458965743745e-06
3.3438060406954246e-06
1.80163962011513378e-06
7.91900974984686631e-07
2.98505226833245459e-07
8.9114983237233764e-08
1.89883600702269822e-08
3.28345192949061513e-09
5.09001186574677682e-10
8.29779460195600014e-11
1.75483299700028563e-11
1.9900013565861972e-12
1.32680829340010048e-13
6.45753531455012807e-15
2.08263752729167121e-16
3.32608976051705234e-18
5.55518993973202171e-08
1.06402635906495992e-06
3.07315224987954585e-06
3.58641540094522783e-06
3.58764050216761504e-06
2.95566438516212826e-06
2.56401329768135901e-06
2.45729050612582191e-06
2.58820556213236807e-06
2.76259539365812696e-06
2.74998045858133521e-06
2.57772343519092112e-06
2.53927468126795499e-06
2.60092160829882897e-06
2.72448711343660914e-06
2.8906495393982403e-06
2.92536742885294056e-06
2.90569107152273568e-06
2.86943985244507785e-06
3.02849607046649898e-06
3.02945920623226745e-06
2.76011604739307107e-06
2.1620721419715079e-06
1.4338961631449609e-06
7.83150324818324121e-07
3.47213902252055634e-07
1.2790872849719442e-07
3.8386318073414244e-08
8.62774383724835719e-09
1.54884046822856917e-09
2.45894464603256263e-10
5.80513560312907401e-11
1.03586004665830537e-11
9.72683483732530619e-13
6.54673312640456086e-14
3.25172215271773105e-15
1.07209242494043012e-16
1.75979973142331233e-18
6.74385980730199808e-08
1.17220125346055444e-06
2.79127327114422852e-06
2.58666821104597921e-06
2.63000715273529651e-06
1.78765722590406135e-06
1.54024878680243183e-06
1.42206987455049867e-06
1.30510009922036033e-06
1.25422789684178364e-06
1.19063942919075846e-06
1.13920899066431294e-06
1.10999962708924465e-06
1.10272067202952637e-06
1.15043929882903187e-06
1.18229069256419616e-06
1.17600282627186722e-06
1.14864918917848078e-06
1.11773666028697763e-06
1.18572465879370864e-06
1.20147743856543044e-06
1.11327839427612191e-06
8.87387925647193732e-07
5.97473722277764726e-07
3.2955962700979696e-07
1.46907143533325053e-07
5.49281592336571569e-08
1.62336655070129854e-08
3.78983391431639157e-09
7.11612517596201501e-10
1.57134404856752359e-10
3.70035530280186728e-11
5.02415635801487787e-12
4.49537782475874754e-13
3.06872750605278312e-14
1.55181062562100546e-15
5.21979257422734737e-17
8.79080451708861729e-19
8.29977333694070005e-08
1.638510798687949e-06
2.92431067650896503e-06
2.34721225480971769e-06
1.94362726944220545e-06
1.28352312212240927e-06
1.00796988084691387e-06
7.93058396390190532e-07
7.0562825492764578e-07
6.40127830692412554e-07
5.80125538298584892e-07
5.38476206602140889e-07
5.05604610387941058e-07
4.84030357258723724e-07
4.92440405342233995e-07
4.98005383926653916e-07
4.89781854690641427e-07
4.7072680229298237e-07
4.47079801379380416e-07
4.6820806091247491e-07
4.75499859459485735e-07
4.43853421007700286e-07
3.57406919669917792e-07
2.42975271784944129e-07
1.34859450904698124e-07
6.0304424953104724e-08
2.22133586869570975e-08
6.67960812567539843e-09
1.63719028619805235e-09
3.61080058474148848e-10
9.74671475535242581e-11
1.87839577336972239e-11
2.23127777322377593e-12
1.985138934090572e-13
1.3746841148625595e-14
7.0654062964014781e-16
2.42044729181609229e-17
4.17139549636902375e-19
1.20358817777053438e-07
1.52294723873659097e-06
2.10116643455268719e-06
1.9552330376983069e-06
1.32718955281202802e-06
8.91943100035470934e-07
6.437866926673458e-07
4.98672565006955614e-07
4.20311827766741258e-07
3.55071437444841627e-07
3.00906801932429593e-07
2.63471256950895035e-07
2.37048678932107392e-07
2.19861131940170134e-07
2.16870739208009365e-07
2.14096871685742571e-07
2.06876243523680013e-07
1.95687176544811645e-07
1.82840748209810142e-07
1.8629839941943344e-07
1.87940967885871037e-07
1.7524071880960768e-07
1.41616246120302086e-07
1.37316495426448087e-07
1.31490306144380322e-06
1.49275844334192311e-06
1.49496996839291189e-06
9.17859933973366068e-07
6.16163352224090364e-07
4.21858775037904298e-07
3.24614566203970443e-07
2.60686127872690336e-07
2.05189088174413534e-07
1.62848076047176044e-07
1.3429188495130331e-07
1.15267812801014921e-07
1.02877926590727897e-07
9.79858884320799821e-08
9.35212791829137346e-08
8.82300054266452494e-08
8.18525394191498141e-08
7.51343422560904055e-08
7.45218046757529998e-08
7.41803760152874696e-08
6.85767766110499129e-08
4.62551533336318692e-07
1.43094363069078227e-06
1.27250020181566634e-06
1.01047736449195372e-06
6.11998487824674393e-07
3.99710040721742649e-07
2.82643951811293484e-07
2.19366815974992387e-07
1.64221552677262864e-07
1.21353421765680098e-07
9.168444038766281e-08
7.14613758719904464e-08
5.81200240036822124e-08
4.95565907062197152e-08
4.51001432477152911e-08
4.13462556661848522e-08
3.78635422007520631e-08
3.43230468190597277e-08
3.08989639508573448e-08
2.98502195649109817e-08
2.91396821983564677e-08
2.6553907380449703e-08
9.89911163553696317e-07
2.01205589446733948e-06
1.35028618204350835e-06
5.40287822714095801e-07
4.17246559860130001e-07
2.82531133772713492e-07
2.01089038235542936e-07
1.56827709308635443e-07
1.13935388336150053e-07
7.90080860781892766e-08
5.44174509914089534e-08
3.90743184825239239e-08
3.02120653792680915e-08
2.4485856106769812e-08
2.10747989497373236e-08
1.84789018813642293e-08
1.63582081890409225e-08
1.44555179256164972e-08
1.27542739070923087e-08
1.19490777060106897e-08
1.14062668943921195e-08
1.0188201906089012e-08
5.30386905867852934e-08
3.34372623073019066e-08
2.21668345736320094e-08
1.61303447631604231e-08
1.23550971550767722e-08
1.00549496069359477e-08
8.40830589392527639e-09
7.17163867943415694e-09
6.1654773328434106e-09
5.34568414819892482e-09
1.3232779709851062e-08
8.48138750794757887e-09
6.44220879909197185e-09
4.94655093254764003e-09
3.96582520681397667e-09
3.28524608644069782e-09
2.7724426109534992e-09
2.36838759112439668e-09
3.32403902092849722e-09
2.40392002465095265e-09
1.81524719869296886e-09
1.32126591242661426e-09
1.01497381958234627e-07
1.20476494834184966e-05
6.10550303751765942e-05
3.9738201520056479e-05
9.86441840018632653e-05
0.000151065524108108155
0.000212377079881655845
0.000267436139728950272
0.000319613238035434467
0.000374304073207633694
0.000424064505684293035
0.00046447910317933569
0.000488897703544053817
0.000491340164009288838
0.00047573733812638063
0.000448624484300159552
0.000412525629579748806
0.000332705790576265186
0.000255134811828809378
0.000185463898406721978
0.000126658183466244563
7.84705799441824523e-05
4.27717770442094818e-05
2.01932467781971149e-05
8.17073163306732668e-06
2.80891549007265338e-06
8.15800891295224799e-07
1.99798692530717833e-07
4.1242541071516259e-08
6.74209356541803381e-09
8.75906606900535243e-10
9.83719315740395397e-11
1.15244873599058853e-11
1.63077530018832572e-12
1.11449017075192304e-13
4.4831384763367248e-15
1.19228650259751103e-16
1.90041234761722651e-18
6.0210599030431654e-08
1.07702633050256374e-06
3.02130497070094065e-05
7.1326766183959459e-05
0.000109719737432220984
0.000138006644789411052
0.000158932096417510561
0.000173230800822692061
0.000195864742864419196
0.000221354684656690414
0.000254291065901149143
0.000287889593685456096
0.000326282568425386192
0.000364769300923534819
0.000382544157057496364
0.000382824601227954987
0.00037060048712515267
0.000337360721020918354
0.000292472804332297002
0.000227252845559032892
0.000158664488378429912
9.61965900014908042e-05
4.13324633363557092e-05
1.59538827763895564e-05
7.08899546163895906e-06
2.63540330387870437e-06
8.11704797440264148e-07
2.07176664975239803e-07
4.40813341144372052e-08
7.45586410251031987e-09
9.87301624584539432e-10
1.11926082134653897e-10
1.22789367146166226e-11
1.86011377736581006e-12
1.3455774510925252e-13
5.51046882562538762e-15
1.4983257500436609e-16
2.57373275875295045e-18
2.71455082142322569e-08
8.90405155495211822e-07
3.59944241010068692e-06
1.0154866587708466e-05
1.06815212742747199e-05
1.08895629250154126e-05
1.38513083141230689e-05
1.80506272317649519e-05
2.39418381757613616e-05
3.10046578639365812e-05
3.85640908798726026e-05
4.53960099399700002e-05
5.1992323388712259e-05
5.87992421613100989e-05
6.42777861893010605e-05
6.60716980952130771e-05
6.79323048833798944e-05
7.40512641549083959e-05
8.50954251329216348e-05
8.44841225957692699e-05
7.13454685939673148e-05
5.37247835467706818e-05
3.37906818226192448e-05
1.671506994512536e-05
5.77150526584914933e-06
1.91385363169591427e-06
5.2584144797525977e-07
1.29022593448775164e-07
2.78949086836046599e-08
4.84427108992885167e-09
6.4831292330937467e-10
7.92677776993893804e-11
1.34419270896053433e-11
1.71463683727015511e-12
1.06969487584388066e-13
4.63238405080708261e-15
1.33005498798305392e-16
1.9120601317324067e-18
1.70863351246962424e-08
4.53101705351161217e-07
1.65987851076358639e-06
2.87311255769986795e-06
3.37923521839979176e-06
3.52432566664085497e-06
3.89831056658864641e-06
4.89543312019001706e-06
6.72865650766243603e-06
9.01666373950438469e-06
1.08529082157618118e-05
1.21672124179295498e-05
1.30777793146984656e-05
1.40562349818874457e-05
1.49816732490008749e-05
1.64203577662800772e-05
1.7311398263292805e-05
1.81407091994424644e-05
1.86984109841830765e-05
1.74202924939587029e-05
1.47048261011057113e-05
1.13030769321069642e-05
8.08035712545585108e-06
6.09929628797464605e-06
3.12076683961880789e-06
1.14864647764771364e-06
2.87584760040517656e-07
6.91417430352441596e-08
1.51764648705029452e-08
2.70146029645027847e-09
3.78305210815602227e-10
4.60589503073439214e-11
9.85028242540284756e-12
1.09177765227657561e-12
6.4843740811574836e-14
2.8740730750556226e-15
8.42568109578482182e-17
1.20731351647050134e-18
1.29779715258746757e-08
3.37622804640156567e-07
1.15013265418341787e-06
1.76934833124164392e-06
2.00728542657009394e-06
2.14011542122844901e-06
2.21443099175039179e-06
2.33683810685912918e-06
2.77323514604608472e-06
3.48617592053943343e-06
4.21422256443862451e-06
4.86163691785146563e-06
5.22526930336783497e-06
5.59987641213461211e-06
6.05564542731193156e-06
6.299811604116276e-06
6.36493038231668288e-06
6.62729698217912154e-06
6.97786627232619935e-06
6.70112514912833709e-06
5.98208830180238975e-06
4.83089534553448895e-06
3.34914157947440197e-06
1.97212711272185357e-06
9.65692318369459894e-07
4.24173519158750888e-07
1.38644644696467905e-07
3.43259109544854527e-08
7.57579918622889201e-09
1.38593386144566668e-09
2.08076209874276861e-10
3.83173118615294121e-11
6.61508637096238458e-12
5.9499315745847753e-13
3.63967283867501191e-14
1.64951528967250508e-15
4.94397480290479063e-17
7.34165347816924374e-19
1.06680040089709222e-08
2.80724191935499078e-07
8.85658231328423519e-07
1.13933401989084244e-06
1.14388301582104945e-06
1.20894928761703019e-06
1.13743296838258451e-06
1.12590842625146371e-06
1.29075663873020744e-06
1.49277714011929994e-06
1.62227372898133225e-06
1.71203642639033362e-06
1.86035001415199175e-06
2.02978543355631517e-06
2.22774277789401779e-06
2.36803847348374744e-06
2.43475340783109225e-06
2.44622083793603543e-06
2.52309597910452678e-06
2.52948141672095762e-06
2.36279361425633078e-06
1.989250004002232e-06
1.42299473356190136e-06
8.60718812684363578e-07
4.29836110985065873e-07
1.74907347265818745e-07
6.0009218159946755e-08
1.61753968408417069e-08
3.63431703961573817e-09
7.03005996127314909e-10
1.18305644685098147e-10
2.69160557510055175e-11
3.74974066945881211e-12
3.07381951562596041e-13
1.92159745866215735e-14
8.89693467205257933e-16
2.7310041667086734e-17
4.18421396189499019e-19
1.16767321678485285e-08
2.69954367048475395e-07
6.81282985781220974e-07
7.84859639133245604e-07
7.14421632918821641e-07
6.53602011715912848e-07
5.37894733964996603e-07
5.35797325806109772e-07
6.22094731955228479e-07
6.74116478019474121e-07
6.85714440739707126e-07
6.56274319554154243e-07
6.80348627890106766e-07
7.33062109293545199e-07
8.0656786150421968e-07
8.64218642878729863e-07
8.95992399493898068e-07
9.0746058010606053e-07
9.18387149276308965e-07
9.48884097352332827e-07
9.16971251155415163e-07
7.976801960934892e-07
5.8586796957061585e-07
3.6234560078271878e-07
1.83860223723329021e-07
7.56494092501261221e-08
2.54364187426206528e-08
7.14445867006356762e-09
1.67448360117241757e-09
3.33751392346149327e-10
7.89719979375463673e-11
1.60898184780091204e-11
1.82949043095282058e-12
1.4980635465334039e-13
9.5414901295400605e-15
4.50430439156949403e-16
1.41327021042066621e-17
2.22549572470399446e-19
1.42264907920817561e-08
2.8544353768709477e-07
5.07356313543161073e-07
5.52632798018990033e-07
4.98011928697791039e-07
3.64498896365497662e-07
2.8871656683640294e-07
3.02721203567994695e-07
3.02524598385437302e-07
2.99281292824501757e-07
2.9131858927585741e-07
2.73740761395618566e-07
2.73032777954388992e-07
2.85216401604821788e-07
3.09322797327694602e-07
3.28407218813430125e-07
3.3685807847239798e-07
3.39061799914078869e-07
3.38876653776696664e-07
3.56235270806610166e-07
3.52227234046977714e-07
3.13844669775537284e-07
2.35329224465157746e-07
1.48108630942744204e-07
7.60731433200978121e-08
3.15522404210900756e-08
1.0737094239234054e-08
3.06959247215095661e-09
7.45838293080603216e-10
1.90564830856109208e-10
4.9250753669815711e-11
7.89975214035365453e-12
8.38206581546477774e-13
6.93921620431639415e-14
4.49435872844589132e-15
2.15998893980015729e-16
6.91542441797204962e-18
1.11457920922581999e-19
3.01390303577505649e-08
3.01497019694836511e-07
3.87808054379403644e-07
4.01782076355897994e-07
3.72871479679036133e-07
2.36032980908299516e-07
1.86005637528492719e-07
1.72853336513540188e-07
1.47415128233936565e-07
1.3122078576791628e-07