/*--------------------------------*- C++ -*----------------------------------*\
| =========                 |                                                 |
| \\      /  F ield         | OpenFOAM: The Open Source CFD Toolbox           |
|  \\    /   O peration     | Version:  2206                                  |
|   \\  /    A nd           | Website:  www.openfoam.com                      |
|    \\/     M anipulation  |                                                 |
\*---------------------------------------------------------------------------*/
FoamFile
{
    version     2.0;
    format      ascii;
    arch        "LSB;label=32;scalar=64";
    class       volVectorField;
    location    "0.149999999999999994";
    object      faceForces;
}
// * * * * * * * * * * * * * * * * * * * * * * * * * * * * * * * * * * * * * //

dimensions      [1 1 -2 0 0 0 0];

internalField   uniform (0 0 0);

boundaryField
{
    inlet
    {
        type            calculated;
        value           nonuniform List<vector> 0();
    }
    outlet
    {
        type            calculated;
        value           uniform (0 0 0);
    }
    top
    {
        type            calculated;
        value           nonuniform List<vector> 0();
    }
    bottom
    {
        type            calculated;
        value           uniform (0 0 0);
    }
    left
    {
        type            calculated;
        value           uniform (0 0 0);
    }
    symmetry
    {
        type            symmetryPlane;
    }
    interface
    {
        type            calculated;
        value           nonuniform List<vector> 
104
(
(0.000565374335071251342 5.0582264304317604e-09 -4.98802909164511176e-09)
(0.000537004442054903855 -6.38755739180107119e-09 -4.0698172325699577e-09)
(0.000561457523195877262 1.53995454462001341e-09 -1.15803321165362885e-08)
(0.000602017270894729005 4.82976809059482385e-09 -1.5413674669284847e-08)
(0.00065096920512793411 5.37932807196686237e-09 -1.7496820534230552e-08)
(0.000711097854967219145 5.40209065810692929e-09 -1.83178503362983157e-08)
(0.00077553467805256042 4.58278630961333189e-09 -1.85262388404418659e-08)
(0.000835911396847373702 3.54702928121581405e-09 -1.80698584312516448e-08)
(0.000893093938557941404 2.85140360712910761e-09 -1.77334524337489286e-08)
(0.000950393928909626959 2.43675191652673246e-09 -1.73661094450940323e-08)
(0.00100809123287621356 2.39469965721072397e-09 -1.66065263536109658e-08)
(0.00106610511441690013 2.54041455123481658e-09 -1.5727961500778092e-08)
(0.00112549752278083884 2.92200601355933433e-09 -1.47988725223289182e-08)
(0.000483136613923740733 -5.24290261397552019e-10 -1.24633128439636662e-08)
(0.000519622710679579279 1.97389556394790481e-09 -9.51071909140873976e-09)
(0.000557552194642082621 2.78572360903652559e-09 -7.86040352113890015e-09)
(0.000600638360828928386 2.99186998496557167e-09 -7.61277508713931961e-09)
(0.000646583024284850551 3.17468607146679057e-09 -8.13257559372416032e-09)
(0.000695230605948459835 3.18489055938021524e-09 -8.88497703430026247e-09)
(0.000745839101725950457 3.05108203333616739e-09 -9.44422399395233563e-09)
(0.000796900764056970379 2.96649032923907137e-09 -9.67543049010188618e-09)
(0.000848275714022342559 2.98944057201459324e-09 -9.5843434514575132e-09)
(0.000900728469572953383 3.15860434355612734e-09 -9.30142013242384545e-09)
(0.000954547231158578099 3.48826821274570784e-09 -8.88443807153565901e-09)
(0.00101022199408964302 4.09622832665204461e-09 -8.31609955054164047e-09)
(0.00106901737912734455 4.95876909041639043e-09 -7.60623831570179578e-09)
(0.000472636865304265326 -1.64551723491685729e-09 -4.31420903793219612e-09)
(0.000511434171620516148 1.04948190887238471e-09 -5.1872326746156858e-09)
(0.000551098138381753947 1.72850237210413426e-09 -5.6160937439470477e-09)
(0.000592273800168065852 2.17790755741755895e-09 -6.17668990327464433e-09)
(0.000635288708746054812 2.55591715439649258e-09 -6.51358645602542527e-09)
(0.000680081922477021985 2.82897307489803484e-09 -6.68868304813250685e-09)
(0.000726479917597620426 3.02089847660177705e-09 -6.72961585380131149e-09)
(0.000774260895614727594 3.22023829462898054e-09 -6.59465032831683654e-09)
(0.000823318897745310241 3.52605320752427517e-09 -6.34597643246454127e-09)
(0.000873794688894122848 3.95377673662783644e-09 -6.01976965479920976e-09)
(0.000926105301975675786 4.53751964851077769e-09 -5.57145402265928428e-09)
(0.000980848280966941863 5.41304989197087502e-09 -5.01423409739801945e-09)
(0.00103958222331655996 6.51319417755320754e-09 -4.38592046792761428e-09)
(0.000465269131506849715 -1.03230561286575111e-09 -3.58335887473295092e-09)
(0.000504686458548172265 8.79370981764075625e-10 -3.7191240540600439e-09)
(0.000545318757443997212 1.53539940771207131e-09 -3.73841166167144134e-09)
(0.00058700464653316665 1.94105400288653532e-09 -3.8087648305256619e-09)
(0.00062973724186399585 2.30760533328653802e-09 -3.89136488190662641e-09)
(0.000673575117927494851 2.66090140961101093e-09 -3.93612704282284626e-09)
(0.000718590640703589321 3.02665599284882253e-09 -3.91303119782803883e-09)
(0.000764861672605813311 3.44502596871364655e-09 -3.81405747748292404e-09)
(0.000812523688793011884 3.94995677704763068e-09 -3.63701036491300698e-09)
(0.000861810334233055367 4.58061848830194207e-09 -3.38476489582677797e-09)
(0.000913152927051247157 5.35944907921361901e-09 -3.0544030707308744e-09)
(0.000967220548119621603 6.4015252408734194e-09 -2.65869981027516588e-09)
(0.00102577265859900659 7.60810487259463583e-09 -2.21735449829609002e-09)
(0.000461179579289707278 -8.16473768876667135e-10 -2.45002568172352744e-09)
(0.00050038724364331866 7.29764569305896576e-10 -2.55982775368039822e-09)
(0.000540690837812988286 1.30234500309629917e-09 -2.55027417414340051e-09)
(0.000581938819279010896 1.75448196177416859e-09 -2.58473535331767469e-09)
(0.000624156277902294661 2.19584572640686538e-09 -2.60128179532964488e-09)
(0.000667409126549371018 2.65405467095123648e-09 -2.58166811458863421e-09)
(0.000711754501053606255 3.14226297486539288e-09 -2.52159944745076738e-09)
(0.00075729221852707156 3.68517475688972326e-09 -2.41681896491787562e-09)
(0.000804188313167770964 4.31103871819378674e-09 -2.27025203358887884e-09)
(0.000852715272883100106 5.05433131510903773e-09 -2.08096587990276073e-09)
(0.00090336908547461567 5.94659663674841013e-09 -1.85310133233705186e-09)
(0.000956804574017208341 7.10848001666142163e-09 -1.57839409662917431e-09)
(0.00101478014220187968 8.39638978680222055e-09 -1.26746719399916996e-09)
(0.000457909599117747109 -6.76643651119148876e-10 -1.64671310466121605e-09)
(0.000497082201036295286 6.96298383886201105e-10 -1.67427077580383581e-09)
(0.000537214562961214263 1.23269160664320527e-09 -1.64099641377741534e-09)
(0.000578224633041898319 1.70864660248277665e-09 -1.63665909158763493e-09)
(0.000620134149897060959 2.19147301094566064e-09 -1.62322269828317789e-09)
(0.000663011299268089285 2.70116481349250164e-09 -1.59149427218167113e-09)
(0.000706923091293968405 3.25426588968255855e-09 -1.53907799958692028e-09)
(0.000751979013364001262 3.86645334196508626e-09 -1.4627996411156491e-09)
(0.00079837214029636241 4.56286438614361369e-09 -1.36173166100982536e-09)
(0.000846391465933250689 5.38268005534743054e-09 -1.23426564193915634e-09)
(0.0008965324450077003 6.34851081848235556e-09 -1.07664796798870874e-09)
(0.000949438455629600712 7.57910570051524271e-09 -8.95512728664485679e-10)
(0.00100689045085736043 8.92681566773861635e-09 -6.97408872850321294e-10)
(0.000455663468296252339 -6.01068646042628939e-10 -9.50800913539170818e-10)
(0.000494782241100016613 6.9081945248086999e-10 -9.49056308035345264e-10)
(0.000534798504862323888 1.21782921027537579e-09 -9.24034499253575738e-10)
(0.000575647554066140718 1.70627010671512022e-09 -9.15840257120761546e-10)
(0.000617353403603419738 2.21220915029021166e-09 -9.01475090048953913e-10)
(0.000659987630043136378 2.75397636267643257e-09 -8.77110887465601443e-10)
(0.000703625281095768013 3.34012255147858062e-09 -8.42059562721026021e-10)
(0.000748388206994327065 3.99118746812979494e-09 -7.95628507059966065e-10)
(0.000794468031185603142 4.73252866276715264e-09 -7.34711848345760691e-10)
(0.000842149089634914336 5.59652370815372523e-09 -6.57440441379673106e-10)
(0.000891921793740953553 6.60609223779484023e-09 -5.67863664078499323e-10)
(0.000944434648421815662 7.87772819487667541e-09 -4.66088858524021286e-10)
(0.00100147300363426076 9.27301120286414098e-09 -3.52554869098679054e-10)
(0.00045449258858623853 -5.74696894991159004e-10 -3.10879484192995767e-10)
(0.000493586666788164465 6.8743270386496709e-10 -3.09192750159085073e-10)
(0.000533547786697744701 1.21516642900059425e-09 -3.0029455233957661e-10)
(0.00057431920006706784 1.7127900856117682e-09 -2.96400496623360318e-10)
(0.000615923965204136117 2.22820880843334843e-09 -2.89953255445129711e-10)
(0.000658439316432608227 2.78102879475597424e-09 -2.80895921216155992e-10)
(0.000701945629682986893 3.38396310358950986e-09 -2.69033243285075693e-10)
(0.000746563831326644027 4.05523926189917335e-09 -2.52641230774900386e-10)
(0.000792481876967978424 4.81679611541954551e-09 -2.31607101705320432e-10)
(0.000839985149561870716 5.70065352310453304e-09 -2.06111617695378555e-10)
(0.000889567315628419846 6.73194351276845888e-09 -1.76602348654052203e-10)
(0.000941883455189175978 8.02226835968818681e-09 -1.43419940274937076e-10)
(0.000998669780990192428 9.44089164184009256e-09 -1.08125467947628792e-10)
)
;
    }
    procBoundary3to0
    {
        type            processor;
        value           uniform (0 0 0);
    }
    procBoundary3to1
    {
        type            processor;
        value           uniform (0 0 0);
    }
    procBoundary3to2
    {
        type            processor;
        value           uniform (0 0 0);
    }
}


// ************************************************************************* //
