/*--------------------------------*- C++ -*----------------------------------*\
| =========                 |                                                 |
| \\      /  F ield         | OpenFOAM: The Open Source CFD Toolbox           |
|  \\    /   O peration     | Version:  2206                                  |
|   \\  /    A nd           | Website:  www.openfoam.com                      |
|    \\/     M anipulation  |                                                 |
\*---------------------------------------------------------------------------*/
FoamFile
{
    version     2.0;
    format      ascii;
    arch        "LSB;label=32;scalar=64";
    class       volScalarField;
    location    "0.149999999999999994";
    object      rAU;
}
// * * * * * * * * * * * * * * * * * * * * * * * * * * * * * * * * * * * * * //

dimensions      [-1 3 1 0 0 0 0];

internalField   nonuniform List<scalar> 
7236
(
0.00227911978610860792
0.00155046666949081534
0.00134655171090209075
0.00145918500927962784
0.00151356123566770374
0.00140810280358888667
0.00111712040648255496
0.000896783521199597325
0.000742510549598448069
0.000638735023051943251
0.000583144485111692853
0.000567919921155152652
0.000595983982269946279
0.000677711147776389111
0.000815214121748510231
0.000999166909801919899
0.00126596487967598511
0.00172756800088467912
0.00226393330965981784
0.00291585487524149414
0.00407822630610892196
0.00588862714297401675
0.00762797130884688545
0.00984217620597552592
0.0124024714887819333
0.014974559342383462
0.0172833545756318832
0.0191879986909035995
0.020737696801934536
0.0220420770399195401
0.0231697013742859573
0.0241553084285132634
0.0250232101307820212
0.025793151869983183
0.0264820271274405009
0.0271041956248287072
0.0276701461253493937
0.0281696966035654903
0.0159944060404423362
0.018122649185233812
0.0147641337160535919
0.0141546084261288067
0.0154141633110509105
0.0105848188691702039
0.0078623292157746355
0.00641040202228185165
0.00538206471587519743
0.00464797127822648513
0.00410418226662921919
0.00377005117423706137
0.0036586494444210897
0.00372824277688518519
0.00389476654028659067
0.00395451713571726062
0.00399773156427834109
0.00418176804312410996
0.00429101479946909
0.00457634232622408828
0.00505498233970520013
0.00580337770962200631
0.00690262757256983762
0.00858937654913117035
0.010837539992782445
0.0132947582541125889
0.0156340290546038117
0.0178230626286526618
0.0196829597757503978
0.0212052375447990028
0.0224670295613594584
0.0235379223575718881
0.024463955215018908
0.0252755234229244188
0.0259940971397538238
0.0266370857541422153
0.0272192737387667791
0.0277341971017630064
0.0164740564440115124
0.0186995284380126157
0.0184103655766353798
0.0190891019800057196
0.020253591278097411
0.01840789430343482
0.0164731459403936117
0.0136200955851160377
0.0112373993412262022
0.00969487070346844969
0.00873317742832621473
0.00825000525113995208
0.00815522947136411783
0.00841204807534130274
0.00876964188570377411
0.00922922443586506568
0.0097060575763415393
0.00961649039738526196
0.00940358166819366646
0.00949203523475455543
0.00937892062866068667
0.00920157475681327754
0.00949949540739198663
0.0102936249404181127
0.0115751935058253617
0.0133493182552319959
0.0153919636802322003
0.0174078589598890311
0.0192105412703974521
0.0207317197302958264
0.0220059702116176606
0.0230891247877292628
0.0240246764173216408
0.0248422104495434025
0.0255626978333405308
0.0262015509017749781
0.0267708461521870833
0.0272651336352915316
0.0140697929947883431
0.0171426284857729462
0.0182447989672107694
0.0185119539883095013
0.019904650516806878
0.0194099096305337428
0.0183892456387280204
0.0173399496203151399
0.0167111303853111973
0.0159587229401077016
0.0149977713348399076
0.0146071886680840431
0.0148990103556499928
0.01537824498608234
0.0155041376912529137
0.0154766186990341198
0.0151776947256235077
0.0146346973478109921
0.0140781762702895785
0.0132868266730870026
0.0126305651276025725
0.0121781353965826986
0.0120152254571852454
0.0122690887839676955
0.0129748002738802326
0.0140999834712959311
0.0156329010772318054
0.0173255322380608603
0.0189482746652420916
0.0203861545827432669
0.0216262782110125049
0.0226959383489389425
0.0236255815696763682
0.0244390680830137083
0.0251546171435648967
0.0257861153521385215
0.0263443512479105656
0.0268222397884750434
0.0128015373004655222
0.0158607465436842766
0.0179636292937100789
0.0182864772628664428
0.0191698618371223262
0.0190099556115515683
0.0183599778847652849
0.0177219307963317647
0.0173186702604324859
0.0172656157875713118
0.0178217953989666562
0.0188800351795927815
0.0201900913460671058
0.0207251961592013687
0.0204170859465234236
0.0195263150411960629
0.0185609702887661217
0.0177894769884944376
0.0168119702108802949
0.0157428053897538632
0.0148366582434152402
0.0141516601092316514
0.0137179968876317074
0.0136349174854024126
0.0140005165287439177
0.0148191646585135294
0.0160067752316646605
0.0174050447870632008
0.0188289508852876111
0.020152149215791719
0.0213307962170190477
0.0223672112479492147
0.0232771125939113775
0.0240768291646017776
0.0247805865365783792
0.0254000269273351835
0.0259443627636457459
0.0264056527719883846
0.0119714679360522942
0.0151876774029609651
0.0176510130853516807
0.0182482789014550423
0.0190239136574543374
0.0189350774142695195
0.0181936032113410723
0.0175959482804783837
0.0174439450529038642
0.0177616876829082768
0.0185863243725091325
0.0196876563843764243
0.0202176100743144682
0.0197651486799539124
0.0190901397979403586
0.018435436979593791
0.0178558714545040791
0.0172712954402512754
0.0166767390446326477
0.0161320163349471662
0.0157504728186086407
0.01528331877736799
0.0147910393396972692
0.0146010310075944776
0.0147974079839218453
0.0154085624911309126
0.0163717880099281468
0.0175539488919198017
0.0188028396608547477
0.0200062374191428347
0.0211096555245587174
0.0220991154605285657
0.0229781391844341501
0.0237556309670502279
0.0244413679355603639
0.025044225224432292
0.0255713965757687449
0.0260150721521493072
0.0117011446500959633
0.015031381762194887
0.0173834989531684928
0.0181992859859011619
0.018945540584017307
0.0185766507406977012
0.0179021417472111297
0.0175747011660849807
0.0176817535791961578
0.0182488086742050824
0.0191260775019028648
0.0197857426278500309
0.0194826443500501802
0.0189898840934530945
0.0184635496292318256
0.0179394340484271136
0.0174534086149148344
0.0170019428498329427
0.0165752642867371819
0.0162059718293110534
0.0159927426403093896
0.0157907758060143073
0.0154766743241446323
0.0152848534459908564
0.0154219429505926351
0.0159164268871636108
0.0167224294848860276
0.0177362350264744506
0.0188359022768915425
0.0199252065324568642
0.0209486046317553624
0.021883120617873085
0.0227234830384504503
0.0234722451825297371
0.024134903554429845
0.0247174382616331331
0.0252249105841695666
0.025649961663593443
0.0119386612325499894
0.0151145115761236112
0.0173344052558252505
0.0182293284737143312
0.0188539121081177617
0.0182359019028105404
0.0177433645101321875
0.0176536490780157158
0.0179577740460933298
0.018637057551309906
0.0194583650382879232
0.0193874297221850213
0.01897905378729162
0.0185864450424091006
0.0181610693042583496
0.017727542560888359
0.0173331335548164676
0.016983668672919186
0.0166694571350945071
0.0164172590356228068
0.0162990712112065887
0.016197283163365557
0.0159696396062866744
0.0158124614437418556
0.0159353331888170066
0.0163601817419818489
0.0170528056987873065
0.0179334453463337769
0.0189064115951416908
0.0198909850053106338
0.0208347937639336948
0.0217106854687134608
0.0225075654314705713
0.0232229998903936974
0.0238587464990657368
0.0244180612236621214
0.0249039446644324369
0.0253095676143286243
0.0122721111636066756
0.0152496437022109493
0.0173124885076515883
0.0183328919990606957
0.0187199424926274352
0.0179968730408469231
0.0176754222535075688
0.0177539236334266388
0.0182094575847357616
0.0189762766084479451
0.0193131631241080758
0.0190023829226142922
0.0186819474907513675
0.0183550825367063825
0.0180028259239501526
0.0176529541548448229
0.0173395843238580323
0.0170676565951332071
0.0168350794912490859
0.0166686635172751743
0.0166235127555076669
0.0165603456907954805
0.0163689758323888289
0.016253351350131881
0.0163771557305439214
0.0167552995473629514
0.017361668437714417
0.0181350566966849945
0.0190002261792034215
0.0198902512570146989
0.020757660677188941
0.021574106537739425
0.0223249704463496859
0.0230041547321941688
0.0236103408984247448
0.0241443666639283398
0.0246073416165558841
0.0249929857654374102
0.0124915959800067124
0.0153274513149051061
0.0171090780637655204
0.0183792636633274969
0.0183648784871652364
0.0177804094766368555
0.0176355302924471984
0.0178618655783521416
0.0184126917403197934
0.0190570740956856298
0.0189511517732733822
0.0187311726639570429
0.0184875615509727358
0.0182175324323053042
0.0179275386792518282
0.0176471726738266464
0.0174006689497977277
0.017191555066397475
0.0170244062036063286
0.0169252646848123099
0.0169370197719504421
0.016890328197123803
0.0126260147963705108
0.0152148723136339478
0.0168519471042293985
0.0183382373425284573
0.0179630404497525369
0.0175221226961108818
0.0175446938047871502
0.0179057171726211585
0.0185595057494709857
0.0188809805279048677
0.018707940123475271
0.0185455738829490673
0.0183531066174302468
0.0181324861456083827
0.0178990811507216858
0.0176777253965940441
0.0174865483760890429
0.0173309945613366705
0.0172192163584421673
0.0171747604540440774
0.0172313018550891289
0.0171932689250883924
0.0126133049821278067
0.0150089908822269302
0.0166471124114216835
0.0182798340816502994
0.017567263829789858
0.0172788990986368803
0.0174449910718500883
0.017925592239755879
0.0186715863352518059
0.0186656457562827845
0.018533450357812252
0.018408937136842534
0.0182589419967363088
0.0180842512067299899
0.0179009612721209334
0.0177298268796891312
0.0175863063593321017
0.0174775083207550988
0.0174132210746929007
0.0174138309620777559
0.0175057656821535762
0.0174732348304139015
0.0124830421815849638
0.0148406157260038037
0.0165015810651581198
0.0179575372885093579
0.0171410286085886508
0.0170039060561098035
0.0173144071836265623
0.0179242268130479325
0.018624822185085068
0.0185091465679113817
0.0184140714305667391
0.0183179939101017625
0.0182016932174449038
0.0180662017496824555
0.0179257004647208167
0.0177980157394333968
0.017696241543904704
0.017628249589477632
0.0176044626060031656
0.0176421268027005737
0.0177424670283876373
0.0177137994362911756
0.0184068155545006398
0.0183374477230802968
0.0182624732325749502
0.0181742920498105948
0.0180729984785091211
0.0179698562791210416
0.0178800962146202225
0.0178148101611257971
0.0177819525464505308
0.0177923334277318435
0.0182353208426917004
0.0181731452767164223
0.0181008594834725055
0.0180303283226641714
0.0179737907894428374
0.0179401492907555887
0.0179371868645691324
0.0179761363323256394
0.018166440045104093
0.0181252696584570938
0.0180970197142193735
0.0180898211783353177
0.0196596292324656072
0.0224174259845831732
0.0139556929134776932
0.00913427922590636342
0.00658813804767455907
0.00501903505197502132
0.00405263432995394898
0.00347759739271473727
0.00305584537311980649
0.0028224901096141463
0.00273362051299275198
0.00270044285495842995
0.00261471445704754106
0.00259016168190171663
0.00259321878537935573
0.00270421878271904495
0.00297947671270936245
0.00351317053064120668
0.00430308645719222269
0.00550102721105428898
0.00696217031750696966
0.00901672189277191206
0.0112385068704323621
0.0136339939698213331
0.0158671871066998205
0.0177593054065202267
0.0193297275625943822
0.0206664056815235204
0.0218462353628329081
0.022901063889458468
0.0238422450898900865
0.0246817769883501993
0.0254336849312127855
0.0261109058469501595
0.026724333900492666
0.0272832200011877343
0.0277941943353191452
0.0282439081858319001
0.0180072447177427181
0.018856437899204985
0.0195083339421862449
0.0194120993485056709
0.0188998448428583377
0.0188698776475633052
0.0194843605631730803
0.0179224129062589797
0.0150220455566425666
0.0127793106133955326
0.0109476231909097759
0.00961796351448984503
0.00871995941724948778
0.00821027097627161258
0.00776477987707311842
0.00724028973943757672
0.00684465173789054662
0.00665996880839036468
0.00667054171279174435
0.00694953888371311907
0.00754247626179820573
0.0085421185406455262
0.0100173474776230984
0.0119562046718619027
0.0140711113059296122
0.0160519187882216356
0.0179000502394999796
0.0195424665040425417
0.0209512188120416394
0.0221553901375508323
0.0231953278208071947
0.0241030018963328367
0.0249031984891479041
0.025615319707117723
0.0262539553040641513
0.0268309314499241489
0.0273565429879082424
0.0278205389814727942
0.0172416320022257263
0.0178726493549895803
0.018495621713991741
0.0196421078094296299
0.0209837210312885068
0.0207041810869100021
0.0205173619572603695
0.0198311656164148198
0.0191830292046903002
0.0188822892912080126
0.0185607939963060992
0.0178130947526996229
0.0167488451882137346
0.0161992247278486441
0.0157352329370016863
0.0150696588429695029
0.0143064157085991302
0.0134540729219017208
0.0127497516933310056
0.0120407911635220244
0.0114539647880727569
0.0113706110363889432
0.0118484077287595562
0.0127954951007731871
0.014174375454844193
0.0158209191944462084
0.017499135022423673
0.0190789484275153583
0.0204792656255251837
0.0216918470908764559
0.0227424254969300459
0.0236605974789604913
0.0244696999639841227
0.0251875895295995099
0.0258280671014461845
0.0264013187899024768
0.0269152994711248858
0.0273612138865729042
0.0162766135901098487
0.0172594972525825681
0.0181892541735369194
0.0193130621569200661
0.020585218593102951
0.0206868533135618066
0.0205065538315626697
0.0201123806065963903
0.019812294384109301
0.0197841252779547491
0.0197778881955859194
0.0199768680451116766
0.0198984293083696341
0.0196355374161672029
0.0192945175783052862
0.0189086473628252462
0.018495317963874193
0.017705977314578316
0.0165629239610669311
0.0155016399220487856
0.0146566980259669171
0.0140725802611454485
0.0139147109126216157
0.0142232940487625296
0.014956559151928811
0.0160915134456614296
0.017451926722582025
0.0188467541720714372
0.0201529853438877013
0.0213228012159207767
0.0223552385111965013
0.0232660311047017156
0.0240718888516929484
0.0247871711230916343
0.0254236676903507666
0.0259904946121365353
0.0264947035941011273
0.0269262008774504118
0.0156520608531234562
0.0167345278823295245
0.0177655464012598831
0.0189038395498557187
0.0200249081415593416
0.0206354559159871512
0.0205588227434784013
0.0202495234458913015
0.0200372197734821691
0.0199254205542849228
0.0196940878160940802
0.0194438767171637231
0.0192069613519615587
0.0188743578884998167
0.0184789930632484091
0.0180796436415771311
0.0177004968887224112
0.0172531252156110058
0.0167291992855882476
0.0162906960920546351
0.0160173432610120105
0.0156161345949126611
0.0152016259514377271
0.0152061330081300627
0.0156509252359662808
0.0164745635891085755
0.017560546864829836
0.0187604702680140289
0.0199451710951236531
0.0210452433403656505
0.0220388723162521401
0.022927274616195821
0.0237189525425691994
0.0244236682779998063
0.025050478157101163
0.0256069301251008359
0.0260989656605324048
0.0265159766106161446
0.0152001310528338106
0.0163538291351742228
0.0174162546959775906
0.0186064825202506105
0.0197149612593478067
0.020526863655525935
0.0203873578375146254
0.020166349239321299
0.0199702100358210878
0.019684355459843348
0.0194147697848025859
0.0191318843819880645
0.0188680158238045924
0.0185698733733554722
0.0182275542840157033
0.0178844156996871839
0.0175467734705369756
0.0171947135714151725
0.0168131767312026878
0.0164978551079592722
0.0163530626792415777
0.016251338405452561
0.016016619024135207
0.0159177168061814256
0.0161981899655002197
0.0168317423617838149
0.0177278484456097583
0.0187634816597880179
0.0198268557761707882
0.0208459209911145901
0.0217875311184931864
0.0226420162183681856
0.0234103421889856368
0.024097461051229143
0.0247093484265846174
0.0252515794173362521
0.0257286067192717578
0.026130304623375792
0.0149508294840103098
0.0160923875980772541
0.017191149122099434
0.0184659512754003913
0.0196265309523644786
0.0202746642837141437
0.0201126829926165131
0.0199186271996761692
0.0196848647898630984
0.019454903186164222
0.0192228186534045414
0.018965254159636076
0.0187186248647823947
0.0184599145756413167
0.0181694824845192067
0.0178662408305054927
0.0175728858288943419
0.0172812838834867435
0.0169961894949724954
0.0167818519516001498
0.0167146311685274912
0.016708606128618686
0.0165552619404527104
0.0164445409890514316
0.016650996179231263
0.0171646745887958085
0.0179201168449410198
0.0188203990615421445
0.0197720513417989109
0.0207080637652187552
0.021590871005207745
0.0224038654320115084
0.0231420404941714945
0.0238059748998311754
0.0243985991663522028
0.0249233874859728644
0.0253832009411450836
0.0257687144461615954
0.0148642153545625356
0.0159243518848814179
0.0170775924808580712
0.0183877510672111229
0.0196177246626050746
0.0199531694040230335
0.0198099197714261682
0.019647975211524029
0.0194583200551607313
0.0192803155216459306
0.0190960547646653565
0.0188753799494212303
0.0186559222917154557
0.0184289864704963516
0.0181784422988790981
0.0179160018982136744
0.0176634629103875652
0.0174257947644437562
0.017213838541182646
0.0170735364034180978
0.0170619490523482437
0.0170862723242203238
0.0169631989500309173
0.0168675589305812557
0.0170387933239884992
0.017472632264647299
0.0181212137823100611
0.0189096163995060608
0.0197614511236528616
0.0206171864067173916
0.021438905805684725
0.0222061547064842831
0.0229096023412903201
0.0235462117803286949
0.0241161876056037137
0.024620994649581087
0.0250619365107098112
0.0254305469393818623
0.0148139672262407734
0.015799748846801024
0.016971173318021008
0.0183039244439361717
0.0196295293955883986
0.019629149144598141
0.0195348880517703279
0.0194307282461852991
0.019295389092753381
0.0191546632968948964
0.0190038021483213415
0.0188238533057492503
0.0186325576742501983
0.0184306347893627431
0.0182110876624526283
0.0179853442464034119
0.0177730685647900788
0.0175832991012073968
0.017429073439165433
0.0173454532774996763
0.0173766474703172975
0.0174129712432532745
0.0173051176826126522
0.0172294831493155255
0.01738131538434751
0.0177575720540184036
0.0183223508067930849
0.0190176250480328796
0.0197813594384802331
0.0205618340693404754
0.0213229533919724636
0.0220425931293509458
0.0227085663859604124
0.0233150519666072975
0.0238599549624450603
0.02434292375930458
0.0247638111737509548
0.025114995232126857
0.0147233080648867358
0.0156807239764777395
0.0168676637013809895
0.0182157168650077979
0.0194182835125258253
0.0193339442999398876
0.0193028186000307501
0.0192470982081316029
0.0191541453085407737
0.0190437909005569048
0.0189228380215144473
0.018779153019257519
0.018617122701274854
0.0184398864867487272
0.0182491838287244558
0.0180587157678397565
0.0178850795910664544
0.0177380347888721965
0.0176313830764422176
0.017593505939141444
0.0176593056136436638
0.0177026636551279662
0.0176058026395612653
0.014570641393790695
0.0155542818767059245
0.0167187704118067458
0.0181254384780059064
0.019044489252098392
0.0190576219943928739
0.0190934577584430769
0.0190850617256022106
0.0190288366027857106
0.0189479969382199756
0.0188528903902736196
0.0187380953196066048
0.0186027035634104103
0.0184507985453075951
0.0182894334577600147
0.0181328589417701601
0.0179953681339155742
0.0178867868444092006
0.0178207669690440516
0.0178208573417359926
0.0179149165848517082
0.0179632629085920946
0.0142765091721652557
0.0153507218556974828
0.0165416363501909823
0.0180658546356906383
0.0187171429054051701
0.0188245908122242345
0.0189166284913780958
0.0189484836223083979
0.0189233839908817571
0.0188671797116211903
0.0187937759431791862
0.018702465159874504
0.0185913812414880732
0.0184652659930067409
0.0183330792656276331
0.018208615455029737
0.0181045097471447224
0.0180304878411743433
0.0179995809716075698
0.0180314560930409928
0.018148355563443689
0.0182000709155692234
0.0137756570251892276
0.0150509773947550118
0.0163617215296059174
0.0180705154520654741
0.0184326144884813421
0.0186218891768704271
0.0187662247984263092
0.0188330460380135151
0.0188354015313817007
0.0188014665988895796
0.01874760405986595
0.0186762997600837428
0.0185877194145062027
0.0184866500797979567
0.0183822924724323759
0.0182877142992465859
0.0182140394079135445
0.0181706981818619794
0.0181699917793248372
0.01822831107739286
0.0183632512092766105
0.0184168636145430192
0.0187531760501980539
0.0187168310997988425
0.0186624090362826206
0.018594647872498038
0.0185174586685639235
0.0184389700261429063
0.0183716683080500584
0.0183252304142913734
0.0183085971796711211
0.0183335606546136017
0.018662199402908735
0.0186146799796277525
0.0185584823636902561
0.0185032930272269192
0.0184605888213919163
0.0184381525109109344
0.0184444084569247817
0.018490972804547319
0.0186310579310497854
0.0185967443346285594
0.0185750429006430219
0.0185727319418514669
0.0215857496582960579
0.0202475950949554083
0.0201878314198659439
0.0195379713326813802
0.0181276227746463708
0.0177369500885941854
0.0146908606443008974
0.0115720609214189068
0.0095899586693964263
0.0081931764211335481
0.00721769854897926898
0.00659332439307928897
0.00632159181237336356
0.00631506610233111779
0.00651322220258868274
0.00689939555827568263
0.00748243722153619454
0.00836030813757664658
0.00948005078682959655
0.0108431711352012794
0.0124096018993859279
0.0141470086992577845
0.0159556049664604897
0.0176021453282485391
0.0189724976533746162
0.020108739721486777
0.0211098851593417847
0.0220430730581711171
0.0229310732834212029
0.0237620639245068807
0.0245266088545245849
0.0252256763417083307
0.0258650317836951506
0.026451286244238259
0.0269903662217179791
0.0274873566863914412
0.027945555557524572
0.0283489734831872779
0.0203657088365383418
0.0193517865563080371
0.0188940312613039563
0.0193219173715625109
0.0183722958198111637
0.0174496777110525539
0.0169334361531852488
0.0167800662861118249
0.0167883083494609342
0.0162945851575621373
0.0149017397525849655
0.0133023831431303956
0.0120585268073117261
0.0111962644513612045
0.0106634619659393085
0.0103444929875261462
0.010174584538425728
0.0102005177187969621
0.0105004194015234052
0.0111029833560385375
0.0119670220654186973
0.0130597097013007042
0.0144480128882249221
0.0159181227396108654
0.0173442712325378549
0.0187085505335488934
0.0199710659336313143
0.0211179183586180583
0.0221541587225018086
0.0230873411113280344
0.0239256065987208943
0.024679218273396572
0.0253588090159908228
0.0259745703364610663
0.0265351627350051376
0.0270477987398156927
0.0275190117820532133
0.0279352800009703625
0.0197449488134856556
0.0188529904366691071
0.0187351221887002845
0.0191815866581182236
0.0200578729367746102
0.019696041229624487
0.0192995720603529562
0.0190160408460807312
0.01877868655985164
0.0185683935814486244
0.0184847123390308073
0.0185126484414360262
0.0185284763157788045
0.0185131274584345515
0.0183113372893140593
0.0176493944172588443
0.0167058305325763073
0.0157347792853459942
0.0149426670151014632
0.0145034179139450856
0.0143602991145026955
0.0144892080287026687
0.0150448631063613818
0.0159512898601448794
0.0170849830924775029
0.0182903310116797439
0.019494285887911942
0.0206359636594917774
0.0216828648889799587
0.0226279631595488126
0.0234772514575819456
0.0242408931680425793
0.0249289524917493538
0.0255503674214092383
0.0261129241278281361
0.0266224656088968753
0.0270834763599405795
0.0274839876346633163
0.0190303039136067165
0.0184455407126882832
0.018505931876132125
0.0189547494278986713
0.0195922070245550216
0.0198204513589246324
0.0194817797337192983
0.0192437280176126178
0.0189971961752597902
0.0187357548029500644
0.018545127642569232
0.0184366736264532857
0.0183329244257062381
0.0181844560462477954
0.0180105463625976937
0.0177930208225794105
0.0175296420339526408
0.0171931748996140901
0.0168992740388578082
0.0167846242720478614
0.0165002823831742682
0.0161044811290838273
0.0161148378690945913
0.0165097493343208702
0.0172415554253609604
0.0181926986254892543
0.0192465403913979934
0.0203069300275047111
0.0213137975985481232
0.0222406512256608374
0.0230825661978872054
0.0238437080197761928
0.0245308491923259021
0.0251509851928628618
0.0257105420186439643
0.0262146163219491093
0.0266670805615657966
0.0270549883425599616
0.0183570672776464175
0.0180910885850682698
0.0182699662489096346
0.0187462244987699096
0.0193219670643214499
0.0198228114445078256
0.0195296057433128507
0.0192964754812837737
0.0190498276059867036
0.0188011729283135871
0.0185981749629560086
0.0184668939611018178
0.0183589567491637164
0.0182016949602441004
0.0180105440672193758
0.0178089685445698524
0.0175875891030586318
0.0173217071187253754
0.0170680424848227048
0.0169416615626150936
0.0169764232494813046
0.016952186306483135
0.0168644206084939338
0.0170211864540079118
0.0175068494915712192
0.0182466321547500934
0.0191432511499945619
0.0200985145971149769
0.0210400517173917889
0.0219282729070187192
0.0227475059078342152
0.0234947548920685957
0.024172439570362754
0.0247848841938990289
0.0253367470595603633
0.0258320757392095264
0.0262739941818293833
0.0266493489482897902
0.0178387307092770092
0.0177723636659523135
0.0180349588169610754
0.0185901479563176826
0.019233867939784606
0.0198147990968496682
0.0195522032793120845
0.0193285588344742562
0.0191056901466653863
0.0188972086016767939
0.018726827953816888
0.0185951381229369356
0.0184726974592053506
0.0183162835167629788
0.0181321013544690907
0.0179425173010553315
0.0177479291638561083
0.0175378719129967789
0.0173465298849637614
0.0172554251280626104
0.0173135803027660018
0.017415064088683832
0.0173871265034004664
0.0174290909157364914
0.0177708604933826848
0.0183636890904881681
0.0191286920981259788
0.0199797143082094293
0.0208463234833248766
0.0216836746286924349
0.0224688847245246882
0.0231928533749070111
0.0238536499176394204
0.0244526416356537768
0.0249924661871882628
0.025475824227181261
0.0259047654040082918
0.0262669153244767285
0.0174697160054936122
0.017482952248188962
0.0178342507510959938
0.0184812302371730429
0.0192276727464469888
0.0197371251986041517
0.0195196330428984259
0.0193310513256150923
0.0191521672194180474
0.0189951090817272426
0.0188576835981027965
0.0187299547674613723
0.0186022428474481201
0.0184547584994679201
0.0182870984708402434
0.0181145439872877588
0.0179433195271173074
0.0177728416176040765
0.0176312121365140712
0.0175779702229331876
0.0176599567085142482
0.0177900007541293669
0.017769942868718535
0.0177654305133573831
0.0180224252998268664
0.0185100103769759543
0.0191676998139507435
0.0199236506044099815
0.0207144721845426913
0.0214952537049917791
0.022239369850083842
0.0229333205846563859
0.0235714333367437086
0.0241522509435481668
0.0246763665328174203
0.0251450167928783178
0.0255590852647462237
0.0259072911530703054
0.0171794711886089357
0.017211956070308624
0.0176550088809124713
0.0183863110195337034
0.0192443747407488319
0.0195971140513513456
0.0194426631593045615
0.019308351349137283
0.0191805717380268449
0.0190661716605750632
0.0189544937126283446
0.0188354935900543127
0.0187112864001147475
0.0185746025501731804
0.0184240389347569734
0.0182697849534418644
0.0181208862162433315
0.0179839940014443547
0.0178831718026818895
0.0178629780979647178
0.0179633860874230562
0.0180979771195868173
0.0180776278206734482
0.0180545937211840785
0.018258482694750236
0.0186686175274268645
0.0192388177130770124
0.0199106805992560441
0.0206291891979270003
0.0213520607149316824
0.0220514497136411018
0.0227110618439375182
0.0233223122026955353
0.0238813135527453299
0.0243867864314562255
0.0248385370939015922
0.0252362935307665487
0.0255699159852978176
0.0168864098868278453
0.0169258210831430903
0.0174554674859800849
0.0182807003451740217
0.0192539984312743891
0.0194182667625941545
0.0193374051570071696
0.0192651919828750393
0.0191855589535660787
0.0191034146287423108
0.0190134423218567619
0.0189080773190560859
0.0187933595502861872
0.0186684154044932833
0.0185338801085758176
0.0183982854498706758
0.0182721388623972476
0.0181656122779902535
0.0180994621558376728
0.018107701236601912
0.0182235675417674672
0.018359472670029138
0.018340680721607501
0.0183108383456172669
0.0184790051354651423
0.0188301699430388492
0.0193285829181322234
0.0199270501332761141
0.0205786265442304828
0.0212448274202790173
0.0218982194602044926
0.0225210526164940986
0.0231026892083906026
0.0236372935764782438
0.0241219577194383764
0.0245551643933867823
0.0249355551916341858
0.0252540999224123187
0.0165163771356563495
0.0166120449206104588
0.017231415418780708
0.0181616880266404143
0.0192482635324073351
0.0192236094052027143
0.0192194655975293921
0.0192051087437931436
0.0191674606350718604
0.0191126788176260165
0.0190417307084508221
0.0189529813463189915
0.0188516663455906876
0.0187401803755670102
0.0186219227888290151
0.0185058385016886352
0.0184028764358821866
0.0183241872427337762
0.0182878754890299054
0.0183207536574580415
0.0184502390047874415
0.0185873217848475172
0.0185720160963506811
0.0160109666394478434
0.016243448568338311
0.0169795320361244527
0.0180437160939855498
0.0189607557390852922
0.0190251537062044417
0.0190972865832916422
0.0191350520683546861
0.0191332551395646429
0.019102773010714006
0.0190505117164463389
0.0189790159067673991
0.0188931938134292814
0.0187969397138425774
0.018695959262088821
0.0186000138886700112
0.0185199229102744056
0.018466712599170057
0.0184563291295572474
0.0185105153516631378
0.0186517388013485094
0.0187894145955479729
0.0153446918745008473
0.0157837922267224894
0.0166790956922060717
0.0179254930847337728
0.0186569320191651809
0.018833500568431305
0.0189769887024189773
0.0190618730899130145
0.0190924207776193705
0.0190846336778399683
0.0190501637139674392
0.0189953778791720138
0.0189255379981191109
0.0188455499441433187
0.018762461867863775
0.0186866426217417968
0.0186284172776862919
0.0185983031434772787
0.0186104769834364858
0.018682876389288984
0.0188337655456151248
0.0189709989644964404
0.0144746865506845453
0.0152396732865819062
0.0163815782189527734
0.0178303720675911416
0.0183704927310112155
0.0186568044299197204
0.0188670404662695732
0.0189944467771723906
0.0190535820489728391