/*--------------------------------*- C++ -*----------------------------------*\
| =========                 |                                                 |
| \\      /  F ield         | OpenFOAM: The Open Source CFD Toolbox           |
|  \\    /   O peration     | Version:  2206                                  |
|   \\  /    A nd           | Website:  www.openfoam.com                      |
|    \\/     M anipulation  |                                                 |
\*---------------------------------------------------------------------------*/
FoamFile
{
    version     2.0;
    format      ascii;
    arch        "LSB;label=32;scalar=64";
    class       surfaceVectorField;
    location    "0.149999999999999994";
    object      Uf;
}
// * * * * * * * * * * * * * * * * * * * * * * * * * * * * * * * * * * * * * //

dimensions      [0 1 -1 0 0 0 0];

internalField   nonuniform List<vector> 
20390
(
(0.755898070830605451 -0.0240471629715812048 0.22145395971565407)
(0.285158137126481748 -0.125396052019452586 0.052069436359727661)
(0.23679550815679154 -0.00210791517380364739 -0.339296950212152226)
(1.11385493377740064 -0.017822731501405481 0.165808924355685616)
(0.958757784042715389 -0.0235392419295256672 0.301694260744668374)
(0.512984679871353655 0.00520023944726828898 0.0722445908302203899)
(0.366637695482760151 -0.00963635518596975965 -0.0169682107869261745)
(1.27131277049576075 -0.0242523565519544224 0.196291606015365327)
(1.00366413968216794 -0.0191142756048250685 0.365448845030430458)
(0.637262565747704124 0.017941192800891733 0.134488999009383048)
(0.562439921636225248 -0.0144796239470511619 0.196637703761247395)
(1.31433681983896622 -0.0228762184685193139 0.27742539019962964)
(1.0148936798098056 -0.0146657276445386515 0.42980919974047932)
(0.61625189411831427 0.015928787282117992 0.173985161424185797)
(0.620473813300378096 -0.00846610892453593215 0.272584996923173672)
(1.35658681373703738 -0.0204127331558230408 0.315671470138217169)
(1.04407963320729391 -0.0105102326712266676 0.505254903804152278)
(0.60697858329014065 0.00830533319331972289 0.281523024549143575)
(0.677385281929531624 -0.00329372062169902904 0.348442994986421672)
(1.43268603076152812 -0.0202142194015175539 0.394239416406969523)
(1.11936407790426973 -0.0126314082746372888 0.564742239186572736)
(0.669977156366579285 -0.0253373654107035794 0.384770093422799331)
(0.745385314794258735 0.000356698083847106957 0.434775756711933303)
(1.5185335243923852 -0.0211653470981197911 0.459384902833724462)
(1.2611571869742042 -0.0231143631980773104 0.594562622233522076)
(0.747332193600157568 -0.0747466675396734476 0.434070649264905295)
(0.855719997588188397 -0.00463470561179877682 0.512885703948654292)
(1.61791962397962763 -0.027662923056460096 0.505186150076418206)
(1.4209033960579398 -0.0341949622153958979 0.606987553604604102)
(0.848788085688593652 -0.0960918808506708161 0.460593344721353048)
(0.996043667342612515 -0.0134424160673786812 0.557121665639890962)
(1.73102537537048962 -0.0353329558454717474 0.524684428560809879)
(1.56437443473978322 -0.0410672434269867478 0.618609731982687205)
(0.959820125795784795 -0.0976143565567648697 0.489838343153195188)
(1.13501677793052735 -0.0208869430163053302 0.591040354274144364)
(1.83395691566846364 -0.0402713370426613995 0.539282405141015331)
(1.67866774428532795 -0.0446952655594017867 0.628435406497082738)
(1.06588570722219456 -0.0912659748948836252 0.519038232581111814)
(1.25795057552494272 -0.025074711302564192 0.62360477790719604)
(1.92015412585679002 -0.0431351852841812683 0.555366536233115715)
(1.76441832037854707 -0.0471977204734190595 0.632915583375969537)
(1.16144398759587464 -0.0896322733502925295 0.543640190108602872)
(1.35962913108578731 -0.0272087785650948419 0.656082320146664899)
(1.98963775201347093 -0.0446606730289050846 0.562568282890941962)
(1.83060982719857801 -0.0485392977364770412 0.633815169146054069)
(1.24470337183361979 -0.0914032223815702954 0.564539498362282011)
(1.44671447774689277 -0.0287401789238742773 0.682552051905806589)
(2.04553055160668196 -0.0452571442174837801 0.56593714207063428)
(1.88293167081817825 -0.0481100601462190816 0.634596507909833796)
(1.31655927321206612 -0.0884536068374445067 0.5814016567481749)
(1.52772081600668397 -0.0300719274169795221 0.694646827690522106)
(2.08930973744773274 -0.044093569905344486 0.570061368117697698)
(1.92124987471787345 -0.0455090476513242137 0.636770284850627588)
(1.37820798428826219 -0.0784272570664782259 0.592592282792433256)
(1.59614828859473357 -0.0302550368478739264 0.695403194492183796)
(2.12242698966559518 -0.0418222681818102987 0.576866522131875392)
(1.94335831482875587 -0.039920224895099464 0.637661434232305813)
(1.43083780406442762 -0.0618049269784651176 0.601097692806958239)
(1.64910142053934483 -0.028526785366825614 0.686732980935246262)
(2.1446487390527702 -0.0385207414552649965 0.585231179746105279)
(1.94595718396299699 -0.0317609593166178344 0.634908285608974721)
(1.47502359132541949 -0.0431926765416727892 0.60659300859085874)
(1.67951127722841709 -0.0234195917632904343 0.673203584713083836)
(2.15083960912263406 -0.0324086112644564467 0.589416724024819372)
(1.93189535301052051 -0.0224954756260138666 0.629201570939401544)
(1.50265074305347346 -0.0255523815871141063 0.607241618520796167)
(1.67771595707713495 -0.0148176749278699973 0.655739236664379277)
(2.13602998724184534 -0.0246570865379396251 0.590572802349086046)
(1.88460621576594045 -0.00893829142885052899 0.618832725835253949)
(1.51605756157138583 0.000444031679331170423 0.603809722440006857)
(1.64436539213825839 -0.00313831329478137444 0.635799034386014039)
(2.10466496393630376 -0.0154950502851454661 0.589398560648696335)
(1.78116418999454162 0.0119380546776788783 0.602745020538880905)
(1.49579148925064187 0.0344584204685556908 0.594365923367420335)
(1.55865823436198947 0.0153497326488115215 0.614422692727982889)
(2.02654549855986454 0.000535321101510740196 0.579897726838182415)
(1.61212646901103862 0.0371233224462192701 0.581497672189221881)
(1.43260864136538935 0.0693928730708651825 0.580148888274363062)
(1.41329474286819901 0.0368206001535160005 0.593911705962110847)
(1.89357310497376918 0.0210262330697681236 0.563659548851955128)
(1.37168717331476553 0.0616723569678540584 0.553329725652345061)
(1.31692109694703285 0.106998392655678745 0.559953659078916033)
(1.2136625464295121 0.0575943285251018719 0.567473885073692341)
(1.69649257322341596 0.0440217478032831622 0.541031139879474487)
(1.08338069933330683 0.0745488919986876941 0.519193245079105803)
(1.14360513835696498 0.136438307940870696 0.533397035578981438)
(0.958733115663770064 0.0720504485484676493 0.530386785865193944)
(1.43794202832750551 0.064268889435901963 0.514957664301521678)
(0.804829026268897074 0.069667671608785009 0.480980888341464685)
(0.934901453810379923 0.136584193049190089 0.500974103339471788)
(0.706976714255072691 0.0689697602581886976 0.492098895215095034)
(1.15496961346115867 0.0704279498557722344 0.48671929671729125)
(0.573276797769516455 0.0547364554268438969 0.434285465082709266)
(0.710190051209671713 0.118565000614001811 0.461842162122223732)
(0.499231012545503838 0.0543468744425722738 0.448757917051347321)
(0.872429123879016499 0.0640091072200456024 0.45434105801576119)
(0.408371652654618889 0.039081964515415922 0.37374910444137821)
(0.513758554404823986 0.0925133976100231403 0.410756124287259328)
(0.358093710449804925 0.0384058670710968053 0.389869679568826177)
(0.627907963627826193 0.0518351676540506831 0.40999462340916476)
(0.304237694857371788 0.0266823030295305526 0.30332381302084177)
(0.372792398508340672 0.0671813090828771581 0.345381664288803014)
(0.273158066951546374 0.0263517280116616036 0.318876740525425084)
(0.443011207798683637 0.0391867826521783286 0.349106219250592542)
(0.242830442884764214 0.0180346526086781339 0.234292188071104635)
(0.283172583512004972 0.0457883829120886085 0.273252038528667196)
(0.224142966237109664 0.0180715197603398443 0.248665743081640994)
(0.322460880822064255 0.0267289791902367742 0.278837099531414612)
(0.203092919864204802 0.0129184651469383405 0.176452849047133292)
(0.228569378550360747 0.0313936185643410304 0.206730251586742214)
(0.193098610786053781 0.0130752974329760106 0.188940429036033114)
(0.253535950651400721 0.0173327226009212243 0.21199338973495227)
(0.171449547154819165 0.010061916592156361 0.133142263123979671)
(0.190255104001011754 0.0232478612804326405 0.154383510708450467)
(0.166913183101142809 0.0102475986317857974 0.143379596184108837)
(0.209024759382941017 0.0122207624118834297 0.158233350090560082)
(0.143822133458818752 0.0082090698869743909 0.102187159098905078)
(0.159180375226447512 0.0183599488110118142 0.116846268963553518)
(0.142634045018058819 0.00838802007820529591 0.110281316130542081)
(0.173350055528319447 0.00959934561364822816 0.119373591269342175)
(0.119592411967592502 0.0068517869674649028 0.0798864008698405015)
(0.132769801488013317 0.0150043254511949293 0.0902951869657116768)
(0.120581332446028269 0.00700818025066386133 0.086195891513105749)
(0.143082692578329118 0.00787157139465373065 0.0919763638680988621)
(0.098199871611744316 0.00585676686862777237 0.0635183758908043489)
(0.109825314459169765 0.0126183988535531148 0.0710912372027541484)
(0.100675205504822327 0.00598763786990294273 0.0683892033625154439)
(0.117182978149434208 0.00658150493654627734 0.0722368142428379961)
(0.0789938406546102506 0.00514355229711053932 0.0514544333488363564)
(0.0894509252697595347 0.0109232569879688032 0.0569895968360076277)
(0.0825368938754588305 0.00524623098029195021 0.0551339976701703816)
(0.094647551865283619 0.0056461943747584736 0.0577768458683096814)
(0.0614217322368827492 0.00464091065409634462 0.0426606848068527209)
(0.0709924693089582642 0.0097248840749035205 0.0466494926139375959)
(0.0657843048412820736 0.00471294814438654851 0.045329636241105406)
(0.0745963803599930531 0.00498941630390006136 0.0472080131321431853)
(0.0450332200061334398 0.00428527044091868425 0.0364339290522727316)
(0.053929299896573378 0.00888981937846272836 0.039200327103286782)
(0.0500848234693759622 0.00433643243971597401 0.0382287860666412765)
(0.0563230995677869786 0.00453588964336008264 0.0396202718706796728)
(0.0295006332381129478 0.00402802116495065091 0.0322955028427202792)
(0.0378667561896107382 0.00831013702662182323 0.0340547369457409807)
(0.0351557377184981285 0.00406205028563889122 0.0333096340223314955)
(0.0393029394421651329 0.00421244589529978699 0.0343972682194486207)
(0.014578842012828757 0.00387240249082808222 0.0299057683629302892)
(0.0224363127538584201 0.00791650250912202987 0.0308216873252170169)
(0.0207899403279966435 0.00386061691159361123 0.0302187109642934951)
(0.0231521372199175214 0.00398058069474716784 0.0311283693636031367)
(0.00740517003238789096 0.00770363400364152719 0.0291932366894546713)
(0.00685824854293711796 0.00377409629073652492 0.0286791023265385026)
(0.00762471403697452359 0.00387926398074689557 0.0295047236593773167)
(0.0367192366884282265 -0.0506344267281251675 -0.0971399325257060187)
(-0.072721051847267737 0.0278995741628341523 -0.259211466680073443)
(-0.0818408802209156794 -0.0199287084519163965 -0.368742387316836506)
(0.337825010922595814 -0.0633544630733272746 -0.0254384888201975856)
(0.192053671861159292 0.0122106393703833322 -0.09496067090506502)
(-0.0527571874103132665 -0.016268206449254162 -0.219899965545848564)
(-0.0616204014359824984 0.0151927802154023534 -0.18905180431887833)
(0.236880205905842967 -0.0309431298621801569 -0.0766497054343041329)
(0.249421954170104321 0.0212854468469582774 -0.0569746845968618285)
(0.0221638116263889462 -0.0122361020501239696 -0.164108366653031745)
(0.0108158169327592767 0.0145883619887126718 -0.0459573711095490056)
(0.281896224906212745 -0.0630653284663697383 -0.0489464960291090545)
(0.204732630677301158 0.013232292785637036 0.0256989862328494412)
(-0.000573423791878080458 -0.0161940648769660564 -0.0818101785146257837)
(0.0169235488978145276 0.021073371223950952 0.0417130596338044918)
(0.527269091859965733 -0.069715047991691162 -0.0672301572690202909)
(0.231590932462833937 -0.0268655446902454492 0.16103821416779085)
(0.0245766161781963942 -0.0311521235438512942 0.0734284797402994377)
(0.0276681634870627989 0.0106317618773246591 0.116815804068639686)
(0.62739857914743824 -0.0819090933496446766 0.0647585792595072041)
(0.297885571593475729 -0.0878741554964369287 0.254098503501131612)
(0.103352100033031136 -0.064443292130687016 0.176680393230176813)
(0.101752015700873055 -0.0257091923918754232 0.198574106130609912)
(0.694787852559753172 -0.106328659330361452 0.186657993059724192)
(0.336752648082561112 -0.130171319217794568 0.300101371752736212)
(0.157370418817707414 -0.0900019766903760871 0.225643055598915787)
(0.143419995212598628 -0.0660603204279862771 0.237625197348071832)
(0.712254131510461908 -0.132091111152995488 0.245981643825941704)
(0.386845013603797916 -0.141601032965709389 0.343444134269943802)
(0.217327169654572661 -0.110111820978032487 0.274748532772403353)
(0.183338717563257758 -0.0860248536585600382 0.274717461058630374)
(0.731355624231932899 -0.138602590972024736 0.296767450884858119)
(0.459308454214883088 -0.137043275865911029 0.390266843751620074)
(0.294515029141694584 -0.120286684901960594 0.331532048348885944)
(0.245698251086200692 -0.0877928189224020938 0.325163297754724689)
(0.786197663665191948 -0.135076416267116695 0.352282909558953361)
(0.548355876231072514 -0.130108331438580721 0.434243016192632114)
(0.376904259386481588 -0.123128604408522468 0.382522340484863943)
(0.32834406512066483 -0.081821713138275437 0.37741861086330819)
(0.86088305856128855 -0.132229654353025694 0.402740857324830726)
(0.641769210179266469 -0.125448001684464183 0.475264105094915235)
(0.46018597492082769 -0.121547655835523544 0.426048347762478796)
(0.421551422358001637 -0.0771859021017028968 0.417608668359314761)
(0.949708188566798173 -0.127250878955503965 0.447191161422826777)
(0.730379617195351938 -0.119805373913724172 0.512125985964403063)
(0.536277586285570762 -0.116033494226220071 0.460532694981705903)
(0.513518074060180685 -0.0750528024528261534 0.450542431418796796)
(1.03853955925734165 -0.120719975674489638 0.489891922249147294)
(0.812720504368152685 -0.108621413819639773 0.539397431630774249)
(0.602656721420107067 -0.105584285590702265 0.487171441688234563)
(0.596713280125419687 -0.0701233788491754245 0.478903148160789383)
(1.12122713404602914 -0.110994469755605563 0.526980486165232853)
(0.888618569568179417 -0.0908556991267397973 0.556919690748763907)
(0.658365580492086377 -0.0889532140447604619 0.500230937429648637)
(0.672228440805959893 -0.0582834588093511519 0.497688816595350136)
(1.19259137992622799 -0.0976909657425418937 0.552532417606469428)
(0.962701030983491135 -0.0676177517797667965 0.570029267165511166)
(0.708233018154191707 -0.0688291108320054912 0.507390435901857839)
(0.742750024849180179 -0.0407972801124844367 0.510445782458392117)
(1.25203865987528795 -0.082816606922969771 0.570477879986636349)
(1.03200414277956853 -0.0431316487162118969 0.578926341502680186)
(0.756505080611265868 -0.046743647775308983 0.515608623040558545)
(0.817523832024030672 -0.0180710658032824205 0.521791559764828716)
(1.3086562457017894 -0.0639847788682292584 0.583992685669218581)
(1.0863384524031916 -0.0158917772732880165 0.58184977002140148)
(0.796521754574080365 -0.0216778371827749672 0.519074774052090127)
(0.886166600755977085 0.00624256300669695334 0.529694270399811762)
(1.35499693140656641 -0.0437439135841998297 0.591779366111111593)
(1.12544675113069226 0.0200568567040344536 0.579342919972173354)
(0.828856910082389042 0.00864529990049799774 0.518282303988321424)
(0.938758622292230172 0.0374148725363239523 0.535284166556039609)
(1.3859706186364531 -0.0164620388081782483 0.590795507933546959)
(1.14584990756745908 0.0619030991732061261 0.571769791102902603)
(0.846806544838897834 0.0494730902837746053 0.514666248215160493)
(0.969796576331483196 0.0747985355269581986 0.53564038546654591)
(1.40043763937375099 0.0205172227401463139 0.586072279591380196)
(1.13518991550658188 0.105800323655894063 0.558604875164057213)
(0.847034537989719949 0.0986288658492545794 0.509233087361153913)
(0.971726470746320015 0.112369674450600657 0.52858460936874696)
(1.38614165517289201 0.0601601216439116571 0.576397015779648747)
(1.08737503854348105 0.148250000302463825 0.540020969005552409)
(0.830586357609734094 0.151189579090691834 0.499100714290235448)
(0.936641950183703553 0.147545630931824989 0.51794650894609362)
(1.3392862860037027 0.103194982319974995 0.558517566060093285)
(0.991325210425817893 0.175481291758587621 0.515177893839347534)
(0.799292819022732859 0.198788720099232818 0.484152322473177021)
(0.855838613026489337 0.173182383254331912 0.503515096192915124)
(1.25131071952884421 0.144195449080117832 0.532174218894517326)
(0.838456737041899824 0.177409696440964965 0.481835377120230723)
(0.729927576140248169 0.221948074626028891 0.461761076869269371)
(0.730401065653099035 0.174142170325278761 0.481220031065023202)
(1.10725489891136286 0.168613814618207403 0.499088190619136451)
(0.654557857795681208 0.157375703239670178 0.438312821326773683)
(0.614453074108054942 0.216649753089804969 0.43052805160397728)
(0.577472546058562464 0.15390884024781834 0.447557250205692481)
(0.909848214083979867 0.171805175506236474 0.459832825832274417)
(0.483820655352862616 0.125161128567701535 0.38238868413468452)
(0.480447284276396991 0.186284461121070583 0.388026688328952485)
(0.432923928453094853 0.122414494321303247 0.396969345496485215)
(0.694460632665159228 0.154883457744411035 0.413777115343878843)
(0.355774840588692964 0.0912920032413504362 0.31530988979662844)
(0.365501333337798051 0.1441489374377668 0.332043440918898314)
(0.324841025932262162 0.0902715291551814542 0.331096974438672365)
(0.506633425689184902 0.124971499932793551 0.356992793197729419)
(0.271147173655125584 0.0631789927357323672 0.245690102044303887)
(0.28332616015416423 0.102812490677990642 0.266993838342116541)
(0.253224844337515631 0.0635305790871380921 0.260689964207541425)
(0.369234954756855138 0.0899540362383291631 0.290119204208899972)
(0.216256533391091604 0.0441146997873468893 0.18466091324805961)
(0.228244034420823361 0.0712481106882894288 0.204242007791732877)
(0.206711590666035727 0.0449288348754390485 0.197653524856249485)
(0.278759621696153204 0.0603877617695985497 0.222476665036367677)
(0.177745826773118176 0.0326186929644829426 0.138087516548023953)
(0.1891651023796041 0.0508632443007161622 0.15335258636363433)
(0.173536471076980003 0.0334279208849445203 0.148633874761940787)
(0.220086580151492489 0.0414498881915854323 0.165355321691969259)
(0.14767155339937324 0.0255818702274109959 0.104954296830360116)
(0.158306400382137336 0.0384803822274726801 0.116238432415416412)
(0.146689210346120508 0.0262670399505747741 0.113243774771223674)
(0.1787397696186451 0.0307480069852473469 0.123414501967758883)
(0.122505542863065128 0.0209518659321608555 0.0815000232986253931)
(0.132318386502666141 0.0307071739420155775 0.0898603437327407245)
(0.123570283928784483 0.0215009465280871157 0.0879342208430631128)
(0.14660662276836306 0.0243133288290814202 0.094181507112313545)
(0.100632013381113897 0.0177758967374162906 0.0645624581479571774)
(0.10970912005469316 0.0255693172356242157 0.0708023727650477497)
(0.103125992405831007 0.0182022661825247366 0.0695128758707209277)
(0.11997608595040854 0.020048448728761277 0.0735472060478804118)
(0.0810875203450545645 0.0155646228225114758 0.052184656101108777)
(0.0895521248668779274 0.0220571345701006949 0.0568141082510885617)
(0.0846519720469829512 0.0158837056253576317 0.0559213812040609548)
(0.0970087050322767513 0.0171190957070305738 0.0586469302839117898)
(0.0632246566318225706 0.0140230569919181682 0.0431891349103718861)
(0.071205414648354462 0.0196156382026586827 0.0465449877532260886)
(0.0676268270168454977 0.014244007120269955 0.0459027590054556303)
(0.0766156371074421527 0.0150949390110617886 0.0478219189367458594)
(0.0465684312929417477 0.0129653606306526416 0.0368211349967550797)
(0.0541864357378166253 0.0179247618656756119 0.0391344312684527643)
(0.0516736157531027668 0.0130942433110835914 0.0386508718445995048)
(0.058044563893309413 0.0137053319574901734 0.0400638393032124382)
(0.030699072637090985 0.0122693251278478584 0.0325809214282376733)
(0.0381257112783671276 0.0167958552157387205 0.0340070906785433988)
(0.0365030115136099065 0.0123123456007283704 0.033621307443152143)
(0.0407534632401191158 0.012776083826478813 0.0347198409367690669)
(0.0152515765822660732 0.0118454952719966086 0.0301091556517413712)
(0.0226533992343864385 0.0161007285045630597 0.0307813952063005145)
(0.0217520714675400947 0.0118143032235916035 0.0304497115647598751)
(0.02418360558560936 0.0121916493514765967 0.031364293226048362)
(0.00749560646838126534 0.0157449192387365024 0.0291413789680848925)
(0.00719413862530483318 0.0115273287816935154 0.0288358980561036864)
(0.00798409203926362006 0.0118626410300583483 0.0296610998828745719)
(-0.164142532044825457 0.0471706904500692401 -0.381971499700217043)
(-0.0961059705987774848 0.14719812414749936 -0.571499776591231301)
(-0.108019761132079409 0.0944370202474452136 -0.37286912293921215)
(-0.0683998766912707334 0.100366402818243702 -0.298426364500139762)
(-0.210312590535780358 8.46783497414314856e-05 -0.289047661293815539)
(-0.23786202599119366 0.0314032697104468378 -0.33767845968319482)
(-0.218801455387680921 0.0328274183366395605 -0.273026800331423902)
(-0.146713573207759074 0.00592060295049665671 -0.223855088669127539)
(-0.232115695068619454 -0.0209735951170986652 -0.188943860570796152)
(-0.255090241894470993 -0.0159686295981419646 -0.235998049232451657)
(-0.257626724354785008 0.0076540418226304658 -0.193689076144281797)
(-0.105757010293721643 -0.110429544062090462 -0.222954213832798565)
(-0.194487715989997534 -0.0429654496572056815 -0.0340806850071764741)
(-0.248435277172454921 -0.0450194309368437684 -0.102498748797960088)
(-0.266091158186558263 -0.0103880145659531395 -0.0798524152547378241)
(0.0666146523327628692 -0.129139829929009908 -0.099886052396062408)
(-0.106157362381142956 -0.0621158522362102172 0.089070658802685429)
(-0.1852321916312345 -0.0547691338649390347 0.0328667716314920144)
(-0.218922550707884078 -0.0232971337385414132 0.0256676511088460846)
(0.109329859751157998 -0.118199929942430851 0.0667657085353507568)
(-0.0334730156279389734 -0.0803003697146363188 0.148224945327960322)
(-0.127382916022043879 -0.0696733760672887531 0.0945899162873284904)
(-0.162227330008101911 -0.0327134129231006973 0.0896897417509937428)
(0.13634255097448264 -0.115082528791464397 0.151914645913820701)
(0.0402629390944797272 -0.0997027005921075765 0.200290216618583122)
(-0.0781983345179598083 -0.0914997808236738541 0.138255930983576608)
(-0.10811452708277737 -0.0439278789795375588 0.133563334118977639)
(0.222142920576796937 -0.127491851888795721 0.204300245210659148)
(0.123364145174956752 -0.116441714368577517 0.262836446851345273)
(-0.0174765635271694614 -0.110871369681700374 0.191885725030890686)
(-0.0454024379645446632 -0.057991260029911236 0.179725323174807328)
(0.342104816571484893 -0.142601500076601467 0.261306474632439611)
(0.209102292191157196 -0.125525245567377736 0.32378754508213009)
(0.0530732257751022479 -0.118114219767233866 0.250465902181347788)
(0.0241831413448254026 -0.0689115213074468352 0.23560421155898853)
(0.44885910095612408 -0.155221155832413249 0.325687498676535403)
(0.28796624644399943 -0.128083888654064171 0.374327672054710625)
(0.125852201326778101 -0.118334999296297635 0.304604203988490474)
(0.0940817403919118334 -0.0739055828994960307 0.290464285133592348)
(0.529586015558652368 -0.162523903745844162 0.37891530954856989)
(0.355256954030905403 -0.124882114578888592 0.411316937649269354)
(0.195242016709008148 -0.111615648044130239 0.348646504350515696)
(0.159637777060971653 -0.0737308775429268981 0.334267583527384893)
(0.594275477588206869 -0.161894582690259969 0.421422883170471274)
(0.408806069247502846 -0.114196638895674302 0.435578150705537737)
(0.248066013931598744 -0.0978492393088682966 0.372738776871050392)
(0.216677543863533301 -0.0678605911472028311 0.361672914991492844)
(0.648644806621265335 -0.154544275585424273 0.4515879089061417)
(0.449132207173114528 -0.0955120566956104422 0.448004947487108951)
(0.284824405983077122 -0.0777074982452930219 0.383060825868774268)
(0.264265742879191967 -0.0552542781134218244 0.379894774535014634)
(0.694712439659710634 -0.140378605478247043 0.475969985712530408)
(0.478190464324355025 -0.0719364373003724411 0.450701682582742569)
(0.311798075244746897 -0.0540246635895501245 0.387857544581951041)
(0.299621626620335202 -0.0368607914576649098 0.384759070644592027)
(0.729533617945787305 -0.117603625079565038 0.483671096082750329)
(0.501886607517243122 -0.047717888671785981 0.452969791776905162)
(0.334362368869332127 -0.0307154234508563613 0.392695841233972165)
(0.326182192863322618 -0.0181129498648340478 0.386300586766779863)
(0.756241203640826143 -0.0940746546315162219 0.486222598645061899)
(0.522888795716061727 -0.0220847173819199716 0.455757055589968429)
(0.354113592820080703 -0.00628950457326801337 0.399935884672634301)
(0.348912599739916673 0.00211711814086284339 0.391109449264106956)
(0.775537483032239794 -0.0683508612722481812 0.493020892465224736)
(0.538209590313034503 0.00884793221447433345 0.455507308019010071)
(0.365400315552561139 0.0210535800900019145 0.401072440441962885)
(0.368337487673100483 0.0283850195643740692 0.394192841614165568)
(0.788284000212201574 -0.0409350254917841064 0.49497712311691755)
(0.547369379906001985 0.0476539221744295277 0.453605632231308509)
(0.374791564178412251 0.0517782106909871406 0.398300997199835971)
(0.391404863078418819 0.0625711758954226316 0.39755626735934696)
(0.799054304521238157 -0.00627736378349891353 0.49298076777655675)
(0.546825919742484845 0.0949819949033016142 0.452129544473411915)
(0.375650343360501515 0.0943046564413357741 0.396676712923080987)
(0.406654408492687469 0.103374543629107668 0.40114340940372728)
(0.799535538852959249 0.0372202753503531186 0.490262732077305752)
(0.539986942468204445 0.146883413698942478 0.449728926487332092)
(0.372904684320424673 0.143767789509654992 0.398289419456733795)
(0.414737338482852824 0.147820189353023296 0.40426522217752564)
(0.781927806917652624 0.0887976040000645617 0.487705321061426833)
(0.537959860584503513 0.196239531891321428 0.443232067757859949)
(0.372437130121804683 0.18860691116314604 0.398335297299922231)
(0.422445054393077002 0.190171018702119499 0.406345413488236107)
(0.753193002623432029 0.145187125416307156 0.47915420330709857)
(0.534544441713742935 0.232555429831920207 0.430735505503098914)
(0.38372561744875644 0.228943216577078223 0.393429278563736495)
(0.431570300528217377 0.224717233183805765 0.405756020255302774)
(0.722953140603878608 0.198499420468508603 0.462649906165225611)
(0.504244094649999974 0.245357490730748778 0.410453751353015928)
(0.387757099191955334 0.256842705879149202 0.382603206649463234)
(0.419942198851129489 0.235093877533985113 0.398655643147600824)
(0.674348668468464085 0.236611437950813602 0.438145629459335051)
(0.443269069182576358 0.230824031394373963 0.380241918606156026)
(0.369451314575955536 0.260275329123186183 0.363937700709475009)
(0.380075195311522229 0.221873823514656038 0.380532388083179907)
(0.59711322878926798 0.249876162369643467 0.406813091109178571)
(0.367476901221554519 0.194172986023897404 0.337681445113165668)
(0.329709546140396714 0.235036551694165569 0.334157932132571833)
(0.323267273107987863 0.188635344912396807 0.346259291451915974)
(0.497852948180982691 0.233988692468128395 0.367980122990845759)
(0.297981075911717797 0.148414878621325158 0.283727389464386748)
(0.283189451407421244 0.190691087610069643 0.291568503103405818)
(0.268528394707507334 0.146639730271173996 0.296462483482537675)
(0.397838649299733116 0.194940165547938332 0.320060691590371038)
(0.243467694312551358 0.106514796692015815 0.225545744089545475)
(0.241741474453002869 0.142434252272022777 0.239752729131133602)
(0.225345326713351723 0.107169436663020839 0.238833034326959265)
(0.315092339951102862 0.145829175422864388 0.263569490052633637)
(0.202309580027740438 0.0755151640111104971 0.172933680907307596)
(0.207316562394889964 0.102266356335529218 0.188000582144633943)
(0.192317219293034358 0.0770109056028107919 0.184820594233116142)
(0.253188233371955396 0.10198462952663398 0.205701560693496238)
(0.169797487198072111 0.0554015641630231023 0.131503502231026276)
(0.177719070430208709 0.0743611431787966903 0.144387607416567781)
(0.165185401393371539 0.0568683776201132085 0.1413249291023701)
(0.20717483757376598 0.0711376162062299228 0.155811404669494946)
(0.142658091257447578 0.0428887218738397899 0.101144479317796576)
(0.151413934364921898 0.0566058594060551146 0.111257446196693005)
(0.141401493668089684 0.0440934685042231114 0.108977886073758232)
(0.171255129505422016 0.0521354906886479161 0.11809501003208249)
(0.119138503472589155 0.0349039466088783279 0.0791626931991630672)
(0.127871199240639694 0.0453373459822208336 0.0869130063228773092)
(0.120048958599274488 0.0358458280601994667 0.0853122142725557392)
(0.141796924990271939 0.0406559080052278227 0.0910589756100583098)
(0.0982606990688116438 0.0295803398757825443 0.0630540228681788217)
(0.106694731636930384 0.0378963606616246548 0.068941486804188129)
(0.100664071957752427 0.0302985606502966208 0.06781734785239317)
(0.11671508073861793 0.0333625059707693961 0.0715966078653262339)
(0.0793577323863596806 0.025920546556897902 0.051174439903205915)
(0.0874409973571921018 0.0328029811827091136 0.0555833078483651058)
(0.0828528232807151099 0.0264507335004334002 0.0547831415880673453)
(0.0947181377605831876 0.0284894655164780498 0.0573723531242682355)
(0.0619265021304681931 0.0233787729264505403 0.0424902841113071333)
(0.069693065604440177 0.0292522869729493484 0.0457001072211298751)
(0.0662713239432761864 0.0237430276024886387 0.0451162608979857049)
(0.0749508577601431386 0.0251496047232808335 0.0469589664476048399)