/*--------------------------------*- C++ -*----------------------------------*\
| =========                 |                                                 |
| \\      /  F ield         | OpenFOAM: The Open Source CFD Toolbox           |
|  \\    /   O peration     | Version:  2206                                  |
|   \\  /    A nd           | Website:  www.openfoam.com                      |
|    \\/     M anipulation  |                                                 |
\*---------------------------------------------------------------------------*/
FoamFile
{
    version     2.0;
    format      ascii;
    arch        "LSB;label=32;scalar=64";
    class       volVectorField;
    location    "0.239999999999999991";
    object      faceTraction;
}
// * * * * * * * * * * * * * * * * * * * * * * * * * * * * * * * * * * * * * //

dimensions      [1 -1 -2 0 0 0 0];

internalField   uniform (0 0 0);

boundaryField
{
    inlet
    {
        type            calculated;
        value           nonuniform List<vector> 0();
    }
    outlet
    {
        type            calculated;
        value           uniform (0 0 0);
    }
    top
    {
        type            calculated;
        value           nonuniform List<vector> 0();
    }
    bottom
    {
        type            calculated;
        value           uniform (0 0 0);
    }
    left
    {
        type            calculated;
        value           uniform (0 0 0);
    }
    symmetry
    {
        type            symmetryPlane;
    }
    interface
    {
        type            calculated;
        value           nonuniform List<vector> 
104
(
(-8.65074850506702653 0.00577944657097963395 -0.00310748971353061107)
(1.81925543658178923 -0.000135765529651018314 -5.34200344395672125e-05)
(1.44609972800028808 -3.66791684383012425e-05 -7.18996867033606219e-05)
(1.36837933440166659 -1.17525931133690199e-05 -6.39301917049576329e-05)
(1.40963976158438498 5.26836241580713003e-06 -5.7579591581642084e-05)
(1.44373491699184808 6.06071914949467757e-06 -5.45274487180219015e-05)
(1.51823137606612746 7.17124893827406038e-06 -5.34731161366003716e-05)
(1.62150932794254921 8.59591282810494197e-06 -5.42015612837779513e-05)
(1.73978992695348134 8.67454151872787634e-06 -5.08762867401667317e-05)
(1.8538265271060963 9.1131677417893026e-06 -4.62833182081829857e-05)
(1.97316499149112401 1.09014207421371783e-05 -4.45042493180560612e-05)
(2.0906127392191971 1.19336337754164393e-05 -4.42203806605030646e-05)
(2.20740585765232167 1.26858533037349252e-05 -4.12280292672660389e-05)
(0.322613453055695387 1.93515858300235517e-05 1.38464399480149702e-05)
(1.02570158307208725 -4.92534283375616251e-05 7.19807651534936572e-06)
(1.10701666229125228 -2.87079766086002991e-05 -3.82154809658461831e-05)
(1.1479861191798153 -8.59279307729181672e-06 -2.74935448797943358e-05)
(1.22462624293280209 1.11537101604741102e-06 -2.47257956256814619e-05)
(1.30677750910488522 3.15290014927633087e-06 -2.44286161446574952e-05)
(1.40134404461284712 4.86140679729522713e-06 -2.41828624209022906e-05)
(1.50677851574530841 6.63483611879233869e-06 -2.44770115371738546e-05)
(1.61753368195078306 8.35987273775752771e-06 -2.45745761945918109e-05)
(1.73139220020902962 1.0019217632468633e-05 -2.41562442828787293e-05)
(1.84933182911250804 1.20346378242152259e-05 -2.33777903776079022e-05)
(1.97114752626196621 1.46834178324681977e-05 -2.230570787390658e-05)
(2.09860206089868129 1.75562334137180439e-05 -2.07077466314377638e-05)
(0.454310209481543714 1.49786949011259943e-06 -1.35770592278377804e-05)
(0.629474423678531791 7.52128321364586376e-06 -3.59533971209654991e-05)
(0.818478903365402188 7.48417712637340652e-06 -2.78427661341669737e-05)
(0.958887030425485842 5.3525840534985067e-06 -2.38263668317345664e-05)
(1.08050928035810467 5.14817577735789494e-06 -2.32622945111340863e-05)
(1.19590181807938634 5.92971253001161333e-06 -2.2238100049751659e-05)
(1.31031894089424883 7.17240195162060931e-06 -2.12022144266126332e-05)
(1.42599275595440833 8.63494516938847044e-06 -2.01088415511527972e-05)
(1.54385277752351113 1.03007155603067234e-05 -1.88991521892656824e-05)
(1.66393057254181609 1.22874528105666805e-05 -1.77277907325900946e-05)
(1.78672259094606711 1.46342728068667617e-05 -1.65875734188340718e-05)
(1.91275119244772251 1.7817046877557404e-05 -1.54009733358511181e-05)
(2.04557125567628262 2.09191335340424195e-05 -1.40101020032694375e-05)
(0.49347855424450987 -1.86743831600095077e-06 -9.00365883253367272e-06)
(0.626196237632953068 3.18761112149990676e-06 -1.12027679476537633e-05)
(0.763616397013256676 4.72630824931692979e-06 -1.30078656826521453e-05)
(0.896964160987851256 5.44614469616078948e-06 -1.32496126405318379e-05)
(1.02527534271055387 6.16866656642208411e-06 -1.30012389613638645e-05)
(1.14973414306574484 7.11771763393963097e-06 -1.25894784927494503e-05)
(1.27214701157995869 8.34661604082583214e-06 -1.21350865433422675e-05)
(1.39382613256064003 9.86228433407176627e-06 -1.16501457448998933e-05)
(1.51586641775442721 1.16873492094841157e-05 -1.1111300995630102e-05)
(1.63913895301669932 1.39109565193499261e-05 -1.04983153232304054e-05)
(1.76474778180845804 1.64832437946778909e-05 -9.79739156857908965e-06)
(1.89340162068457607 1.99841375596337757e-05 -9.00761014497406365e-06)
(2.02897950827025575 2.32830530518202209e-05 -8.11274335005493959e-06)
(0.490433884729620018 -2.17503202104400203e-06 -7.22831513374614756e-06)
(0.615797447630064942 2.21052072632207185e-06 -8.43780856595335545e-06)
(0.743290935669464026 3.92996406737908266e-06 -8.56745739222494161e-06)
(0.87046815703283309 5.12473140717873278e-06 -8.727200478534235e-06)
(0.996543468649328079 6.30162966164992824e-06 -8.76589914361796238e-06)
(1.12159760594793489 7.61437147915796728e-06 -8.62583903159885683e-06)
(1.24599065658609254 9.1021547827339307e-06 -8.36040029417373158e-06)
(1.37019184825285634 1.08086171332484046e-05 -8.00394493276505337e-06)
(1.49478793870515969 1.27872242019006478e-05 -7.58673996517007972e-06)
(1.62039834550393214 1.51473714771226722e-05 -7.11850723560833715e-06)
(1.74807714996228825 1.78443098959389449e-05 -6.60267369374529887e-06)
(1.87863727001522895 2.15161721234456932e-05 -6.03656168328594727e-06)
(2.01620725986098792 2.49597619112082607e-05 -5.40667929347313439e-06)
(0.484316085797499907 -1.97677686941865294e-06 -4.88103022123838618e-06)
(0.607880947270525995 1.9833253840538373e-06 -5.45488898957752384e-06)
(0.732443712059446472 3.68180306420599306e-06 -5.41257804767900972e-06)
(0.857337510225861688 5.06199533347666514e-06 -5.43387494986112021e-06)
(0.982205940739252381 6.44303225428750192e-06 -5.42169390100488814e-06)
(1.10701644679540778 7.93463640776466985e-06 -5.33893777624700291e-06)
(1.23183926557562562 9.57318022900507145e-06 -5.18925436294758831e-06)
(1.35688720197867707 1.14133593011604868e-05 -4.98440332876378346e-06)
(1.48254179031965383 1.35066725184379341e-05 -4.73195174620700029e-06)
(1.60930127230021114 1.59730629448623226e-05 -4.43827469475847928e-06)
(1.73818338394287442 1.87717311902700172e-05 -4.1052037943491403e-06)
(1.87005085087137424 2.25449438919113134e-05 -3.73268545458076965e-06)
(2.00909492384226684 2.60966524061919689e-05 -3.3221312043107544e-06)
(0.47890617480040526 -1.80315222822356024e-06 -2.7893849834435833e-06)
(0.601930748655352232 1.9377863163606694e-06 -3.07945360287182301e-06)
(0.725678287177878412 3.63102354488414772e-06 -3.02173565044163679e-06)
(0.849785474707201116 5.07429778650738213e-06 -3.01198231857869179e-06)
(0.974103722037369057 6.53788809631483678e-06 -2.99651262793357069e-06)
(1.09868302778397409 8.12166230685458843e-06 -2.95061709685335387e-06)
(1.22357229160164915 9.84869878356722553e-06 -2.87099628921604772e-06)
(1.34892510831612444 1.17668018458821208e-05 -2.76182931494650532e-06)
(1.47505910649256999 1.393164608343965e-05 -2.62722584904074195e-06)
(1.60243222689633824 1.6468384123537898e-05 -2.46799258249185372e-06)
(1.73203087833913782 1.93390872479281025e-05 -2.29066970744072803e-06)
(1.86474874818867131 2.31732060058159858e-05 -2.09109304272802835e-06)
(2.00481859337753576 2.68030080852126928e-05 -1.88601041284424652e-06)
(0.476034823699621523 -1.71263944122579542e-06 -9.06332621987244609e-07)
(0.598928746416875102 1.92590152445628318e-06 -9.94454458424853237e-07)
(0.722435558096076957 3.61620544030294984e-06 -9.73069053856925998e-07)
(0.846296438721473643 5.08817312582031548e-06 -9.66832106757562126e-07)
(0.970422306011707536 6.58347127639512323e-06 -9.59296777234848913e-07)
(1.09490005239288135 8.19880693306276325e-06 -9.43285249889844741e-07)
(1.2197976936245738 9.95853990876326812e-06 -9.18352446809018578e-07)
(1.34526535764150679 1.19071062980569584e-05 -8.84739723345978622e-07)
(1.47160283842980633 1.41005084691704468e-05 -8.42926460314492601e-07)
(1.59927040406404264 1.66464225775259563e-05 -7.94333083003289777e-07)
(1.72923260787741317 1.955254401610604e-05 -7.43768569579139712e-07)
(1.86250214214109122 2.33152887213645853e-05 -6.89218048698015963e-07)
(2.00319484858147279 2.70788359828373007e-05 -6.37803217744239547e-07)
)
;
    }
    procBoundary3to0
    {
        type            processor;
        value           uniform (0 0 0);
    }
    procBoundary3to1
    {
        type            processor;
        value           uniform (0 0 0);
    }
    procBoundary3to2
    {
        type            processor;
        value           uniform (0 0 0);
    }
}


// ************************************************************************* //
