/*--------------------------------*- C++ -*----------------------------------*\
| =========                 |                                                 |
| \\      /  F ield         | OpenFOAM: The Open Source CFD Toolbox           |
|  \\    /   O peration     | Version:  2206                                  |
|   \\  /    A nd           | Website:  www.openfoam.com                      |
|    \\/     M anipulation  |                                                 |
\*---------------------------------------------------------------------------*/
FoamFile
{
    version     2.0;
    format      ascii;
    arch        "LSB;label=32;scalar=64";
    class       volScalarField;
    location    "0.239999999999999991";
    object      p;
}
// * * * * * * * * * * * * * * * * * * * * * * * * * * * * * * * * * * * * * //

dimensions      [1 -1 -2 0 0 0 0];

internalField   nonuniform List<scalar> 
7236
(
1.20172901835824675
7.67698462091027167
5.57923517466312191
4.97856945687479602
7.16164934837897249
8.79271914258496778
9.16889058822019365
7.52690296299697703
9.63306788932306901
12.9990175429862926
19.5558841299962438
18.5598148794468791
14.8529434083778362
11.8121417201376531
10.6922384629940819
10.5759537297768116
9.44716309359194106
8.39641311470261442
8.36161888710869583
7.52062202343238706
6.29106193078899167
5.1485520009095227
4.08417640997026599
3.46563149933271664
3.01298170908157736
2.29510656518970224
1.57668210168336809
1.18718783070315448
0.958925666783033481
0.675424976464457427
0.561474173703808921
0.708756912304457254
0.913948687316233244
1.24915919025204736
1.69370109106969347
2.21388720320989796
2.62760584080445314
2.83016481384923901
-1.41079468243046557
-1.15001691835107156
-0.552060527843532212
0.273150517988576702
0.385268796375166644
0.246053804460388603
0.102712176688944723
0.13341138404771069
0.0674098691770292913
0.0950677052519350863
-0.0490757985069970593
-0.043393589621714912
-0.0490021062309362598
-0.0689126636258151626
-0.0629180833867489797
-0.0484479310580738787
-0.0367912016584964752
-0.036790908214460849
-0.0354600118241554241
-0.00498999972965463723
-0.00258392454412237349
-0.0213372378412781671
-0.031528187593386825
-0.0372868683716457427
-0.0444966535107061967
-0.104936716103548933
-0.161400689339416092
-0.210698516580716366
-0.256787726254643522
-0.245682070240677786
-0.167712902505074646
-0.0305624117929809147
0.236499450807952538
0.623537066233572856
1.12566155826813508
1.71994165553306977
2.27362906694457667
2.59863884388333988
-1.14611263029995203
-1.35987457523321376
-1.11609584392378403
-0.86230409041502587
-0.754295373344049502
-0.647531674771205323
-0.574205648384608747
-0.553379025665728719
-0.528558777918112677
-0.477604192273219263
-0.452932503358493055
-0.432232741187971226
-0.423898986514089082
-0.423103944921934039
-0.405148577422889511
-0.38294759859044103
-0.368650762186748859
-0.348956266855277253
-0.328174228959393022
-0.312225070294258222
-0.304934217454186307
-0.30731379492646671
-0.322874795237147627
-0.345656481174966779
-0.381857545115490915
-0.426261347722641015
-0.476644260815866028
-0.515277113658896946
-0.523236039682899889
-0.500098556409423134
-0.426413561908610406
-0.286335665240648907
-0.0685646985895124739
0.246129453129728948
0.668953357084794975
1.18611572108518715
1.74742462433280821
2.17831185532210769
-1.04947455599809714
-1.158798730714095
-1.04060007324079518
-0.987497007847582098
-0.962237119687497255
-0.902423411038300261
-0.833616562887188994
-0.778916918603168251
-0.734732055920065186
-0.688374675126977364
-0.652187550899608781
-0.623543395592928373
-0.601389465770485243
-0.586729658801669829
-0.568332897993147901
-0.548552010639864918
-0.532202932640860493
-0.516429564959566156
-0.499965847922496043
-0.48732943827937536
-0.480864638793941868
-0.482675735265037709
-0.492117696082199574
-0.506378055021449502
-0.526665957105205584
-0.55555625969265332
-0.588662272541878639
-0.609366794354383901
-0.607433040665304236
-0.577825142545778325
-0.508861853664238528
-0.380005182474490388
-0.177476894351759729
0.0958932508705612197
0.438637917925505993
0.848064505180300077
1.30579000185652583
1.7236434834170995
-1.08393384297946804
-1.05763861217941146
-1.07113313610611804
-1.0742721102154702
-1.05852356410249948
-1.00694167265914247
-0.961996253802085532
-0.916766644434342748
-0.873702873169286409
-0.832778437175658137
-0.799502296877578011
-0.771443921336612881
-0.748217830018967689
-0.730811331717003743
-0.712749162496952637
-0.694764758397105164
-0.677745634073562697
-0.661273945001056074
-0.646678923595419675
-0.635061453178138446
-0.627939327828236138
-0.626836518798106868
-0.631193112214489593
-0.64008609140792927
-0.652987890443677554
-0.670403257446991696
-0.687955659212468706
-0.694668093094181094
-0.680680972346829671
-0.64061466091881536
-0.564582918308370485
-0.438890766995778947
-0.253559542844224717
-0.0110675957222295951
0.281873205155890982
0.615850393869738499
0.978562289293216314
1.3331296427815067
-1.21773655348278975
-1.1332082867431561
-1.16626074480924902
-1.17675988774451756
-1.16198598948490406
-1.12039311764140304
-1.08094942049304921
-1.04038948598486036
-1.001770339720921
-0.966206330932350976
-0.936399873542383743
-0.910462987606836305
-0.888123702820525218
-0.869105164027277222
-0.850283904223748332
-0.83126367617642849
-0.813122942647086511
-0.796879297630962657
-0.783133731828948521
-0.772133100410365647
-0.764357924077601392
-0.760680959882790275
-0.761082767015419215
-0.764805710931913629
-0.77095515647358781
-0.77882758453229628
-0.784182421586531286
-0.778469446074242954
-0.753862066824859456
-0.705414711084808577
-0.62528307738877098
-0.503027940411765906
-0.331980878437752258
-0.114708236482252479
0.141689780805813181
0.424237795176405363
0.719331696239773555
1.00954972600618142
-1.3553941875083324
-1.27151276607877262
-1.29201445569110618
-1.29264158405511287
-1.27423648784102572
-1.24040210723867528
-1.2045436777434404
-1.16805196100511255
-1.13273496407774243
-1.10022559668658815
-1.0715438843823839
-1.04598514501939577
-1.0236361145245072
-1.00376813612404803
-0.984422109487120278
-0.96500446971457432
-0.946270612334814132
-0.929235946073957653
-0.914749743582760955
-0.903196387274189716
-0.894517917078932578
-0.888819151792432982
-0.885873964998741048
-0.885035204647862672
-0.885308324147001557
-0.885202669071011528
-0.88084751736221556
-0.86558501830932566
-0.833177180118932714
-0.778774329238166918
-0.696038666197793199
-0.577849865212234581
-0.420008841484367457
-0.224424354044808649
0.00233498908029095009
0.247761756426402524
0.49750231384766197
0.725340720968919439
-1.51932687289196378
-1.43352992013443914
-1.42691205492718609
-1.41415483529355157
-1.3919555463328106
-1.36193392500606358
-1.32898269157108739
-1.29478494504206054
-1.26197031809646854
-1.23170948099762034
-1.20472107460603506
-1.18015917671270043
-1.15770205297166529
-1.13693246259219261
-1.11679330710278157
-1.09681219850792244
-1.07752480985849219
-1.05977322020052411
-1.04437469825515072
-1.03171491602785492
-1.02160908750743973
-1.01380356577236053
-1.00785561594793771
-1.00302503105387597
-0.998165134537235432
-0.99141605570896163
-0.979350550256009145
-0.956796745487832445
-0.918540323273190573
-0.860214610788593181
-0.776942675523787485
-0.66358002503300817
-0.517536002682208784
-0.341042985811131572
-0.139614146211421541
0.0762472418964781351
0.290418282221155843
0.463403397276203943
-1.70812261602746296
-1.58738193619771195
-1.56000234243987723
-1.53603110057099501
-1.51159409116214993
-1.48320187614548371
-1.45222049346664228
-1.42048414664235834
-1.39002420725232145
-1.36186419477813847
-1.33609344805148389
-1.31208415271482126
-1.28949225532733824
-1.26804556920659195
-1.2471584186147453
-1.22659736694921628
-1.20680552661873652
-1.18847460968344798
-1.17223734711864114
-1.15836662928205492
-1.14667254370446803
-1.13676612136315169
-1.12805755792514617
-1.11965117898751121
-1.11028690793531104
-1.09805054647085276
-1.07990658489285929
-1.05173468648537827
-1.00925901458230594
-0.948654187555991069
-0.866123067436783689
-0.758095424751575875
-0.623188516717190888
-0.463778991499502857
-0.28486009322596817
-0.0956286437527328337
0.0873517498157820871
0.217804605167248866
-1.85728019623909923
-1.72051685970927171
-1.68565968852795689
-1.6559163376537116
-1.63076791103164354
-1.6030845685144921
-1.57451901817913908
-1.54518567239053572
-1.51682101270191394
-1.49036081933404074
-1.46552923963228343
-1.44190724418057781
-1.41920592923416011
-1.39720922683662296
-1.37567530072542477
-1.35459182889200758
-1.33434819587549591
-1.31549112778504451
-1.29848170654895534
-1.28347187587550171
-1.27023227415884743
-1.25831529673348275
-1.97359918467982509
-1.83939033853902068
-1.80675096958034453
-1.7746081031499874
-1.7493094179913995
-1.72287720155989055
-1.6963401758815464
-1.6691464575527708
-1.64261202392316052
-1.6174528123427363
-1.59340232687700323
-1.57006469000560167
-1.54721194080145219
-1.52474604796544622
-1.5026601253202001
-1.48110318603037694
-1.46043513828603011
-1.44107972718649657
-1.4233472889471106
-1.40727937068717535
-1.39260642509892518
-1.3788454170172475
-2.07119470742879974
-1.95357293747258653
-1.92605255080764604
-1.89423838240314546
-1.8689374806658865
-1.84350947765791195
-1.81832231061901517
-1.79281397020239597
-1.76779344819982698
-1.74369254778147309
-1.72020877175993747
-1.69697796926752953
-1.67386525223854599
-1.6509252255586504
-1.62832339972467377
-1.60632052928060354
-1.5852511346220004
-1.56542644172102352
-1.54702578499990118
-1.52999649132152227
-1.51403054122987468
-1.49862397880229392
-2.16457460897102383
-2.06822417457158814
-2.04657999436636429
-2.01557324434705798
-1.99019588893780774
-1.96513002340387311
-1.9408543232499138
-1.91658190076942447
-1.8927307353533136
-1.86937520819032144
-1.84616768297287392
-1.82282995106154733
-1.79934796462009094
-1.77591115621463014
-1.75281517736715964
-1.73039293066643851
-1.70894673600419211
-1.68868900532560495
-1.66968646540113941
-1.6518055940541021
-1.63469953909832566
-1.61785243972972492
-1.99451099575402768
-1.97132695006126846
-1.94770304852809595
-1.92376144715537167
-1.89981167862742284
-1.87624845658997597
-1.85344243266572883
-1.83165511750541787
-1.81101110208011296
-1.79148532221522716
-2.07162766915856267
-2.04717502755258662
-2.0227241088226271
-1.99873648361838896
-1.97559301908778728
-1.95351264687617476
-1.93253785137409451
-1.91257341541555803
-2.14473031288115878
-2.12037452924615044
-2.09695371768294692
-2.07463988273644784
-0.621670635252858705
-0.407228744634495099
-0.138906747468330094
0.2085347827280008
0.604620074726437307
0.77986604084554656
0.819072684211276769
0.669861783740323347
0.469329921198828381
0.588662401848729311
1.06620469617671465
2.14752781589832153
4.46239179045308276
4.57362973631134029
4.37337018166273772
4.19516263819197466
4.03408021439820352
4.02919692368589111
3.98585463917503802
3.6037750807025497
3.29261270226337333
3.07097100076489671
2.88978873686650717
2.38112448828055756
1.93980065487268494
1.49864469029338299
1.05956148182826815
0.742791058960762252
0.599564371468544799
0.495846486443019319
0.473573854906156722
0.643971179493098678
0.949780338467935303
1.25649949850676856
1.56595599873712721
1.88957247189770183
2.07909036505121136
2.16877035863386469
-0.739947697619877442
-0.693244540910595397
-0.641727039491596263
-0.616125514598047763
-0.538748179347795619
-0.481123094572657894
-0.404801052500868619
-0.352527046551873557
-0.294730822257022129
-0.271180886179050562
-0.193714484947314858
-0.17042768867614122
-0.179859275410390401
-0.206300336574784859
-0.238517399616695214
-0.246220919624558443
-0.244208442831795797
-0.238869100051374628
-0.218999239390720746
-0.192292779230317179
-0.179069317526390159
-0.175391794316340555
-0.190337255796606153
-0.210933173289910958
-0.246669211840603225
-0.291448251938239367
-0.319924124151187428
-0.316666066197630713
-0.31109276898772259
-0.27499584000551236
-0.167120016022271223
0.0273194436320202128
0.307655579204573093
0.675719552957181557
1.09559927143177216
1.52026974346387789
1.83776146083520531
1.98723943607350639
-0.845086168430932094
-0.823957683171843036
-0.817442288416982854
-0.767144119656497203
-0.721112515416686639
-0.698955582502811312
-0.661293337817568716
-0.621255253449642275
-0.581594312534280733
-0.534943210359648091
-0.498476603163095555
-0.455317953464097147
-0.435946376013175096
-0.437758451071432297
-0.439825170889176997
-0.432792724533724693
-0.423567041153969148
-0.410478450596363675
-0.391480650659192353
-0.370225792522536901
-0.355553898486829001
-0.350270603971407246
-0.355559259281581164
-0.366775991421196601
-0.387563047570732233
-0.421936133337415531
-0.455638573473953867
-0.470930634191988773
-0.460822376278833823
-0.421605306937381297
-0.331415783482015724
-0.171247599529510769
0.0602522648173184905
0.358611595234662905
0.715859825973050867
1.10967352912120476
1.47085577075503826
1.69837847117867602
-0.91787489206501216
-0.899187241222888733
-0.914805649389683007
-0.908802946770448927
-0.879193266626910219
-0.840455753684002271
-0.801040408910887347
-0.763525380197112913
-0.72769325380923755
-0.692503603275959612
-0.657796408509976227
-0.621649691243278291
-0.600226122748512392
-0.589621918858485805
-0.579660003973716753
-0.567724010977318616
-0.555319787591707081
-0.540996344533272278
-0.52385861792630195
-0.506556096112237064
-0.494111895786135402
-0.488423639389300335
-0.489636909379034313
-0.496452017340338725
-0.510508756863838897
-0.530640390099788251
-0.548345457653978574
-0.55151436267507048
-0.533395286976593219
-0.488957308872715046
-0.400778592821677548
-0.253636639411153386
-0.048737091660046139
0.203780454389642485
0.49798128593143931
0.821452376620364744
1.13629470417917622
1.38260724966977722
-1.01384998535472493
-1.00363569095848937
-1.01085247727638183
-1.01010571445055852
-0.99399230200429034
-0.962872150102760949
-0.927209591460104177
-0.892523782202336635
-0.858510733171394591
-0.825440546605753056
-0.794367822855644223
-0.765157343398170098
-0.743990599378709927
-0.729143156883992782
-0.714792231645768772
-0.699865496428060174
-0.684846998552486985
-0.668965839802060813
-0.652829560159215561
-0.637879062556043319
-0.626237518366230761
-0.619201673658076768
-0.617080930529287142
-0.619150642960343722
-0.625557975611386485
-0.634730766880282737
-0.640009939097486269
-0.632088436484601002
-0.604606816480646292
-0.552747091907779153
-0.464795495620130505
-0.329454028956350231
-0.146131035476465443
0.0767875762071453805
0.330670164100316355
0.602637472623484549
0.866437472473304271
1.09170465466636468
-1.12821183248137702
-1.11305062158716628
-1.11925982999669094
-1.1202449901868321
-1.10760060250450376
-1.08201797484663942
-1.05063214063461619
-1.01862343679833933
-0.987041404708488557
-0.956538216459582813
-0.928356517525117608
-0.902441064264690507
-0.881043553260992374
-0.863400636559309098
-0.846447855946193206
-0.829451015175427964
-0.812800269177269774
-0.796246702961504238
-0.780203817895846141
-0.765651435355552801
-0.75375501110954557
-0.745276140790066211
-0.740171617215366395
-0.737901068800496551
-0.73790206168407968
-0.73834355633894555
-0.733770969250929661
-0.716953135730303281
-0.682433777153565013
-0.625506441774796418
-0.537965344105144294
-0.411859321364407616
-0.246381226895752092
-0.0478403879656376096
0.175440300852216069
0.410342161428054575
0.635671221998842628
0.827642464910335995
-1.25275306136213138
-1.23515690250217092
-1.23812365278469327
-1.23694783484737636
-1.22476900286652057
-1.20207814303918492
-1.17414095996745238
-1.14469707929610598
-1.11526346323808112
-1.08697179018882162
-1.06055883162897091
-1.03620856422731444
-1.01468203929695422
-0.995493801093541575
-0.97697489071650212
-0.958564484108876735
-0.940551295806947074
-0.923119672417134662
-0.906703677289508292
-0.891887899201351031
-0.879299796664048339
-0.869267064113586008
-0.861526939855312701
-0.855484218106822736
-0.850144137544589173
-0.843419501152558482
-0.831089117239954489
-0.807705238589209285
-0.768225903193510695
-0.70800844620231751
-0.62129763860429299
-0.50308388554143757
-0.352896387156526659
-0.17520250850249286
0.0228515765092479617
0.229113162566419781
0.425112209525611906
0.578905901652355226
-1.38615342479371151
-1.36554927996181319
-1.36236327561539472
-1.35719918077895874
-1.34431873243507405
-1.32336869355300402
-1.29791700851126723
-1.27047349228320616
-1.24287835849116268
-1.21622526410041476
-1.1911090465830656
-1.16761545892196361
-1.14594747529558627
-1.12575858147614238
-1.10612281301563065
-1.08671773389806736
-1.06776551218956173
-1.04958589538455249
-1.03259846665481292
-1.01720003677150972
-1.0036446407953592
-0.991960443750855569
-0.981789811532973178
-0.972394466620466247
-0.96257004399721291
-0.950218208642077733
-0.931858053096515926
-0.903218556803428441
-0.860051397714235555
-0.798231734000595439
-0.713487215845640232
-0.602443352292435286
-0.465185242894342377
-0.305537063621230565
-0.129675017131709036
0.0519075187663108339
0.222272099318898797
0.34168592253858221
-1.52224986122683648
-1.49642048905423963
-1.48790593686573969
-1.47896862067453205
-1.46514908105030184
-1.44528470208508075
-1.42152502722895413
-1.39578651244870966
-1.36976950823429844
-1.34445854319595348
-1.32026006710340393
-1.29720932856124116
-1.27535101915548976
-1.25443358941976046
-1.2339717324476438
-1.21384005009132068
-1.19422977730718904
-1.17545640260656503
-1.15787121351141842
-1.14173550424595893
-1.12710703187602213
-1.1138171996044921
-1.10139738421727396
-1.08901741795220075
-1.07540481106538066
-1.05860162692590598
-1.03566030932574327
-1.00305975046432527
-0.957270331721418621
-0.894903611146591005
-0.812747837466579082
-0.70856582313647809
-0.582798424537042781
-0.438908347084964845
-0.282628524858715147
-0.123323804459892994
0.0232743120456664343
0.11587713864527327
-1.6525435982104657
-1.62366925049823063
-1.61249870489275926
-1.60112170911204332
-1.58655495423739468
-1.56732999258672812
-1.54487888148759334
-1.52058834979188529
-1.49591728219879028
-1.47167961979609418
-1.44815099970293248
-1.42535507462380417
-1.40329549721053204
-1.3818365819641576
-1.3607661747906139
-1.34007009647231179
-1.31994443072480516
-1.30066981816568039
-1.2825127811771786
-1.26561257053393783
-1.24990240268075992
-1.23509932697754898
-1.2206582896726248
-1.77502712458947065
-1.74696489812909395
-1.73594242761184958
-1.72331716318172257
-1.70830656405830861
-1.68951821374082711
-1.66807154806030411
-1.6449761591875558
-1.62139695581808896
-1.5979889231164508
-1.57495205971819496
-1.55230534822269295
-1.53006277677340741
-1.5081864576241224
-1.4866342667757888
-1.46548301278448956
-1.44493240214644603
-1.42521666476950881
-1.40651900307716837
-1.38887887222119488
-1.37213960845379002
-1.3559471245460808
-1.89235720801040141
-1.86830791075043079
-1.85907806167172662
-1.84595844107257645
-1.83058376082554419
-1.81201172236862407
-1.7912573359397812
-1.76906979908657958
-1.74634506618425367
-1.72356168298496759
-1.70086583042966577
-1.67827391931769965
-1.65583340588287276
-1.63359815980906764
-1.61164491489131323
-1.59011653583357582
-1.56920710967997667
-1.54909998059863208
-1.52990256944204672
-1.51157413902249149
-1.49389035003856696
-1.47644914315274356
-2.00993040171073067
-1.99004926778385904
-1.98304256775533294
-1.96945190156392735
-1.95359235950195487
-1.93491146316078555
-1.91453587529521818
-1.89297409757531687
-1.87088398565946701
-1.84852794676916998
-1.82602183929570172
-1.80338878898354671
-1.78072364295960073
-1.75815898610005683
-1.73585902937774583
-1.7140101706312274
-1.69279356886009569
-1.6723418605558269
-1.65269620586629662
-1.63374911085367946
-1.61522277875121456
-1.59668714692179625
-1.97293735270074122
-1.95047891299527687
-1.92772031886247452
-1.90480368627678898
-1.88192885000713361
-1.85932568863896441
-1.83720483320620009
-1.81572769352394747
-1.79497833473064983
-1.77494357459901519
-2.05130112134622422
-2.02811873460350078
-2.00495868843916991
-1.98209610374163958
-1.95975094866040078
-1.93806100183383867
-1.91706209396962701
-1.8967013212148478
-2.1272858728288857
-2.10421239838009377
-2.08169440768971281
-2.05984308583254894
-0.485393922014905999
-0.419147193810016416
-0.30788023500642292
-0.285509384868176286
-0.229953197548169064
-0.211533166430787956
-0.201575241329874616
-0.20167349594924025
-0.118875929269183542
-0.120450217130879084
-0.00440152435602000902
0.180019605204930377
0.596323101275086365
0.735090169743934929
0.739515916674698071
0.724220470902210089
0.704927566276407847
0.670390417003705275
0.713253756029559649
0.828330157437730863
0.90734904295305352
0.945488125060826023
0.937856632480029706
0.833630472533366529
0.715366245071371698
0.615864757867152668
0.484076995430532175
0.348233108833124416
0.328821137581860323
0.403728987015572693
0.532486303858209276
0.725189990185722833
0.964361202281312058
1.21753829230361066
1.4161844834777757
1.56985561893467174
1.64791345369861375
1.70660669965312262
-0.60696384950027138
-0.59145094703055634
-0.557241187408055838
-0.553702377493986542
-0.566050952688780362
-0.547799430785778418
-0.506123569512215488
-0.455677082204041795
-0.409697531762185263
-0.378812766307930648
-0.368088832923769371
-0.33465632936457379
-0.2889235374048581
-0.248222031703474455
-0.251800865063757151
-0.294140031128957424
-0.304550488673483832
-0.29469801520028216
-0.278771357724433622
-0.267354692200708954
-0.261737710227898934
-0.261057546421837983
-0.268503705439311346
-0.286628801935689181
-0.309613797970729354
-0.328178180740777092
-0.332883667464887067
-0.308863745727212868
-0.258402859319104949
-0.174150759767720459
-0.0299047453783464756
0.18555800680154666
0.453667627155904529
0.759773308844558737
1.08092914408943819
1.32717178079367226
1.47462571149364807
1.54709910598715616
-0.730206656757899752
-0.719382224440799911
-0.685736116487022929
-0.68014976159135454
-0.683336828069206481
-0.672013897463561438
-0.641182633468074137
-0.602217002526502787
-0.564705007942202464
-0.538410360070525784
-0.525567497701795339
-0.511886929905769894
-0.493378124336680601
-0.474906868147122185
-0.462185894849593715
-0.452211217140519373
-0.444135024456543182
-0.431079860740515686
-0.413931838096930793
-0.397955541510082611
-0.387135101337415521
-0.381812415543065442
-0.382506383939018035
-0.389119141637688737
-0.399966979375974696
-0.412965502395567674
-0.418690687206225653
-0.406357795835631475
-0.37015113137965755
-0.299956820357041964
-0.180120591571294592
-0.00446674655673984233
0.218397009080701587
0.476383741983662012
0.761800936396703321
1.02793048323568037
1.22775153367930345
1.33816759642526328
-0.840086164478625941
-0.834876194200337762
-0.823544391357199035
-0.819510598894382269
-0.81138976932568152
-0.79630327170900328
-0.770679754482652468
-0.739920659406360981
-0.710569709915789161
-0.685622015645549254
-0.66547761390250737
-0.645427134641264999
-0.626395167815421483
-0.608926400774066012
-0.594886101234216813
-0.581557823230567483
-0.568754885783962494
-0.553472854442738638
-0.535746191099586322
-0.518970045800488888
-0.506061026923437129
-0.497414930642705644
-0.493439057982859919
-0.493763254955776165
-0.49716265339315957
-0.500704397922192457
-0.497845468926297607
-0.479984013575431745
-0.440183421671774822
-0.371474890043839656
-0.26234030217792359
-0.108812417561930164
0.0825347272923959152
0.302402823797679798
0.542725982635260062
0.778953967482017173
0.9766061713653168
1.11201507421431289
-0.946039542662323152
-0.947607387019174685
-0.945991072557075263
-0.944619203528322737
-0.936764671846517905
-0.921095402813759678
-0.897247255726801973
-0.870017746276385839
-0.84305826128650363
-0.818609202895335009
-0.797043196714260382
-0.776192880722491152
-0.756621926719955984
-0.738731492721783956
-0.722266042099634187
-0.706273750845533677
-0.690413594289251087
-0.673405921090961868
-0.655619281978985891
-0.63891023422894111
-0.624919342636685582
-0.614033532912996338
-0.606442361587308687
-0.601745234551314012
-0.598891471603470005
-0.594870800712346326
-0.584139832243662949
-0.560173662342379974
-0.517099971396610569
-0.449101837434066231
-0.348098437087355994
-0.210435764176630347
-0.0403691335150652142
0.153605140031106924
0.363502657068371371
0.571193536755141396
0.750323002500792868
0.885447312069034487
-1.06177691248960215
-1.0644243538610263
-1.06630827328051936
-1.06589012429204466
-1.05872771893864615
-1.04372620722844633
-1.02207716246307512
-0.997196088915336953
-0.971951029751265905
-0.948067216208289043
-0.925989409118863405
-0.904913944599416542
-0.885055000458063068
-0.866351223114087965
-0.848377236844249705
-0.830639826294910621
-0.812976272069205086
-0.794924739230711941
-0.776839649436219748
-0.759809960461766631
-0.744822804231102253
-0.732264684640265062
-0.72204224065136724
-0.713434070333108905
-0.705329553150515265
-0.695153394929813762
-0.678285361283450072
-0.649315027660734345
-0.603408006519481233
-0.535996095492148772
-0.4412616839554519
-0.3165517852952629
-0.1641519531216723
0.00980214044568750165
0.196405551559801994
0.380694327946821121
0.54228428494004155
0.661560496996068004
-1.18317467992622172
-1.18554180659801522
-1.18840380007090696
-1.18782659535960411
-1.18068006931191727
-1.16634197224602509
-1.14632252263973378
-1.12326507225568495
-1.09938806912464138
-1.07614960106800517
-1.05403091247211167
-1.03279686603013454
-1.01251659958156548
-0.993019545389871361
-0.973938405769368076
-0.955011873914207277
-0.936177530864399698
-0.917375388079170739
-0.898943173286614661
-0.88153473714055508
-0.865723557567313895
-0.851677314101217942
-0.839163729109332457
-0.827423144859465887
-0.815157036270706015
-0.800007593655826188
-0.778275377955544023
-0.745618664618400429
-0.697943411265358415
-0.6312987572937101
-0.541509530048624121
-0.426767459917121728
-0.288843306803347133
-0.13285853120480362
0.0332706633347858993
0.197736608890403565
0.343031752076275676
0.441712948131578131
-1.308002950328504
-1.30946543816870187
-1.31188165037092075
-1.31053824424365795
-1.30317072742841722
-1.28934948940955785
-1.27052564134434864
-1.2487898994417681
-1.22598540558962932
-1.20334488173702225
-1.18136728717757444
-1.16003624507193215
-1.13935999931640897
-1.11918897496903047
-1.09927268509881149
-1.07948484117564969
-1.05985120143514799
-1.04047295476159762
-1.02165788844255512
-1.00381253174887308
-0.987212053417732105
-0.971837402301027553
-0.957343401276763872
-0.942941902291710488
-0.927274866018925503
-0.908233944012774241
-0.882781648238505023
-0.847346045734662545
-0.798474136690978886
-0.732869942783252348
-0.647539691600306
-0.541265378008931597
-0.415703551429147056
-0.275347108085542303
-0.126994031493797288
0.0192667074733924304
0.148042796673314103
0.227955691255828818
-1.43395700117979974
-1.43438895248883203
-1.43603078265625328
-1.43375718014492248
-1.42604826584831557
-1.41257001454106668
-1.39461885912438999
-1.37389733887190402
-1.35196390922767451
-1.32986662768035746
-1.30807237605961024
-1.2866621602040722
-1.26565544957485576
-1.24495896390678418
-1.22442485891155206
-1.2040196017409861
-1.18382987318109834
-1.16401114841613129
-1.14481145002460982
-1.12647522342152029
-1.10909617937390914
-1.09252340515147961
-1.07631302260395212
-1.05963692991017489
-1.04118723742602803
-1.01908235561359151
-0.990757211170811281
-0.95325683439444886
-0.903704593765949027
-0.839448772603488935
-0.758316915467896369
-0.659584276092042288
-0.544824392778345823
-0.418033543717782785
-0.285388324352328859
-0.155848718742568226
-0.0433463656002928133
0.0215044560619597203
-1.55891150658908484
-1.55902250235869122
-1.56035388820415077
-1.55731676233766114
-1.54922410126816312
-1.53591845370421232
-1.51858886292581508
-1.49865210357700063
-1.47742775857373898
-1.45579861051831339
-1.4341844594818336
-1.41271583020754465
-1.39144161217007145
-1.37033326071453354
-1.34933703688689
-1.32848271013003916
-1.30788943956569081
-1.28772000044200441
-1.26815777375679151
-1.24932725083587881
-1.23120134715336427
-1.21353959934501421
-1.19583957582050426
-1.68259878005944552
-1.68307730631214669
-1.68476184226834547
-1.68116687560695666
-1.6726746851698775
-1.65937439479858795
-1.64245536815607407
-1.62310414583775442
-1.60243456597191636
-1.58118257976291643
-1.55972050886497504
-1.53820396710857388
-1.51671526180944105
-1.49528454105436248
-1.47393518461080619
-1.45274514490247086
-1.43184620976664645
-1.41138526363866679
-1.39148675471627548
-1.37218511342759664
-1.35336381311017173
-1.3347193080691202
-1.8055890486668289
-1.80721577925585075
-1.80958189633022437
-1.80544025858834645
-1.79643823004381575
-1.78295681063009104
-1.76623929376665201
-1.74728503278221203
-1.72702476256109394
-1.70605544949034904
-1.68470347495145534
-1.66313651528363793
-1.64146829495162683
-1.61978040871775653
-1.59815637043027947
-1.5767091860488931
-1.55557178381770789
-1.53486456152383033
-1.5146593556359218
-1.4949212173243811
-1.47546734624189368
-1.45594807408666949
-1.93217540504323471
-1.93280826203125389
-1.93547003351815139
-1.9303522148454495
-1.92057484389162747
-1.90667824432801525
-1.88995235671101569
-1.87121412240521656
-1.85122729311753931
-1.83044893926951202
-1.80915344359704244
-1.787522114173834
-1.76569484866699011
-1.74379518492011476
-1.72195349289798227
-1.70030633338968595
-1.67898030024282185
-1.65806533170311221
-1.63758816029560461
-1.61745862398993845
-1.59744427867432903
-1.57716701257099867
-1.95437369579322517
-1.93307516164979254
-1.91136230120836204
-1.88938833299269104
-1.86730857870793798
-1.84529335233418235
-1.82349193685832356
-1.80201842473544249
-1.78093097474410555
-1.76022096946781681
-2.03465726010156223
-2.01254894011646313
-1.99031313407114574
-1.96816355525760733
-1.94624853517855434
-1.92466545078269613
-1.90343914178442519
-1.88253963469138585
-2.11280324275639586
-2.09055652823986726
-2.06856818543971688
-2.04691383295206997
-0.408185013630800952
-0.36945207790338197
-0.329690718465597221
-0.286275981426414805
-0.258485607219594626
-0.250197151510813343
-0.231211652116645627
-0.200638737961911007