/*--------------------------------*- C++ -*----------------------------------*\
| =========                 |                                                 |
| \\      /  F ield         | OpenFOAM: The Open Source CFD Toolbox           |
|  \\    /   O peration     | Version:  2206                                  |
|   \\  /    A nd           | Website:  www.openfoam.com                      |
|    \\/     M anipulation  |                                                 |
\*---------------------------------------------------------------------------*/
FoamFile
{
    version     2.0;
    format      ascii;
    arch        "LSB;label=32;scalar=64";
    class       volScalarField;
    location    "0.239999999999999991";
    object      rAU;
}
// * * * * * * * * * * * * * * * * * * * * * * * * * * * * * * * * * * * * * //

dimensions      [-1 3 1 0 0 0 0];

internalField   nonuniform List<scalar> 
7236
(
0.000112535001387463257
0.000129677205554538314
0.000169779244165347746
0.000148497536156442172
0.000102887694196401825
8.51000477270219687e-05
7.3630589697585357e-05
6.30780722145385159e-05
4.71453705643948059e-05
3.6040796300932e-05
3.2011292097908099e-05
3.54136471686023735e-05
4.12805071665592896e-05
4.56088305141744691e-05
4.83733071756401207e-05
5.17867569658815122e-05
5.74026162988377863e-05
6.29396888450916463e-05
6.92020373291416148e-05
8.07390469189004468e-05
9.51279385500250507e-05
0.0001134054922179396
0.000138850584815758768
0.00016976089627243458
0.000210859196547828043
0.00027598898302663656
0.000362614441935211823
0.000447020430474833472
0.000570032681136876658
0.000798079281636373118
0.00106394035791814736
0.00133194690420918569
0.00189629512717753856
0.00271050261827726277
0.00369319729985605931
0.00491905622628265645
0.00700448108731498414
0.0093441531254576625
0.000740638752422533302
0.00110390786597297052
0.000593820505948241747
0.000374874799498247963
0.000319720823481866581
0.000310102506786461896
0.000313412793079825011
0.000324505458238639739
0.00033132261700508309
0.000336065734572067265
0.000355468737639975908
0.000401096072966811395
0.00044923519524381648
0.000495068478971118827
0.000537842903241681825
0.000581222859473957878
0.00063270443226386044
0.000687552314864285597
0.00074883892278959478
0.000839644023646223285
0.000950819657004695106
0.0010639648640298155
0.00113083659372851934
0.00116844031491684366
0.00118308733633828728
0.00125113613960823808
0.0013303725609130517
0.00143057448893234643
0.00157811041813920314
0.00178350514689884997
0.00201200225404821881
0.00225533399463264447
0.0025360253115351639
0.00300778227882551701
0.00371187995114989795
0.00446412350972586695
0.00553654946758849829
0.00752982941754247112
0.00984748409127674668
0.00188854230613749903
0.000979229665164689468
0.000914804136918087618
0.00120107300516873825
0.00154411598837919119
0.0018343237934953622
0.00204323756023299091
0.00222704670656672082
0.00252372923713867214
0.00284803820762781837
0.00322167309628360477
0.00344107881329192618
0.0033741156330189437
0.00332009689919217886
0.00335914952368272356
0.00347545864751015298
0.00369345198888023198
0.003989983784983199
0.00435270996400304554
0.00480290581192887537
0.00524050214584662749
0.00565493070163448647
0.00602116276748841314
0.00622362913882869642
0.00632289078279754842
0.00641143862302378555
0.00664414718767820239
0.00691481042506222974
0.00709124428207706051
0.00713796218462226829
0.0071697414700497078
0.00735765469053835386
0.00711106032328037273
0.00667278152085048863
0.00630945591778328801
0.00621107610374122421
0.00686657648446619209
0.0142386144246959001
0.006767438410159172
0.00463448617283570771
0.00697396760892679633
0.0133859515573465371
0.0142585857778898643
0.0114944244428569885
0.0110851277344392943
0.011826805155227469
0.0130674995170748966
0.0133674573404512134
0.013159113154628305
0.0129349589369264183
0.0118616246571951606
0.010799789873349638
0.0105947985091664303
0.0108366846279293518
0.0113424751348610176
0.0117804613126757298
0.0121352518582123117
0.0125039606758136027
0.012808231949803137
0.0130681505592919675
0.0131431493283484038
0.0132180262994585282
0.0134441914257140867
0.0140418301881632748
0.0144571145586565811
0.0146861004404710543
0.0147846461258760078
0.0147141859785496348
0.0140368878726056124
0.0129278504103423498
0.0118044044720431677
0.0103325977308193692
0.00873190978405563416
0.00749516171431363794
0.00700274208070760136
0.0128839029239816369
0.0124696690554062118
0.0145011653099371366
0.0166023478840105557
0.0175347746476998238
0.0187673790309594406
0.0184305588627424709
0.0184480895311641933
0.0185727126973999589
0.0185832474150559868
0.0183240318802843603
0.018004700363032828
0.0180008045861686158
0.0181980611253636654
0.0185241540293852661
0.0192495141436315083
0.0200363463987966381
0.0208140012166550328
0.0209652596517408175
0.0204471724337743875
0.0200741964706486024
0.0198958850942354999
0.0197554800647398408
0.0197230631772851578
0.0199291089924341219
0.0202565864788375599
0.0204368429916317908
0.0203505669345380343
0.0202761410262361462
0.0200782008158971181
0.0190556690436795816
0.0174177366732241184
0.0157934552652518843
0.0142571886080605486
0.0125552814549739419
0.0105902152423573166
0.00853311001571442282
0.00726939093618447774
0.0139747924609980746
0.0144190193224687357
0.0157989463260695857
0.0171971420027849514
0.0182124212621226841
0.0190101944636291605
0.0192961679398758329
0.0190417262112360132
0.0189388541680963508
0.0190323994076518933
0.0192847324538325572
0.0194519081612244821
0.0195569427792429869
0.0196453265645590187
0.0196272609201751415
0.019658153505426431
0.0197451799409622195
0.01991864281075683
0.0201498492107819102
0.0203650364872675488
0.0204821089571275636
0.020556723292651978
0.0205713709887098382
0.0205936978628720041
0.0205851592993803109
0.0204974109340282061
0.0201147852607798938
0.0194930425361498939
0.0188155821343257597
0.0180978913989525425
0.017152965663555203
0.0159552425751366446
0.0147115039577338479
0.0135525473523190974
0.0122728746941358543
0.0106218474303462571
0.00865096678567756766
0.00752705926714388254
0.0146334804114248221
0.0157627224776588533
0.016650785897704648
0.017691076917066121
0.0184480985014394243
0.0190259883961815951
0.0191530039558852824
0.0190562858468958304
0.0190285156911446617
0.0191100985031387484
0.0192510114587470076
0.0193491519215079795
0.0194228233228786289
0.0194437112929458401
0.0193507712362627031
0.019241790047046195
0.0192214568195742952
0.0193285106557254394
0.0194909316116618041
0.0196072040550844783
0.0196166230906446373
0.0195635292901430412
0.019486901413686239
0.019434096477269576
0.0193729325377139487
0.0192238555751180103
0.0188728072969385485
0.0183439075784694386
0.017769901038278909
0.0171712436013899718
0.0163836420678674134
0.0153673016867370369
0.0143090163852923648
0.0133280401308091666
0.0122646377527529903
0.0108260517117470621
0.0089876853161610596
0.00804364247809653994
0.014526624286321628
0.0164836749638950612
0.0169794257979344193
0.0178485168896236404
0.0184660640210465403
0.0189709686602661555
0.0191148481563827716
0.0190388889236409765
0.019037665618931169
0.0190920216309672167
0.0191859788075863409
0.0192498265731754561
0.0192939021741993094
0.019292102053728024
0.0192093830193559023
0.0191077317864779862
0.0190684814349287544
0.0191170182766376984
0.0192006666866787051
0.0192472502662438781
0.0192055389450238
0.0191145611339793541
0.0190150760147291126
0.0189344218360700881
0.0188432159601380003
0.0186688234466289849
0.0183346535857437098
0.0178460630432199785
0.0173149713766204451
0.0167609994041997903
0.0160603790181762483
0.0151909186629377337
0.0142679362148138162
0.0133851214561131748
0.0124267719217904301
0.0111201806894048738
0.00945037538766796067
0.00871798891781889497
0.0137774068754303574
0.0161188191153532855
0.0166034692310606802
0.0176277298877319001
0.0183588296383505115
0.0188773482940929466
0.0190503851267093231
0.0190224315559601488
0.0190463588557837869
0.0191053585708975057
0.0191706649723067182
0.0192138255489068578
0.0192336051098488843
0.0192137087605973832
0.0191410237250911122
0.0190537196222802414
0.0190094785138979448
0.0190247619320731143
0.0190637399790519017
0.0190717773068357424
0.0190145648451109615
0.0189167835098900602
0.0188087754202688404
0.0187058127263999667
0.0185804777836893822
0.0183745275925541532
0.0180395540478720251
0.0175871933725105442
0.0170917599471742294
0.0165596719107333687
0.0159143783893077005
0.0151386540079652878
0.0143098137450408721
0.0134987539364546764
0.0126104579019906161
0.0114309977024222957
0.00998126789773368626
0.00947551466216067263
0.0131931212238657353
0.0155836981248695106
0.0162744370586512394
0.0174366515096550448
0.0182630324449287555
0.018831395816526611
0.0190140010300016461
0.0190315755599943862
0.0190878783011461592
0.0191518326112817307
0.0192010337733802862
0.019223453449686019
0.019220591042050001
0.0191865518600882225
0.0191199415343273442
0.0190449992793112061
0.0189979285971262277
0.0189888396278705893
0.0189936528422784343
0.0189747756511075595
0.0189088908351427061
0.0188082589716843732
0.012859465425658129
0.0152809557933565633
0.0160653430417840651
0.0172840400840004148
0.0182135083644072299
0.0188202066727593716
0.0190100519065952503
0.0190751279406088624
0.0191531511803809673
0.0192172575229709527
0.0192520180537013447
0.019257420051305995
0.0192382280121202349
0.0191934293832337587
0.019126843711114682
0.0190555216772077367
0.0190019881776935205
0.018973249880918603
0.0189532327741736353
0.0189153347007587937
0.018842163344466225
0.018739073413807001
0.0126561381513900107
0.014943620451997949
0.0159289298397436961
0.0172048350027969761
0.018230962762560185
0.0188405164427329665
0.0190303732024081351
0.0191416781885792135
0.0192316958879628457
0.0192905033994963601
0.019315148568312606
0.019307586771177658
0.0192743622663603398
0.0192195228514048314
0.0191493827953125549
0.019076300278465224
0.0190153020531667501
0.018971030716643137
0.0189319455712587854
0.0188789729611940973
0.0187988766864017158
0.0186925218363461348
0.0124642082519616487
0.0146716219083870628
0.0158091771637321639
0.0171874858935421627
0.0182754129226044837
0.0188855387356666252
0.0190701545417401967
0.019214921000200065
0.0193138792206044123
0.0193699202893926163
0.0193843228259494606
0.0193634709813041879
0.0193175889966439134
0.0192536061108442152
0.0191786600154847282
0.0191023560198372369
0.0190349159496135401
0.0189788938152366873
0.0189253859105170848
0.0188603705350164803
0.0187736144303553669
0.0186633652915880952
0.0194593661908181066
0.0194607264471044032
0.0194252827865644961
0.0193662563163093555
0.019292983457621378
0.0192126193465359599
0.019132985227425018
0.0190607292299936025
0.0189963154270590927
0.0189320947067434277
0.0194943888562777237
0.0194210298914866512
0.019337920369804678
0.0192521171605039287
0.0191696503443672187
0.0190939719063922195
0.0190236015778594489
0.0189514465138231857
0.0194083378035608163
0.0193174060674241137
0.0192327058922680642
0.0191547146869695227
0.00340699715192576162
0.00142712714344654461
0.000986023208162475906
0.000639900528431613025
0.000435347246159760698
0.000336535493368412967
0.00028310983450280852
0.000258743786036662977
0.00024191094756878775
0.000202622259452873315
0.000168593524254467586
0.000134008763843219329
0.000116998233629976619
0.00012360786625131742
0.000129087145565081045
0.000132707619051519358
0.000136495882412074034
0.000140056312617693643
0.000145579599715619623
0.000156805343927107429
0.000169809157901320694
0.000184810319134679418
0.000207353012688507056
0.000245564122234918295
0.000291741681098685519
0.00036165865449827437
0.000462745063781762019
0.000583857688414265823
0.00070744470025802962
0.000926080558305870417
0.00129056768608516552
0.00171306011690719072
0.00222650602409726721
0.00325488983242842303
0.00495296759502272983
0.00661959669124119899
0.00943015418191128774
0.0113942543566525039
0.0117911322631375822
0.0126341521859302287
0.00661312864501363042
0.00243285474872109546
0.00154130925096331874
0.00133592888262165058
0.00132373856345275979
0.00138741196316288415
0.00147708680726037342
0.00156112748582891967
0.00167796466151006298
0.0018251935429964099
0.0018930012515905913
0.00201320480853176432
0.00205555271718712695
0.00207377023582273369
0.00204671904549071255
0.00201758825407738224
0.00202334925607821226
0.00207868077931049099
0.00217490327678240489
0.00231841893124576587
0.00250586309161468252
0.00273280867241588489
0.00289313244162639613
0.00286139653064570228
0.00278517637875428737
0.00278938640346236208
0.0029119361992900215
0.00311285704847609913
0.00325588247658724394
0.00344413073159285715
0.00380637072148994017
0.00434183684268318448
0.00496052174269469119
0.00578095103183544172
0.00729037358200749271
0.00928403138231945375
0.015346603364081399
0.0145256809516949893
0.0105043281290889117
0.0073741360114986049
0.00831577948321875725
0.00963747802776615189
0.0103735055686088786
0.0111624092608330512
0.0125074433557477663
0.013335210228439788
0.0146375796095501772
0.0159154167114990211
0.0160333867724122281
0.012298401755206155
0.0102693878910318798
0.00932945004104489793
0.00881942446006380235
0.00869018380349518768
0.00882822286725953344
0.00916381453587664443
0.00954595072998754186
0.010009925872880937
0.0104963275317267075
0.0107940586404492323
0.010763860790188139
0.0106679064038497813
0.0109348072454931045
0.0113283415382435422
0.011543019792993256
0.0113474475057670915
0.0106945976428056925
0.0103814841787669664
0.010011804597974433
0.00928346984602700272
0.0083397753778103826
0.00779946506934059772
0.00786335113856986845
0.00857102151701455948
0.0164048250934572849
0.0163383076471266091
0.0170561179768749446
0.0171041250915104394
0.0169752123523352755
0.0178642028726319138
0.0177681836432890816
0.0174980893803373255
0.0174020069723462845
0.0174932417746392517
0.0178689331379662392
0.0178800659427167698
0.01873307567014703
0.0187531720617624686
0.0183399655116516652
0.0186367617326322413
0.019350103999490019
0.020179177651828941
0.0202094628006109778
0.0197580894058409021
0.0194118406202127558
0.0190953066298190054
0.0188677131483828905
0.0187543516677325904
0.0189486376676384176
0.0192102794251442256
0.0193385995921642635
0.0192215539275312451
0.0191274946048773792
0.0188408143096003428
0.0179276153209285798
0.0165522684019473627
0.015276227377023029
0.013878338448842004
0.0120622177544008058
0.0103610318857532899
0.009202022892547174
0.00857296281531953232
0.0168819008196195788
0.0162727722340327667
0.0171146011720400143
0.0175950972869143574
0.0178377357265450294
0.0183365379395260056
0.0189648008405018526
0.0188663566170309757
0.0187085416431834219
0.018665914872758281
0.0187467872982541757
0.0187858024607901082
0.0191346763098249016
0.0195716580938516231
0.0198302507618021012
0.0200000442306773607
0.0201053376578894209
0.0201450907852190782
0.0202573162708535974
0.0204830207847380256
0.0207275678985912974
0.0209229498667597019
0.0210506751893855953
0.0211665517505968404
0.0213737414088975633
0.0214724492901594635
0.0211487237259316944
0.0205204725941686324
0.0198275395359575196
0.0190426794962844474
0.0179292039004069308
0.0165189803331857767
0.0152094750829490644
0.0139993798285794474
0.0126793930795147357
0.0112291724633718209
0.00969871923768272394
0.00873864020037114567
0.017304028205586526
0.0171302983715938863
0.0174444404428595878
0.0177822538992596889
0.0180850079778231039
0.0185408602845844352
0.0190359001701732311
0.0190608783744083549
0.0189289219454092973
0.0189002934406474858
0.0189595722276607835
0.0190315738070891798
0.0192316376091377431
0.0194595236763794796
0.0195610369853198053
0.0195749435966401167
0.0195488760672751158
0.0195392118312738873
0.0196077438516887928
0.0197263232356267894
0.0198087106578571856
0.0198229334772484778
0.0198081299474414038
0.0198400265851430037
0.0199047878202629619
0.0198281956770454612
0.0194630534868307295
0.0189463582438375022
0.0184007956036462174
0.0177680987130576021
0.0168579417333185357
0.0157214921043578974
0.0146578679687644382
0.0137099094539757434
0.0126613427296881891
0.0113678913388147
0.00982644921076776881
0.00900921564911252686
0.0171395085326199216
0.0171560703870700208
0.017417026750878889
0.0178356916588309697
0.0182275413770630577
0.0186825234870014699
0.0191197829860247359
0.0191665439485302486
0.0190733787726237725
0.0190620056798579789
0.019108633459551029
0.0191682509801487481
0.0192768281357820134
0.0193823073728409921
0.0194060772609344623
0.0193784578174587933
0.0193400394058210155
0.0193285104557148167
0.0193691701782215848
0.0194202760175310116
0.0194166717047094123
0.0193616970057395622
0.0193061766080206906
0.0193019814215787157
0.0192979354232999598
0.0191551379385211731
0.0187894613294122721
0.0182993957818917176
0.0178040149391291806
0.01724247821615894
0.0164543046113973836
0.0154947985078805663
0.0145738948741666319
0.0137450141165195525
0.0128302330693228269
0.0116417997048312381
0.0101573812223777031
0.00952233441034202113
0.0167241059581065589
0.0169251117888070679
0.0172553618454367071
0.0177889412686576022
0.0182734400885426751
0.0187652696687043742
0.0192086668253268825
0.0192419134379926832
0.0191844863127882057
0.0191850785562320235
0.0192204107234041389
0.0192632733137177957
0.0193216966642299828
0.0193628237011043841
0.0193475321148189675
0.019300786052036889
0.0192564386903717605
0.0192429431421805679
0.0192624875053294883
0.0192774896529199144
0.0192439926001742069
0.0191671864256711608
0.0190855698159452074
0.0190361400996410107
0.0189711808857631822
0.0187910383688995805
0.018440300703058056
0.0179848241803172645
0.017508604285433594
0.0169702806435971278
0.0162724494414748892
0.0154444614296830422
0.0146195385376805299
0.013852231000941094
0.0130176883676423535
0.0119311093328626546
0.0105937390108013351
0.0101647437334693638
0.0162026094564731021
0.016591854513805987
0.017024493767852044
0.0176809539383942747
0.0182596432660438734
0.0188061850366359681
0.0192482804667912927
0.019288416061911378
0.019262522169082575
0.0192744024277800088
0.019302451982150963
0.0193301670214683259
0.0193562898076058039
0.0193613289396362791
0.0193275233310593944
0.0192739164347732334
0.019227093863595817
0.0192056087307516873
0.0192036868230094603
0.019191406527185921
0.0191397446018227481
0.0190533532414331706
0.0189573242347649135
0.0188709132556988228
0.0187577770863858496
0.0185512876930824452
0.0182163822588033569
0.0177958230092080706
0.0173413074585602595
0.016826168170818015
0.0161946599703631164
0.0154619924987614236
0.0147155198749398444
0.0139981799683401159
0.0132209896807110455
0.0122399327265032311
0.0110910528486634092
0.0108583924901590866
0.015639538889599805
0.0162065238149299747
0.0167688108614357199
0.0175464587678987628
0.0182176122266472923
0.0188279372779774495
0.0192704549203997627
0.0193183715881911598
0.019323750728520786
0.019346697797253079
0.0193703492962930268
0.0193847135969583001
0.0193879616256870321
0.0193707313903346418
0.019326393314974339
0.0192686510206056677
0.0192173500143612321
0.019184353959472867
0.019162661217517727
0.0191295500541710482
0.0190653766182795718
0.018972606506328607
0.0188656131735145706
0.0150995590500778588
0.0158091908562625685
0.0165065598627941595
0.0174042793289398631
0.0181758454899283821
0.0188585276938772542
0.0192971303237421364
0.0193466890069964245
0.0193808012856563801
0.0194130263589737014
0.0194322039670392147
0.0194347410549709186
0.0194211420823652281
0.0193882529176825427
0.0193354427293233669
0.0192732931642326209
0.0192160761352515239
0.0191715127335562521
0.0191330668328737637
0.0190837772467070017
0.0190096385599042642
0.0189109247978336281
0.0145563549325528757
0.015406013237734606
0.016245287375412986
0.0172731873385400352
0.0181489999157851099
0.0189080624050701161
0.0193136551844837016
0.0193823668206056197
0.0194409444105533361
0.0194797015951876894
0.0194947507275099671
0.0194869496288295786
0.0194596311831503228
0.019414153638228647
0.0193533609299395316
0.0192860156230286427
0.0192223835060067183
0.0191672894358956812
0.0191150088385234201
0.0190527726750031809
0.0189700376433561968
0.0188654535142114554
0.0139342102279189188
0.0149875133760658929
0.0159901601876093723
0.0171661671062973836
0.018147150827605471
0.0189854204171327028
0.0193151218029411209
0.0194297153582252656
0.0195087449524291474
0.0195522461786595859
0.0195623006991232015
0.0195443386557514129
0.0195049019151970968
0.0194485178550825068
0.0193801960159293296
0.0193074196118299575
0.0192375694727825626
0.019173343229982754
0.0191096256842270551
0.0190366645218523339
0.0189462196558112805
0.0188359607900210786
0.0196339283563315321
0.0196371635285810531
0.0196084740061583801
0.0195573392273320976
0.019491063912702427
0.0194157758369314856
0.0193378606876020986
0.0192624271153561885
0.0191905190189388258
0.0191173607107720106
0.0196808930959210711
0.0196180637899491528
0.0195423509631214368
0.0194604599431145442
0.0193776763990189532
0.0192972304232349283
0.0192188114986093887
0.0191377700423855691
0.0196224930560101596
0.0195339453298521704
0.019446261328157282
0.01936110732043465
0.022357075913262435
0.0116055036802656091
0.00471311342604432883
0.00276284753442744861
0.00170364968229028742
0.00121055893152208043
0.000926026546080423109
0.000752133834004096243
0.000607187664322329378
0.000506792437660592387
0.000436409492157541082
0.000412875384528074577
0.000382224537273765101
0.000380347896238562052
0.000390181270848609406
0.000403339104177011373
0.000422282223296852315
0.000441112130174401709
0.000447581922106253505
0.00044710433729210731
0.000455023522169650655
0.00046595963853755107
0.000487821656807090856
0.000534034361901849163
0.000592516881995347813
0.000671217628867235407
0.000802238132596294227
0.00100178043117402776
0.00122289770059883841
0.00149052881479486664
0.00192432371433289896
0.00254755913738993625
0.00341823462965356846
0.00471570148435529381
0.00724253187431061519
0.00967080463644610921
0.0127886434448820155
0.013852448277737581
0.0181192347262264311
0.0164702112148236955
0.0167936740286500595
0.0188703367752180995
0.0110943875102330839
0.00735733159030447451
0.00589312782757287802
0.00541031525137773694
0.00476156223048208264
0.00435063711274450912
0.0041801349569361131
0.00385629901888094942
0.00388654777270302631
0.0044261099024928887
0.00557665754930335936
0.00681941807849500807
0.00685652240566315182
0.0066406466630079472
0.006306141469305508
0.00595046728238557334
0.00577334308125575929
0.00566806526843314368
0.00560258361704377324
0.00562775989097384459
0.00563893010307400626
0.00539639211375096337
0.00527190370156260888
0.00516124188056850744
0.00508985303541419597
0.00507895079519290159
0.00517547802132679174
0.00532775334888126433
0.00565110991239715053
0.00607017140454007686
0.00677644329596725596
0.00818884387900160708
0.0102604953585609549
0.0116097173574830903
0.0172444933774797554
0.0178412514456530169
0.0184680689069915346
0.0184274486024258097
0.0186773241653250058
0.0192365447598159302
0.0186378503923363935
0.0179640833547363536
0.0177839525385816884
0.01741801357405863
0.0169773405419246966
0.0171690192253633467
0.0181812882272796364
0.018849616182152501
0.0194486553299203398
0.0197974202698336793
0.0189836952533735115
0.0180234990807388376
0.0172800290894227805
0.0167163982931154975
0.0164293000390082593
0.016279215473539211
0.0161155130921598715
0.0160543866937338485
0.01606287689325267
0.0161045870650391339
0.0161714052559513953
0.0159890478069977596
0.0153388952255660085
0.0145755062793074108
0.0140489859220012756
0.0132478519341734657
0.0122402448468322631
0.0111373973009198206
0.00998674382262691555
0.00988696543591887494
0.0103553216648707928
0.0109226589560569107
0.0183509660873423068
0.0180989365597017636
0.0177006773704515112
0.0180688378599173187
0.0189944364102153304
0.0197025148737618658
0.0198970174492485129
0.0195669051827050203
0.019429036310785238
0.0194812068644784481
0.0194998873595116813
0.0193399969289662493
0.0193416483290324015
0.0195055263418509699
0.0199302002633736201
0.0203082919513552992
0.0206576183268970086
0.0208864294143565679
0.0211841088011616198
0.0216149845174631178
0.0220321119973022964
0.0223227340655315284
0.0225853706110378527
0.0228689595546129783
0.0232045723387503781
0.0232485376028796972
0.0228518804494064129
0.0221209539143234039
0.0212714699279750209
0.0202188970696911136
0.0186822768367077077
0.0171109638156853906
0.0157310375272343844
0.0144711986696006694
0.0132456358204630382
0.0122351999980644076
0.0112952248451886634
0.0107358757007238043
0.0187632478426896579
0.0182383965795156651
0.0179360575224098602
0.0181334719896591202
0.0186404902190119813
0.0191397832637387987
0.0195470057140736432
0.0196981024282587985
0.0196094015863254069
0.0195817018855606803
0.0195546938225797141
0.019464454029153179
0.0194887134735497874
0.0196444125820811333
0.0198719617814737091
0.0200329480352582565
0.0201006248558493403
0.0200947877853772071
0.0201605212223224528
0.0203306485679912267
0.020493617707752914
0.0205659827885893605
0.0206187383161556756
0.0207030401350082639
0.0207833283845913729
0.0206248198576709854
0.0202094681335021203
0.0196056346431338312
0.0189847696030436067
0.0182388847534112539
0.0171665483298655448
0.0160557769646740428
0.0150269323054741111
0.0140629355298230382
0.0130853920547506584
0.0121826753937349479
0.0111751964380320951
0.010632044572286772
0.0188372017820241482
0.018238869724559445
0.0180068152998474687
0.018193459200697041
0.0185911090010418521
0.0190287918360564877
0.0194027351928857256
0.019631007875707495
0.0195741331179634798
0.0195384197239374981
0.0195218757517533932
0.0194868257696856513
0.0195151566671840013
0.0196058821303075059
0.0197086793400545607
0.0197630000909742899
0.0197598717362090677
0.0197418689485253721
0.0197829143845198799
0.0198632859196725617
0.0198975641854316973
0.0198644328208158298
0.0198400392262358394
0.0198541755034204806
0.01983991581427395
0.0196451432860905544
0.0192653741579456965
0.0187696695881468707
0.0182096727294819606
0.0175134790848914187
0.0166242654283988191
0.0157234800139964652
0.0149104310780547745
0.014135685985690323
0.0132785504996434274
0.0123512825617267414
0.0112840783566503806
0.0108707335763800119
0.0185799034367661979
0.0180757540224134941
0.0179371340002121051
0.0181626072197408027
0.0185469902280567082
0.0189729517430325713
0.0193578678107088759
0.0196084043958807165
0.0195633033106417144
0.0195321096850402734
0.0195234273651533861
0.0195113510232519001
0.0195293773589489857
0.0195710439776673704
0.0196051318211125786
0.0196061768808470996
0.0195784226656889951
0.0195556731722844636
0.0195703493240590026
0.019595536560134498
0.0195800808333883858
0.01952189507312466
0.0194680150448475128
0.0194365191136087849
0.0193717463139166726
0.0191683232395411796
0.018811290192914637
0.0183594645748331904
0.0178535744877491125
0.0172494557490023986
0.0165067366211734574
0.0157239433696983281
0.0149861187435417556
0.014275365597157098
0.0135055306761395714
0.0126159998494664843
0.0115730494460290247
0.0113087296357875042
0.0181948559908264654
0.017795285617387531
0.0177631286178076657
0.0180652050288998035
0.018483872581452454
0.0189320638849916276
0.0193410020227563276
0.0196012459980749072
0.0195640894616347198
0.0195430748927245268
0.0195393896901411672
0.0195348831474748338
0.0195412543491679178
0.0195516315626393378
0.019548112826514169
0.0195221906801325215
0.0194831919733870207
0.0194542929142712331
0.0194480265527755894
0.0194409419823622434
0.0194004595450819849
0.0193274360247733708
0.0192520078427012575
0.0191852247331744767
0.0190791625954917984
0.0188617429730271943
0.0185242436378940598
0.0181121016702421901
0.0176522027140822782
0.0171114829295179252
0.0164602755403885984
0.0157598071347306128
0.0150806823337986465
0.0144261377466281971
0.0137267440034827617
0.0129005639046948055
0.0119547659353510614
0.0118397274293731199
0.0177090226001434745
0.0174241615979210673
0.0175146264834253745
0.0179199033440511184
0.018404091643431153
0.0188972871767237177
0.0193410922080366927
0.019602454811094322
0.0195669085545891568
0.0195584493637995585
0.0195587449169792801
0.0195552668238041238
0.0195510368401469216
0.0195410390934806152
0.0195157374768226873
0.0194748498170751495
0.0194283769877365252
0.0193914892663883433
0.0193677593918838431
0.0193388424542307903
0.0192830510274527751
0.0192007359653602987
0.0191094748421165202
0.0190138006130084712
0.0188784427184396572
0.0186567851301450427
0.0183404839128207126
0.0179585772043092465
0.0175308285070859202
0.017035210762726908
0.0164528414217649382
0.0158218112815582471
0.0151956802161350036
0.0145857631200350737
0.0139413559315769049
0.0131946109367532816
0.0123833581675754419
0.0123959657663933031
0.0171292764662035711
0.0169831895018516706
0.0172167377420404423
0.0177450033853653391
0.0183168213085735006
0.0188699253180819801
0.019357185139787958
0.0195833929673140637
0.0195739282451221699
0.0195793199181941296
0.019583154309446054
0.0195776772445558911
0.0195638324775245891
0.0195391087929090816
0.0194997150071972471
0.0194488759689143142
0.0193956814061044674
0.0193499224067322194
0.0193113465198271606
0.0192658727325347723
0.0191986445476055451
0.0191089222988056404
0.0190056219583228034
0.0164554277108415054
0.0164904069083650767
0.016885804693387043
0.0175545752017040729
0.018228945259790949
0.0188549566069900927
0.0193911399603548321
0.0195673234367669951
0.0195895188060608016
0.0196085696136213856
0.0196152834105241848
0.0196066154370338926
0.0195842221142708377
0.0195481714112393928
0.0194985223201160941
0.0194399392670072321
0.0193801431607212374
0.0193254580845215081
0.0192740727828799446
0.0192151994774743332
0.0191381780772119682
0.0190413675087992181
0.0156768609760047813
0.0159465010462156338
0.0165318186425060347
0.0173619624577420716
0.0181521115079874631
0.018858958794938898
0.0194227856173718599
0.0195657147049815086
0.0196177294294012997
0.0196492298273236582
0.0196580545606130086
0.0196454666179751956
0.0196152090123039441
0.0195697675113954556
0.0195117754892520957
0.0194464593308662469
0.0193801606069789883
0.0193169403500902358
0.0192544167765487453