/*--------------------------------*- C++ -*----------------------------------*\
| =========                 |                                                 |
| \\      /  F ield         | OpenFOAM: The Open Source CFD Toolbox           |
|  \\    /   O peration     | Version:  2206                                  |
|   \\  /    A nd           | Website:  www.openfoam.com                      |
|    \\/     M anipulation  |                                                 |
\*---------------------------------------------------------------------------*/
FoamFile
{
    version     2.0;
    format      ascii;
    arch        "LSB;label=32;scalar=64";
    class       volVectorField;
    location    "0.239999999999999991";
    object      U;
}
// * * * * * * * * * * * * * * * * * * * * * * * * * * * * * * * * * * * * * //

dimensions      [0 1 -1 0 0 0 0];

internalField   nonuniform List<vector> 
7236
(
(0.661746676884186535 -0.166417386519235405 0.180955299137275094)
(1.00982061253077582 -0.208420973000516124 0.254617073404405425)
(1.19332932612937315 -0.167072346256462695 0.333699636021450696)
(1.40677144003983723 -0.12982582636865328 0.440425801813169149)
(1.65580348255288445 -0.111234511647508499 0.553265396878786397)
(1.84440117278626525 -0.0990201623931986907 0.619580405098617781)
(1.97748966479710653 -0.0930005296542810028 0.65226924716235235)
(2.08548810613396718 -0.0842102252232891646 0.661522070750258706)
(2.16306742636609561 -0.0763149659549002685 0.654353087864980032)
(2.18505075839100771 -0.0704045788048377336 0.648128981006042659)
(2.19751593660128064 -0.069459590608755159 0.640654421274943431)
(2.21798976524854785 -0.0688454735918424821 0.631164381143564879)
(2.25064087635720256 -0.0670751281502427882 0.616794441415517425)
(2.28585513843661348 -0.0641853219302253447 0.60268006127727658)
(2.3187744342370431 -0.0610291049118797321 0.592558579878021408)
(2.35510914813091565 -0.0582585170722241044 0.584669056678580046)
(2.39198979808541567 -0.055439726566476645 0.579120517318523653)
(2.42709224968057091 -0.0524920159132977945 0.576063404535311574)
(2.46291797870505969 -0.0499721267446204057 0.573986802520367045)
(2.49843845757335847 -0.047625859220713454 0.57412157815672038)
(2.53055573051908 -0.0451831799665594058 0.575509259100492221)
(2.55946391734727285 -0.0426111765738393031 0.576901733704402342)
(2.58672537261405022 -0.0396277186811297075 0.576176639150028258)
(2.60904991397418451 -0.0363690520934139491 0.574797302597895188)
(2.62726579837572549 -0.0333658877092845377 0.573274908377624959)
(2.64739456691771613 -0.0298285188644120576 0.571044582687193492)
(2.66260025763083474 -0.0245081361045561726 0.567789427811714154)
(2.65737209172816113 -0.0182131508232403344 0.562320029281036082)
(2.64698664924856386 -0.0137617268703379807 0.555110065264699193)
(2.62307236767039553 -0.00599594675909507178 0.546177833103396182)
(2.56372877623864781 0.00722261982286238544 0.534293351304077624)
(2.46074210066351817 0.0211434884099441292 0.51766470532659381)
(2.29676452051626701 0.0434307312263585849 0.495578286603794493)
(2.05364239329304166 0.0737795404588390269 0.474966456534978765)
(1.71503173151712152 0.109621882701629758 0.470584987329337401)
(1.27112034171325194 0.139525810719562493 0.510760563605829998)
(0.69298698999996966 0.13297755028576308 0.534421214832647484)
(0.180763917630472032 0.100754176736811557 0.845625321308099975)
(0.168382859655539813 -0.509833955483537493 0.206794275743911904)
(0.547217711246382632 -0.389704730992210979 0.0578304234509791487)
(1.1279311549894866 -0.314006622354849219 0.296037467082476691)
(1.45079072293979072 -0.269712078153311496 0.43175085147557446)
(1.57863029434659508 -0.2477519028973236 0.546131206077919207)
(1.59728609220602813 -0.211554122785364507 0.604856987273628022)
(1.55952056433320463 -0.183703528358988621 0.603565275522499167)
(1.51112380747934982 -0.152914211283133067 0.590584025874522967)
(1.46716807456108134 -0.136186010224577825 0.571385093747133754)
(1.40895470431042358 -0.123212312232960003 0.547457825158739531)
(1.33348736590077777 -0.141653079773225332 0.528171265347938679)
(1.27609026143466719 -0.143379612749716168 0.504056873342750067)
(1.27515736313082706 -0.137296997283033906 0.495093160034111579)
(1.30979505044403388 -0.125502772927302386 0.502469794266324321)
(1.35757408748547159 -0.115387882380540305 0.521486412661846477)
(1.39846374366416737 -0.109238800432373911 0.544913322913478271)
(1.43332691854038319 -0.102215009206729976 0.57346692289013379)
(1.46213404857973805 -0.092818538193435815 0.603414711638171508)
(1.47684179216831191 -0.0892642501290964036 0.628578294983228592)
(1.48178396553096525 -0.0857452735926299003 0.648458408538528763)
(1.48386699118185827 -0.0812306566678423492 0.661159056193348693)
(1.4854081807564099 -0.0769072475270718009 0.671133483630449668)
(1.49880313467070625 -0.0708837751982018677 0.674748250156595009)
(1.51981708895244849 -0.0671610918355417946 0.672637969626785903)
(1.54287658895201152 -0.0691000103808780408 0.663410100833302208)
(1.57955917847716432 -0.0664604672813936953 0.653851130739834585)
(1.63083032462014854 -0.057209052739717485 0.643862896162538223)
(1.67985795786302949 -0.0491989760904524495 0.630132463358515471)
(1.71347432613847817 -0.0413915406344593576 0.615180284657051768)
(1.74561830387094763 -0.0224081116374034855 0.601898595764707833)
(1.77502437820448367 0.00701822999717815945 0.586202479986742797)
(1.76791873602426941 0.0400022047026313415 0.565584869786086353)
(1.71853967556724752 0.0844421555279493974 0.543277670378416788)
(1.63570588169214126 0.141779198030830805 0.520233931291810836)
(1.49769895571813572 0.221746769640295854 0.503373927896163531)
(1.27034611107638917 0.315471547247383077 0.511671304351513201)
(0.885742812796126433 0.370483425989351245 0.658086340386693336)
(0.302835427473904073 0.339848204776606377 0.899225899229090797)
(-0.147473427763270937 -0.648139293811022976 -0.764728781968741167)
(0.712638195256036777 -0.45516034630839014 0.0878820833574029125)
(0.990620002445717573 -0.381680272899820983 0.392542813127838675)
(0.941205416273296791 -0.303015076779430237 0.410805154179491538)
(0.759606544302153575 -0.197657329991457076 0.34686025220465555)
(0.536894137266614946 -0.121796931884449094 0.305667603028228152)
(0.391733615337157948 -0.0919464804500852578 0.31702488511156951)
(0.365531468939161774 -0.0857287386673625112 0.352582655898038722)
(0.369485697629355403 -0.0861521143991555022 0.379284242099501401)
(0.36269333623294614 -0.0750064147929675601 0.390863085408057143)
(0.335672144853938759 -0.0762310287089801586 0.389292255597657566)
(0.331290238087329103 -0.0781301527609076923 0.39410613892590135)
(0.354672908027876765 -0.0810093606595932852 0.415199291401078086)
(0.423727704543725214 -0.0887747119102408749 0.453582792531078527)
(0.501035413280105257 -0.0924827271827656644 0.496911528276929526)
(0.569279421804047558 -0.089477311420042463 0.534373722891496095)
(0.625159681450619176 -0.0843711519885186889 0.5628848917561452)
(0.668796120761869006 -0.0782223689546736323 0.572607428466863522)
(0.700725266302478667 -0.0734822040846201952 0.572433740183512008)
(0.724065912444860627 -0.0681464482765054141 0.564334804018325475)
(0.746620099797662196 -0.0632626992067472499 0.552203906350838158)
(0.76248708064858417 -0.0603471998993289141 0.531776217700302367)
(0.77200405663042293 -0.0601444180736103937 0.505144962177882184)
(0.780287875483120175 -0.0599850693956291842 0.477349390435495791)
(0.782377982593597476 -0.0653734433779826762 0.453145507349490106)
(0.785550016690276576 -0.065672480681994605 0.434450330575566201)
(0.794344964253906327 -0.0552437559520773946 0.420766688182407644)
(0.81174125590771995 -0.0427354471680165757 0.414494958683635617)
(0.826629200494659377 -0.0307765945775405093 0.411743239011333917)
(0.83833629332299231 -0.00872680944659934288 0.406985386994557941)
(0.852785695515640207 0.0268340972298969707 0.403518359217002021)
(0.845800779176160478 0.0803672373739999779 0.397793465755108044)
(0.816211144527486443 0.14501448052893795 0.390491313632978398)
(0.784879488997944574 0.216092664211047975 0.395625584816990172)
(0.763117179087787534 0.312681980103965917 0.416793454643186234)
(0.723949530339561331 0.438595594886593942 0.453575260077665132)
(0.594236263571205958 0.55822778578713772 0.606357044871201678)
(0.248411742039232608 0.621329419816907591 0.847546716162292824)
(-0.188883270801035119 -0.227446047718621008 -0.555955271260254236)
(-0.171141294641697916 -0.417725937268752789 -0.0147229995196234212)
(-0.123196445239817307 -0.268148886477139969 0.153539921320931749)
(-0.286192223280420655 -0.0576319574092731685 0.00843818046639584901)
(-0.356360525211068258 0.0601563080110907866 -0.0556465652353224649)
(-0.290769887852617925 0.0387788038473460134 0.0370478133196740361)
(-0.204625304506806716 -0.0275905480748491125 0.136265194909484411)
(-0.181178191628472485 -0.0407281619013302038 0.181955496878971279)
(-0.186174543991851238 -0.0295528013642568088 0.203828623593908437)
(-0.178955529591839579 -0.0163368361316024065 0.220069224618529763)
(-0.152650527910945355 -0.0293018325347914749 0.233854558017347058)
(-0.0958844639692989636 -0.04671618112404409 0.267009104170587819)
(-0.0242572314273432899 -0.0626267681968677437 0.30990456853365228)
(0.0504362995183671239 -0.0752603877804812887 0.348106534189783601)
(0.121683118156585404 -0.0742065588060041026 0.390042479119763918)
(0.176952163293788572 -0.0646535069612050595 0.400515813661623588)
(0.218960194889693593 -0.0539420664567988803 0.396342981674603689)
(0.256096978985076773 -0.0392913964509832569 0.391215196244167229)
(0.290355976025968354 -0.0238276389986142069 0.382008336881101029)
(0.317629059036877714 -0.0106987354705868083 0.364467068919711645)
(0.341960194702569387 -0.000665383200580935835 0.343645625254252352)
(0.363465962429519562 0.00342318824164627479 0.323373000535092103)
(0.380081118292179054 0.0055022089862755974 0.306389442324726202)
(0.388551078452820609 0.00798318936415288137 0.292839245317433716)
(0.386315324846860764 0.00721195547365058656 0.28199696899843929)
(0.377523517280976828 0.00632992687054809849 0.271940725589198573)
(0.369917534418535476 0.00959375513158346183 0.26241327251575286)
(0.361377437824941361 0.0194709194853097123 0.254729491693920729)
(0.341917839608360363 0.0341522771815353648 0.248065225465004757)
(0.30943859123655354 0.0529311378379847403 0.242394993081618021)
(0.281047744293974056 0.086968964562431153 0.241414335803868757)
(0.264468812209107174 0.138090636552160362 0.244837100232430716)
(0.24986799225535028 0.194788306440727588 0.254712049586773903)
(0.226818746701145213 0.252793116858062217 0.278716042906608896)
(0.218862843266828866 0.337632722770392357 0.323271239077725592)
(0.240581926142710734 0.473712915844518245 0.386872699755809957)
(0.249522137691212648 0.650076685360560402 0.538592253892704265)
(0.13456936682665005 0.77502101047136096 0.779118488461954639)
(-0.155483353199549368 -0.0607605542543206839 -0.701303132623584791)
(-0.434436949627044988 -0.172388879072034873 -0.218645808240190836)
(-0.427871835698902081 -0.0766359577844472062 -0.14557675802991682)
(-0.425844686215861634 -0.0189891382812953195 -0.116507109738401143)
(-0.411458299034395625 0.0124397298884718205 -0.0975332214773196315)
(-0.394485106688720166 0.0214784277052702532 -0.0458698871848898099)
(-0.370772863698455191 0.0305917816376354672 0.0206163307398070997)
(-0.347079794720607238 0.0368090088158158843 0.0553732424625398567)
(-0.324748930081950826 0.0312899450996582326 0.0816268190376386316)
(-0.298793608757728424 0.0216859587201307623 0.109076669485810018)
(-0.265013079203375079 0.00529940038499883935 0.135255454787383711)
(-0.227273728332341524 -0.00871411499300674131 0.158869816008837261)
(-0.190210036351698641 -0.0139843212524142155 0.177462231425512845)
(-0.154815516648307033 -0.0133598731354067322 0.191524983095545054)
(-0.117721850953800458 -0.00673857062342256286 0.208442716383576393)
(-0.083405342220972456 0.00403153899063652191 0.217081280793917031)
(-0.0513219740916954423 0.012937004595334237 0.220283351538112349)
(-0.0194762208385389733 0.0219800968887093953 0.218767949305756687)
(0.0102779114632125489 0.0313976738192671828 0.211797512863654086)
(0.035208873719064615 0.0376910334140753076 0.201927587196979924)
(0.0580657194581612468 0.0414844754994846548 0.194989346978770489)
(0.0753740127078474514 0.0424390933604435472 0.189718238592681443)
(0.086370146832552841 0.0461293846704153507 0.184101337790613606)
(0.0886735824621709134 0.0498020770597062679 0.176453494630659596)
(0.0822868716531044153 0.0505949631697782606 0.168890147398509827)
(0.0708499597266173536 0.0501127747388581957 0.162753364479172796)
(0.0613359180002304438 0.0575227549255743001 0.158364237709012895)
(0.0515327277965281424 0.0717498991131265418 0.156046301759697859)
(0.0322709505932532725 0.0860788296057699576 0.154086180603105805)
(0.00214153731682380222 0.100338252266032782 0.153569890376943297)
(-0.0243649229425819472 0.128127997634970625 0.157493377482604668)
(-0.0381386832335697812 0.172478078990849659 0.168055858988861717)
(-0.0472222621096729245 0.222373821960192286 0.187185870149835176)
(-0.0643893611745288419 0.271233461900982298 0.217402036620785)
(-0.0730080639697884143 0.340160833901702209 0.265144635489574509)
(-0.0478317569870394255 0.465546050621301777 0.336546023385377036)
(0.00624173056625484945 0.664346374862251676 0.478816589838857665)
(0.0362864729958193785 0.832770487967509521 0.703351027153466424)
(-0.143873698794057758 0.0669792422875446075 -1.01489767566106348)
(-0.423029647645558615 -0.0327045620638642121 -0.309563025533751424)
(-0.400380655791345852 -0.0142261843485480995 -0.141116831149484367)
(-0.42124348191152422 0.00294261309047886069 -0.110386196392838726)
(-0.414486338345580074 0.0137058026335433528 -0.0890338239051583491)
(-0.399468066321774451 0.0262107806212906677 -0.0458790252483292013)
(-0.378111552541333884 0.0267316773142492782 -0.00200298426326932927)
(-0.359503107496004781 0.0289231941588025433 0.0273853025723177906)
(-0.337384190145200547 0.0316702442128524581 0.0491539764709350568)
(-0.316890500861591984 0.0330692324920847935 0.0660615491686167844)
(-0.298953907998456447 0.0309949892727483939 0.0785818211098893299)
(-0.28146066098289485 0.0294577459218061041 0.0888124040879423593)
(-0.263219361796109608 0.0296897832127639011 0.0983951591882748916)
(-0.24293937168186186 0.0303521508423182304 0.109232393306411726)
(-0.21842519975897004 0.0348559365478850955 0.121047520258387234)
(-0.192590111963361593 0.0412332345060406544 0.129668465757865975)
(-0.169304984748089055 0.0481456442798801343 0.132940796571654696)
(-0.14894921343437284 0.055294070293359282 0.12917377810793057)
(-0.130242383659831457 0.0616168626678736259 0.122476290236194579)
(-0.112277489678888412 0.0654693383523371891 0.118620837951332311)
(-0.0956441597660475373 0.0690671763763038293 0.11884178384878627)
(-0.0838586797086654928 0.0728158710107243146 0.119098523864366715)
(-0.0773623164976494915 0.0782384027982363089 0.116372950275041936)
(-0.0759975576409983866 0.0819826083291493451 0.110875478194936053)
(-0.0793608453531140096 0.0825894737041093091 0.106579863690721366)
(-0.0873849618553048935 0.0830156235639219475 0.104628245912120318)
(-0.0956885899671316431 0.0903662172606044256 0.104569345306479253)
(-0.10585972190072343 0.104083391269604281 0.105939507480970752)
(-0.121123135577041768 0.118126145686728509 0.10821263381691365)
(-0.143754783037719769 0.131623938688713304 0.112221340877444065)
(-0.164959277770128365 0.154976050089234374 0.120091512665006839)
(-0.176059801778197911 0.192833984188811092 0.134700818816692602)
(-0.183728878624486475 0.238312023391822947 0.157961351384195481)
(-0.194367687039788628 0.283010365582228418 0.189225988231787934)
(-0.200993064368619301 0.340895726666371135 0.232972881907467816)
(-0.18501995491096257 0.450690096254270423 0.302211674241943618)
(-0.131045813106313802 0.64862112828887164 0.435628127447017455)
(-0.0299713526397162415 0.815907100985456157 0.617521397892279)
(-0.157182797120494377 0.128990562950171916 -0.960409974512533293)
(-0.436505528525466313 0.0566071640205907944 -0.320896763174511823)
(-0.407903193735774383 0.0333640548018733774 -0.165152168601207794)
(-0.427744008510226759 0.0237460965678101266 -0.111395627550076481)
(-0.415861219213739086 0.0259709393031126896 -0.074423345063888216)
(-0.401106400060527668 0.0339746873740478655 -0.0351703974994382745)
(-0.381816156049393229 0.0363393095207770953 -0.00394286982109692818)
(-0.364055175497097816 0.0401648253461117932 0.0165353032293551923)
(-0.345548466380773689 0.0441847177620087669 0.0323448688866053435)
(-0.327091220286175655 0.0469458301400746403 0.0448901336839488338)
(-0.309662581036912021 0.0473901199694999123 0.0545807608726539481)
(-0.293429017146072613 0.0476394612034617068 0.0621288807276649119)
(-0.278058860652445006 0.0480533131070085898 0.0689176640119990441)
(-0.263928676238704807 0.0496212809507975 0.076583683283968168)
(-0.249708482480149763 0.0543493325357535667 0.0851344751394556565)
(-0.234904945737636761 0.0611019965772475609 0.0920911562816501411)
(-0.21832546815324444 0.0680329746760168358 0.0944428107382553617)
(-0.201902233174399204 0.0735833245229934735 0.0915653950842040543)
(-0.187102947037007528 0.0777043319320877418 0.0870459331174395362)
(-0.173877829348763585 0.0813206840814335169 0.0847823228494948705)
(-0.1625049095758688 0.0865433162240511339 0.0850622770015910246)
(-0.154400970281745598 0.0925820026046161593 0.085057317360688306)
(-0.150050311124882235 0.0986813174288460743 0.082838767848398831)
(-0.149058552790578669 0.102791269737065982 0.07959293792467452)
(-0.151429971264516045 0.104495815799748162 0.0779009047357156759)
(-0.157361728322334277 0.106589638651205437 0.0781796143737921168)
(-0.165945534726686134 0.113822550105440373 0.0801030522054903965)
(-0.17188413730334276 0.127106442790127117 0.0836875902642558456)
(-0.18313932313462708 0.141539262279879258 0.0885161688053157925)
(-0.197942723818555988 0.155502684577638106 0.0946977871123352716)
(-0.215647134549759145 0.176396938177150187 0.104454253550894161)
(-0.23062582818643601 0.20954215613762639 0.120659366989321518)
(-0.238843286798395782 0.250879962309877413 0.144455194661177733)
(-0.244966572148455602 0.292480265388004312 0.174424126642379218)
(-0.250804756198779955 0.343717038434355193 0.213857420002444953)
(-0.241092502464402003 0.439444365040682128 0.278270843176286253)
(-0.192949331947922048 0.620105167856717654 0.398547655879901985)
(-0.0664125219658489446 0.764184096581840389 0.531836209967523788)
(-0.169437493494667107 0.172083688414613439 -0.936605874805157335)
(-0.454107714960019337 0.0891379373385469687 -0.323678746402312756)
(-0.423830319411745482 0.0546953236452597316 -0.181387561439811135)
(-0.432783988530301977 0.03527872559073255 -0.111599403559699911)
(-0.416310825410397711 0.0322293781802613089 -0.0640140389763867168)
(-0.40041710214713977 0.0347317667826128121 -0.0275989066303636982)
(-0.382152082763585588 0.0365853171427628354 -0.00233243730020361167)
(-0.365112062346871824 0.0395011036434532239 0.0156084164755184718)
(-0.347854091729540515 0.0437082651171550249 0.0293223303917832974)
(-0.330897002530677109 0.0480064423324442976 0.0403579873019442592)
(-0.314601330773830012 0.050994576611276439 0.0480632288223122178)
(-0.299620083016187422 0.0530939723595690305 0.0544283958547687532)
(-0.285575847939782357 0.0547385628948566794 0.0604373896584523979)
(-0.272255563163807945 0.0575307746377862264 0.0665982638614886907)
(-0.258923906854294061 0.0633049443160493275 0.072818490539255265)
(-0.244794155233640759 0.0709876863289908705 0.0774987200113016889)
(-0.230517340125206166 0.0782435557327071929 0.0789155964624952411)
(-0.216988817005940166 0.0837219423906028076 0.0770886874924651966)
(-0.20485538707556461 0.0878891284954228524 0.0740445176893620993)
(-0.194660013548120125 0.0922178080730526178 0.0718418405322507891)
(-0.18695122014800758 0.0983169298275121534 0.0707684497358067877)
(-0.180918188779616129 0.105221182791315954 0.0697451609375358134)
(-0.176860679891049755 0.111743593951246292 0.0679428907565601259)
(-0.175008556952320565 0.116417787472952797 0.0662339875601123673)
(-0.17588885896268458 0.119501988725555786 0.0657980882660107319)
(-0.179806852102962073 0.123342499109134293 0.0668128104978071569)
(-0.186112611262018529 0.131111267018018146 0.0693184672532611013)
(-0.19359496781588445 0.144052961266347895 0.0737277040843198894)
(-0.201336361520193297 0.158548561382437114 0.0796623286896369076)
(-0.212446135982638229 0.17324742763551193 0.0869248800652374087)
(-0.226024423392421098 0.193529440310853507 0.0974120105653649149)
(-0.237143175563376107 0.223409724231425022 0.113462710998885802)
(-0.243916734799089763 0.260566381462309093 0.135874216787190444)
(-0.248470210958915139 0.299556252983446292 0.163628282196120356)
(-0.25146766148008759 0.34697550590646481 0.19963656844694927)
(-0.248307865468110289 0.431566200865205085 0.258358929917630431)
(-0.208241752176662687 0.587734990590895623 0.36132946100545893)
(-0.0796274710567007604 0.701608526105975905 0.453244603723511552)
(-0.186800989937978112 0.168414447382722904 -0.939015607161657995)
(-0.485576675026876514 0.0876271744633362326 -0.329067216220462755)
(-0.435756446642469208 0.0614372367755591647 -0.183390528333356062)
(-0.439541975668268248 0.041087379461919156 -0.103060560153915265)
(-0.417725734311376662 0.0352055524972533715 -0.0536557028113232443)
(-0.400522081090655013 0.0340997443070959125 -0.0191753294023220347)
(-0.381938195832137062 0.035376991980872928 0.00249187971573495981)
(-0.364689867128973888 0.0382067189654925546 0.0183574276341535447)
(-0.347714766940933173 0.0421040516149973829 0.0305857032777762453)
(-0.331286778086991529 0.0464682960895757557 0.0396793883775875544)
(-0.31561913843608369 0.0500824566670312193 0.0468139114429078906)
(-0.30078076308656243 0.0532182828007129044 0.0532171239072034841)
(-0.286744536665855865 0.0564969787642633503 0.059242813467583276)
(-0.273334283850846016 0.0609335418014125343 0.0647313735781842592)
(-0.260022000058896974 0.0675043331739460378 0.0693380112964777501)
(-0.246210175527550451 0.0754637369731686741 0.0724958158136609493)
(-0.232281280334055901 0.0830815431582464237 0.0732992328391651599)
(-0.219323827181697018 0.0893797518841067812 0.0718810855627322748)
(-0.208069024606454489 0.0945870104415153928 0.0693100772913075314)
(-0.199258863452830365 0.0998887069914257825 0.0668054117295728278)
(-0.192552662270648239 0.10639902840918733 0.0648506570830071072)
(-0.187254410114166603 0.113544135959527906 0.0632067588267055946)
(-0.18329515872075694 0.120312510764146549 0.0615846257199744312)
(-0.181119558721975327 0.125664225690656828 0.0604966064715904139)
(-0.18138537967188581 0.130092073322360863 0.0604732547774863224)
(-0.184615449151512206 0.135556777142427809 0.0616992449802500065)
(-0.190069826072720938 0.144197832519500579 0.0643216486147398792)
(-0.196713989081156032 0.156722631234401444 0.0687913027560917573)
(-0.202875645179765696 0.170976303995148959 0.0749354175684306123)
(-0.211265008720340652 0.186373783335689686 0.0826452506396193054)
(-0.221773533336097312 0.206475123579399067 0.0932033062529411538)
(-0.231186914920658626 0.234067136171202256 0.108323877513920183)
(-0.237000523975624489 0.267872620286933316 0.128709098232874297)
(-0.240093558570189963 0.304658476417309476 0.153903209544334008)
(-0.241877140581828631 0.34981018434174993 0.186885103812177961)
(-0.237751058423570832 0.425546524275378923 0.239321427538153442)
(-0.198143027995358628 0.55573030725829653 0.32359222048784253)
(-0.0782584701129598326 0.639907810453763215 0.384590950713610769)
(-0.196087059587773477 0.130773455339720623 -0.904311083139757943)
(-0.508559661987297185 0.0812826163000587576 -0.316169977141934067)
(-0.443554580592687098 0.0642791997893726041 -0.171936942054066511)
(-0.446775372056302522 0.0454804246018655212 -0.090724962533218434)
(-0.421126166706027871 0.0374123844119171878 -0.0415108670822564307)
(-0.401738492434517036 0.0340711123695381923 -0.0103582185233359846)
(-0.38162016953839123 0.0341501777289812541 0.00878080024068369006)
(-0.3634531272374808 0.0362130225472423323 0.0231683815103192574)
(-0.346048763274216742 0.0396585317721106848 0.0336461513836567722)
(-0.329828466584384861 0.043725140986538201 0.0412715056593477569)
(-0.314405357579422062 0.0477463457615077205 0.0482091481672550642)
(-0.299413217276467691 0.0519163944052462994 0.0546387780379235244)
(-0.285009480972442331 0.0565800583152410302 0.0604631778400909203)
(-0.27107915199961341 0.0623003384554325357 0.0653708166899496651)
(-0.257328528856868355 0.0695094265442133263 0.069078998640401082)
(-0.243391910734407191 0.0777332920030887609 0.0713141694485091709)
(-0.229609342666700078 0.0858052455339658321 0.0716555225544625585)
(-0.216965733094533347 0.0929700357639831471 0.0701899659332769627)
(-0.206320579497233425 0.099272844463577814 0.0676485455936463448)
(-0.198009255185147892 0.105501871053921642 0.0648946966594108055)
(-0.191609823367341198 0.112390899275717188 0.0624462865871540096)
(-0.186593838910834031 0.119646156844324114 0.0603913037891431331)
(-0.203260292297226308 0.121844095329840543 -0.869166410060307038)
(-0.522713614361042356 0.0837634010129726519 -0.298339231428440488)
(-0.451225596204942736 0.0688273802953946884 -0.15888939538141833)
(-0.454394293660509707 0.0504736136188212586 -0.0757875250202728334)
(-0.425025347537673626 0.04003019699003936 -0.0297379236799934395)
(-0.402883535800212189 0.0346642448599989647 -0.00191990385694685087)
(-0.380888955772913707 0.0329577465463582117 0.0156957965795069057)
(-0.361609243373678613 0.0342641133125176703 0.0281887505775228406)
(-0.343723081143634923 0.0371124237417458785 0.0372483232126113867)
(-0.327319668613334058 0.0409050359225266308 0.0445049361567678714)
(-0.311733409475843382 0.0453508028384969897 0.05113875247197322)
(-0.296566762662638872 0.0503248893754569965 0.0572672492658132873)
(-0.281800605458495002 0.0560374737847060475 0.0626661694747765591)
(-0.267405247540917601 0.0627546895238812047 0.0670353067386913887)
(-0.253223485514368241 0.0706236021518609897 0.0700991347870534853)
(-0.239168697421817872 0.0792516050974341052 0.0716404578125649089)
(-0.225584879188295007 0.0878289038472443162 0.0714613192488831039)
(-0.213256114886299392 0.0957514899762466204 0.0697364118113216608)
(-0.202895931211201141 0.102965605234149868 0.067051348724585777)
(-0.194721522051097912 0.109962352598449525 0.0640818249471533652)
(-0.188419407939090289 0.117228092470896217 0.0613079460174413837)
(-0.183529695671570847 0.124643004369743432 0.0589542901266153843)
(-0.206695510581143133 0.127309675718817766 -0.833342144194573531)
(-0.529402007297277488 0.0933349406035139106 -0.283214122181809969)
(-0.460374462806400653 0.0749574637959923851 -0.145773193277649898)
(-0.461800505761076341 0.0550521015198218167 -0.0638273729920149913)
(-0.429268015548696313 0.0422892676239461293 -0.0209409859033691317)
(-0.404599077490278236 0.0348618215320764605 0.00552817058821353582)
(-0.380565041053460063 0.0318837399810759786 0.0216919579958616375)
(-0.3599802805785422 0.0323472321000293633 0.0328889685008735833)
(-0.341308837756459982 0.034813740394267878 0.0412807344268405346)
(-0.324381920934938173 0.0386178289433704025 0.0480961999951996025)
(-0.308453194961455179 0.0433625454506100655 0.0543295340243963795)
(-0.292996376405647962 0.0489278377093033817 0.0601274242186298283)
(-0.277810702756057903 0.055420688647269345 0.0651634350283937652)
(-0.262913535397317877 0.0629461188913370828 0.0690621021133107499)
(-0.24834155486972348 0.071453432624359936 0.0715370440922866307)
(-0.23421754276751694 0.0805735159467404344 0.0724146965941709353)
(-0.220872254828160947 0.089663397386993221 0.0716745059826527364)
(-0.208897033356604256 0.098216729749576584 0.0695776158703102082)
(-0.198813745093453342 0.106141957448869798 0.0666479155668801421)
(-0.190763890714074319 0.113738726195483572 0.0634545760280678106)
(-0.184509411056210604 0.121345602440866937 0.0604346418828279122)
(-0.179701892417614584 0.128961369640695961 0.0578540538646448721)
(-0.224597186009817262 0.145511949894681636 -0.77280279049378553)
(-0.536428779508012377 0.105911402446149647 -0.266108310558503092)
(-0.470911212156095715 0.0812231273635904416 -0.131583928872343686)
(-0.470215138421288037 0.0574816583945824827 -0.0530536867127695475)
(-0.434181244054559934 0.0425724151963643577 -0.0128527216321996148)
(-0.406887820067059536 0.0336939284847091944 0.0122759935332306877)
(-0.380728338647915943 0.0301616503932802052 0.0271778520417381569)
(-0.358675841754647506 0.0302523033272401841 0.0374244310560558902)
(-0.339152309166747157 0.0326573617315890699 0.0450977556960008366)
(-0.321611834215378811 0.0365328925677585736 0.0514620933860003918)
(-0.305211665818430122 0.041567347522292436 0.0574387817310292731)
(-0.289299916284490977 0.0476586380980088681 0.062992985646228683)
(-0.273589905011646151 0.0548399656242752748 0.0676853037331045099)
(-0.25817819666896219 0.0630908381934521256 0.0711003371980766657)
(-0.243248879992037426 0.0722325037144335713 0.0729604012058763102)
(-0.229051076901125028 0.0818646274960571629 0.073169359608258891)
(-0.2159087224871232 0.0914339749167838722 0.0718337737682265137)
(-0.204262825432723144 0.100505983960780212 0.0692970412621934234)
(-0.194463926302798462 0.108972351603062817 0.0660713994665965143)
(-0.186574369820054681 0.117024542903589518 0.0626573240803916798)
(-0.180393876782877133 0.124923376467090896 0.0594374382634635379)
(-0.175661256848855724 0.132739475779126093 0.056676448652129216)
(-0.318833770812650408 0.0343644713981238609 0.0545595341707666992)
(-0.301844576530637565 0.0398325155774273965 0.0603659180083135558)
(-0.285349939419290932 0.0464707729899134572 0.0657225471798083133)
(-0.269096188761942023 0.0543567155832275495 0.070097267928252549)
(-0.25322222548198442 0.0633227078447862329 0.0730080286748454738)