/*--------------------------------*- C++ -*----------------------------------*\
| =========                 |                                                 |
| \\      /  F ield         | OpenFOAM: The Open Source CFD Toolbox           |
|  \\    /   O peration     | Version:  2206                                  |
|   \\  /    A nd           | Website:  www.openfoam.com                      |
|    \\/     M anipulation  |                                                 |
\*---------------------------------------------------------------------------*/
FoamFile
{
    version     2.0;
    format      ascii;
    arch        "LSB;label=32;scalar=64";
    class       surfaceScalarField;
    location    "0.570000000000000284";
    object      alphaPhi0.water;
}
// * * * * * * * * * * * * * * * * * * * * * * * * * * * * * * * * * * * * * //

dimensions      [0 3 -1 0 0 0 0];

oriented        oriented;

internalField   nonuniform List<scalar> 
20536
(
-4.34869769894888185e-05
-1.96348310853007116e-06
-7.8691618377232025e-05
6.20302335036634e-05
-8.93970413326846552e-05
-0.000294609465394051623
0.000293156497685426653
0.000108760800915104713
6.23942900082899272e-08
-2.46310791258669725e-07
-1.50150989612246958e-06
9.05676576488583071e-08
-8.64055870422109442e-08
-1.28685377295395164e-05
1.72111507342735212e-05
1.75354194051264974e-05
2.92853194417597167e-08
-1.00182917117429638e-07
7.20137979686927745e-09
-5.22650921127384323e-08
3.6578189076070741e-08
-1.3608117623856081e-07
-2.14442661224215184e-08
2.64043280945444558e-08
8.31637202509095881e-08
-2.01033541540198625e-07
-5.95681037435717613e-08
8.39491423104585575e-08
6.07640811751660463e-08
-1.09141361845731862e-07
-9.14515231282041085e-08
7.99115076405251098e-09
-3.90176104925071356e-08
-2.17051429894433464e-08
-2.53820271974975988e-11
3.71526437181359903e-08
1.85619508847540485e-07
1.71625010721787708e-09
2.80367964599283779e-08
-1.14253998536673912e-07
1.70015403077234883e-07
-2.5435808766119131e-08
-4.9830236494008143e-10
-2.58203297539814062e-07
1.67169166886900935e-07
-6.44371594852758206e-08
1.56592112647372749e-08
-1.08347377871211319e-07
5.04177335466528356e-08
-2.42305794240018187e-08
4.46744682082442301e-09
-2.24083435440780062e-08
-1.30253543121232745e-08
-1.06550487212509252e-10
-5.32819343066221491e-09
2.89447196895079489e-08
2.68274578056643604e-08
3.96339070797380802e-10
6.42504296932920509e-09
-1.39222440084401661e-08
6.19193872088236393e-08
-3.24602567017403234e-09
1.34239227237448764e-08
-1.20369730203091272e-08
3.25711614915017957e-08
-1.30134055023850833e-08
1.18575326507484464e-08
-3.03021000865133324e-08
1.77993411129520939e-08
-9.31094833916575282e-09
2.44275063393839113e-09
-2.20385351721168206e-09
-3.75243493984304591e-09
3.93388630930041629e-10
-1.24962104442862176e-09
9.68697838200319922e-09
4.90042951121039549e-09
-2.29579496915235298e-10
8.70097833302342794e-10
-3.43672026571188067e-09
2.36530506440286399e-08
-8.36896384670725041e-10
5.04493496639147781e-09
-2.61877175029398101e-08
1.87024477901090753e-08
-9.82350751837852069e-10
2.72272629178922391e-09
-9.84916412902735298e-09
8.65784087597761233e-09
-4.39842682756802109e-10
2.130093713863033e-10
1.24826398507992659e-09
-3.17597803560401086e-10
2.58656978393504663e-11
-7.45858889229788443e-12
5.18569626071713403e-09
1.06052084046058532e-09
-2.35707035781563231e-11
1.93293605956736424e-10
-1.67260975223235864e-09
1.29799077399116744e-09
-1.50167490295829684e-11
2.62829215182547056e-10
-1.35927888212572726e-09
5.83145480133585868e-10
-8.13850094526301557e-12
1.03342282975093858e-10
-4.34772501246874591e-10
2.67943479269583389e-10
-4.26625946516256374e-11
2.75429481706861457e-11
-8.74391844231267986e-11
-1.09291928675939975e-10
1.95525288705816017e-11
-3.14406132643095916e-11
1.7873764058165167e-10
2.13828280775233627e-11
-1.14387443563414722e-11
6.21716077105316484e-12
-1.4395682335911888e-12
8.57899607014290919e-12
-3.17463092208005719e-12
1.94405038511953354e-12
-8.39142355787118175e-13
6.57608786291772104e-12
-3.04014732591008951e-12
1.06020999801547717e-12
-8.23860714220898669e-13
3.07270640901610954e-11
-2.12674485595669934e-11
3.50982566135129182e-12
-1.26348462800831597e-12
-6.19135202875760339e-11
1.28709888554366789e-11
-5.06269268917526495e-12
1.29123262925072241e-10
4.45920810953948955e-12
-1.42657160733927203e-12
1.65852231934163832e-12
-1.0478778538912357e-14
1.95363051921711322e-12
-4.55068530566458371e-13
4.19928406219565567e-13
-2.89285610916915085e-14
4.4866621351371907e-12
-4.18928354340718849e-12
5.8367684405062097e-13
-2.799150803917498e-13
3.21226005090847954e-11
-1.12544047869137326e-11
2.24389730327643637e-12
-1.3877038402081738e-12
-1.74859762516548536e-11
3.59431060966630642e-12
-1.16768188487880149e-11
1.25924388447663934e-10
5.17785027907819263e-13
-4.38369080796521381e-14
1.59831447319726597e-13
-2.01460442930273818e-14
7.06186568788585654e-13
-3.36036502463837879e-13
5.46475914531596868e-14
-5.38068843405983565e-14
6.36590005692630618e-12
-2.11880421099031347e-13
7.06303288312687189e-13
-5.3073946417421347e-13
8.14488458770286256e-12
-5.56036675417569922e-13
8.11853699000537552e-13
-9.91511559243424639e-13
-1.60393546951384295e-11
9.74903675158125709e-13
-1.38832257768548297e-11
3.06289449929165037e-11
9.44385422921232933e-15
-1.05327095523722073e-14
1.17421074730242354e-15
-1.19930749817941582e-14
1.76150645619978574e-13
-3.1151992812734682e-14
2.70441690903498152e-14
-1.62347468679851731e-14
7.05940714710606387e-14
-2.15638311243867291e-14
8.53041798434740599e-15
-6.35720296956838183e-14
8.03863840919012489e-13
-1.62272244925778607e-13
4.95111759007119201e-14
-1.06243582530464125e-12
-6.71585024698519959e-11
7.28443810644905965e-12
-3.24256224508208577e-13
3.02653363131801426e-11
5.57678572020423572e-15
-3.85397034829089787e-16
7.81587901613418978e-16
-4.2197706411432771e-16
8.18973503081202476e-15
-1.12322617038567662e-16
1.38341141437289845e-15
-2.65655037961309506e-16
1.99354400493721428e-14
-1.54496174027526316e-14
1.48433854996033868e-15
-3.01957791814101736e-15
4.32892188987388716e-13
-5.53257330459294682e-13
1.8410472371414411e-14
-3.75591029135351716e-15
-2.00691414799471967e-13
1.20679712472041282e-11
-1.11347073108369644e-14
6.15229484281656747e-11
-8.31243689278305212e-22
1.87765116882352069e-22
-2.70860136519202885e-22
2.15368985861938727e-17
-7.8431625249021777e-21
-1.01324985532038603e-18
7.48358300394987691e-17
-3.11128505324071762e-18
1.7994149913171771e-17
-8.13502801643131365e-18
6.45948453997378306e-17
-2.2770168281666733e-17
3.074480005079132e-18
-5.07700550433010123e-17
5.5257628117833932e-15
-1.18639896039730861e-16
1.86599773261908286e-15
-3.93017948690202666e-16
2.35917838543312478e-13
-3.19193563927286975e-17
5.26009520775578098e-14
-4.63844635904668776e-15
-5.24414629757960916e-18
7.1870381105777054e-15
-6.19435903106226305e-16
2.86650892087248394e-14
-4.46758989268331944e-23
3.48791535784914752e-23
4.07041246750090658e-24
1.84118126516287005e-21
4.95774742480029792e-24
-3.16978408091032858e-24
7.62363395917735294e-19
5.19147783576205321e-25
7.59848712001823137e-20
-6.71313548696821947e-20
6.36735790979743729e-18
4.71524665980452308e-26
9.1961403659289563e-19
-5.18825659841367202e-19
2.06036076185995753e-17
-1.81819679621414884e-26
4.72020241635723543e-18
-1.50424986029051685e-18
8.15417404718900116e-18
9.14128853653743956e-23
2.35826483506510305e-18
-3.64922153095310859e-18
4.45347129437616036e-19
2.45525859460862655e-19
-2.02534100773785567e-19
1.70706877253650594e-18
-4.82585865366688924e-24
6.36981145611690506e-24
2.59830144548580311e-25
-7.25361691109077575e-25
4.06505030913019859e-25
3.01536899818359016e-26
-7.92342305242542751e-26
1.67202849605662756e-26
-1.53212647057268802e-26
2.98333371987669728e-27
-7.41852324949734641e-27
5.75103419279314023e-28
-1.58423327143127772e-27
2.47268657930506324e-28
9.6024530947534983e-28
1.82209947831238733e-29
2.33993657175565589e-28
-2.68129511730728737e-26
-1.48568143257654093e-23
1.82164880305598845e-26
-4.25926198467129887e-24
2.68066862698715029e-23
3.37676811650635743e-23
-2.51862713084519739e-20
6.8129866051530456e-20
-7.27987876490408976e-20
-2.89153294885303108e-25
4.26398701086770405e-32
-1.95198607628326156e-26
8.17717401013967323e-31
-8.37586418534310418e-28
-1.65035922167549695e-28
1.34488334780481427e-31
-2.96889010054259783e-29
-6.50650258770323533e-30
1.29362940320647636e-30
-9.58994443333978183e-31
-2.4177130400202508e-31
1.77058885781690013e-31
-9.67917922358868088e-28
-2.89515471592869521e-28
4.19018089372568352e-27
-6.56010107328359078e-25
1.00374925297001448e-23
-1.79387657536321707e-24
-3.94156993566709103e-05
-9.50592957214747016e-06
-8.50408081029376873e-05
-8.89121160961928723e-05
-0.000266498387425740519
9.53888600332067219e-05
-5.38891810665609945e-06
-1.06853760272365587e-06
-2.35228671148820574e-06
-3.56907486679743752e-07
-1.4828324257433554e-05
2.41335787838140286e-05
6.94890637084478598e-08
-7.02247166046205192e-08
2.16061605227572473e-09
3.40698601782652389e-08
-4.89977210936156763e-08
-7.32579463106590653e-09
8.20472223625832442e-08
-1.16612380616461699e-07
-1.75624787315710826e-08
4.0800378419186849e-07
-1.34636233685697801e-07
-8.11464502064071968e-07
-3.15307800271941538e-08
-1.70796730816127167e-07
8.80737767652741837e-08
5.38418301769602229e-08
-4.77299358934574867e-09
3.30508594649412997e-09
5.04483567094629552e-08
-5.95855385209797638e-09
2.27419497056962221e-09
1.71751109824383378e-07
-1.84332696955999073e-08
-6.35865218082734641e-09
4.79584087260507775e-08
-6.86836274837982666e-09
-2.56969081119090944e-09
-3.91102470222619351e-09
-5.78322816113552559e-10
2.07777546525885173e-08
5.32064779420922901e-09
-3.51367800799769625e-10
1.58147349042633897e-09
1.25869828117895637e-08
-1.70781943776889411e-09
2.32943393922366252e-09
8.3503391415772186e-09
-3.12717590536265894e-09
7.54241888155727015e-10
6.01010132838803932e-09
-1.78211808916694229e-09
3.59506651457965851e-10
-1.0452845429366534e-09
2.89868822864969792e-11
3.54036727299494915e-09
7.20173994660929483e-10
-1.1326994212137771e-10
1.77273708006890589e-10
3.60716336624897467e-09
-1.99409929844555997e-10
7.19477193310374614e-10
2.74164356613865311e-09
-1.5793477246502616e-10
3.18320109451499397e-10
1.20054028862336707e-09
-1.65953618141433681e-10
7.1368813358029232e-11
-5.05891442774975062e-10
2.65285269857553365e-11
5.89265249142249903e-10
1.46652625159642616e-10
-2.82900668087622013e-11
2.9790841196201395e-11
1.82691233506792984e-10
-1.5812090911059127e-11
3.24739289820481372e-11
1.17746880091100079e-10
-8.74568140872525817e-12
2.08508939222911831e-11
1.97895227904994915e-10
-1.24778417399738358e-10
1.8925105014119357e-11
-2.69146257234353503e-10
4.29670835041208986e-11
6.55758562738544283e-10
2.04498081616206131e-11
-1.31097009381962885e-11
4.60299379615415958e-12
1.02406150250999632e-11
-4.54725146929829784e-12
1.79252072601997179e-12
1.18330265287057248e-11
-5.47829938513235084e-12
1.23040424069397104e-12
1.54979861593807017e-10
-6.40956094493390316e-11
1.63339643651491563e-11
-4.08067465085804721e-11
4.01630696976785223e-11
2.81519175279108442e-10
5.54097991101077524e-12
-4.25444075844284614e-12
1.52340748088304789e-12
3.32722557638588378e-12
-1.36134923137444202e-12
4.74126009964599981e-13
9.58626969925401186e-12
-7.09543574463148986e-12
7.83938730725473348e-13
3.18050548833495486e-11
-6.16229605208433464e-12
4.2880955559083804e-12
-1.91404447968641481e-11
2.80071435257956857e-12
3.00783315499598002e-11
1.00354648356344917e-12
-2.47931809928998315e-14
3.58136598700794489e-13
1.04742974113390981e-12
-1.7299247394922563e-13
9.40387531250597599e-14
7.15004535596943084e-12
-1.72392013072207804e-13
8.83950093045247912e-13
3.24520327376824751e-12
-1.0514520283703279e-12
1.92524828663806722e-13
-3.71031581423055358e-11
2.08546862651982887e-12
2.59607190375900289e-11
4.87591090550892712e-15
-1.07887510548710739e-14
6.95326164047120615e-16
8.63143897360082964e-14
-9.68350854871222136e-15
5.55944317007026511e-15
2.17565829944000829e-13
-2.99970651732667186e-14
1.86317827464371487e-14
4.46938111057787977e-12
-3.40750791884849194e-12
1.73966228884011629e-13
-8.5032492167023243e-11
6.25603053201229182e-12
7.44163213455965017e-11
5.14842082637264874e-15
-8.62710084043373579e-16
9.38957921609981248e-16
3.20069700765703447e-15
-5.93105047837148691e-16
3.93401580105579028e-16
6.28983751555659308e-14
-8.62564347027762141e-14
1.72423473105274094e-15
9.57062247924337241e-12
-3.20004761699086635e-13
3.59831665911789582e-13
-5.8663508262730073e-14
9.60434131882735431e-12
7.48726059776443204e-11
1.72956019766741158e-16
-2.66697706035794747e-18
3.48758708560087549e-17
2.69800878575881049e-16
-3.53933631410741184e-17
3.14639903333861033e-17
4.08656883418927963e-14
-1.00361879564245811e-17
7.69988901401793439e-15
6.21200173130702874e-14
-2.93734760851087057e-18
7.53534827316448237e-15
-1.64030537058406077e-19
1.81685873256759782e-15
8.82733275243792345e-15
6.33783149349824648e-19
1.95518312251033906e-25
7.74789999204037643e-20
6.44281328076508939e-18
1.976359676580878e-26
1.03086530893356806e-18
9.40666248342695721e-19
1.25719056156435179e-27
1.8616149109788311e-19
2.95159090962114779e-19
1.38666818624531761e-23
6.64105172529507693e-20
7.09920882785345181e-20
1.16152277884008299e-20
2.94047097297593109e-19
-3.05543474410541371e-26
8.46879204917396424e-28
-5.25563482281948983e-27
-3.20792640403218332e-27
3.34091482261571019e-29
-6.00002720958936122e-28
-2.10397963522244893e-28
1.2185204281287473e-30
-4.41486775610435115e-29
-2.38247781271115198e-24
7.85649551805017586e-28
-5.7688255826875042e-25
1.49564180132238178e-24
-3.57660700187607724e-21
-1.25197756847163103e-20
-4.34554285642549526e-29
-7.58619765242583332e-30
-1.78011551547419343e-30
-3.40251252612324826e-31
-6.68585269779481296e-32
-1.44499399700309201e-32
-4.41086696617984433e-29
-1.1091249916620501e-29
-2.5684335687900866e-26
-8.5520879243235813e-26
-4.7815886635132015e-05
-1.62485361085166914e-05
-7.55314341536567703e-05
-9.75169705209121907e-05
-0.000221969968897474461
8.81048954656279672e-05
-1.3167965350140797e-05
-3.67595308722310658e-06
-1.66937890038052761e-06
-5.15780422085694963e-06
-1.38649392241119142e-05
3.3869611656310945e-05
5.39201570118102163e-08
-3.33087042720414747e-08
3.5789237519395961e-09
2.72917227153503643e-08
-1.60031492700143892e-08
-2.02946930889244864e-09
6.54548263115408656e-08
-3.30635258671588909e-09
-2.36877407479402162e-09
1.62767022759450764e-06
-3.50329997410019748e-08
-4.39021629572325974e-09
-1.48599488442013214e-08
-6.92522066531186365e-07
7.08843090150075946e-07
2.02129646305976581e-08
-1.48595793284710664e-09
1.81524791483413026e-09
1.01335418543828598e-08
-2.14375235062406072e-09
-9.61493755325686478e-10
4.41517947851704612e-09
-1.5215896543726039e-09
-2.16449537475409357e-09
2.13768606188085241e-08
-1.23755706599887546e-09
-1.02927704846472064e-08
-7.15921329239507593e-10
1.11016518112987454e-11
6.62035823012278778e-09
1.23333742959959075e-09
-1.99456890442152391e-10
2.42789778410499349e-10
1.64241555310068573e-09
-4.44403112344648342e-10
2.08702211261123216e-10
1.50830337757373245e-09
-3.83775332428496474e-10
2.065327782887292e-11
1.13024572504185056e-09
-3.40536232677283482e-10
-2.61443008583768993e-12
-2.45986782331672554e-10
-7.92310038333258678e-12
6.97227738416561596e-10
1.68039487834119563e-10
-8.84377840031580664e-11
2.76474485571327607e-11
4.32492370320384715e-10
-6.00201871691657907e-11
3.87419338800546157e-11
4.00591038031667163e-10
-3.23173356661005242e-11
2.81373381117754304e-11
3.02526036442663534e-10
-1.521504214666651e-10
1.4532967093056385e-11
-6.09161657482644597e-10
6.29229484302255545e-12
7.07747084622369099e-10
7.7448062420290192e-11
-3.92670034715602019e-11
3.29487530649773287e-11
6.17275699990328151e-11
-2.31458047091516392e-11
7.95918631444512412e-12
6.53312776196639149e-11
-1.09524571170576694e-11
3.83911064670685439e-12
2.36174464560839379e-10
-1.41061336143775078e-10
1.90410400420615419e-11
-3.17902485542631841e-10
6.81661441258873178e-11
9.14111977532794433e-10
3.78798127693685369e-11
-1.39804111584615452e-11
8.65819486871100222e-12
2.3294086687081127e-11
-5.95013685413588704e-12
2.40669088810692017e-12
2.86930754457091651e-11
-1.26036811618426779e-11
1.37474785876859023e-12
2.95405642962848439e-10
-1.30570192330171658e-11
1.23520100595746932e-11
-2.75468127225163246e-11
5.57808792910440514e-11
4.39858708126878983e-10
4.85963134321932944e-12
-2.04800986397665653e-12
1.32275025570126516e-12
3.4549698891775959e-12
-1.14904331451839967e-12
3.56354767477480287e-13
1.2970297209100176e-11
-1.56349706074911459e-12
1.6025274728265272e-12
5.68912672174237306e-12
-1.64034989104797567e-12
1.16471193242738608e-12
-1.86724104384708591e-11
1.22039570923749998e-12
1.04517723758388158e-11
3.25885996461468864e-13
-2.26554979680506421e-14
8.69891495313949936e-14
4.69653503657040031e-13
-3.00542820150154407e-13
5.29303821951811158e-14
1.53790231654397157e-12
-2.66191443168995007e-13
1.90636662007265059e-13
2.04789974720542447e-12
-2.45944121527448955e-13
1.37966924958646936e-13
-3.16391215188340433e-11
1.50822494060423176e-12
1.94165802078914995e-11
4.14498382810514177e-15
-1.53803218038757291e-14
4.66653873996589234e-16
1.2263942550726252e-13
-1.17775839960739474e-14
1.52759133057291177e-14
1.1401937968269499e-13
-4.28052374510910769e-14
9.44277769856243865e-15
7.71642942936307434e-13
-3.32551890801642908e-13
2.17679627342297214e-14
-7.71832098249242283e-11
4.89829690276078604e-12
5.84377095442313054e-11
8.09205843412251321e-15
-1.26723434795597846e-15
1.10444805955398592e-15
2.9666515924568078e-15
-1.25167603564036551e-15
3.96896107961921064e-16
1.07180742114692875e-13
-1.05696506344695264e-13
3.55935875727619873e-15
8.99793185268149747e-13
-7.43153066621936786e-13
2.9071922527156455e-14
-3.02498433704626132e-13
7.7838275182774092e-12
7.24349970284147766e-11
2.85252803833272294e-16
-6.50112642806942828e-20
3.71828330468351279e-17
1.15973008880363662e-15
-4.79442715469918301e-17
4.02911157285146423e-17
4.44917410178660749e-14
-8.23653631483034147e-18
6.98969047545436426e-15
3.34060146636754744e-13
-9.28266204344932812e-19
5.85886011361551445e-14
-3.02492495561243709e-19
8.17138289537996525e-15
2.52026326907306337e-14
5.99581663487347432e-21
1.51269285077679666e-21
4.01535700049547138e-22
8.98454187073781882e-18
1.66247831566783033e-22
1.31460419999440127e-18
8.00641294577807133e-19
1.64248506546656234e-23
1.33509327576990957e-19
2.85835216435581336e-19
2.51458179043618083e-24
5.34557400922928629e-20
6.83519606913794207e-21
1.94710323482395943e-20
9.12678780041193654e-20
-2.41088093525862688e-22
3.3443349048468977e-26
-3.563248804331191e-23
-2.77035107354844694e-23
1.2795802327706517e-27
-4.39174383760424256e-24
-2.84683577829789873e-24
4.52221542528237582e-29
-4.99154472224995795e-25
-4.52757670546998339e-25
2.3572118000268384e-29
-9.0235978062893366e-26
4.62453485549035721e-26
-2.96711904879121342e-22
-1.28411908359021493e-21
-1.7511031915888263e-27
-2.61546184247402007e-28
-7.00151224159732721e-29
-1.12960695371634331e-29
-2.56928542831516876e-30
-4.62039995281547581e-31
-1.38548394770355121e-30
-2.8532621423298894e-31
-6.7861615259036406e-28
-2.81138505978356527e-27
-3.97902265215572458e-05
-1.51444691511998829e-05
-5.9742798350593755e-05
-9.19798116806659388e-05
-0.000182499470054153318
8.78463813172367775e-05
-1.61361152062799536e-05
-8.29599650733771988e-09
-6.56836375801797182e-07
-1.04401507745063952e-05
-1.7357010221456409e-05
3.58931354183103374e-05
3.735628149078797e-08
-1.01465851590140592e-08
3.72611706455940267e-09
2.30611158314852778e-08
-4.64456786874982367e-09
-4.49608006037402782e-09
2.11034438169838407e-08
-3.19910817507979146e-09
-3.30556946723529408e-09
1.39052602946449813e-08
-5.76317316849815053e-09
-5.35719676621513985e-11
-3.83630612700776799e-08
-6.9586353236010486e-09
2.16079678615084991e-06
8.37948725605666518e-09
-7.20216146252233277e-10
2.11894742114219828e-10
4.35057016937340855e-09
-4.73624129266687179e-10
-1.13406359494710749e-09
5.2368322936332019e-09
-3.55383095413898122e-10
-5.41952397725408862e-09
8.78582783409323173e-08
-3.47317845674634716e-10
-1.49599755616265386e-07
-1.82226028524724589e-10
-7.51715945270427413e-11
2.24295728822930583e-08
4.07523563203326966e-10
-1.38165857735881127e-10
3.58314852150680885e-11
2.77712494945938696e-10
-1.3303253253953289e-10
3.7200037081423241e-12
4.3381093587150576e-10
-7.43281691938704687e-11
-1.04651814554544218e-10
2.44626761291233851e-10
-8.12498576584347905e-11
-3.97415038215487388e-11
-1.85949512891320214e-10
2.06335491924337678e-12
2.90538141442632817e-10
1.20175168738589926e-10
-3.42959028442909987e-10
1.70006035017857396e-11
1.02649846685956368e-10
-8.10746976623974729e-11
1.07120935985470293e-11
1.00325462129129726e-10
-3.65233880623458932e-11
1.10661165730509849e-11
1.19329870328931556e-10
-5.18475414965972115e-11
5.03022276544332746e-12
-5.2935169953993234e-10
3.09753563865008589e-11
5.89907649382873589e-10
1.96844626823085174e-10
-6.13430165238128218e-11
5.67390883956863628e-11
1.30619900802350387e-10
-1.19298857031908974e-11
9.22513332650178456e-12
1.02070581239970455e-10
-4.70070909417658018e-12
4.70840654020989836e-12
1.23758202341405902e-10
-1.08041962808958177e-10
4.66891716990349493e-12
-4.48144762090741208e-10
6.21883567121057934e-11
9.0958452326167981e-10
1.40791243519631855e-11
-8.0575321223457926e-12
6.15782961844846622e-13
7.464550391051094e-12
-2.23837518471132177e-12
7.08172878045048274e-13
9.49554821785279201e-12
-3.38399871139030831e-12
4.544133158846013e-13
3.52355018323214276e-10
-1.18833352452097517e-10
6.75446511646423118e-12
-7.62382348263248052e-11
3.372379427739266e-11
5.96999390891739038e-10
2.04417648551805533e-12
-4.80524819938138029e-13
2.36025809012585798e-13
2.56866853811609786e-12
-2.01237536484381193e-12
1.36458214483253325e-13
9.78650922011359494e-12
-9.7443915867933381e-12
2.24685573726159244e-13
9.05220410785531778e-11
-6.96822386830202231e-12
7.86156317451970623e-12
-9.92490484865142319e-12
2.86219652991610611e-12
2.92054299378160257e-11
3.31413509708275688e-13
-3.377648905995944e-14
8.18031684287142623e-15
1.7367120853977055e-12
-2.44905250634632058e-13
1.83774703926306376e-13
8.89504920549231093e-12
-5.73332887187008561e-13
1.37158981463344795e-12
2.52084470457507324e-12
-3.81357642254059165e-13
1.48451746312873155e-13
-2.17455355011068392e-11
8.02622265920998143e-13
1.8524380489463008e-11
1.17456151891164295e-14
-1.7561164871917929e-14
1.08507294539756535e-15
1.35197527589946502e-13
-6.20314683005110045e-15
8.93291879798522818e-15
4.21478736746568835e-13
-5.62982159764520759e-14
4.37640781891849305e-14
4.06591815062456019e-13
-1.25833583323165084e-13
2.36594434172972989e-14
-8.58465203248201526e-11
2.00061182816959307e-12
7.00569814586331312e-11
9.37032972213865024e-15
-5.10763144478286807e-16
1.08388434670936808e-15
1.85522835406607692e-15
-2.29613708374421273e-16
1.07001247894612049e-16
3.39019585020137823e-14
-8.42405126156650028e-14
9.33969082006328712e-16
5.440339638885389e-13
-3.80368804124074479e-13
1.60922355124809902e-14
-1.48477924991156557e-13
5.15379566248403924e-12
7.71790930804307245e-11
2.09177549676730867e-16
-2.72471172825320121e-17
2.14584599077304664e-17
3.48560840308296687e-16
-1.59030029133108067e-16
1.09125521643016231e-17
6.07383215049818185e-14
-3.46132736103858739e-17
3.91973664079579803e-15
1.71175807660876428e-13
-3.11124497486768239e-18
2.30229196118207121e-14
-1.17221894748827262e-19
3.64211805342495446e-15
1.34807291487944969e-14
6.91724804397227641e-18
1.66468070224593863e-22
7.50879689272150779e-19
3.81860887220852689e-17
2.08587527810079446e-23
6.93199931099134842e-18
3.44937799498700607e-18
2.38128691244103482e-24
2.56944063002619777e-19
3.41173108659824424e-19
3.02888281072049947e-25
5.04153486902103116e-20
4.53880379229941163e-22
6.40627561696350037e-21
2.36562089881920771e-19
-2.69573271736545306e-23
1.59231118410250798e-27
-3.26518470212244871e-24
-3.55172896790505427e-24
6.84335906769065047e-29
-4.56099494595911638e-25
-4.24879499005846962e-25
2.74196975892756767e-30
-5.96183247119256723e-26
-5.67052983026496466e-26
5.40855979400575641e-31
-8.93333343105858765e-27
1.04824915331247752e-27
-1.61798600622715975e-23
-8.98307156011786247e-23
-8.47620103906528463e-29
-1.03430565366400908e-29
-3.82680571243238465e-30
-4.9850339862620249e-31
-1.60285592890237567e-31
-2.29795209290555625e-32
-3.30065794115126062e-32
-5.34161432448747044e-33
-1.24917349411589648e-29
-6.70232746536038827e-29
-3.06233735534816871e-05
-1.88838335917422591e-05
-5.55153056750784901e-05
-9.25819204051486083e-05
-0.000143083861467996939
9.20969239566184298e-05
-2.03251314727031189e-05
-3.25035189649359362e-09
7.9680808673610471e-07
-7.72721030172626838e-06
-1.5511583193269316e-05
4.6052549192649513e-05
6.38425193675456087e-08
-6.45007332646633114e-09
-4.54645799740903728e-09
3.24038213814041687e-08
-3.16156551883848474e-09
-4.77017117503804808e-09
2.04313070482883207e-08
-9.73983114910301342e-09
-6.00593306578039948e-09
1.5000919816098292e-08
-4.68956177150405232e-08
1.17142376215327343e-09
-4.96950052311585877e-07
2.13667695010362022e-08
1.13344069058860238e-06
1.10769037926110897e-08
-3.13396144527427337e-10
-8.20686982054542856e-11
7.71390477233107805e-09
-1.64899636628600543e-10
-4.64344371518959305e-10
7.43914283046116544e-08
-2.76817636121383602e-09
-7.38366516062810565e-08
7.23533787727613154e-07
-7.10473580339174648e-09
-2.67005066244670366e-08
-1.42043459125568044e-09
3.96257897461527352e-08
4.40004356377401613e-07
6.89011752402015889e-10
-6.35621326208722692e-11
1.40188004103753339e-11
5.84501621279298073e-10
-4.1840962292549892e-11
-2.97554338677294257e-12
8.51697383972751714e-09
-6.74886645927377185e-11
-1.62158138966809304e-10
3.19976398819798694e-09
-6.47758409922036464e-11
5.35241412207558155e-11
-1.40118589421328177e-10
6.01688726345073249e-11
1.86130464097493282e-09
6.52831994149464412e-11
-4.17202602458623965e-11
9.68313037967838246e-12
7.14577585113132069e-11
-3.92576913414623479e-11
2.17901785663728975e-11
3.46912868320521678e-11
-1.59131292870785729e-11
3.01484675166631048e-12
3.81320369259308114e-11
-5.14455245685408177e-11
3.97683773835737851e-12
-2.78151009601591319e-10
4.19054781159473614e-12
2.02948832270143545e-10
5.52613456692793616e-11
-4.75993168526159722e-12
-2.16858965345935773e-12
3.39671944218980518e-11
-2.77652811736395832e-12
2.66098886833393735e-12
2.59117774632092418e-11
-1.65996428120971066e-12
9.3931390025250879e-13
1.86638018798423285e-10
-7.02057336394422609e-11
3.96305917313795607e-12
-3.55158969258660008e-10
1.44067059587381762e-12
4.82742925752597181e-10
3.16536887023316859e-12
-6.23326345397343559e-13
3.9639752896072166e-13
1.80502319496152409e-12
-3.83894110173201263e-13
1.62466658538602214e-13
3.60516116255274713e-12
-1.82463934480497316e-12
1.85781525375148156e-13
3.78932342365120235e-10
-9.30076105187795695e-11
5.76304231676681345e-12
-3.38246351146566416e-11
1.41126011871056042e-11
1.17576843847580189e-09
3.27773315574264426e-13
-7.2512717121911279e-14
3.0201540419765674e-14
4.60518471243669712e-13
-2.51103122185594299e-13
2.96022680538893005e-14
5.31819059211267607e-12
-9.20948969712564027e-12
1.64243847424534253e-13
9.61551121357694221e-11
-3.91814362948583255e-12
2.22255732436904521e-12
-9.93440525133268648e-12
1.87699804967026176e-12
1.01462765081201598e-10
1.04355878198600548e-13
-9.16835100481130237e-14
3.8036141253586804e-15
1.02798736176533279e-12
-4.02637955468494682e-13
2.34578022865675509e-14
8.59333221617783581e-12
-2.66985517246002575e-13
1.00456873260443788e-12
2.08076540432090919e-12
-2.32235051844809866e-13
1.27635455926900447e-13
-2.19191508003808145e-11
7.92948394278537564e-13
1.60394533161412323e-11
1.14587223866859807e-13
-2.15147199676966416e-14
7.7059452269743514e-15
2.89011225833147075e-13
-6.24654067755315523e-15
4.15056227546787392e-14
6.27332523354034332e-14
-2.53691183931722458e-14
5.27312955396055569e-15
3.89606964768941684e-13
-4.54326536156952181e-13
1.18144624242697225e-14
-7.8596083433343146e-11
1.15907579695808928e-12
8.57404524976374741e-11
6.15040529757532847e-15
-4.68735917405844368e-16
4.44319493162116677e-16
8.82146506166692033e-16
-3.15735067100745347e-16
1.29121935651600081e-16
4.68468235210094339e-14
-6.79520793170998961e-14
1.1159821823902403e-15
1.67668497205311386e-12
-2.07158584126820359e-12
2.11750079203001147e-14
-8.00387812054299531e-13
3.35519201281941361e-12
7.25230470240937355e-11
1.26405134084815352e-16
-7.4194492200715795e-17
8.82733761133422467e-18
6.65875616876330892e-16
-4.65693968606955118e-16
1.46335550911299738e-17
2.95815051167777736e-14
-2.97022627208584332e-15
2.81771985723904677e-15
9.40782388165363123e-13
-6.98326214998615885e-16
1.00452787396640336e-13
-1.71485739341910347e-16
7.62171090812083667e-15
1.36636780704071621e-13
2.11226544485495465e-17
2.88959932152817887e-23
1.40076439578717063e-18
2.13183749186581964e-16
5.92368112888331966e-24
2.00071418552209589e-17
5.95837920356903762e-16
8.79888652610797341e-25
7.44121394610507911e-17
2.29337461541394775e-16
1.16355238142523854e-25
2.54172712015241462e-17
2.11945368076826609e-23
3.12667147403121567e-18
5.47314365791511999e-17
-4.73796097896526541e-24
9.56047496465273013e-24
-4.38383098846163061e-25
-1.02599728584201785e-24
9.46026228712486738e-25
-9.96139298017914488e-26
-1.6065767999327216e-25
6.01464129198246087e-26
-1.68592596380360598e-26
-2.24835316638930289e-26
3.22190072424382995e-27
-2.61390956691394412e-27
1.81136272472423812e-28
-5.71996760076804388e-25
-4.3789806231512892e-24
-5.15464431943319289e-25
-4.79307227994848821e-26
-5.38044978658156171e-26
-5.28649202112555885e-27
-3.59496544114283136e-27
-3.84403454378638636e-28
-2.02454961517594606e-28
-2.40921201768087593e-29
-1.61902379271320143e-30
-1.20435243668577906e-29
-1.95874677614927821e-05
-3.40970724057214016e-05
-4.0268041328066784e-05
-9.97299875545933925e-05
-9.43516736583890599e-05
9.8859685655663807e-05
-3.55022832331737919e-05
-2.60770061400351004e-07
-1.81169855225479036e-07
-9.63555551972375474e-06
-7.62128978500118996e-06