/*--------------------------------*- C++ -*----------------------------------*\
| =========                 |                                                 |
| \\      /  F ield         | OpenFOAM: The Open Source CFD Toolbox           |
|  \\    /   O peration     | Version:  2206                                  |
|   \\  /    A nd           | Website:  www.openfoam.com                      |
|    \\/     M anipulation  |                                                 |
\*---------------------------------------------------------------------------*/
FoamFile
{
    version     2.0;
    format      ascii;
    arch        "LSB;label=32;scalar=64";
    class       volScalarField;
    location    "0.570000000000000284";
    object      p;
}
// * * * * * * * * * * * * * * * * * * * * * * * * * * * * * * * * * * * * * //

dimensions      [1 -1 -2 0 0 0 0];

internalField   nonuniform List<scalar> 
7248
(
27.2409184011941079
85.4649801438233681
-3.38882831965434139
-2.58947915391785699
-3.70001735281332422
-3.64492321084910609
-3.58970462267540835
-3.72305203987244138
-3.74560880168416332
-3.96483912143058603
-4.02860273820191406
-4.0350365921641469
-4.06418274192195295
-4.09501781598932979
-4.14934179338007691
-4.27334335891567907
-4.35540662357667685
-4.41951157683988782
-4.48402264109449078
-4.39163091472604261
-4.49895936245740113
-4.61866414501410016
-4.70335133891145851
-4.75526392442541379
-4.70315454953638223
-4.78629546836827036
-4.87653456240515126
-4.94809641340812334
-5.00310064301034085
-5.04155353875787959
-5.10213013045530683
-5.17028418988874883
-5.23416531624533032
-5.29034272258268601
-5.39077324882420594
-5.44045361664204297
-5.49488562146036763
-5.5492266034091795
-5.60192441132585461
-5.73954292235067598
-5.78131387183320022
-5.82689553448286546
-5.87455048092812326
-5.92382498883609365
-6.08919337063050747
-6.12529386351402927
-6.16462051181152937
-6.20660729991806637
-6.25099219035704579
-6.43841035816833074
-6.46969708999324045
-6.50392184249323702
-6.54102769880194224
-6.58094026086145867
-6.74026168297521888
-6.76238219094010873
-6.78694613663336899
-6.8140496812312259
-6.84376829194943426
-6.87619302820739176
-6.91146986549873343
-7.09457245165270756
-7.11362294201684708
-7.13489591597428952
-7.15847153081115994
-7.18438660690350694
-7.21263911773242761
-7.24315862859222737
-7.44751096912598687
-7.46393223808070694
-7.48249160401107183
-7.5032951822929439
-7.52640516449673935
-7.55181193386476401
-7.57939232029991583
-7.79882746274194627
-7.8129748987768366
-7.82930865229150275
-7.84801398676983997
-7.86926220186252401
-7.89319645023028293
-7.91990415771527001
34.2020311564889425
100.973521179261979
-3.12609835495247257
1.98174915227552617
-3.61944435472323978
-3.61356808485109404
-3.57450659502819557
-3.76391396989231852
-3.87667741983183856
-3.88738815697589857
-3.95436108415319909
-3.97401395736745
-4.02478865544249587
-4.11961466336754256
-4.09788876064957996
-4.19439017645168555
-4.26867311711226805
-4.3467606336774498
-4.44110747298311104
-4.36890701730992781
-4.45858737096630264
-4.55411656601578141
-4.6418337867242192
-4.71596674387968129
-4.69348421789513637
-4.76669840385474242
-4.84594672597886778
-4.91852957397859125
-4.98316134842761116
-5.03750187343393918
-5.09577591768386284
-5.15883896973276457
-5.22004306363792825
-5.27662823948964022
-5.38621711209285081
-5.43491635501103865
-5.48738577474450118
-5.54044002041225525
-5.59304866192991046
-5.73639714685279678
-5.77791885783935655
-5.8228521449612094
-5.86996767015916721
-5.91900385006096474
-6.08737984587485226
-6.12337902834944448
-6.16258894851522498
-6.20460314399228618
-6.24935659721641912
-6.43774352029141639
-6.46912638152844277
-6.50355648017766264
-6.54101083340860256
-6.5815789748635094
-6.78726279419543133
-6.81466957506884796
-6.84489557522037995
-6.8780858773443061
-6.91444850408403244
-7.13605621434837545
-7.16011579878975812
-7.18679325106722189
-7.2161945552178155
-7.24838301834578314
-7.48434912125408225
-7.50578065260835725
-7.52983661456689646
-7.55663613292021452
-7.58623142942412709
-7.83174768615163241
-7.85117487178031936
-7.87347619726770187
-7.89894454152840897
-7.92788794018080711
36.1167961250901044
105.43550673135428
-2.7215027849846436
5.45525915571616338
-3.54894503575548859
-3.56399182650467106
-3.50807080725197018
-3.68279140517382242
-3.997322045453505
-3.80736079163698582
-3.88561449013896887
-3.92397547164725191
-3.97611624695208965
-4.15247132298867871
-4.05825623472164487
-4.14093248822891624
-4.21159988935718133
-4.29590283249643257
-4.41832570965412152
-4.35831258784880671
-4.44031205726601552
-4.52609050599520923
-4.60989412350326244
-4.68971076067539627
-4.69199680050934909
-4.76118673577406692
-4.83351483348676503
-4.90327083958172771
-4.97116824414845748
-5.03410928376125355
-5.09157069858702904
-5.15165666524239718
-5.21092418334184693
-5.26786882787560895
-5.383043110061001
-5.43135993790114835
-5.48262591101250774
-5.53485727549861295
-5.58760230702357319
-5.73436187247549167
-5.7757265923015213
-5.82022798637014738
-5.86702236660400356
-5.91599850980158859
-6.08624070322966571
-6.12220172278091823
-6.16138251830000527
-6.20348992389030141
-6.24851808207070381
-6.43746776582632485
-6.46895810685455874
-6.50360687835741746
-6.5414011101908871
-6.58253789123155819
-6.78776908856670147
-6.81545600443835564
-6.8461481956240382
-6.8800265599322552
-6.91737284178594969
-7.13725375996926026
-7.1617601464919165
-7.18913419629467398
-7.21957588833931752
-7.25325742845140997
-7.48613226076960458
-7.50813916911593626
-7.53305693687455502
-7.56112453336873269
-7.5925547102060964
-7.8340216049724205
-7.85410138758237331
-7.87735622088837495
-7.90421717830075909
-7.93519995316061788
39.5841640171155404
106.254514701254493
-2.2423066504676914
5.14675060443425991
-3.49661573015744143
-3.52670795945171545
-3.53473670595099998
-3.61555255137044274
-3.69915699155243516
-3.77193443633434367
-3.84203954111937751
-3.90216497199354206
-4.03958784883428645
-4.28215470957105016
-4.04391565953979182
-4.11822596172866717
-4.19006933352293842
-4.27591652700932645
-4.40419036103338257
-4.36137270871913696
-4.43812563994647835
-4.51600599423252991
-4.59460363107818726
-4.67274131327303532
-4.69397393305356392
-4.75976617504410981
-4.82710332719662638
-4.89401669588690957
-4.96252714217018465
-5.03162109761845056
-5.08857469605819812
-5.14697993501341777
-5.20511802695889969
-5.26270893786634719
-5.38164292099607078
-5.42960303300479552
-5.48002979200988438
-5.5318121600021728
-5.58505192198364941
-5.73335860231462036
-5.77458385071174796
-5.81881596350465724
-5.86556805131742642
-5.91491755574662292
-6.08575167474662759
-6.12167467204536386
-6.16087200245697009
-6.20316876612850532
-6.24859644746264209
-6.4375373502155
-6.46911666720368572
-6.50396252948021214
-6.54206641721941473
-6.58366609529171232
-6.78841058922154872
-6.81633596795668328
-6.8474294444519952
-6.88188725244193478
-6.92006583846890866
-7.1384261796043047
-7.16332061710091406
-7.1912992733558756
-7.22263712975053629
-7.25760012122272968
-7.48777229481846618
-7.51027911515811564
-7.53594654852688084
-7.56511875426195424
-7.5981482245101688
-7.8360567550295368
-7.85670194471177386
-7.88078589637451099
-7.90886182143907135
-7.94162872994960001
47.5159884699894519
109.101913246787035
-2.26848513426903997
11.2612897796394691
-3.51169566593875526
-3.50926148208455491
-3.57676717406117417
-3.68528937895208353
-4.00540102944533416
-3.79187469332990679
-3.83167952413302082
-3.88284915853265788
-4.07043905567623643
-4.3657694690447828
-4.06080702302221752
-4.13045181316419185
-4.20309363628509391
-4.30755334406285773
-4.42506499636432782
-4.36470416511433168
-4.43783936288616054
-4.50986595215094965
-4.5887235630880383
-4.67695366590963157
-4.69307563314224119
-4.75804877850357766
-4.82334535923768737
-4.89200503425697875
-4.96202570459948511
-5.03344945526383203
-5.0888839678290001
-5.14541549560885603
-5.20240231768121042
-5.26098075145990229
-5.38223623410604102
-5.42951492956220694
-5.47919387376694811
-5.53077855540028196
-5.58464059256652856
-5.73354170644805539
-5.77446336382355341
-5.81843822129789867
-5.86524124860209639
-5.9151552443120865
-6.08587805380944591
-6.12170990697215256
-6.16091358409452816
-6.20343401250959481
-6.2493290686158014
-6.43788720954240201
-6.46951557000417576
-6.50452085917427691
-6.54290157323031885
-6.58486820877578705
-6.78910869084576252
-6.81722112011895831
-6.84864473159117004
-6.88357777592646336
-6.92243185347305179
-7.13950126521937278
-7.16471129177569566
-7.1931865958246064
-7.22525834123824051
-7.261286975466553
-7.4891970867725961
-7.51211295380223998
-7.53839626133188645
-7.56847669590699024
-7.60282085176935762
-7.83778342890213775
-7.85889374356289228
-7.88366139845456448
-7.91274107860646847
-7.94697871008218826
52.3917477461549197
113.793971382528753
-3.03996431327202021
18.0005347472307449
-3.49380734239312751
-3.46243649200838899
-3.53744882142633754
-3.71328493880149679
-4.11966811181065395
-3.80979017012059984
-3.81726161361605687
-3.80973799982466454
-4.10590753979738032
-4.50049725033758818
-4.07764344111295962
-4.14182532061190756
-4.21930901622576116
-4.35568462838787518
-4.47633463557486166
-4.37767406688282623
-4.44680949064288988
-4.51187391345396005
-4.58962151196500656
-4.67146004895904099
-4.70024993305558958
-4.76285551328740819
-4.82528877347893026
-4.89290817170056513
-4.96543275589071254
-5.03763972494379253
-5.09140671774357667
-5.14649602759108404
-5.20319404866422897
-5.26244612726263483
-5.38403956480059698
-5.43051856836541358
-5.47960586322802889
-5.53107931078184478
-5.58556171703289639
-5.73446882135074443
-5.77500670970520069
-5.81879603750602925
-5.86572379341205075
-5.91640680477615355
-6.08642084586762522
-6.12210411479022021
-6.16131617290001543
-6.20406753166635916
-6.25066444893115936
-6.43839582692674739
-6.47002159201877802
-6.50514186913653791
-6.54377965519174865
-6.58624182849349715
-6.78977433568684674
-6.81801160819301799
-6.84967687442013418
-6.88497332773772985
-6.92438665099038531
-7.14040354111168973
-7.16584708171102225
-7.19469588547216343
-7.22731968102052313
-7.26414621558643958
-7.49033854571618551
-7.5135641502806072
-7.54031529448372062
-7.57108329377444011
-7.60640895575656817
-7.83913939261897408
-7.8606043604850715
-7.88589387991703195
-7.91573692728992473
-7.95108038681078266
56.3105104081106447
118.188239430308386
-2.81198374605643231
17.3740908032098673
-3.52511857037056675
-3.49683073915655784
-3.50271977067888729
-3.6594850593539987
-4.00696473170748746
-3.83316980345633418
-3.85752215511002117
-3.90214781274723643
-4.06124894659226765
-4.30778057557109051
-4.09660474081395964
-4.15921492339878895
-4.22933897119868885
-4.34636179136523726
-4.47006354246465243
-4.38960884584891264
-4.4544951915748916
-4.51667548325264612
-4.5928109789752618
-4.66656186180101873
-4.70817107825440573
-4.76784464276656017
-4.82778020809515152
-4.89501477239304172
-4.96757866379780033
-5.04219753842169283
-5.09428620347898065
-5.14828188312435753
-5.20489167995958724
-5.26488265380007103
-5.38619985959738568
-5.43185350045427562
-5.480414978058743
-5.53179017793471761
-5.58665314450027672
-5.735608455475667
-5.77572542767514374
-5.81934981178991606
-5.86630267891880752
-5.91751528418669537
-6.08705246265105693
-6.12255498510256313
-6.16174831419910252
-6.20454976379515966
-6.2516914778983006
-6.43888124277296203
-6.47047373698072903
-6.50563882566528662
-6.5443950330541254
-6.5871603038099682
-6.79030385182837737
-6.81861358561850928
-6.850427363685613
-6.8859654598653135
-6.92567422539793132
-7.14105897339801565
-7.16665550875392299
-7.19575576436241615
-7.22876151464821426
-7.26614603349264598
-7.49113746434454519
-7.51456959488856047
-7.54163433597123323
-7.57286191540735043
-7.60884614391106329
-7.84007423316772378
-7.86177688652442086
-7.88741684010800714
-7.91776884203641274
-7.95384389767260647
55.3593118055763398
117.083126858436117
-2.68226044097598226
11.2185271111048337
-3.52017484688217408
-3.48928589624521246
-3.46584369726469355
-3.56908276604805419
-3.65890838693546527
-3.83146978383959791
-3.8704076794969251
-3.90733243866237423
-4.04473223987642072
-4.30224439083082721
-4.10824495700612236
-4.1706560105520234
-4.23646915419545422
-4.3555100872179846
-4.49091024595253074
-4.40053655562694779
-4.46262026759931185
-4.5220349080999851
-4.60158634223955421
-4.67663178653621259
-4.71595465170130002
-4.77211260187403319
-4.82897467793979018
-4.8956570914870241
-4.97116270407958361
-5.04651186592310008
-5.09630266974884183
-5.14931852800082446
-5.20631820576966486
-5.26696460294408286
-5.38777789504068938
-5.43274550383572663
-5.48095023348453658
-5.53232565861289594
-5.5874233113466234
-5.73642033543738261
-5.77623675314275165
-5.81974049983248864
-5.86668986547779969
-5.91807373158742589
-6.08748632358621666
-6.12286424866191492
-6.16204371323406264
-6.20489906855145357
-6.25242516054360475
-6.43917974847664176
-6.47074513047684441
-6.50593602223651679
-6.54479300548268483
-6.58788716173502387
-6.79059985037281333
-6.81893647188868979
-6.85081920354122076
-6.88646817428001334
-6.92636649835168239
-7.14140442030873501
-7.16707379867899164
-7.19629300670596361
-7.22946272122852474
-7.26709675335249194
-7.49154951203230102
-7.51508428941104434
-7.54230308153198337
-7.57375005248149247
-7.61003838840619551
-7.84055132846856573
-7.86237269270186445
-7.88818600516414214
-7.91878287362433042
-7.95519909851716278
13.0467670461344483
31.1361005422396602
-1.42036673677214509
0.0049297981380593825
-3.27181026687165888
-3.3041746770318543
-3.26065388506028508
-3.14284848482171686
-2.94383766260218893
-3.96065377548349939
-4.01906976657961668
-3.99053171190097267
-3.93165056508342348
-3.93337252222462475
-4.22750797133752965
-4.26945380360377147
-4.28241420447015919
-4.30489129761469513
-4.41494331155507513
-4.43338001624097622
-4.49585575804314264
-4.54236393880786427
-4.62689444037347641
-4.76039603143664181
-4.74845496201097017
-4.8131334658695426
-4.8581779771575464
-4.93889655780167569
-5.07276730475712867
-5.08833549114371486
-5.14597416277191044
-5.19924772728344831
-5.27892994690835149
-5.39633692089836536
-5.42951156321896899
-5.48111541357350163
-5.53484232816863386
-5.60215169902731791
-5.69753026232580151
-5.76916914339547926
-5.81469326368771622
-5.86340655071895522
-5.91909930904443815
-5.98933092970168346
-6.1088557623589228
-6.14773292237221813
-6.1898458647196648
-6.23554971720971629
-6.28777314089501349
-6.44880031636870044
-6.48076633563086535
-6.51482588994288392
-6.55175258604508315
-6.5931566065476126
-6.7419422476245483
-6.76460935169478095
-6.78892695719402095
-6.81470315404949467
-6.84172091134490401
-6.86979216196796916
-6.89919747978763986
-7.09176052399860879
-7.11023156875286055
-7.13006216253165537
-7.15095375758675011
-7.17242860223900713
-7.1938618820688367
-7.21433758548149573
-7.44091325955292238
-7.45583984349043849
-7.47190625989121138
-7.48877026221801234
-7.50588304556552011
-7.52240560201422426
-7.53708907543190598
-7.78843647860109289
-7.80025589110885065
-7.81314090165072717
-7.82678382747458468
-7.8406338283098771
-7.85377920528839368
-7.86478045219330646
2.33239861805337156
4.44302058309103387
-2.06468344494225331
-2.32383076993187476
-3.17594356384468934
-3.09364373873208942
-3.12169176961228345
-3.35751445738858667
-3.49964032369957057
-3.95926591748256307
-4.07659099085941889
-4.12958784492084874
-4.18858881982119424
-4.19155147843317621
-4.2876039296097419
-4.36042846938545114
-4.38306169431828252
-4.46351964486219455
-4.67550557935435407
-4.47215963829276753
-4.5554614431282543
-4.62301964864485093
-4.74378416770012734
-4.97411603266922242
-4.7668864222464471
-4.84106477825356851
-4.90620958124119788
-5.01049586130314051
-5.2382743639293512
-5.10064054338851491
-5.16339413641337863
-5.22722610617059846
-5.31859365113134253
-5.47958981991728233
-5.4336114578022503
-5.4883866650354971
-5.54936695175769135
-5.62368944525059522
-5.73030456950021971
-5.77006515132634679
-5.81681415468305385
-5.86849455351893567
-5.9286486622582979
-6.00160962707539269
-6.10864083850616879
-6.14786228535349988
-6.19076456604253966
-6.23844778780136799
-6.29372199180251712
-6.44847189617458305
-6.4807007790475053
-6.51541082207932121
-6.55302895605701341
-6.59436733718539259
-6.74183992461548254
-6.7645657544982507
-6.78903729133594158
-6.81510622334183402
-6.8425773751791068
-6.87125746195202769
-6.90106831587743219
-7.09197788864886292
-7.11052149746689022
-7.13046140021506059
-7.15152228908665499
-7.17327515585290687
-7.19509138490561018
-7.21611296702997773
-7.44132178638135411
-7.4563312214941968
-7.47252017630687249
-7.48957040289161924
-7.50695763476121769
-7.5238670168484898
-7.53907091817773622
-7.78937036483329948
-7.80132559846944051
-7.81439212733361188
-7.8282808097662322
-7.84246744138893259
-7.85607658972531109
-7.86771273779500824
-0.577053788071212992
-0.115813010227620694
-2.11194660890022368
-2.5496007326551009
-3.05712351967929097
-2.91027603093472598
-2.84285710115334922
-3.0168585282431728
-3.2813292586531575
-3.8631587246233936
-3.91957088235743978
-3.96410971600742368
-4.0008674423708035
-4.01837842443627657
-4.2941970210937459
-4.41346612993348408
-4.50435792907960586
-4.56922865802652112
-4.62047500572570868
-4.52722100159372687
-4.64068921630480968
-4.73421049710097464
-4.82638291787995399
-4.94653977301078385
-4.79596317909016179
-4.87676740247779783
-4.95844637605143568
-5.06175965895437496
-5.20958850484402802
-5.10921456894512271
-5.1755963574362962
-5.24619026596441707
-5.33343284131953688
-5.45005367744727209
-5.43532413592061747
-5.49065605141097279
-5.55243974599831702
-5.62363686987588984
-5.70938716229943211
-5.76923027039539171
-5.81601856484718205
-5.86746109406073124
-5.92504925304481933
-5.99089907671280031
-6.10728427129485585
-6.1462632619481381
-6.18889943906129414
-6.2359355901168243
-6.28880567965941761
-6.44750381212768442
-6.47962901613991171
-6.51426108861172803
-6.55164362446780402
-6.59236029050089023
-6.74156827405566705
-6.76423356199310355
-6.78870172812910333
-6.81485853503849093
-6.84253751154551271
-6.87149701635997001
-6.90149718372160859
-7.0920825894900057
-7.11066043226403988
-7.13069717546439019
-7.15195158809642262
-7.17404100765961683
-7.1963766493480481
-7.21813236599870933
-7.44178424453771203
-7.45690680063042688
-7.47328371329198404
-7.49063311365200413
-7.50848000178833441
-7.52606882567092317
-7.5422629439820863
-7.79024972955559836
-7.80240052128540729
-7.81575536397652471
-7.83006839510214814
-7.84488020489593474
-7.85941122385135227
-7.87242400457980551
-1.46631975083756672
-1.86282895291118367
-2.41962796597554552
-2.99096073222923664
-3.05785535738229441
-2.9516206394787865
-2.91204159381850403
-3.07217498464615613
-3.35483473912939312
-3.76619467830379762
-3.77096782937177633
-3.8085796483816079
-3.89124667081838371
-4.02471027837733697
-4.2599909277960526
-4.42197912510693492
-4.56108320428827874
-4.58863535940237899
-4.59696852700110004
-4.57296643502723743
-4.69646275758390974
-4.79040283954601875
-4.85035148963444218
-4.90259811054341199
-4.81294108718364377
-4.89995303043453845
-4.98763325861050966
-5.06830204678937157
-5.15447570960700308
-5.10873969328179456
-5.17596031482568986
-5.24771498887031829
-5.32202467381559519
-5.40305713631106155
-5.43254060938500327
-5.4865476719128603
-5.54666207591687854
-5.61035723233723882
-5.67755803288114258
-5.76610231668095441
-5.81204635177585427
-5.86207426357474315
-5.91572581962382937
-5.97313972679864769
-6.10489044587695684
-6.1432484313145066
-6.18502905605403619
-6.23034308801854486
-6.27953050640714316
-6.44611113786011014
-6.47798128491425285
-6.51231017723398331
-6.54914559867773338
-6.58870694317810202
-6.74126677743299485
-6.76383158536635243
-6.78825421876338275
-6.81444257731684733
-6.84224634228400319
-6.87139922005643911
-6.90156915240556845
-7.09228062315373986
-7.11089682992833172
-7.13105292555121206
-7.15254572832998115
-7.17503921303277092
-7.19799665365125829
-7.22064838306353707
-7.44244038278871134
-7.4577169446971121
-7.47435151827368482
-7.49211065898190753
-7.5105844504034982
-7.52910344479778448
-7.54665262669063086
-7.79132978361874784
-7.80374159702200476
-7.81748590447510061
-7.83237617331726987
-7.84803963126970494
-7.86382316419265237
-7.87866798080219688
-1.43944021489295837
-2.34538101951727773
-2.8448748144240108
-3.33508724813538038
-3.21690718140060872
-3.2093584034043392
-3.20987032860531141
-3.31981326036927005
-3.48429718945214884
-3.72785882436029414
-3.77380713294729908
-3.8281833298996597
-3.91518553490807353
-4.05001796231945654
-4.20569077789100554
-4.3985065057787347
-4.5165127924435069
-4.54375682406640546
-4.56643755685479924
-4.59500996179241206
-4.70549132447646734
-4.80269552331291472
-4.85926796294842411
-4.8807348761914886
-4.81493672436902465
-4.91163117472260158
-5.00887943796572799
-5.07057506132736524
-5.12380440012123994
-5.09871381329909479
-5.16839978685148083
-5.24424835938640577
-5.31378694876755198
-5.37802405951641394
-5.42524560905671027
-5.47897558472140034
-5.53901688220281052
-5.59920353035865137
-5.65826206413259669
-5.76096575167934155
-5.8060317529096972
-5.85513306910337317
-5.90663887819589828
-5.95956274375066553
-6.10166698122564721
-6.13937368581220078
-6.18040737080267721
-6.22443344734473936
-6.27125661977720039
-6.44438620983789434
-6.47598593179502657
-6.51007021019954468
-6.54657199614463448
-6.58557269202712892
-6.74092205015628387
-6.76336498858121971
-6.78773694181113729
-6.8139795389871054
-6.84197351827389078
-6.87147838488497964
-6.90218505316627073
-7.09254273692149084
-7.1112084457374003
-7.13151669225458384
-7.15331073289819841
-7.17631430682056326
-7.20006663361159127
-7.22389324572206881
-7.44323667933552535
-7.45870119368238793
-7.47565343021626028
-7.49391795073132183
-7.51316600805236146
-7.53283809410758387
-7.55206082795700517
-7.792594819130918
-7.80531728380265211
-7.81952686597187174
-7.83510598083447185
-7.85178370713851947
-7.86905499889148619
-7.88607047468476274
-0.466053194963330419
11.6123870829666487
-3.12814404837209992
-3.73840575132688624
-3.46418577093040225
-3.48762575370761452
-3.43164704030909551
-3.56504912940887309
-3.70983172988482712
-3.80326931228554121
-3.88685201951371395
-3.94368758046881585
-4.023628093843854
-4.09558433405928746
-4.17109207923880021
-4.3464525470419888
-4.4694337436914271
-4.51445016662409948
-4.54488630115491077
-4.56172622327963317
-4.69193884211440881
-4.80495088194679987
-4.85071187288591066
-4.8565504028398534
-4.79881023944450202
-4.91268954883916198
-5.02175260756528807
-5.06946967655512459
-5.100726698124185
-5.08332834109121201
-5.15893024607924389
-5.23821984482462266
-5.30376341676833807
-5.35858458997011766
-5.41578764779364175
-5.47050321999434086
-5.5310031567745197
-5.58878749056269442
-5.64325950256467923
-5.75487407155792674
-5.79924838757821259
-5.84779665759762324
-5.8980148830750041
-5.9483311573468729
-6.09811286237353745
-6.1352995118654432
-6.1758082246372572
-6.2189652712266037
-6.2641089429373018
-6.44256486676951567
-6.47396473871890343
-6.5079515688324312
-6.54440884050695093
-6.58333145259354513
-6.74059587684831829
-6.76291903773435266
-6.78726996164847041
-6.81363187418999328
-6.84193344284919647
-6.87199963925686053
-6.90363143626036457
-7.09289299283280528
-7.11162488674811311
-7.13212449222073275
-7.15428965135412209
-7.17791714508989642
-7.20264885159652746
-7.22793865001942137
-7.44416093811680479
-7.45984159229708954
-7.47715997192741533
-7.49600670594223217
-7.51614623761574574
-7.53714835797949245
-7.55831403520421663
-7.79401878163365325
-7.80708574839784397
-7.82181030321296955
-7.83814974717786406
-7.85594330808554364
-7.87484664766398801
-7.8942402070106148
0.448652993113901388
49.5513552418162817
-3.12538622343998584
-3.49436611968586375
-3.64015913085430309
-3.60646022946062583
-3.53172736783398555
-3.66935669463226244
-3.78950579938419452
-3.92293178156807976
-4.00877036319577051
-4.00656843838739629
-4.0814105124296054
-4.12611584198268133
-4.172105435365979
-4.34479783010745457
-4.46807824373258011
-4.52036178166488778
-4.54514788504577716
-4.49017746023625097
-4.63594425224889584
-4.78350439307047814
-4.8308296166358744
-4.83464150834971473
-4.76843646943111832
-4.8862637353178906
-4.99831121889436503
-5.04629435545597893
-5.07186371445153483
-5.06575464476596515
-5.13942795475223591
-5.21898163728453568
-5.28429587363308162
-5.33574501795754319
-5.40610471634448864
-5.46019777837900477
-5.51957129434177851
-5.5759626946898404
-5.62878081457856005
-5.74883897037165958
-5.79233730970695149
-5.84004307841945991
-5.88926909531383824
-5.93855647254571561
-6.09466660100617741
-6.13141384192753769
-6.17143921627187719
-6.21393743349983652
-6.25798837962109289
-6.44086738983645191
-6.47215437729361831
-6.50615287125067354
-6.5427291491865418
-6.5817469618660871
-6.74034835607958893
-6.76257364308442099
-6.78695148719487928
-6.81350801897458958
-6.84222686561276561
-6.87301470565909067
-6.90582930312699883
-7.09334621630948714
-7.11216558638705898
-7.13289631716711803
-7.1554963231418407
-7.17984349531780985
-7.20569714190863309
-7.23265873351095312
-7.44519739131192448
-7.46111569210451542
-7.4788353041723532
-7.49831776256484783
-7.5194276108148328
-7.54187578476848142
-7.56515193205746073
-7.79556311148989245
-7.80899238331032386
-7.82425727304690621
-7.84139228877138628
-7.86034989371142867
-7.88095156626817861
-7.90281404867214121
9.51003246400031799
60.4661986359819821
-3.31981507551950639
-2.67922919035448404
-3.72003945902512445
-3.59854510273568051
-3.56215320189542428
-3.69688667777202884
-3.68018379376861571
-3.97748547868225133
-4.0480947923195858
-4.0511322026018366
-4.08720040351023961
-4.11764552833055664
-4.18358270809437816
-4.34852777700711801
-4.4488906707681668
-4.49512428348458748
-4.52981424704933566
-4.43208330716407417
-4.55941015673626904
-4.70560836199691845
-4.7771754867769971
-4.80364795715360504
-4.72979737981031079
-4.83129612431713618
-4.9357083646704929
-4.99751690102078783
-5.03636006331365582
-5.05023677945132388
-5.11634102121838108
-5.19060065744191945
-5.25578390928069261
-5.31005918548926559
-5.39727983557197533
-5.44895804959119445
-5.50587348454926051
-5.56160296850047242
-5.61436266455352229
-5.74353407930895532
-5.78605549256768725
-5.83263094599235465
-5.88105767165191029
-5.93020626854811184
-6.09162049456436794
-6.12798591716282637
-6.16758130645954772
-6.20970544382081346
-6.25353697986196533
-6.43945602928111693
-6.47070388018351128
-6.50478099487249128
-6.54157788713273902
-6.58087504612105167
-6.74023033992409637
-6.76238869141156851
-6.78684001474304122
-6.81365021838855345
-6.84285608167085435
-6.87445454607258455
-6.90852107634291368
-7.09390845333325171
-7.1128357548652259
-7.13382973734766779
-7.1569088621229211
-7.18203336874451015
-7.20908351845576156
-7.23782903986618908
-7.44632341286601829
-7.46249199099737837
-7.4806318765050186
-7.50077648076266534
-7.52289128213956193
-7.54683030992334736
-7.57227883126600343
-7.79718236934273445
-7.81097634610090985
-7.82678451707075329
-7.84471781491234399
-7.86484049502104021
-7.88713847520410827
-7.91146643490419788
385.659521554683636
341.717045370319113
340.464075593348184
312.203416231677068
253.476389594204022
293.544423948914528
280.341459483154722
138.632615170691793
193.353439199362526
238.459140320077211
237.844063039442233
377.012725998185033
314.414949732104162
316.82845106344098
272.415337082735732
199.789511855220098
249.407720689735697
227.445624569744837
63.4190175808837466
108.730735382039654
176.468557449887271
178.647774430616892
344.141590634405929
231.827096281025661
261.551901410449204
178.791804461436129
151.424198724930079
189.224130013135436
140.526140314736665
18.691787781756048
62.7409562898015452
122.777730715779171
106.870269784747677
250.240213598353876
136.048124032641454
182.503108522736966
109.31928540573594
138.085548466526916
135.443086344754306
93.2755325955511125
20.9360140783679753
60.7720521721078057
92.4514822134282213
77.5718767443563166
173.050761353478265
96.5568076097356709
138.648316266672822
85.1573383039903291
128.202297476369267
112.387158804917163
75.5993269075538734
47.4175033129542953
61.0558950282754722
81.2388552080617501
63.7573374279232894
115.056374606771044
65.6968600035664849
102.877084162647293
61.3234144066143401
98.070968076184954
82.3054368251163169
55.6242305636835113
63.324512415768595
50.4342255407502762
57.9921983206252207
49.1463093625490473
40.0573778035394099
29.403832795128281
36.8184104582020808
27.8021997798108771
18.01164837653414
26.9448673279059676
24.1307827367458998
-1.85995987805949881
-12.7334707309050827
8.14735221658042974
21.8343001916923356
3.88694024807480787
10.647013788420491
-9.87393173768448662
0.0208297102732615258
-44.9855818761853925
-34.9381542836508032
-19.8964966594290757
-130.823175399588308
-90.4598958731949097
-70.2900230060487274
-34.4822993934227213
47.5490577413829669
78.0398160531444205
124.022853027048257
146.213206982676581
1.50434392859320454
4.9731960968498754
28.2369704671561976
61.6213484957563651
-2.98916968214357848
-3.10074337560958391
0.901145005667544297
18.8366193834638125
-3.90535886265951149
-3.7314669771804021
-3.05378099935383318
2.52024289612363361
-4.42485302651127466
-4.26922450076531135
-4.03538536394282499
-1.45280486733253156
-4.83850261275721927
-4.75213399408456016
-4.47591312083907944
-3.1489806445938342
-5.18730693955471889
-5.17435695842431187
-4.98721674972471885
-4.30911248914453893
-5.50773075651552002
-5.54937547986309632
-5.48716917486325073
-5.19717929476727747
-5.79198096139985452
-5.8685353655392003
-5.89822208884470811
-5.84313823606933624
-6.06442832424531897
-6.1429396186766434
-6.22703586255470665
-6.28833551241718158
-6.34589901657740185
-6.40783873106402702
-6.48307654781854037
-6.59010064185784028
-6.63492939910814794
-6.67793383338412294
-6.73693144985182979
-6.81754273577579095
-6.92825072722069013
-6.95766240104416145
-6.99430212236896676
-7.03128610612759708
-7.2315472624147672
-7.24596670438625434