/*--------------------------------*- C++ -*----------------------------------*\
| =========                 |                                                 |
| \\      /  F ield         | OpenFOAM: The Open Source CFD Toolbox           |
|  \\    /   O peration     | Version:  2206                                  |
|   \\  /    A nd           | Website:  www.openfoam.com                      |
|    \\/     M anipulation  |                                                 |
\*---------------------------------------------------------------------------*/
FoamFile
{
    version     2.0;
    format      ascii;
    arch        "LSB;label=32;scalar=64";
    class       surfaceScalarField;
    location    "0.570000000000000284";
    object      phi;
}
// * * * * * * * * * * * * * * * * * * * * * * * * * * * * * * * * * * * * * //

dimensions      [0 3 -1 0 0 0 0];

oriented        oriented;

internalField   nonuniform List<scalar> 
20536
(
-9.8338187539502922e-05
-0.000734350898228066512
-0.00044056840172614813
0.000578636092552416029
-0.000442803830068439624
-0.00044447717728988463
0.000536244831412315904
0.000160192026812310456
6.12328370654548594e-05
-0.000466585624724727562
-0.000232371941313433276
9.78834303682635937e-05
-0.00048080787429840633
-0.000276507139885029504
0.000231544178710899246
0.000144199493513966909
0.000183670987869047721
-0.000187306081070250731
5.17897326075408772e-05
-0.000103319012494950107
0.0002318262579019975
-0.000291797083319086871
-0.000131617762327897636
5.69970973331174061e-05
0.000322070786142021419
-0.000271030198679163736
-0.000228291143602821895
0.000108167178795344791
0.000291144684153785669
-0.000303977956349020626
-0.000163036474785803909
3.13535445033532364e-05
-0.000443320426499190705
-7.23748675462866761e-05
-8.18462946941149244e-08
0.000326113013087554423
0.000349672567468454424
1.71619756950901453e-05
0.000285516269805575649
-0.000409532839710630777
0.000256688987733696516
-0.000121849828917729641
0.000145776499270876833
-0.000222740668010380652
0.00029912175082287204
-0.000240729532236256443
5.01777830927101339e-05
-0.000122912084240486878
0.000484635314549485929
-0.000353988860078644602
3.17476364618659234e-05
-0.000167251310573193046
-0.000386744013249321788
-2.40899975721167015e-06
-7.23611526058628226e-05
0.000502827932239390462
0.000618439463572435029
3.29320094828490856e-05
0.000356760153713631199
-0.000444554874005982442
0.000641506109587173666
-5.68952380910741219e-05
0.000325138429521300732
-0.000413159787039427899
0.000677728802775220051
-0.000175618749252679131
0.000250429397983821555
-0.000351763091624006613
0.000706977512563753937
-0.000303556945719757028
0.000136047976197901899
-0.000215728870059488207
-0.000386664946653589119
3.30455568529209042e-05
-6.30653291258057719e-05
0.000736917991170628773
0.000538577441904241976
-7.79257733369659674e-05
0.000303889333448472722
-0.000321330581751218909
0.00062661761317060478
-0.00011206366370695295
0.000305871422133978258
-0.000338742668929909189
0.000680400920510834065
-0.000211521667998422198
0.000217273704982466398
-0.000235153568663764505
0.000690738459560403606
-0.000318190617415600513
9.72131531091531694e-05
-9.29164000682020531e-05
-0.000407942796305563865
1.47540367255910958e-05
-5.28103393793491992e-07
0.000697790997763118436
0.000449860373498515108
-0.000190770523759879778
0.000199539719684380112
-0.000204752880570495909
0.000554824670388089861
-0.000222303460400862538
0.000184580678133261863
-0.00017930431418438191
0.000610171312906841235
-0.000291945858221889928
0.00012480809368044013
-9.9729581399042713e-05
0.000631126923070672499
-0.000370804203495489796
7.23301303325290916e-05
-4.06710862979636523e-05
-0.000440096748952765212
5.15728053849256345e-05
-2.88277451002500609e-05
0.000640536875744089369
0.00039838663779758523
-0.000251666798993682305
9.63379770922609922e-05
-0.000107912409817355757
0.000463283090464468371
-0.000284731294766045321
9.7374451503041314e-05
-9.98423124003974452e-05
0.000503099909562301469
-0.000335384155444098226
8.20901144857478761e-05
-7.8467890603137373e-05
0.000521625109618214958
-0.00039220101923068205
6.60799943826630051e-05
-6.32075411478501834e-05
-0.000448966026570936502
5.46818206644473283e-05
-5.45268667442157801e-05
0.000530340481145244653
0.000336794817524092816
-0.000293740590901490515
5.90422414266641031e-05
-6.35400744531995648e-05
0.0003786495490445184
-0.000323391241011926366
6.29308002499369092e-05
-6.61249559731583061e-05
0.000408855169932957694
-0.000362878470879219152
6.15680743398427168e-05
-6.42791043540541241e-05
0.000427393107286606335
-0.000407967684504579339
5.96356455261502143e-05
-6.24065688660345989e-05
-0.000457007325574609749
5.90614807423857694e-05
-6.23533633755296622e-05
0.000438727152084693393
0.000279710213400530879
-0.000323924056514315862
4.68665647839605813e-05
-4.98139464471807175e-05
0.00031005333524743888
-0.000351196112460867567
5.13533562364708923e-05
-5.38908290669947988e-05
0.000333767552303071446
-0.00038397951140261465
5.44204398772553182e-05
-5.7033625407656382e-05
0.000348969207578064356
-0.000420332129774747142
5.7264217922231983e-05
-6.01013853421771796e-05
-0.000460732736975593283
6.06808455040366249e-05
-6.44096318833041709e-05
0.000356424170450870257
0.000229919147267983838
-0.000346707490305359599
3.84715538032814704e-05
-4.01211727923062516e-05
0.00025239909180604426
-0.000371548564463043826
4.24853257540121275e-05
-4.46121104204687203e-05
0.000270837888111234411
-0.000399691195467469609
4.687460765494644e-05
-4.960189266502379e-05
0.000283972937496794833
-0.000430204319722267924
5.19942079563443416e-05
-5.52570625544445104e-05
-0.0004630143028999448
5.88760246317172829e-05
-6.28041649096122148e-05
0.00029018339969294493
0.000183814017204706354
-0.000363499346558726036
3.15476855467485072e-05
-3.29904825660082518e-05
0.000201185573907566807
-0.000386991770737593155
3.57792583790212805e-05
-3.77075624160334735e-05
0.000216942648846495247
-0.00041291204678425825
4.0884092369604055e-05
-4.34206862405857606e-05
0.000230763473302705364
-0.00044072091666904397
4.71822286850864347e-05
-5.0486359615617142e-05
-0.000469788443788517716
5.5188891009720948e-05
-5.92961086263525108e-05
0.000241645522486483056
0.000113466408936734248
-0.00033716121593960419
-2.03991057665644916e-05
0.000126975562262076047
-0.000355305411994758392
-2.29512387561992841e-05
0.0001404811663889512
-0.00037577739223108701
2.51994689463802463e-05
-2.64271958687083506e-05
0.000153755167623316778
-0.000398575501072060984
2.93224857543115521e-05
-3.1013318189418684e-05
0.000166743327017942062
-0.00042359168274555038
3.46922327386211941e-05
-3.70011534633018133e-05
0.000179866790022833735
-0.00045066654886050171
4.17157993482238727e-05
-4.48933711071525072e-05
-0.000479595925462402274
5.09720805086127354e-05
-5.52636312289792319e-05
0.00019396632330981469
8.04020072969488053e-05
-0.000345900296223335037
-1.46138088930301371e-05
8.97085953301424854e-05
-0.000363961582787061821
-1.66553993080309178e-05
9.90428361112516501e-05
-0.000384180421662968727
1.85449741334439033e-05
-1.94767844527511848e-05
0.000108329047917793335
-0.000406560695954183806
2.20430473198080948e-05
-2.33448606876698287e-05
0.000117621404855359379
-0.000431076519868310907
2.68292301324806821e-05
-2.86368941801688787e-05
0.000127130452596935066
-0.000457701834602359365
3.34236856426362489e-05
-3.58970345413060798e-05
-0.000486410992363978806
4.25914244488791803e-05
-4.60355394233894424e-05
0.000137389828018046566
4.8012897383482045e-05
-0.000351004422523435485
-8.78541070524946048e-06
5.34562310154795234e-05
-0.000368978943629620084
-1.01085457266765683e-05
5.89107369057386088e-05
-0.000389027141455710115
1.13575032666201398e-05
-1.19659105194710263e-05
6.43384118722955259e-05
-0.00041113752760863902
1.36896518158457579e-05
-1.4540944966622885e-05
6.97363425957346704e-05
-0.000435287346316858513
1.69159559889510701e-05
-1.81028299858209879e-05
7.51053101789804349e-05
-0.000461447745428077258
2.14045763765422754e-05
-2.30272294776360256e-05
-0.000489626828659264529
2.76417247342445258e-05
-2.98487457480360842e-05
8.05280265441205381e-05
1.59926016908998446e-05
-2.94651184932342997e-06
1.77973917432224481e-05
-3.4043499303901182e-06
1.95955688405060959e-05
3.83560388776007441e-06
-4.04876338206834924e-06
2.13721732312505635e-05
4.64472194781187755e-06
-4.94502184821331989e-06
2.31177430651572555e-05
5.76552397079578452e-06
-6.18399552147572224e-06
2.48233943458341813e-05
7.31999920530597433e-06
-7.89691283908216075e-06
9.49790564316432056e-06
-1.02941428168306917e-05
2.64776032630154262e-05
-7.44076176328988936e-05
-0.000587864925621468803
-0.000365582303953629556
-0.000347190496119850322
-0.000354796808554271709
0.000133770870933670955
-5.66807660905758841e-05
-0.000348725924252216298
-0.000196755098501586237
-0.00059564876897252525
-0.000218578351304474423
0.000133848669912711455
0.000424598937231894838
-0.00027281466649076375
2.18289946981324367e-05
0.000324698155538079053
-0.000398970757520825592
-0.000101417889346653851
0.000336024286514222538
-0.000296308659361743817
-0.000271131326417019258
0.000371885232192641221
-0.000305331463599759542
-0.000242293010464888185
-0.00047896870809909398
-8.44437167725166837e-05
0.000267272924641606159
0.000470428604309676142
-0.000142980484115847579
0.000176700190235267547
0.000399267528241169906
-0.00023518736159746685
5.31540556863571094e-05
0.000480572391136590692
-0.000268497935628400793
-5.89386298423987464e-05
0.000661227579106772535
-0.00033748037838133622
-0.000116759758074059118
-0.000421095373320491836
-4.90590076011394367e-05
0.000650002898914272013
0.000611091991219673745
-0.000140543192583509252
0.000281293862497250329
0.000650993865954458415
-0.000186681789145324184
0.000236731078147712403
0.0007229145339396868
-0.000244860682567104844
0.000154871454715120458
0.000780244714794409025
-0.000326387526866069033
6.76246653824916059e-05
-0.00040163317870894747
8.72284146105496237e-06
0.000785104648913083
0.000504557689700928735
-0.000194580669872904431
0.000243525508939720361
0.000612093255178676769
-0.000224434463020433544
0.000236089466526590562
0.000682602385825520006
-0.00027559794934669434
0.000177502802760453389
0.000700358686422311669
-0.000341864581580577146
9.49347900384450065e-05
-0.000413721941028907282
2.67549869687388141e-05
0.000700446997931516361
0.00043815003023598716
-0.000225489331353220356
0.000134379608888871948
0.000525557943732352529
-0.000264944029502863615
0.000137683561964923641
0.000583421413497011029
-0.000316305348864316573
0.000107653435319602598
0.000616813292976371914
-0.000375724774651756013
7.27999641708996196e-05
-0.000435083328449111396
5.31045082236336944e-05
0.000636644309456208825
0.000394248407235907848
-0.000262197395428858423
6.56510162051281263e-05
0.000450619719221841944
-0.000298449879625949934
7.45098606903364668e-05
0.000489720403560183989
-0.000342583320853497616
6.92684778449365133e-05
0.000512819636698337144
-0.00039267701920716805
5.99344780621282201e-05
-0.00044622679717394592
5.2201948908292637e-05
0.000526444738820275619
0.000340226627692031224
-0.000300649789648342483
5.36186486465551834e-05
0.000378410692223498659
-0.000330884431708938873
5.71818148427947605e-05
0.000408280111497525691
-0.00036774433795273571
5.6860175198382658e-05
0.000428716434473555542
-0.0004096935613028797
5.62169603348959678e-05
-0.000456015545800551826
5.59067322113543974e-05
0.000441661711186261939
0.000283731783008463255
-0.000328191288120017457
4.33242473486193229e-05
0.000312408783973794433
-0.000355170074247857458
4.69624952980207254e-05
0.000336176001106179535
-0.000386888776243210877
4.97978148502759767e-05
0.000352799829146098237
-0.000421960205749707939
5.29078082114121633e-05
-0.000461030007850000349
5.63165823460831403e-05
0.000362180091700697469
0.000232790178864047162
-0.000349715340237335384
3.55124931779870231e-05
0.000255585512466663682
-0.000374635231213935591
3.91554997736502669e-05
0.000274934378437222051
-0.00040247617960596549
4.31131311354032349e-05
0.000289581176201582423
-0.000432444575013925074
4.7832346326350077e-05
-0.000464770315378149306
5.39204127909892621e-05
0.00029827822407350646
0.000187051806441089724
-0.000366299634943568749
2.92674480658567083e-05
0.000205118481415228547
-0.000389856252572366778
3.29335011011286681e-05
0.000221751345935941092
-0.000415679400899174225
3.74543428354806576e-05
0.000236670209065326353
-0.000443215591658662118
4.30347981600944426e-05
-0.00047215133484155257
5.0283116101310233e-05
0.000248957624118630158
0.000143766301365558409
-0.000378650422816884276
2.32943420748470836e-05
0.000158025341384724315
-0.00040168861476254196
2.68953816180711e-05
0.000172346727299582463
-0.000426934305014065128
3.1625758897122176e-05
0.000187141709198503352
-0.000454165668079131702
3.78712182266999184e-05
-0.000483122250015223585
4.62771482061609168e-05
0.000202807669449736936
0.000101869129938068345
-0.000387288150379852623
1.70689834153420048e-05
0.000112229921527047513
-0.000410159151462408155
2.01525207987634046e-05
0.000123042721331953768
-0.000435301456498518482
2.43839026658970022e-05
0.000134762812859219274
-0.000462728679319291281
3.02668564186457084e-05
-0.000492409451760741413
3.84574567957595716e-05
0.00014818371468134034
6.08059404314270798e-05
-0.000392346400972354401
1.04293065717266175e-05
6.69612977472127069e-05
-0.000415105803530680881
1.24811216044962781e-05
7.33856922881274211e-05
-0.00044014187804977369
1.53325094674238467e-05
8.02582727330728774e-05
-0.000467522262570016945
1.9325682563475652e-05
-0.000497368652158065709
2.49349568231609438e-05
8.79238278789038635e-05
2.02371864016304349e-05
3.51150544975569393e-06
2.22615958381245562e-05
4.22201399058425422e-06
2.43531096760174393e-05
5.21075080218569269e-06
2.65489971496640247e-05
6.58858974344899826e-06
8.53047980487195849e-06
2.891203291636186e-05
-8.03864997589501511e-05
-0.000522475859180394908
-0.000316836305349520056
-0.000285968206067290127
-0.000285645920389562314
0.000116641204805436428
-0.000114176964177193502
-0.000304605750543791561
-0.00012690888140660532
-0.000584214915944531593
-0.000158712902720120776
0.000124204225512210189
0.000615085301710551315
-0.000375778728113383611
6.3908577674372122e-05
0.000556446455164836856
-0.000486766191484276753
-4.94048688289131009e-05
0.000413145967040877676
-0.000360248237295660847
-0.000122830241222896409
0.000298279043868003287
-0.000252509653788555836
-0.000179522993208023116
-0.000505273105187642544
-0.000114624229397950199
0.000249517071835910799
0.000535603002439690649
-0.000292300275203685961
7.79587965853921597e-05
0.000560306907938363272
-0.000367819308122435522
-9.0497359034717224e-05
0.000676487024065622897
-0.0003400703438358394
-0.000195297692216690554
0.000802116173773181678
-0.000312401016666625348
-0.00018249894489438096
-0.000432927672800845903
1.34456129998276841e-06
0.000679365564686383507
0.000549983948761965241
-0.000237335751609932797
0.000167838293737161996
0.000598472481697910792
-0.000286270390633054368
0.000106693225766936494
0.00069120392700745218
-0.000316918372597954894
3.89875250606110289e-05
0.000811546278920211809
-0.000357873578557825543
-7.24604310404789064e-06
-0.000424715647613085542
-2.05570399089769782e-05
0.000832612740115090894
0.000471319419080070876
-0.000224960220948618221
0.000138323158200516635
0.000564739325621385624
-0.000274155184984171366
0.000130554785251282005
0.000638060706762522719
-0.000316049727027529212
0.000103313225665194571
0.000672983209062857132
-0.00035788331320995724
6.00222493724763927e-05
-0.000415730957887318787
2.68636330783824249e-05
0.000663889624730241578
0.000439834559980153343
-0.000228380999578432238
5.80958836452318748e-05
0.000508584175902015794
-0.00027674651244444145
7.15262162539589193e-05
0.000561070231186630488
-0.000325344403699010399
6.44632408693883007e-05
0.000600189737202974118
-0.000377202422546413967
5.30007820016118087e-05
-0.000432381738437027311
4.58756127097013927e-05
0.000624070292787734168
0.000398623628316817922
-0.000268700488073271278
4.81251239748509583e-05
0.000447261311455842087
-0.000306861023737078995
5.59876578509586282e-05
0.000484229287384769765
-0.000348241272858556064
5.51987259500706011e-05
0.000509753453308552204
-0.000393941651632027717
5.11511737212542655e-05
-0.000444197564590893747
4.76098158688610884e-05
0.000526162974420288972
0.000343067632629605942
-0.000305912217205714875
4.97736109554675789e-05
0.00037856446296316397
-0.000336199357812802361
5.10241557264163318e-05
0.000407947320170134466
-0.000371182772937230399
5.04198926145599637e-05
0.000429763894288146355
-0.000410643059358989111
5.1103247966832128e-05
-0.000455251566353738263
5.26877544125307695e-05
0.000444038492767202374
0.000286238237552153749
-0.000331961614208042149
3.89060398424320031e-05
0.000314368516846933181
-0.000358820497763990816
4.14540726978251766e-05
0.000338593224080325464
-0.000389549841394517746
4.39407835956360669e-05
0.000356671695901170267
-0.000423465069070640522
4.7652275973119022e-05
-0.000461279953465628973
5.18070040160515096e-05
0.000367210883730763294
0.000235548129706220728
-0.000352582047909696006
3.15303735584090573e-05
0.000258603473241934129
-0.000377440254608979724
3.47203885514447009e-05
0.000278819985390013321
-0.000404969631374488043
3.83165349239554493e-05
0.000294834067291162337
-0.000434411868416612762
4.27654251978835294e-05
-0.000465929807001130326
4.84424279097331816e-05
0.000304962580530790904
0.000189918576051950302
-0.000368864009083170845
2.61470388419037557e-05
0.000208645442460988508
-0.000392448150798766588
2.92146581346313554e-05
0.000226213748678450463
-0.000418197059021942587
3.31132996533624595e-05
0.000242316187291090394
-0.000445482748545014305
3.80032667067382326e-05
-0.000474155052964747472
4.46182162683618263e-05
0.000256206600582565484
0.000146656042022346919
-0.000381282875136308946
2.07212775795284683e-05
0.000161858173600920986
-0.000404515078736151698
2.37601212514920989e-05
0.000177411226360097752
-0.000429939474092344055
2.78150416191967403e-05
0.000193873587973019101
-0.000457308128218946711
3.32342780325200083e-05
-0.000486392759359187876
4.06612038752501129e-05
0.000211727358405345889
0.00010438242767834069
-0.000390143092485599496
1.5101482477141862e-05
0.000115716008071840655
-0.000413425058287252988
1.77290324942907588e-05
0.000127902755802537603
-0.000439102869873672251
2.13608381790266657e-05
0.000141641888404414536
-0.00046722314382035391
2.64429953168829779e-05
-0.000497767433842799122
3.36056146648901745e-05
0.000157868537464442364
6.24698334189049211e-05
-0.000395389107240192317
9.20817754298427203e-06
6.92914023948958986e-05
-0.000418713825086313265
1.09486982232107595e-05
7.66635541046626061e-05
-0.000444529257250669374
1.33872893252197854e-05
8.49168469185755377e-05
-0.000472986411455076066
1.68360125114991942e-05
-0.000504307144841750635
2.17251221311782374e-05
9.4666511064522805e-05
2.08051306920357135e-05
3.0904856434173577e-06
2.30511503089431892e-05
3.69243011492304799e-06
2.54549354255191932e-05
4.53543689523459035e-06
2.80989752578190565e-05
5.71698690560693203e-06
7.39220622460760114e-06
3.11387179345549444e-05
-6.5443039129925093e-05
-0.000498389387828554117
-0.000230524803389225253
-0.000241586475157500816
-0.000225399281496971337
0.000114283211231212131
-0.000122220610005608667
-0.000189033360681654944
-3.50036991823776341e-05
-0.000483219322311284876
-0.000146128488256714662
0.000106827704459044361
0.000824420843112130754
-0.000299287892084976876
6.88769806611552228e-05
0.000893014735416685257
-0.000353039476292663437
-8.42631999360780724e-05
0.000848654644342462534
-0.000283276507310583953
-0.000122535760816310755
0.00051190421278328891
-2.86533098815813851e-05
-3.15370222857376065e-06
-0.000342458700447724473
-3.13576479526859499e-06
0.000259654184728694368
0.000541556402355259682
-0.000270212221752296302
2.21060812272656073e-05
0.000559434346845474255
-0.000297887141766013197
-0.000163528522687078756
0.000562104191188843414
-0.0002498034348899764
-0.00023144210881725135
0.000696947225326655941
-0.000175849204238945204
-0.00017014829417571738
-0.000305037187506008306
-2.43010515657278263e-07
0.000661111324251284927
0.000481041277500614804
-0.000186906270222230391
3.49777988984421249e-05
0.000537222708877618566
-0.000252620903904534559
5.2449471096405069e-06
0.000628123247025786399
-0.000282214844876295097
-1.95026182072519075e-05
0.000769298005587100951
-0.000315624339639266878
-8.64710811204937648e-06
-0.000378088738205500691
5.47731692947155336e-06
0.000816313118892311187
0.000468964524513928917
-0.000180421112835347185
4.68233920104368158e-05
0.00054634942165815545
-0.000248105539241167924
4.86548363787584045e-05
0.00061453020576147726
-0.000296906769678642536
4.9824552060487747e-05
0.000657544484134094066
-0.000340929691463237052
4.23132545108538319e-05
-0.000389083892928548784
4.72014088540322925e-05
0.000648201216979938299
0.000455178848929758018
-0.000223750447601512187
3.67245807027973404e-05
0.000511470613534928246
-0.000276467777591308801
4.3597740037979711e-05
0.000558784365385686546
-0.000324263810477312361
4.45078538780368529e-05
0.000597150063728431888
-0.000374334399265626838
4.80411374101307961e-05
-0.000428337697619041516
4.85388521235210248e-05
0.000633741494615142629
0.000406588078680300492
-0.000277682489361754802
5.31960193662406975e-05
0.000447961187074793295
-0.000313001044779640859
5.1149115859816547e-05
0.000482479066741924934
-0.000350931577420819456
4.73504321550531087e-05
0.0005083950136360101
-0.000393920043429538363
4.48229314626318238e-05
-0.000440788062841792705
4.41934784918506359e-05
0.000524263489991685645
0.000343675788104198592
-0.000309221876533985137
4.34062207606367989e-05
0.000377821058516152183
-0.000339416366522503907
4.329544074600634e-05
0.000407694792769050822
-0.000373244753381185134
4.28609372580942148e-05
0.000431779833311946709
-0.000411610407468241898
4.47104623467177727e-05
-0.000453759441756265008
4.8356623969002412e-05
0.000449084165661800235
0.000287883449114845257
-0.000334692278625542817
3.35911714788710984e-05
0.000316290472977272361
-0.000361686557776074791
3.53182433854495604e-05
0.000341423209948796616
-0.000391862672350787875
3.74269032077440602e-05
0.000361357532153158104
-0.000425148488212776605
4.12571754676826556e-05
-0.000461473769452942501
4.65232650673159918e-05
0.000374356903532140875
0.000238012498098708313
-0.000355178432859889147
2.71491082763126193e-05
0.000261420853532814306
-0.000379887511132253903
2.95136078082304533e-05
0.000282501406394530547
-0.000407132920555041474
3.25064409483195958e-05
0.000299931178044703789
-0.000436324086245737418
3.65116269581146731e-05
-0.000467184972967426074
4.19985744620576961e-05
0.000312086962150774031
0.000192345822017418912
-0.000371150516232417486
2.2246551545803058e-05
0.000211714840745834415
-0.000394715304829408641
2.46736697237063757e-05
0.000230231130678351778
-0.000420392953076537677
2.78569039312918605e-05
0.00024748986152426408
-0.000447522996758757457
3.19435335118790323e-05
-0.000476028868827085556
3.74614674504755165e-05
0.000263490967378229835
0.000149081905021474799
-0.000383615937864355586
1.75082435593015544e-05
0.000165170504314053103
-0.000406997186250355233
1.99535305869315552e-05
0.000181891908559217766
-0.000432562143414318124
2.32629213328070661e-05
0.000199914644915149018
-0.00046001739100704457
2.77062895347604032e-05
-0.000489182577653896945
3.37615984595769227e-05
0.000219968465024571657
0.000106542767252219139
-0.00039267058934446908
1.27083073906569357e-05
0.000118727745045649175
-0.000416286241338234694
1.48334698527380205e-05
0.000132135306495849392
-0.000442408341322109557
1.7800138106962016e-05
0.000147691175048574112
-0.000471103697041896647
2.1974226070621482e-05
-0.000502391022075785463
2.79189714185313888e-05
0.000166586794655651564
6.38844217050249313e-05
-0.000398069094662546492
7.7188473122434036e-06
7.12925432344816031e-05
-0.000421872088858587428
9.12703638142720252e-06
7.95121600280758266e-05
-0.000448354000634358218
1.1114323964710236e-05
8.90239341369669212e-05
-0.000477734926918865451
1.39563343415729751e-05
-0.00051029933587613493
1.80122226516089991e-05
0.000100645408150806456
2.1290364169529013e-05
2.58508119651573846e-06
2.37287501906488701e-05
3.07074877439010207e-06
2.64053756001337982e-05
3.75367953764336975e-06
2.9450650037620842e-05
4.71342928446988176e-06
6.07544173157527192e-06
3.31141256451791246e-05
-4.7371357695076945e-05
-0.000391367258165981752
-0.000166481484410026394
-0.000207488226108151546
-0.000170517709933018101
0.000114085477313068698
-0.000133348217791524545
-4.50951095301680175e-05
3.63476860436795436e-05
-0.000506076024550791356
-9.60771494664015987e-05
0.000115188170031579537
0.000656967654732179985
-0.000123565114140239212
-0.000137716078624922132
0.000725853860108237607
-0.000216284835089815785
-0.000239518776820680298
0.00063698421938176682
-0.000195605697503673615
-0.000137657044877021817
0.000543257030496621836
-2.56509220353576782e-05
7.11271771651396536e-05
-0.000195413723757350215
4.28018782902906161e-06
0.000225177702643195379
0.000627336051520135094
-7.2972911602182933e-05
-1.94381367510067105e-05
0.000540331618357774613
-0.000136077187291692888
-0.000156732097039257356
0.000437342320046806617
-0.00011979727656589168
-0.000204263010711389504
0.00043773847264141452
-0.000176243216748053723
-1.99544010670204411e-05
-0.000329906607972676146
8.81833347038308733e-05
0.000483803012166720853
0.000524431804808260515
-9.67447367832061084e-05
1.15445651347682804e-05
0.000577391443237029994
-0.000176452529161741129
-7.33947859058916164e-06
0.000673691992810622801
-0.000217276918384596288
-1.83247154174017075e-05
0.000768810386326317704
-0.000288993651510660501
8.98331094437993994e-06
-0.000421290646162251472
4.62995888298408823e-05
0.000819369784426797086
0.000500434912341597249
-0.000166939339049595916
5.21964510181176756e-05
0.000558102574888211245
-0.000228014236851825739
4.25494705729351059e-05
0.00062071139963756287
-0.000277333282584452524
4.72722564678458254e-05
0.000654950541750472346
-0.000331703169532481944
5.07834084311706573e-05
-0.000401813442825711914
4.4218488241696634e-05
0.000638455388829012294
0.000467310530231434141
-0.000242958259299678368
6.02641134930363776e-05
0.000515838330687182298
-0.000284184238607803805
5.12412209302943899e-05
0.00056352520935429415
-0.000324509713504449052
4.39989878546070967e-05
0.000613064546148304828
-0.000371497487815289991
3.82976600763966881e-05
-0.000422232385154028495
3.75343372144343378e-05
0.000644488934243992091
0.000403441108330619583
-0.000284021738448607083
5.02421595704225944e-05
0.0004425558475017216
-0.000316918532633251541
4.47703034350332643e-05
0.000477477995021814532
-0.000352314498415755609
4.02353658820380901e-05
0.000505380322287200009
-0.000394944910399252071
4.03704773712019362e-05
-0.000439718932197153908
4.1619566440281496e-05
0.000525442728651599874
0.00034316448583536827
-0.000312607815007456661
3.48446824578116241e-05
0.000377704447886572097
-0.000342309453163966589
3.41479952672066656e-05
0.000408838579465536282
-0.000375148485107659074
3.45628466255682817e-05
0.000435121840820844763
-0.000413086867335519387
3.65713515451236652e-05
-0.00045268801191184079
4.12868253364166661e-05
0.000455162634311513366
0.000289192416174769091
-0.000337387592438057569
2.71898370436818343e-05
0.000318125869872605744
-0.000364146494792974909
2.82230577274174209e-05
0.000344045781492587348
-0.00039381985190007913
3.01795174161581132e-05
0.000365699947769463588
-0.000426932819192892216
3.34502164714053761e-05
-0.000462384956271342585
4.05290347501606189e-05
0.000381392465419491775
0.00023989662932394942
-0.000357354378352229586
2.18870134321533209e-05
0.000263724246981669936
-0.000381917712251131998
2.34578882317448313e-05
0.000285558942725519819
-0.000408981697812297251
2.58338571357900667e-05
0.00030407727962196402
-0.000438092571509336986
2.91535137241017378e-05
-0.00046900710601564886
3.51715490536498278e-05
0.000317527349489755886
0.000194273195518129425
-0.000373076176722185568
1.76038233026431665e-05
0.000214255534902131297
-0.00039661115979579178
1.9385042929264437e-05
0.000233562821306741757
-0.000422229548765350095
2.17974734080835761e-05
0.000251546513477236811
-0.000449253684147233429
2.51213684430715189e-05
-0.000477683361674021366
2.94507322219150936e-05
0.00026823436935906
0.000151058927019181636
-0.000385580098143557034
1.37423829645017226e-05
0.000167915962146226576
-0.000409067804811267264
1.5553402184194031e-05
0.000185636013194726056
-0.000434737682910544122
1.80515144464343356e-05
0.000204874594488229956
-0.000462236283369655957
2.14512841387147965e-05
-0.000491346071207363717
2.58063192622484639e-05
0.000226493573117350698
0.00010829747962194063
-0.000394784338410128608
9.93220628154508919e-06
0.000121218398133014286
-0.000418669779478625728
1.15151355703085133e-05
0.000135668231184043185
-0.000445145382281604139
1.37593019600105896e-05
0.000152792778591240942
-0.000474285434127824093
1.69003154012453169e-05
-0.000506148778613127849
2.14384198833134147e-05
0.000174076793151411768
6.50335377313043751e-05
-0.000400312351823460283
6.00380100178907529e-06
7.29338585506858413e-05
-0.000424503107543931508
7.06093948713123612e-06
8.18711151008818177e-05
-0.000451527532342582466
8.56079541799696545e-06
9.25034871667060831e-05
-0.00048166579357826673
1.07055980400243506e-05
-0.000515220355822532832
1.37440866128525755e-05
0.000105843220873703343
2.16819241402503048e-05
2.00716286409510189e-06
2.42792895638727465e-05
2.37103414344345406e-06
2.71824241178677295e-05
2.88378134202390168e-06
3.05600181177132678e-05
3.59950220408410525e-06
4.60190182750954103e-06
3.47462763660825075e-05
-2.89610070026949558e-05
-0.00034337010124691706
-0.000114355337056697655
-0.000196675049060151229
-0.000111672164017831906
0.00011984672303875901
-0.000240883018204433516
-0.000176838119064400093
-4.47613826285559762e-06
-0.000601297173486404699
-4.12703356635092588e-05
0.000108932265876598034
0.000516620191576915434
-0.0001924680934385828
-0.000218528720790184922