/*--------------------------------*- C++ -*----------------------------------*\
| =========                 |                                                 |
| \\      /  F ield         | OpenFOAM: The Open Source CFD Toolbox           |
|  \\    /   O peration     | Version:  2206                                  |
|   \\  /    A nd           | Website:  www.openfoam.com                      |
|    \\/     M anipulation  |                                                 |
\*---------------------------------------------------------------------------*/
FoamFile
{
    version     2.0;
    format      ascii;
    arch        "LSB;label=32;scalar=64";
    class       volScalarField;
    location    "0.450000000000000178";
    object      p;
}
// * * * * * * * * * * * * * * * * * * * * * * * * * * * * * * * * * * * * * //

dimensions      [1 -1 -2 0 0 0 0];

internalField   nonuniform List<scalar> 
29184
(
1857.24251004867301
1857.38285330385679
1853.27462249512996
1845.7335466795796
1836.68022253476784
1826.13226950443868
1814.97989001113251
1804.50388835091371
1795.90594691532942
1789.83353522097241
1787.4110874926123
1787.27678846777007
1789.45307896861004
1781.03007583694853
1766.92804634078902
1627.85230531103434
1734.07863033526951
1733.79265941954941
1729.62602894373231
1722.1053969563327
1712.81841134938577
1702.2176460231085
1691.06865285796994
1680.52234318596493
1671.74261246539595
1665.61546856973314
1663.08967264850321
1663.52546308074943
1665.80413648414878
1659.69455287273081
1644.03529376377878
1516.20146502243142
1610.18277482270196
1609.26828080171504
1604.92116417552279
1597.38412024003583
1587.95578294040024
1577.27989199651915
1566.03487565000273
1555.28284689460702
1546.22291814935488
1539.92584160086335
1537.39766667095523
1538.41639434308331
1541.65744423474644
1538.22196802712642
1525.02550811284732
1404.70118022882502
1485.42986599456935
1483.9268076839503
1479.31838180584896
1471.71785690886622
1462.13432060699438
1451.2683541879021
1439.79171052613901
1428.70846095737215
1419.24123680457569
1412.63475211798232
1410.07316475682683
1411.743753338857
1416.55198137172965
1416.50232085061839
1407.50974076811349
1296.62948680449404
1359.79193025960353
1357.79268907451183
1352.83791871631752
1345.0889196715018
1335.30886996339495
1324.17382195960067
1312.35479607718071
1300.80329874353674
1290.76390429184153
1283.67416008070927
1280.99566883436592
1283.3940320214756
1290.29314634566845
1294.50652879152085
1291.43096948600532
1192.83239144477989
1233.2727588826142
1230.8411352713008
1225.48900261152767
1217.51964998977837
1207.49199783440463
1196.01231413604842
1183.73117336286305
1171.54670193646871
1160.72536289850723
1152.92503920959825
1149.96342660143364
1153.09436061289716
1162.53349474686365
1172.01733536976235
1176.43452215203729
1092.86831868139893
1105.90531636769038
1103.07183791313514
1097.27807790409179
1089.02204037193496
1078.68895342319047
1066.79482859238351
1053.93394651914696
1040.92954813595179
1029.05842126631705
1020.23866395192249
1016.7126438622181
1020.47011598641154
1032.84156423255126
1048.65234357667532
1062.25128296729645
995.84388891909839
977.738246321788552
974.509583798774997
968.225396600054296
959.628427627835322
948.938751185276033
936.573023328809882
923.017307265852878
908.971577169312127
895.695952881453763
885.431667694979524
880.892168550939232
884.99295245619021
900.608943361826391
923.847467949736597
948.416703351629849
900.980750182940028
848.83190060738184
845.195692865075898
838.370706345301869
829.397748279561256
818.31719122018967
805.44335706568404
791.080067227198924
775.719887309654268
760.562093665372458
748.288107075482685
742.044803095450561
745.906493526131953
764.979250299021032
796.923953793656437
834.587475918019209
806.627493192423231
719.345527706624353
715.219471672423651
707.801899168425962
698.442350783127722
686.960634781253475
673.566131392214402
658.27079905772257
641.244241812230484
623.573354296188882
608.614684265165806
599.729272819322432
602.342119343897593
624.778796799794009
666.954812538513352
720.275532733228374
712.115991309983428
589.660774597384716
584.88931912248745
576.842550857482593
567.111411552887603
555.238813315781044
541.329484465794849
524.954015716035428
505.835549860222955
484.889794976500298
466.519043267221377
453.774153069048907
453.698434142737597
478.923991390642186
532.698137151274295
604.712704226650658
617.292808906954178
460.349066210516867
454.899576347780794
446.318345077330605
436.251507506537564
424.007619953267522
409.619882314889765
392.037441704181902
370.215891965900255
345.092639217145461
322.220393039647433
302.936181327273289
297.172259813685059
326.192909045088982
393.543812539652436
486.101601381833461
519.587095783715995
332.362029845384086
326.287971079865883
317.499308350720412
307.155616485185419
294.57031241906202
279.807770119580709
260.901820138058156
235.402285638010653
204.848464145534535
176.809478265713551
149.693467584130076
134.210088912558149
166.072419254871193
250.291888617900213
363.700687785007631
418.225396047270124
207.694642020666151
200.860578062054856
192.645579715285294
182.291727876695859
169.741490529796692
155.195817135277139
136.041667259418318
111.621566051011087
84.4833671579756356
59.7764213651864793
38.6165431989707031
25.0825892367883512
35.9836847357026954
107.597344962670832
236.916557545565183
315.925177762990643
101.384982483329395
95.85796269120533
90.3378097623501617
81.9012117943501607
72.0230883490235101
61.1210603780245947
47.6053978522858188
33.1753248258768849
21.2700893657018355
10.7347774261491224
4.82911066811622902
2.39862598210461009
4.73405820945153977
24.3300306602035334
117.754093463685194
216.94979287182764
40.205401313621735
37.7729820100212237
35.3543057445575073
30.4760089560764982
25.0756549472612278
19.7230888420234294
14.2345647777754181
8.91091653783719551
5.15093805125450643
2.62934317654587701
1.32164903558950009
1.08469959414415662
2.2160668176395486
6.03535211481543854
32.4437414137737505
136.971725350254701
1858.33692969697631
1858.5834048758154
1854.73669971457889
1847.68075044151146
1839.36534211711546
1829.90124535351106
1820.30280154894535
1812.00795787537663
1806.3713521578527
1804.43854690290073
1807.51575478455948
1815.77894526453724
1828.98067676706728
1842.32441766173997
1850.99949983197826
1832.49037848184935
1735.17479509607574
1735.00105587672397
1731.1010433602487
1724.06655644456191
1715.53052131235108
1706.0255006606701
1696.43208448659198
1688.05701065734229
1682.25678455745469
1680.26478095576772
1683.36600633831358
1692.03979278303132
1705.65256429292253
1720.42875545743709
1728.63926562400206
1716.40004973549526
1611.28550958068331
1610.49330558369684
1606.42265437654487
1599.38171856130612
1590.72357559020111
1581.15893263183193
1571.47425490731121
1562.89722288042185
1556.84107128017718
1554.71154488556431
1557.88511823480576
1567.10092210576863
1581.67735667460147
1598.42285917241293
1608.40751770837755
1599.34258131207616
1486.54670960750946
1485.17467367024278
1480.856441545287
1473.76862909097736
1464.98144950367873
1455.24929009084099
1445.34351287956042
1436.44529434089554
1430.01324458042859
1427.62503901530476
1430.84583451213598
1440.72692314443339
1456.78759606280437
1476.17136332861173
1489.28275790069574
1482.98911144145268
1360.9308626085392
1359.06542762517211
1354.41994547872764
1347.21076133656652
1338.26438458080065
1328.29118566138004
1318.05359483703842
1308.69950038247407
1301.73558995094345
1298.93569527280124
1302.14195313683445
1312.80550069557603
1330.84481883039552
1353.66464060393605
1371.15877675329193
1368.89618721436182
1234.43618898476052
1232.13735673101928
1227.12063888573766
1219.73182606714522
1210.58849610786069
1200.30019116321
1189.60466794697595
1179.6281582961733
1171.93282000230465
1168.5163801905037
1171.57599255925697
1183.07315663639838
1203.55133682998735
1230.71230076819143
1253.95794826373867
1257.72558622936276
1107.08210746290433
1104.38370792148567
1098.96462429082658
1091.34645911969892
1081.96224495353499
1071.28269833286186
1059.99484291386739
1049.2015581240621
1040.52097008689611
1036.20782607531328
1038.88836671753074
1051.17411749911889
1074.52110941310434
1107.02870842420202
1137.49759451915816
1148.84697418129349
978.902388578024784
975.81466151955965
969.972679404110181
962.090209942274669
952.424848556499342
941.277281593808311
929.252397746689667
917.411162769522775
907.414841335275014
901.815361622600562
903.732538248362857
916.604494807741503
943.197492214292765
982.131085727086884
1021.43345709304583
1041.5512182877942
849.940540069926783
846.446599435646931
840.178992196527361
832.021126190015593
822.04763280337761
810.359299117041701
797.444940739117783
784.280662163962234
772.536835564342255
765.115580376964772
765.646836174405735
778.633456878054631
808.799605743162147
855.437533182155903
905.390501803701454
934.903755238975577
720.31578752800192
716.34247830199206
709.647312179072742
701.229614697159604
690.94791035092976
678.653776806256701
664.683249181321571
649.868946064380452
635.839436046348283
625.917140234415228
624.140317351495469
636.303650332541793
670.224073620869603
726.187896979650532
788.867146294635631
828.207493918649789
590.385844398690551
585.794494036645119
578.669937962005179
570.025710417050732
559.469811371646756
546.515193713814369
531.306775046086159
514.470713176205891
497.553635081551874
484.343708137144176
479.049447203571162
488.950063652569042
526.235205701578934
593.377223908122915
671.284319403425798
721.512784509309313
460.758053686344056
455.522892760536479
448.08376959631687
439.266577982942408
428.494771751007647
414.853545898889251
398.258179406757108
378.977000778650108
358.43242273758483
340.691030561016305
329.601421329599816
335.121115299567464
376.137574287177358
456.191293222371769
551.531460024952821
614.868729553067396
332.407170960118719
326.622031454445505
319.165200878041333
310.281225635708552
299.38348614262236
285.092743638895627
267.054738028248721
244.922620307411762
219.709542102216801
195.440092273669507
175.32468470132244
171.347138949324744
218.033679943110883
315.474509590399521
428.796285672307476
506.589275782881941
207.204833843580218
200.999839422258674
193.998949954509271
185.364773330730259
174.743012666127242
160.493425964314838
142.367537231910092
120.198385312610753
96.7203861927919206
73.0691076136741913
51.9363241240046136
39.2625543419364931
66.1649534931100334
170.560537045747651
303.376544422253801
397.00574554956529
101.165615337230975
96.2662117632924037
91.103677487827099
84.2250024233405838
75.9647464395150109
65.1794163892433289
52.3996493116702595
38.1842987752221461
25.9384806906541598
15.0386567356591172
6.33593887713462323
2.55960938576541253
7.90884584001587143
54.1064298807255
178.219105692752237
289.725715395210955
40.7068280690095889
38.3249133384454694
35.6441303449133216
31.6032198615728248
27.0632539051470076
21.4577389561533494
15.898215791065212
10.6635006468500393
6.32693937392781436
3.18908669571970194
1.16573917173860053
0.835807154322123935
2.2650892643353
10.4868559874080347
75.2482241954603523
192.604265838386937
1859.29980966166431
1859.63366667414243
1856.05557791900674
1849.48403252526418
1841.87439827507637
1833.42159420617213
1825.25017046246376
1818.91488460426876
1815.87553376115557
1817.43036399465359
1825.02467122432495
1839.38359532072423
1860.10383845932711
1884.93008931779605
1908.58895988825429
1928.21836684901359
1736.1182835766549
1736.03999324221604
1732.4211511037015
1725.87743115424746
1718.06036530405277
1709.57767179899201
1701.41436286104135
1694.99678129828226
1691.81488203658773
1693.32668990355887
1700.99671924650102
1715.70988245826925
1736.95372909517482
1762.87876690821645
1786.90663027053097
1811.9673967022195
1612.19430719969546
1611.51331025123886
1607.74897581318078
1601.21702143329276
1593.29610357782576
1584.76893955864671
1576.52458059958485
1569.91552037993074
1566.50368538384714
1567.90940155727276
1575.69950062463022
1590.94067860706173
1613.13636763033423
1640.66044018776142
1666.16000107258606
1693.24630617031744
1487.4106379902164
1486.17405638079845
1482.19579952071763
1475.64095171716895
1467.61350181845069
1458.94245612678287
1450.49735067523329
1443.58519400009664
1439.82777986202336
1441.02031230383591
1448.9213293433711
1464.84646303539057
1488.45362198572229
1518.17969048370924
1545.98044103502639
1573.35906215968157
1361.7494099275159
1360.04982212667119
1355.78350852800327
1349.13563754248185
1340.97713591446632
1332.09690467669543
1323.34721116196033
1316.00062449323286
1311.74573757309304
1312.58753765641177
1320.56040662050873
1337.31454766234856
1362.79538759125489
1395.44676367443481
1426.47881920048849
1455.18438378359087
1235.21968640768
1233.12443380801938
1228.52438486529491
1221.72614231802754
1213.40415325268805
1204.2474647847514
1195.06947532444929
1187.11898010142022
1182.16898563385894
1182.47304260987812
1190.4186551874518
1208.09055202960008
1235.89410770515246
1272.28633151322765
1307.66087465974897
1339.89430669879448
1107.84935121835497
1105.39978229283679
1100.42550831520771
1093.42547376492303
1084.90022001768648
1075.39309962168932
1065.64538092231169
1056.88371737879743
1050.98612226614932
1050.49821107467096
1058.23244381966106
1076.82924672461468
1107.394082554531
1148.4467664682038
1189.41536831588382
1225.82014276074369
979.680546243845811
976.886275956007239
971.501395145648758
964.262177948802332
955.493249964564484
945.550669220481609
935.067182293103883
925.241285518849736
918.074412216819951
916.448471838584737
923.660819739355475
943.052879203093198
976.777048632166384
1023.55360455298137
1071.52174470184718
1112.73986968479176
850.754853294764416
847.580290191355061
841.771543521453623
834.282981666163778
825.236231997618461
814.761662953953419
803.350863131419146
792.157364415767688
783.313967675085451
780.083825564249537
786.271972138402816
806.106424659668619
843.341579463756034
897.149089075458733
953.801503842853208
1000.44986671259744
721.13806398755537
717.487417741235276
711.28154892927455
703.558894315765883
694.21061814254881
683.102259256239677
670.547610383659048
657.619402480253939
646.589875658022038
641.162233759584069
645.552428229619636
665.089283035156541
706.118201717987631
768.660902462433796
835.984430539142068
888.674616949494975
591.101481603575849
586.822444323676336
580.309572363468078
572.371457557607755
562.700394841441948
550.870710396586674
536.943791700064821
521.834641825899325
508.023404886498156
499.692958573051556
501.221280732264404
519.176293528797487
563.910622534557206
637.257381410179505
717.671560376214984
777.603026217748265
461.309473538123257
456.265377270716954
449.689498650834594
441.577495355191786
431.569117747724931
418.97616460748668
403.442694237115347
385.581490623555965
368.191800103596506
355.93261797418586
352.832540366350486
367.426349889984976
415.842889268668841
501.912159688711199
598.162999331394076
667.185853902757572
332.749507355603328
326.955091772519609
320.741867148819438
312.51964096282677
302.211575026152104
288.858084110907157
271.391646223911039
249.983082415771378
227.925072137516054
210.159013107302144
198.955944387889303
205.98795710863169
259.599490917315052
362.830091306266922
476.6163098928605
556.407931834981127
207.114363601369405
200.811982611900703
195.501764310303315
187.385360456809849
177.306696525284679
163.914474842986692
145.594744241735953
123.128474685417359
101.412081795310996
83.1405986114718871
67.2498347785659689
60.0922495409047315
101.139031992167475
218.992369980958529
352.860818797198363
444.571196776756324
100.796620557408914
95.7783334459795697
92.2669559134747033
85.8282973624100123
78.268959056818062
68.1637777159689904
54.6403212179405955
39.6951384040509083
27.763321075874444
18.4541142924704786
10.1822169150237585
4.7924108524136102
15.2978953904181481
88.8480304783468
229.153642475101378
333.098038776033036
40.5210531353752117
38.054817387695266
36.2833593982898037
32.6178982178304864
28.6574743535851439
23.5384904099936136
17.5133546846244599
11.4735419914534305
7.29146461998658424
4.17313909858748389
1.90987228400875253
0.751940039668435034
2.95336374555031966
19.3024742885354499
121.330363876995762
227.724097888607503
1860.18712810921761
1860.62606649658846
1857.29295643582782
1851.14106180672593
1844.13617254532915
1836.55056721104074
1829.59611426925767
1824.91517764171749
1824.02689113322276
1828.3777879198085
1839.39776885463266
1857.8388107650544
1883.00797094674158
1912.78545276363934
1942.21854595947843
1966.18227832531215
1737.00555713335962
1737.03715206024344
1733.66651285274361
1727.54148284230405
1720.33689874595871
1712.72633441025641
1705.7793800073805
1701.01444369162186
1700.00714845518542
1704.32924043688763
1715.45141300084856
1734.24820429769397
1759.99308447251474
1790.8809374779662
1820.24551614424672
1849.49255970493687
1613.08265933381153
1612.51649596627431
1609.00764202492223
1602.90170531296667
1595.60448280271657
1587.95533976666866
1580.92852415622019
1575.97972165178362
1574.77227918077574
1579.02295052308477
1590.30544281502489
1609.6428782941191
1636.32451065820192
1668.66518738503987
1699.07346265426804
1730.1701025392772
1488.30021397904989
1487.17829241347908
1483.46604866614416
1477.35168131063915
1469.96353087083071
1462.17971034202401
1454.95603605615429
1449.71750885318215
1448.2045357013817
1452.29989567036387
1463.75746022846329
1483.81221320467102
1511.86286083358209
1546.18733051752429
1578.41204520417546
1609.84964903905666
1362.63421092426984
1361.0433971653456
1357.05784495174566
1350.8744493038289
1343.37654672796975
1335.39313346888616
1327.8676487219625
1322.21295939035508
1320.25656451280975
1324.08294935352478
1335.70125341321909
1356.63785565234093
1386.49571000197693
1423.45870208950964
1458.33707451341661
1491.09967422238515
1236.08981430761264
1234.08597520108356
1229.78859334016806
1223.48772807697969
1215.85158970922839
1207.5995968836246
1199.64752427443727
1193.4149637686096
1190.83612660158133
1194.23317324278514
1205.94314929152006
1227.87847532960041
1259.98101583996458
1300.32331379859079
1338.85337681404667
1374.28186795696865
1108.69418705634325
1106.29807941747458
1101.65606263720565
1095.19276493433608
1087.38177338279684
1078.78719550830465
1070.269926102304
1063.26475371593529
1059.83309409208846
1062.57461038132419
1074.22681452549887
1097.20544093414492
1131.99053612265948
1176.58637357209591
1219.88782183481044
1258.37300490168354
980.486801148847803
977.684408267117306
972.662220279635449
966.001437619455487
957.980802629955178
948.965010538114484
939.727192522992482
931.713345954655665
927.129813269530473
928.897657678819428
940.222021273748396
964.167542458935714
1002.04390916823797
1051.93953304133947
1101.30076116338296
1143.33984167768222
851.504378157906331
848.248404759862524
842.814438801028473
835.94469397344983
827.694238014977145
818.176498134686426
808.045997305502169
798.734808027309555
792.609935943931987
792.969223759461556
803.516649448601356
828.155551877857533
869.61168733242971
925.999608748523542
982.930746046709601
1029.21294843965507
721.824602694038504
718.012524162930049
712.147093270526739
705.087840695517343
696.611620109770001
686.5163026726309
675.298346965579185
664.318578308236283
656.15320828460699
654.549963821900064
663.610511575142709
688.300849056498691
733.634411882485438
798.291494072792148
864.648525668184902
915.817751672214172
591.743904106098853
587.210347779044469
580.917915777917187
573.708406530409093
565.020818829548489
554.295733659035022
541.764963467906227
528.643935831488079
517.850359598726072
513.645506232128582
520.202895930147633
543.72062563602708
592.974858448528494
668.166972463017373
746.310649660772469
803.162895856444493
461.910726458001363
456.564098232541483
449.951960365987816
442.642507032729782
433.772202482296507
422.392317111734883
408.277579426979401
392.406524577895652
378.270721538275893
370.561155678788509
372.96445042337723
393.575840791887003
446.601810995795859
534.758078387951855
627.589233705260995
691.335426468806418
333.22726002342938
327.18170136189724
320.563295772492211
313.238860563153366
304.271923472672597
292.246178428795247
276.125690069366101
256.592238778966703
238.121394353425785
225.472749055927352
220.018319116644761
234.156355500346308
292.667652270394683
397.972234216239031
508.184105716927206
579.909260541832964
207.563740978653186
200.889112544184854
194.956705897544225
187.949669965431212
179.260590156834269
167.039645414133702
149.709438802985005
128.589644160680791
109.390786311994589
95.097340757089114
82.4658167233262702
81.0261653042316539
133.062246125681213
256.620304790660384
387.320050879116934
468.051659574881342
100.708831769444032
95.5525531708835842
91.8657227950152446
86.5226777953434976
79.7376479364405668
70.0252601307274745
57.0004190534083364
42.6438608186639385
31.5170940622653575
22.9602850372489797
14.410521834233009
9.44412229084173305
25.9356694647635209
121.096229400689936
266.614561528765762
356.168896474906433
39.916869097182655
37.6831373451771583
36.1936652578938265
33.1047924953369943
29.1651670204755646
23.8815161687763293
18.1960340839895025
12.4296978115867631
8.71328829648200553
5.41498237794236559
2.64874494472656963
1.31553365464887229
4.68470867322385942
29.6697610962417002
155.47880713147697
248.586381734040742
1860.93510910866212
1861.45021685738561
1858.3317554952755
1852.53319261758043
1846.01844044580753
1839.13428136398647
1833.16457065224563
1829.79776322196403
1830.58510579870835
1837.01374489532463
1850.4148636506211
1871.43244748675625
1899.0077256361435
1931.00499947620187
1961.89621153159987
1986.39947918706503
1737.72568845385081
1737.84327875279178
1734.7013855660648
1728.93783635710793
1722.23394147971089
1715.32798474239507
1709.36442771121119
1705.9206556886104
1706.61590670875489
1713.04571760540102
1726.60073821149717
1748.00057199616617
1776.21383067653255
1809.14015857964091
1839.94850040286588
1869.89772195772844
1613.74730965829121
1613.29568652524745
1610.04133922426081
1604.31069318238883
1597.52074959750917
1590.57560850977734
1584.53267525371598
1580.91825469865626
1581.44509868633145
1587.84268099170117
1601.6041007666015
1623.56824447703411
1652.71108963729239
1687.02293911554216
1718.80466383997327
1751.05237384168754
1488.88911806410783
1487.92833371801044
1484.50389717821918
1478.77856818873215
1471.90113256093105
1464.82092526199017
1458.58525400382564
1454.70093446974761
1454.96521129145185
1461.26505063253808
1475.2619744852791
1497.97969848661614
1528.46791909023796
1564.6214864378926
1598.13907627818708
1631.52006013193773
1363.13648326821294
1361.77351016307216
1358.10861079515644
1352.32332578139108
1345.3352509111096
1338.05366880388283
1331.52262271004884
1327.24927477653091
1327.12726550390971
1333.23467495633258
1347.46936217708298
1371.11975749189378
1403.38012511825582
1442.00284661299384
1477.97977625618523
1512.77837495276549
1236.52182968929083
1234.82325686557078
1230.86119367753099
1224.95730406454595
1217.82740176927064
1210.27683025986789
1203.32994703716872
1198.51495314601925
1197.84422926162438
1203.61897537134882
1218.04233871841961
1242.76601018965084
1277.23131430675949
1319.03870346126996
1358.31996376851021
1395.33769679423403
1109.10184714976958
1107.06366373244373
1102.75121476677214
1096.67724414506552
1089.37565278988268
1081.49073235786
1073.99595108026688
1068.45301669416472
1067.02044822936159
1072.25515606836666
1086.73852973150588
1112.61522280989584
1149.76503012444346
1195.56995827429364
1239.13605831258701
1278.83397997637985
980.921363448240527
978.482771805731772
973.77016258094568
967.49582232587511
960.012350062003861
951.735157747226708
943.54822152271197
937.044375972571174
934.564784364604861
938.954699518804318
953.247342531791901
980.24801777393202
1020.53643887054125
1071.35803943049359
1120.38937676149089
1163.26021492363657
852.007337655701349
849.101970127750519
843.926594810045572
837.458453388715043
829.820923591526252
821.109264116855911
812.069820437698127
804.30953347041077
800.391447699758828
803.498242920197299
817.166446316299698
845.08883264346855
888.925286436414808
946.084517777353312
1002.02047348706515
1048.62749389308692
722.446734782823114
718.990964233214527
713.273887301228342
706.681647931467523
698.974570726817547
689.799837667851307
679.680395337146592
670.273786228244262
664.384891969723867
665.622995718325683
677.966849006923667
706.30530483182838
754.175478518504178
819.374510545542535
883.985538910797231
934.908021441257006
592.559677524017161
588.386369187248874
582.093226287077641
575.52275463281353
567.88009997285144
558.171399876598116
546.638036292949892
535.055728264495656
526.55916105286019
525.246187597220796
535.232057370102439
562.954189093728019
615.202946404794375
690.733259228363977
766.243085124204981
822.044846489912061
462.982157264509397
457.979031103944408
451.199187070621747
444.805108153910624
437.349813449590556
426.967356806394491
413.630003393416928
399.193660648221794
387.396611714483015
382.653256627924065
388.615336905182403
414.187004233356674
470.997044436783654
559.503662630930421
648.661733671927777
710.102596684859236
334.539186942551851
328.771203315558068
321.849950529739772
315.760130783306295
308.654425782299768
297.493355994899048
281.771290221711979
263.607537568725775
247.645924901908302
238.063103651985784
236.369228155263954
257.169050542758441
320.230576582999447
425.573231666430729
531.185706836783311
598.677145347418218
209.15979642267871
202.425747175426523
196.27538563947428
190.776528481500463
184.083769783189609
172.238424543689689
154.653190575698318
134.753145517144276
117.465481401813349
105.017627888480774
94.5724990446492484
101.643470056361139
162.979494601092256
287.998718503356486
413.461386642032721
487.236929883588573
101.481084271177906
96.4651302079300876
93.0274872153836441
88.3964574265144165
82.7561044956567002
72.7778088587904222
59.3436878647570438
45.7968994954438813
35.2823245213747327
26.9423383381019903
17.4307901431305368
15.0746198143978631
41.5531141621987672
152.388875710132652
296.427765761535284
375.444381180644996
39.4294865535950407
37.9605381488041758
37.0439477547353135
33.4630465999451872
29.5937439606993848
23.936919057543605
18.2135210739083959
13.0360954234960218
9.51308560762824129
6.37990775166056778
2.50904430150540492
2.12070850916915532
7.91824924508597405
48.3552027305208867
188.064518464988168
266.272614624430844
1861.66822187171374
1862.25134473177582
1859.28083166687634
1853.71260956835204
1847.53505481848833
1841.16666301599435
1835.93679790355282
1833.54414384718416
1835.55812945607704
1843.44021561630188
1858.44905418947496
1881.04704195983277
1909.99860831003025
1942.63890529472246
1973.03797317054318
1995.36961244312624
1738.47635643312901
1738.66986174264639
1735.65835466142289
1730.1166435690966
1723.75879158629164
1717.37756719215486
1712.15916844858634
1709.70116257527093
1711.63749438833042
1719.54302297821437
1734.72396015391109
1757.71872279368381
1787.24420691099954
1820.76869894580659
1851.28624794251118
1879.05717491166865
1614.53340014718515
1614.15871663976441
1611.00616125904685
1605.48644379631537
1599.05041053618925
1592.64084555163845
1587.35443395247694
1584.74263383849348
1586.53106476555354
1594.42840137545181
1609.83941369148829
1633.41267941178376
1663.83727975717898
1698.72956820764671
1730.14534127988736
1760.17450195457718
1489.7219446994909
1488.82041805813469
1485.46081897095473
1479.93826609839857
1473.42961028586319
1466.90520993805671
1461.4463152229464
1458.58834701204864
1460.14165183827095
1467.97230796398117
1483.6514127484736
1507.99867131690871
1539.73823407264149
1576.39559885581548
1609.53577825178718
1640.84957538808294
1364.00905139833412
1362.65863041664534
1359.02535759594912
1353.44954473040821
1346.85868087189783
1340.16297947842213
1334.43545259925986
1331.21776936609581
1332.41846615066333
1340.09544681142552
1356.05551588283333
1381.37048197664103
1414.87627480056108
1453.8669967965925
1489.40528909944896
1522.3033590810328
1237.38053800500802
1235.63017639158488
1231.69293075959422
1226.03327774413174
1219.34628879695128
1212.41966506280914
1206.30549710655396
1202.57841109376523
1203.26935966086648
1210.66159966677719
1226.86852801744453
1253.31514328324624
1289.02469617092993
1331.07225133563406
1369.7597941025183
1404.74603935983669
1109.84613283907561
1107.71379938403834
1103.4541987625239
1097.69495962880274
1090.89820356674409
1083.67557692540549
1077.03593139111649
1072.61161178370912
1072.58466439196627
1079.49775286168506
1095.84558017602603
1123.53675010056986
1161.90702233741081
1207.8577262550034
1250.59388811078679
1288.10044304555959
981.439135459413251
978.911237657765355
974.313587758293124
968.459221565677922
961.552271463751481
953.964252046424349
946.632093735016724
941.273715628870491
940.252874230545103
946.403594851326147
962.677735809077831
991.637246158025391
1033.16417079210032
1084.03693632521868
1131.91405873480699
1172.4450735177877
852.19572687033633
849.226396495694189
844.288471902616038
838.382887922449981
831.391004727048312
823.364093214622699
815.132748906382858
808.542696835144397
806.165949209910423
811.156232393932441
826.983228212565564
857.096897273648437
902.293297008749278
959.354658672121786
1013.71346655851289
1057.75412594407362
722.190979237762804
718.696597517404143
713.435733324402918
707.59780495991231
700.576548722362077
692.006307411517355
682.596088821122521
674.399320688617991
670.203222854010619
673.497777818545728
688.274923606180209
719.181536706980296
768.614046326392327
833.516592032807466
895.960172258300418
943.828538891664493
591.740918944471332
587.615574477658129
582.064629427087311
576.485377774281233
569.50358166243177
560.196586688558455
549.233065481972517
538.977665859705667
532.417072249680359
533.373954389564688
546.146821000734462
576.999085693794541
631.187313818100165
706.184951103822641
778.713363280177418
830.782105816597777
461.569258979170854
456.783802291907705
451.017640078149952
445.878174565930294
438.982741980354149