/*--------------------------------*- C++ -*----------------------------------*\
| =========                 |                                                 |
| \\      /  F ield         | OpenFOAM: The Open Source CFD Toolbox           |
|  \\    /   O peration     | Version:  2206                                  |
|   \\  /    A nd           | Website:  www.openfoam.com                      |
|    \\/     M anipulation  |                                                 |
\*---------------------------------------------------------------------------*/
FoamFile
{
    version     2.0;
    format      ascii;
    arch        "LSB;label=32;scalar=64";
    class       volScalarField;
    location    "0.450000000000000178";
    object      rAU;
}
// * * * * * * * * * * * * * * * * * * * * * * * * * * * * * * * * * * * * * //

dimensions      [-1 3 1 0 0 0 0];

internalField   nonuniform List<scalar> 
29184
(
2.78219477989949244e-05
2.60631222731570172e-05
2.4459926703858308e-05
2.30385883601818623e-05
2.1853879581786745e-05
2.08287909429257426e-05
1.99079701357067139e-05
1.9044599988092591e-05
1.82619324044824266e-05
1.74892478384246162e-05
1.68155712549153713e-05
1.60371393708905396e-05
1.53894282373710583e-05
1.44225269307371673e-05
1.37640228299104702e-05
1.3014673335092538e-05
2.65540202580419008e-05
2.45351378562195578e-05
2.31503050479915667e-05
2.2043961225655504e-05
2.11167856368103132e-05
2.02466087850579983e-05
1.94204634604504816e-05
1.86434107852483845e-05
1.79240145220612775e-05
1.72421173464354034e-05
1.66004160224399474e-05
1.59247318805821723e-05
1.52513029464873458e-05
1.43871660664964507e-05
1.35667033972288687e-05
1.26280736846612254e-05
2.52943203896837694e-05
2.31906045485862335e-05
2.19879489192985098e-05
2.1051918650289142e-05
2.02391357237212469e-05
1.94760219339027679e-05
1.87473553143493153e-05
1.80607315318829309e-05
1.74267174384697699e-05
1.68359043497260568e-05
1.62800589727535841e-05
1.57044231437765189e-05
1.51001152471448092e-05
1.43408770207021787e-05
1.34459461126509692e-05
1.25429859116855887e-05
2.40748640445404215e-05
2.20220499836543448e-05
2.09539815778660878e-05
2.0150795329767714e-05
1.94398273214012142e-05
1.87662655887835261e-05
1.81210314481293737e-05
1.75133547782536635e-05
1.69564760426266014e-05
1.64480860201560682e-05
1.59766431470717704e-05
1.54985150663945608e-05
1.49814932809617261e-05
1.43262900524412646e-05
1.34295187531905279e-05
1.25400992515120453e-05
2.29218392328255129e-05
2.09833599583834217e-05
2.00234870016144584e-05
1.93234693269479422e-05
1.86973482874705302e-05
1.80991226546705734e-05
1.75254285018032497e-05
1.6986606594487327e-05
1.6498849795452672e-05
1.60650590332766593e-05
1.56757136970767367e-05
1.52969332008922367e-05
1.4885074609536108e-05
1.43444717217233829e-05
1.34998094974692892e-05
1.26626313370971726e-05
2.18494103402383883e-05
2.00491664070117467e-05
1.91815141139930444e-05
1.85621594111430988e-05
1.80066800126435898e-05
1.74729980483908277e-05
1.69607772100779529e-05
1.6481110323406281e-05
1.60531081938265484e-05
1.56844700167072539e-05
1.53724387105206716e-05
1.50964816817838427e-05
1.48078383783842286e-05
1.44043681012785365e-05
1.36554957592653444e-05
1.27414258477077171e-05
2.08637302746678992e-05
1.92050063237970496e-05
1.84159912099948937e-05
1.78599120778460864e-05
1.73638450382209941e-05
1.68860090541477046e-05
1.6425955640501922e-05
1.59946057992038373e-05
1.56142982227925233e-05
1.52991031321763799e-05
1.50587872931740967e-05
1.48919165838896389e-05
1.47478075082193182e-05
1.45138009961022247e-05
1.39066042550239133e-05
1.27525491699595912e-05
1.99644120016164583e-05
1.84400651356852769e-05
1.77183110844137445e-05
1.72131678555446724e-05
1.67680314694215877e-05
1.63373974016354025e-05
1.59185737140261383e-05
1.55215193565603884e-05
1.5174280907862637e-05
1.49012028429093615e-05
1.4729865542113604e-05
1.46821878273480448e-05
1.47075023912804256e-05
1.46805131575774169e-05
1.42618325482099662e-05
1.2695890291753564e-05
1.91471523315197854e-05
1.77490587590568232e-05
1.70868664158583447e-05
1.66245283743659941e-05
1.62224301904364569e-05
1.58274615551543693e-05
1.54351253241473412e-05
1.50550839603619519e-05
1.47277811872686249e-05
1.44908322975756368e-05
1.4389199627529846e-05
1.44722622685414246e-05
1.46939025006494458e-05
1.47267443543221128e-05
1.44016512719527355e-05
1.24873737976481765e-05
1.84109899019094712e-05
1.71375582124342252e-05
1.65311643301029901e-05
1.61058509221036657e-05
1.57366256917329693e-05
1.5361111848084594e-05
1.49771716566193039e-05
1.45977648875380485e-05
1.42856660973887106e-05
1.40849458596554841e-05
1.40480984271254588e-05
1.42658418895994754e-05
1.47171708406757548e-05
1.44963975843390134e-05
1.4119998294843319e-05
1.23341178940354722e-05
1.77707925833975821e-05
1.66253853243534599e-05
1.6076347740065804e-05
1.56830519966618848e-05
1.53330972648192122e-05
1.49580290455606918e-05
1.45670767254212735e-05
1.41820856275516435e-05
1.38925462451491976e-05
1.37275844162936408e-05
1.37319571379932552e-05
1.40665951196895432e-05
1.48064456548299272e-05
1.41132370380527165e-05
1.36235514679688919e-05
1.205162141741956e-05
1.72445765609472832e-05
1.62521815192410101e-05
1.57712585908080703e-05
1.54054666217371051e-05
1.5059761686869755e-05
1.46724719024032636e-05
1.42751393361581236e-05
1.39019050651474471e-05
1.36611728888522181e-05
1.35203485620351287e-05
1.35352250759965555e-05
1.39757408446243923e-05
1.50972783287140458e-05
1.37069488692602713e-05
1.29935334401952321e-05
1.14528053258282504e-05
1.68846684946979617e-05
1.60952765270055929e-05
1.5710082263104464e-05
1.53707408990764992e-05
1.50253628540439452e-05
1.46390077219010384e-05
1.42695843816768603e-05
1.39531598416025987e-05
1.38210836566608904e-05
1.382114386134983e-05
1.42755208985609875e-05
1.55983301833704136e-05
1.67369347466692452e-05
1.3790917242812923e-05
1.24238281942068429e-05
1.09902685139596325e-05
1.68185223899341264e-05
1.63117169625257868e-05
1.61071485603818987e-05
1.5808096114715191e-05
1.55002899922876064e-05
1.52001059376919719e-05
1.50828690374719374e-05
1.55585586784734709e-05
1.73190217022918103e-05
2.00677785137179348e-05
2.66370661486427726e-05
3.80508373689645901e-05
3.55300269358934642e-05
1.70460170807359235e-05
1.23304464693576788e-05
1.06255840039453693e-05
1.92025275249477764e-05
1.96529251984706628e-05
2.00630057135920217e-05
2.01843402999188848e-05
2.04920282677922034e-05
2.11469254029195266e-05
2.3245570594951044e-05
2.88632516516815197e-05
4.34871362290983811e-05
7.01431817484474916e-05
0.000132517221022843492
0.000356607362279241921
0.000411376753285126143
5.12731348989214217e-05
1.45646437679887732e-05
1.0535741703849978e-05
3.25819352819374267e-05
3.60292502200941123e-05
3.84678482867841895e-05
4.11397437133933941e-05
4.50399190588981522e-05
5.11115347743418467e-05
6.59378836161217348e-05
0.000101516784057663475
0.000190163256377106585
0.000468698256937907017
0.00108726284979037812
0.0037565115197636975
0.00200718174974195626
0.00036702756789938894
1.62240584598398768e-05
1.06471705875089029e-05
2.78599343197132267e-05
2.61299015333576375e-05
2.45515311159499252e-05
2.31602692063426954e-05
2.20100094197358393e-05
2.10241712482708169e-05
2.01464857202610225e-05
1.93440072789158189e-05
1.86268275584506481e-05
1.79624886484363523e-05
1.73860872896427e-05
1.68029662027638161e-05
1.63149112428697692e-05
1.57429891647490447e-05
1.51814103756817235e-05
1.59850988706438941e-05
2.6586321581849985e-05
2.45965282041371771e-05
2.32411299967982279e-05
2.21658209565759932e-05
2.12696144855394807e-05
2.04327900717238341e-05
1.96478342009943673e-05
1.89253027803646903e-05
1.82756825718644647e-05
1.76886955910922507e-05
1.7164760572052384e-05
1.66643184359328466e-05
1.62124269721299543e-05
1.57114356205633668e-05
1.52199931159982356e-05
1.52297482965452918e-05
2.53241447092106213e-05
2.32511834423543428e-05
2.20794859091241451e-05
2.11737495401499739e-05
2.03896158442615569e-05
1.96570589647563445e-05
1.89672834215661437e-05
1.83332586327748295e-05
1.77694634038679947e-05
1.72747115448753962e-05
1.68445643256588753e-05
1.64478465653543271e-05
1.60838885828430093e-05
1.56864131701003992e-05
1.51685547141128932e-05
1.49380992408145983e-05
2.4104655786457071e-05
2.20826150925153325e-05
2.10465317143687266e-05
2.02731910006986867e-05
1.95878437847241059e-05
1.89408614421548917e-05
1.83312315577677667e-05
1.77735680116111695e-05
1.72863953434600328e-05
1.68754787125770085e-05
1.65360753537760539e-05
1.62445176726648012e-05
1.59837162855736798e-05
1.57012822394776939e-05
1.52080448589106661e-05
1.47114749521587656e-05
2.29515429342964468e-05
2.10411907137987579e-05
2.01154822722905772e-05
1.94463077311734595e-05
1.88423298733859754e-05
1.82653037956418127e-05
1.77224012739292093e-05
1.72296805998734536e-05
1.6809959513776509e-05
1.64752472362767706e-05
1.62246320279158966e-05
1.60434775921168912e-05
1.59044635892819145e-05
1.57554933617400731e-05
1.53337163984858054e-05
1.46601293226340803e-05
2.18758064262560166e-05
2.0098204386004777e-05
1.92696381493632894e-05
1.86841304356151043e-05
1.81461251573685985e-05
1.76260186840544667e-05
1.71377874629365653e-05
1.66989122689525033e-05
1.63368712819923454e-05
1.60702603902648077e-05
1.5906045983611697e-05
1.58424007627023124e-05
1.58463720790638896e-05
1.58599132411072975e-05
1.5560080144285458e-05
1.45509835092015374e-05
2.08796203466379004e-05
1.92384885906040692e-05
1.84964318627185129e-05
1.79779103345643093e-05
1.74916222118778655e-05
1.70169816117993901e-05
1.65729057302813941e-05
1.61773176452478542e-05
1.58626037880302765e-05
1.56554232554170886e-05
1.55750715574109357e-05
1.56382714677495841e-05
1.58101107557377375e-05
1.5901587313228784e-05
1.57803805536527971e-05
1.43612921529268509e-05
1.99602945006495803e-05
1.84532186358200513e-05
1.77879551533058586e-05
1.73220556768981991e-05
1.68743348659846268e-05
1.64351807954499453e-05
1.60263067775715724e-05
1.56638308914240969e-05
1.53856831288081386e-05
1.52294198911345161e-05
1.52307459320432214e-05
1.54311958312797627e-05
1.57981946560360005e-05
1.57544452176693334e-05
1.57135545340890039e-05
1.4119145688861035e-05
1.9114923607473834e-05
1.77413901658433609e-05
1.7144381712955068e-05
1.67183418374030036e-05
1.62969240285922261e-05
1.58847022875835482e-05
1.5503344337068218e-05
1.51639434116032567e-05
1.49124458707026404e-05
1.4800254684372547e-05
1.48799121997480643e-05
1.52257947763038117e-05
1.58159730793520406e-05
1.54590871445897135e-05
1.53592370339476082e-05
1.37956151125968316e-05
1.83469899657176239e-05
1.71152033290503821e-05
1.65781931056899564e-05
1.61806803358786208e-05
1.57741426593031109e-05
1.53817234296615774e-05
1.50207837237362958e-05
1.4695219422262387e-05
1.44639290172623264e-05
1.43901537745171434e-05
1.45354952783093085e-05
1.50267339726894108e-05
1.58722214404255156e-05
1.50557428268754118e-05
1.48773889159727739e-05
1.34769422456085613e-05
1.76779097442588587e-05
1.66026631547003271e-05
1.61181962352910652e-05
1.57401827724655194e-05
1.53385520977584419e-05
1.49608312562233557e-05
1.46145468988384899e-05
1.42969574163672491e-05
1.40847651113987293e-05
1.4038179054067468e-05
1.42139847579345588e-05
1.48313891026471082e-05
1.58994813490586697e-05
1.45519869950439188e-05
1.42802585166935364e-05
1.30799299505295374e-05
1.71469175367273601e-05
1.62521587001601059e-05
1.58165257458176348e-05
1.54531345188562855e-05
1.50495859909984478e-05
1.46852985134633726e-05
1.43540208901968567e-05
1.40504796193567875e-05
1.3859054199755226e-05
1.38113996617164416e-05
1.39621801844021882e-05
1.46838040599808332e-05
1.57457177061960817e-05
1.39992824016501647e-05
1.35822710063770309e-05
1.24530386628375486e-05
1.68242896106174669e-05
1.61471695493174092e-05
1.57697039496717689e-05
1.54245914646604249e-05
1.50217363198992811e-05
1.46823516734760585e-05
1.43887598199633393e-05
1.41302986464284441e-05
1.39772380281437077e-05
1.39260745501885832e-05
1.42140871877491687e-05
1.53150063892372922e-05
1.59903433366746098e-05
1.36310346937511598e-05
1.28663290798963625e-05
1.16501629257666435e-05
1.68372642381728648e-05
1.64660897926969438e-05
1.61974015638699257e-05
1.58884488473583738e-05
1.550577644808641e-05
1.52731977321144218e-05
1.52128470437669933e-05
1.53890604123357729e-05
1.63317524100588112e-05
1.82652420705195696e-05
2.22296293841123018e-05
2.7846130505628989e-05
2.3821443318199141e-05
1.47551206851010002e-05
1.24437626984391588e-05
1.11403255394800469e-05
1.95892836687877036e-05
2.0128622415846149e-05
2.02735281687767305e-05
2.02368564252664698e-05
2.01888779182360169e-05
2.08532056921389147e-05
2.2663822689592404e-05
2.64847110477211865e-05
3.50313003786297968e-05
5.54046202362211068e-05
9.54294417087269922e-05
0.00024559181700781012
0.000152118216929487363
2.4323547340493486e-05
1.28488022087166823e-05
1.07779715506699526e-05
3.40305730319102165e-05
3.75280976920034165e-05
3.91785593663470681e-05
4.05682365433534557e-05
4.24107765083350579e-05
4.73432529717259345e-05
5.84809951079907962e-05
8.16709577712804668e-05
0.000139442757120552326
0.000315069944453379614
0.000980771599741943898
0.00327072014651925026
0.00140856736129036839
0.000134656416459741428
1.50041449318504385e-05
1.06996585943711594e-05
2.79304900535687241e-05
2.62238752094214657e-05
2.46668427673867719e-05
2.33042330268539631e-05
2.21894640002399608e-05
2.1245730786918732e-05
2.04171609464025926e-05
1.96796287179211114e-05
1.90385995739737958e-05
1.84821642319381756e-05
1.80234226176746849e-05
1.76247036193062275e-05
1.73325810161351869e-05
1.7058134785281384e-05
1.69398278052194611e-05
1.89760320510426087e-05
2.66600989507451321e-05
2.4693968230791501e-05
2.33586883876822308e-05
2.23080915455179827e-05
2.14422861291107738e-05
2.06422132169369853e-05
1.99037417090212268e-05
1.92421596909869385e-05
1.86710722243243144e-05
1.81876060823146702e-05
1.77947503244685279e-05
1.74751817290198647e-05
1.72538056442274669e-05
1.70813191313005903e-05
1.70355297185621379e-05
1.76612074074354231e-05
2.54060815774202208e-05
2.33596913394003334e-05
2.22023966270366358e-05
2.13149214661877359e-05
2.05567077552236374e-05
1.98576672109839515e-05
1.92118720165858113e-05
1.86375463361241829e-05
1.81539783836204349e-05
1.77661745894144578e-05
1.74742490267093004e-05
1.72637900889997151e-05
1.71486214376551793e-05
1.70885933370308812e-05
1.70824041809581997e-05
1.69194167679595889e-05
2.42057535314920894e-05
2.22087903723128975e-05
2.11777701485927711e-05
2.04145183502878309e-05
1.97494608003461227e-05
1.91314106567997711e-05
1.85620285179168889e-05
1.80622916471030176e-05
1.76569736676931956e-05
1.7356895735430796e-05
1.71623186485879771e-05
1.70648132855134734e-05
1.70684754838140277e-05
1.71400672996634941e-05
1.71976643045564742e-05
1.64331319849163738e-05
2.30816472013994385e-05
2.11905472538304599e-05
2.02568502590053643e-05
1.95880313403213424e-05
1.8997870049230315e-05
1.84436407152394387e-05
1.79353601658003721e-05
1.74979928924886407e-05
1.71622574305388196e-05
1.69436293448595347e-05
1.68451031493775643e-05
1.68672380102973904e-05
1.7007457615981443e-05
1.71727906644432847e-05
1.73671316930823746e-05
1.63720366336563289e-05
2.20407432102975368e-05
2.02700002099709608e-05
1.94182023199215137e-05
1.88236413692413257e-05
1.82929075345150776e-05
1.77873159505211044e-05
1.73254907062701268e-05
1.69391914990465582e-05
1.66658131193537061e-05
1.65239358148086513e-05
1.65210024008569383e-05
1.66703293717080368e-05
1.69681738770923143e-05
1.70906473774675449e-05
1.7368266469543212e-05
1.60706129627786724e-05
2.10769065171114403e-05
1.94223798329562065e-05
1.86430460288723649e-05
1.81087892352973519e-05
1.76235289104681542e-05
1.71522913792385383e-05
1.67243680160881079e-05
1.63812583487315555e-05
1.61660343616852949e-05
1.60973841487779209e-05
1.61886225437426866e-05
1.64730890575874863e-05
1.69536087706213241e-05
1.6888630278654905e-05
1.71295780175868495e-05
1.56907996705479571e-05
2.01749624362319308e-05
1.86299930382222774e-05
1.79188966999769124e-05
1.74347769464697454e-05
1.69822922428136561e-05
1.65334417748691101e-05
1.61317483290921762e-05
1.58289026127839687e-05
1.56691024942476051e-05
1.5667646887710144e-05
1.58471566589099003e-05
1.62732542538714238e-05
1.6964820772153092e-05
1.65950617117902761e-05
1.67776378328933836e-05
1.52735735359221351e-05
1.93197441884663294e-05
1.78880053784901935e-05
1.72457978886782727e-05
1.68035526232424565e-05
1.63732367191139938e-05
1.59395489917828143e-05
1.55624223309865526e-05
1.5298699621307971e-05
1.51872287529842118e-05
1.52393592002614583e-05
1.54932234685579306e-05
1.60636463401181778e-05
1.70002312052495494e-05
1.62043970285037686e-05
1.63142914000356151e-05
1.4790458639769391e-05
1.85086905820162404e-05
1.72126354143931708e-05
1.66421992595180729e-05
1.62345623568111397e-05
1.58190032432777121e-05
1.53987195508942953e-05
1.50467332699780873e-05
1.48153829852494436e-05
1.47360571631127113e-05
1.48192300984972795e-05
1.51216428014218909e-05
1.58338550474372615e-05
1.68517674450510428e-05
1.57159261022287325e-05
1.57429514012393182e-05
1.43108799581791348e-05
1.7766067842015804e-05
1.66438256210446178e-05
1.61479048575641478e-05
1.57681671808692346e-05
1.53632173063546277e-05
1.49580806273451898e-05
1.46274950914092865e-05
1.44125611916405316e-05
1.43449284517711842e-05
1.443169767910001e-05
1.47401380793440041e-05
1.55806943708332012e-05
1.64486541126636708e-05
1.51255352616560958e-05
1.50672934903589434e-05
1.38153295916944662e-05
1.71523957386062874e-05
1.62481355965087774e-05
1.5825730718123642e-05
1.54669773639237145e-05
1.50723377585795099e-05
1.46858921762994599e-05
1.43676998928168944e-05
1.41541634962876758e-05
1.40874597909624016e-05
1.41511110542596914e-05
1.44083774847381647e-05
1.53458679345386755e-05
1.60064186390807334e-05
1.44607620337115961e-05
1.42969170033049126e-05
1.31950196735177298e-05
1.67728505662569004e-05
1.61245172564634171e-05
1.5773889661547492e-05
1.5433300435895369e-05
1.50588072921101739e-05
1.47032708485452127e-05
1.43984911214280563e-05
1.4199171258477813e-05
1.41624950859890704e-05
1.41944172466670131e-05
1.44190290325820791e-05
1.55383413711654012e-05
1.59007758151001408e-05
1.38935678959290185e-05
1.34765481384945694e-05
1.22807536744677931e-05
1.67817536091978328e-05
1.64536851681408617e-05
1.6190861814333194e-05
1.58981561338652252e-05
1.56086649236449835e-05
1.53782901720218654e-05
1.52831005923825199e-05
1.5574974585052973e-05
1.65784796962145939e-05
1.77891993200428776e-05
1.98382887266292737e-05
2.27251163191892017e-05
1.99409556377734216e-05
1.42764050841671785e-05
1.28772947686887809e-05
1.15882364935170132e-05
1.96101556768153925e-05
2.01978134444912766e-05
2.0178063750013622e-05
2.02442979149750189e-05
2.05370689595047664e-05
2.12428963793607463e-05
2.30454116788019257e-05
2.74952587865450667e-05
3.57595178032424707e-05
4.83380986999895168e-05
7.17439809269940719e-05
0.000134677776008824539
7.769039162200148e-05
1.90789530412395469e-05
1.28732669421612876e-05
1.10855618568584085e-05
3.44379538407817384e-05
3.7882071877714583e-05
3.86920278293129998e-05
4.03034484104417297e-05
4.29539222709279561e-05
4.80848916772227023e-05
5.96077063185427639e-05
8.6390430306993845e-05
0.000136588057571848236
0.000236384131212724678
0.000549703592306401644
0.00211686429882275862
0.00091520585582460681
5.01647152959091428e-05
1.45469870662434255e-05
1.08200077877437518e-05
2.80213070666356225e-05
2.63274872112829795e-05
2.47914448114086574e-05
2.34598883210083119e-05
2.23829745727029005e-05
2.14839546064965361e-05
2.07086319216448863e-05
2.00386143569043253e-05
1.94779866495498013e-05
1.90273594105197708e-05
1.86917829013425588e-05
1.84646616884010637e-05
1.83661448464446428e-05
1.83494160153041316e-05
1.86116621549681669e-05
2.12366668901007032e-05
2.67330393325173352e-05
2.47744420789133021e-05
2.34656544932005855e-05
2.24492592152295573e-05
2.16217090854790393e-05
2.08653549308133006e-05
2.01798953828670772e-05
1.95844335455456596e-05
1.90946414784447313e-05
1.8715454491651636e-05
1.84543615680767448e-05
1.83072679514652518e-05
1.83026944808349123e-05
1.83947538244659095e-05
1.86846238808214949e-05
1.95191217890292914e-05
2.5456731912792209e-05
2.34221025639472546e-05
2.2294584166139239e-05
2.14421074969043315e-05
2.07224023714117218e-05
2.00678442520765527e-05
1.9476242185371717e-05
1.8968956758077944e-05
1.85683823164312319e-05
1.82865993208598134e-05
1.81311286824492345e-05
1.81002442776899468e-05
1.8221111617547301e-05
1.84418888917580056e-05
1.88108481842503311e-05
1.84565981356217994e-05
2.42331895373819542e-05
2.22541255918800091e-05
2.12560401792615778e-05
2.05279560414468403e-05
1.99008799988470118e-05
1.93278102075874827e-05
1.88142482432600882e-05
1.8383134436262195e-05
1.80622415711079295e-05
1.78693631625291842e-05
1.78146771021092978e-05
1.79042426603972252e-05
1.81610114683491325e-05
1.84297047631632973e-05
1.88719299063907977e-05
1.78993109529063267e-05
2.30861316180259252e-05
2.12224751522610777e-05
2.03234922855080412e-05
1.96875969977692264e-05
1.91335325096972919e-05
1.86252663744484984e-05
1.81760660048781583e-05
1.78103577305665816e-05
1.75603455833791007e-05
1.74486355587251683e-05
1.7491170156479851e-05
1.77066268124140554e-05
1.81156215028767766e-05
1.83026098847700179e-05
1.87715093921955934e-05
1.76162038743540634e-05
2.20249137383395199e-05
2.02943054636294436e-05
1.94753271217426431e-05
1.89080227862779872e-05
1.84111593170460266e-05
1.79552029225252153e-05
1.75593072714456151e-05
1.72496831016004521e-05
1.70622698600629528e-05
1.70237794312311722e-05
1.71592544043323134e-05
1.75053414027882785e-05
1.80872476038726585e-05
1.81015777225200019e-05
1.85370063258058821e-05
1.71323842419338754e-05
2.1047788258251722e-05
1.94445290543429396e-05
1.86908208770731151e-05
1.81763881230062955e-05
1.77257363630499633e-05
1.73132916120368235e-05
1.69624629361608931e-05
1.67013504253257146e-05
1.65685276357937819e-05
1.65942586607573712e-05
1.68163889012490166e-05
1.72981390483673292e-05
1.80795809423714699e-05
1.78160992416386634e-05
1.82000053485623339e-05
1.66156065955158855e-05
2.01435359383345306e-05
1.86526965566346648e-05
1.79556144751804449e-05
1.74870787348991449e-05
1.70767617887886093e-05
1.67017060211588486e-05
1.63895427368978926e-05
1.61697768803124041e-05
1.60818892906215062e-05
1.61600863366379777e-05
1.64600269643585397e-05
1.70840888607207406e-05
1.80170099198298032e-05
1.74356535931340433e-05
1.7754803148289824e-05
1.60817132995909027e-05
1.92973905020152844e-05
1.79090305703243862e-05
1.72699355622012064e-05
1.68484784059182422e-05
1.64753908718884286e-05
1.61317464008513721e-05
1.58509676588373553e-05
1.56620879879516484e-05
1.56047545752434264e-05
1.57197425209586792e-05
1.60860115424686934e-05
1.68606350953031276e-05
1.77715825462107869e-05
1.69548539697402156e-05
1.72042908850730715e-05
1.55116635273149214e-05
1.85028772306944977e-05
1.72247631113164197e-05
1.66553705492425543e-05
1.62863143782226592e-05
1.59453528771902681e-05
1.56238004099226259e-05
1.53620674131914397e-05
1.51862418138502867e-05
1.51402975976411127e-05
1.52736357710172473e-05
1.56872573317852623e-05
1.66195605495780661e-05
1.73719660387809319e-05
1.63788099840174103e-05
1.65520092039747779e-05
1.49253209218348611e-05
1.77771101750043357e-05
1.66375659565058493e-05
1.61568072631453913e-05
1.58424666954107935e-05
1.55220929599106006e-05
1.52076728679494469e-05
1.49451177734516374e-05
1.47589580560731158e-05
1.47082161094743934e-05
1.48393711276607938e-05
1.52605784200200613e-05
1.63477075882725729e-05
1.68915936960953117e-05
1.57153262475834949e-05
1.58112068991028222e-05
1.43606194466016888e-05
1.7174833561191119e-05
1.62181328464336213e-05
1.58425676904137325e-05
1.55732004876417689e-05
1.52556205259216505e-05
1.49309574640991153e-05
1.46454629786418536e-05
1.44351903577985885e-05
1.43793410248117806e-05
1.4480723954211729e-05
1.48402735857973988e-05
1.60540830245031007e-05
1.63620503414001669e-05
1.49749019847513063e-05
1.50025784971540257e-05
1.37173950563472352e-05
1.67999343385325513e-05
1.6072717972642332e-05
1.58100662056056435e-05
1.55655628034974916e-05
1.52387488859614329e-05
1.48981525405050656e-05
1.45880177218406795e-05
1.43766073532349276e-05
1.4348053301035183e-05
1.4385036182934936e-05
1.46415442126055466e-05
1.60276544692385564e-05
1.60435331611926739e-05
1.42771702055977483e-05
1.41451210077059113e-05
1.29684792756169321e-05
1.68175847155795148e-05
1.63864345340221123e-05
1.62832064578583809e-05
1.60705574767736573e-05
1.57573638706517441e-05
1.54529393558256348e-05
1.52906286693959069e-05
1.55435581228719612e-05
1.63358384807263606e-05
1.71178033886050778e-05
1.86058554184025065e-05
2.10064814744711306e-05
1.84053180004186112e-05
1.42399511311367974e-05
1.3456564065911092e-05
1.20600865459596957e-05
1.94620715516432362e-05
2.00813380764039076e-05
2.04737822163009197e-05
2.05877052068123299e-05
2.06539360117499808e-05
2.09944204962262983e-05
2.25102255669234394e-05
2.66495713838920424e-05
3.32815567699355438e-05
4.08263067418203443e-05
5.68016634127676127e-05
9.14175906636874579e-05
5.04548418790175371e-05
1.71018903457451465e-05
1.33389991597165692e-05
1.14605390775189576e-05
3.36380295020573375e-05
3.73422467052244146e-05
3.93888031422978552e-05
4.10597424470071206e-05
4.30819737314908749e-05
4.69393674236943468e-05
5.74923374535418397e-05
8.17156120192707384e-05
0.000119667205670759684
0.000181734271209333412
0.000363464965610902897
0.00146724466172578607
0.000676228199424535117
3.20535341076321517e-05
1.43495848778134522e-05
1.1084769951588583e-05
2.81440524094154105e-05
2.64564183419449025e-05
2.49361940852450778e-05
2.36303669118623726e-05
2.25876235048065576e-05
2.17313779707912985e-05
2.10088417020803786e-05
2.04046820961573812e-05
1.9924989106662854e-05
1.95765150125664917e-05
1.93661376566382997e-05
1.93005628903220319e-05
1.93993614823828131e-05
1.96393183138135294e-05
2.02190187925304699e-05
2.32971071139454912e-05
2.68572425715408912e-05
2.48974765087578285e-05
2.35996773914221725e-05
2.26059138991920355e-05
2.181127542164073e-05
2.10973909413785347e-05
2.04646900456245387e-05
1.99339388557337913e-05
1.9523536255623331e-05
1.92450508467915595e-05
1.91096600348287835e-05
1.91230091615347372e-05
1.93190401940902733e-05
1.96541370348940779e-05
2.02190069145322952e-05
2.12211537806644675e-05
2.55871288632898449e-05
2.35475756410158384e-05
2.24217414614389396e-05
2.15872020844226602e-05
2.09003708188214056e-05
2.02901636811928372e-05
1.97529161939168522e-05
1.93110992928894168e-05
1.8991166919308167e-05
1.88120060034263688e-05
1.87878711612664173e-05
1.89269753961570064e-05
1.92671051068601766e-05
1.96513679901756667e-05
2.03338754829262636e-05
2.00602218826841225e-05
2.43793721628968456e-05
2.23862634677309649e-05
2.13757042345400623e-05
2.06600183733349194e-05
2.00666698127403515e-05
1.95408572678231954e-05
1.90838055510005892e-05
1.87187533903605099e-05
1.84783569411866449e-05
1.83882364690950757e-05
1.84683925051275414e-05
1.8736837870708678e-05
1.92299053167833637e-05
1.95357105522658381e-05
2.02404434361656922e-05
1.9261152229444908e-05
2.32606976689162782e-05
2.13631514939613527e-05
2.04331612091188443e-05
1.98045177884590872e-05
1.92871837838454015e-05
1.88310466378831711e-05
1.84414949949167173e-05
1.81421548991503065e-05
1.7970576056530611e-05
1.79591387382178902e-05
1.81378008168419294e-05
1.85398036613194928e-05
1.92026884976701005e-05
1.93480495508289569e-05
2.00135128503751633e-05
1.86630468467238208e-05
2.22403140763369532e-05
2.04404868151484319e-05
1.9569866097060981e-05
1.90076311263113477e-05
1.85546565230112168e-05
1.81590519663626469e-05
1.78275582711079519e-05
1.7583959124776194e-05
1.74697141055103488e-05
1.75249875861687141e-05
1.77948492782105924e-05
1.83334206772495444e-05
1.91885500250834148e-05
1.90811061901470271e-05
1.96946425128547201e-05
1.80402008573556265e-05
2.13103740627593619e-05
1.95877067312370096e-05
1.8764546310776892e-05
1.82590171803778098e-05
1.7865812911179505e-05
1.7526685285376115e-05
1.72466284745935413e-05
1.70489384803531426e-05
1.69781798079565006e-05
1.70850845706694913e-05
1.74358106310208033e-05
1.81141978743018163e-05
1.90690412102686569e-05
1.87283721909656263e-05
1.92729659049336979e-05
1.74256012308357946e-05
2.04475234088118596e-05
1.87827475956447536e-05
1.8006020019216289e-05
1.75582728019799875e-05
1.7226650207567574e-05
1.69423170546737561e-05
1.67065000288973422e-05
1.65415558527415067e-05
1.64955383755535435e-05
1.66355717464859972e-05
1.70552253907546426e-05
1.78794831195697397e-05
1.87896048337130541e-05
1.828159754871683e-05
1.8745250653044755e-05
1.68046635694423618e-05
1.96231711852602572e-05
1.80179496471070557e-05
1.72992175852247619e-05
1.69187463410034946e-05
1.66517232604692701e-05
1.64162048702399066e-05
1.62108732523422285e-05
1.60576536329238673e-05
1.60125694795195935e-05
1.61676252808013688e-05
1.66468486115171668e-05
1.76265633295930258e-05
1.84107789635380125e-05
1.77338069820772389e-05
1.81195628848614805e-05
1.61642124108201541e-05
1.88204745924354391e-05
1.73065726863160228e-05
1.66674822144498873e-05
1.63663817836499811e-05
1.61584239572173348e-05
1.59530908001790902e-05
1.57534813931931538e-05
1.55829502601682429e-05
1.55176099612482962e-05
1.56773411577433272e-05
1.62073876848412602e-05
1.73543900680866059e-05
1.79306319510226559e-05
1.70850295831631218e-05
1.73990264549027188e-05
1.55256187684799267e-05
1.80516909818702634e-05
1.66863301977470364e-05
1.61526076265825847e-05
1.59359760889186276e-05
1.57638452005169944e-05
1.55539542068164379e-05
1.53265477059640297e-05
1.51141567294241654e-05
1.50251003730335788e-05
1.51878066289492211e-05
1.57420236305237931e-05
1.70622162354544658e-05
1.7361270145570307e-05
1.63501349917466468e-05
1.65960372947081017e-05
1.48750217394950942e-05
1.73739867306403729e-05
1.62241161134320805e-05
1.58185845005564995e-05
1.56710526233582225e-05
1.54909166480121766e-05
1.52354305741782428e-05
1.49541929749589591e-05
1.47031292233609865e-05
1.46174481336810298e-05
1.47696264566965138e-05
1.52816147556775109e-05
1.67657283716910857e-05
1.67426274566331055e-05
1.55450699624315977e-05
1.57432664851972392e-05
1.42005291534217326e-05
1.69065861751232691e-05