/*--------------------------------*- C++ -*----------------------------------*\
| =========                 |                                                 |
| \\      /  F ield         | OpenFOAM: The Open Source CFD Toolbox           |
|  \\    /   O peration     | Version:  2206                                  |
|   \\  /    A nd           | Website:  www.openfoam.com                      |
|    \\/     M anipulation  |                                                 |
\*---------------------------------------------------------------------------*/
FoamFile
{
    version     2.0;
    format      ascii;
    arch        "LSB;label=32;scalar=64";
    class       volVectorField;
    location    "0.450000000000000178";
    object      faceForces;
}
// * * * * * * * * * * * * * * * * * * * * * * * * * * * * * * * * * * * * * //

dimensions      [1 1 -2 0 0 0 0];

internalField   uniform (0 0 0);

boundaryField
{
    inlet
    {
        type            calculated;
        value           uniform (0 0 0);
    }
    outlet
    {
        type            calculated;
        value           uniform (0 0 0);
    }
    top
    {
        type            calculated;
        value           uniform (0 0 0);
    }
    bottom
    {
        type            calculated;
        value           uniform (0 0 0);
    }
    left
    {
        type            calculated;
        value           uniform (0 0 0);
    }
    symmetry
    {
        type            symmetryPlane;
    }
    interface
    {
        type            calculated;
        value           nonuniform List<vector> 
352
(
(0.530476600152409605 -6.61366543247072486e-06 -1.86788105841238905e-05)
(0.496020585653115353 3.24942359903096818e-07 -1.97423911375617264e-05)
(0.461478004249256779 1.08060980565434965e-06 -1.95045311066699329e-05)
(0.428057555586046412 1.23246828164466352e-06 -1.91408543768717134e-05)
(0.395973024440076871 1.42956069024526258e-06 -1.85024072965982935e-05)
(0.364939205486189744 1.69533217136964117e-06 -1.79976251893474564e-05)
(0.334739873656333509 2.04520125362798569e-06 -1.74710610807580011e-05)
(0.305207725167395527 2.46257314474226421e-06 -1.69718143569057119e-05)
(0.275757054638285037 3.0871107559925225e-06 -1.66428142513372752e-05)
(0.245816182449402537 3.88128128173622725e-06 -1.59737662547346012e-05)
(0.215053539793125109 4.92363163752978613e-06 -1.54553044060562161e-05)
(0.182701499148243629 6.42163233598649665e-06 -1.53764670664043005e-05)
(0.148280211216241326 8.08089485180398679e-06 -1.47657268500173571e-05)
(0.11245689192748122 1.00864550512303578e-05 -1.4472496513745474e-05)
(0.0770283122632139799 1.19057529723863771e-05 -1.44445827067726358e-05)
(0.0473357948679257387 1.24202631578073465e-05 -1.41539935292955231e-05)
(0.600170341432850862 -4.21266263573579678e-06 -1.20610977940276673e-05)
(0.564158777739087403 7.4452036399518419e-07 -1.3340262370078999e-05)
(0.527709737993075745 1.41711832853286879e-06 -1.30894920270611733e-05)
(0.491470957055778424 1.80859824083829083e-06 -1.28530671721387437e-05)
(0.455932924067307455 2.22509005081373502e-06 -1.25479287674690407e-05)
(0.421248321208251564 2.67877892812590201e-06 -1.22663467145368762e-05)
(0.387192369867469188 3.15801358267094159e-06 -1.20061054852428278e-05)
(0.35346004050294294 3.66563471244624303e-06 -1.17286628824629999e-05)
(0.319675381874963971 4.28120249023920053e-06 -1.14156293835027716e-05)
(0.285578621988929471 5.04490536860247904e-06 -1.10110141137849327e-05)
(0.251115791952162604 6.04645989874474742e-06 -1.06497611226334666e-05)
(0.216050149346377868 7.43398208345464389e-06 -1.05388752935852973e-05)
(0.179483355643068693 9.15734302718148432e-06 -1.05606556914962654e-05)
(0.141288240154249345 1.09373944950791024e-05 -1.03711836279152088e-05)
(0.10294960756964612 1.28799995799531566e-05 -1.03593054913520538e-05)
(0.0675533579391112693 1.37947962005291883e-05 -1.02900127502436842e-05)
(0.632642820486171709 -4.19480763563948945e-06 -9.62065279234942134e-06)
(0.596569505201995476 8.31340129887242948e-07 -1.06732331488267991e-05)
(0.559544250412145172 1.81934460445168933e-06 -1.07036226067893876e-05)
(0.522158889951054084 2.38550243957915362e-06 -1.05255851541961633e-05)
(0.485309964383423609 2.88388120301389275e-06 -1.01224901686963517e-05)
(0.449213587919123358 3.36535700187474382e-06 -9.92583723105054411e-06)
(0.413414846344428544 3.85591157033841088e-06 -9.77856873915861969e-06)
(0.377762222604420494 4.43345568006058249e-06 -9.60904311319104557e-06)
(0.342116673419631201 5.14164822987795597e-06 -9.43133762685417145e-06)
(0.30642818848761294 5.95466070816749834e-06 -9.18142966029611542e-06)
(0.270668812072481002 6.91818898870676553e-06 -8.93945963773333628e-06)
(0.234711989570575902 8.09265635761983035e-06 -8.76227543530061865e-06)
(0.197535478792945557 9.87182839457605901e-06 -9.00752434616121553e-06)
(0.158648861298374272 1.14668544850191948e-05 -8.87376904285873534e-06)
(0.118970641912691785 1.33395480471445659e-05 -8.84080762602050036e-06)
(0.0804837522976874081 1.45088522330909764e-05 -8.92229173805764016e-06)
(0.645506042825012671 -3.05013797850439429e-06 -5.77510639821860195e-06)
(0.609296260499349929 1.00553197445212299e-06 -6.9829791966812358e-06)
(0.572053553881188392 1.95601889138473636e-06 -7.01224972781160075e-06)
(0.53440301477115193 2.57772789998963771e-06 -6.82536952733207419e-06)
(0.497269447020229571 3.18444447139046992e-06 -6.64769085604255385e-06)
(0.46068581385632279 3.76771863952054273e-06 -6.5725855796616588e-06)
(0.424257834714729165 4.35343461581570162e-06 -6.49287357175972425e-06)
(0.387933385503423045 4.99127266889676514e-06 -6.40979783435861469e-06)
(0.351693250906093213 5.72451433294442638e-06 -6.32128055246818106e-06)
(0.315450575306448266 6.55230982692039087e-06 -6.21844330567356008e-06)
(0.279156650084271984 7.47423089433502609e-06 -6.08543310587912822e-06)
(0.242654702095026598 8.56837831710046743e-06 -5.99036136790615034e-06)
(0.205620560712362926 9.9330512061612421e-06 -5.9673671132803326e-06)
(0.167238124345778977 1.17996336198717161e-05 -6.15083279124676578e-06)
(0.127436895183082571 1.34958451678233716e-05 -6.11908164737942292e-06)
(0.0882403741239872891 1.46523602400040847e-05 -6.23570582101547117e-06)
(0.652340997589393234 -2.50403742271621642e-06 -4.64876550345844661e-06)
(0.616223201789318442 1.09981105661556798e-06 -5.23033030887817916e-06)
(0.579147435083830375 2.05354658394427742e-06 -5.3062457079157917e-06)
(0.54170313571910278 2.76264467076288834e-06 -5.29761688374707231e-06)
(0.504524142865698466 3.46684552107827755e-06 -5.26166932542626802e-06)
(0.467737472713507796 4.10005283897502741e-06 -5.22277921779109033e-06)
(0.431109970543104071 4.72840144122679641e-06 -5.1658104926819692e-06)
(0.394596712515993486 5.40219643249324709e-06 -5.10210130083850829e-06)
(0.358183746071333464 6.1526779504572676e-06 -5.03816288193179958e-06)
(0.321818430145751289 6.98618081870326499e-06 -4.95983498299516248e-06)
(0.285433106545958049 7.9064823544567106e-06 -4.87254085151653466e-06)
(0.248888450895496022 8.95830949267392353e-06 -4.80376459635575931e-06)
(0.211816025085618365 1.01772902445356871e-05 -4.75239679190233438e-06)
(0.173737449690802959 1.18186729015498217e-05 -4.81483111383441696e-06)
(0.134190140114710255 1.3746342925583641e-05 -4.90008492828480748e-06)
(0.0942333601134051624 1.47662404856769745e-05 -4.95049175449549715e-06)
(0.655323866422829693 -2.02172377749681851e-06 -2.46950435270989867e-06)
(0.619262389254842116 1.20317444931146538e-06 -3.30006453716396987e-06)
(0.582206817931429699 2.12684745604849041e-06 -3.35949813662554632e-06)
(0.544869989626892037 2.8855302289485597e-06 -3.32844215389718714e-06)
(0.507729002104797544 3.61981215708792414e-06 -3.3096898676358088e-06)
(0.470867911549612272 4.2693671011271347e-06 -3.29124161206225915e-06)
(0.434166325722120994 4.91781156021722854e-06 -3.26437165604654544e-06)
(0.397587046492080209 5.62176521158617498e-06 -3.23770385503583293e-06)
(0.361093756229788732 6.39935980800125613e-06 -3.21161171679827437e-06)
(0.324602683873206732 7.25702150190118895e-06 -3.15087956969398731e-06)
(0.288161960425540931 8.16676696284988968e-06 -3.07132874164639382e-06)
(0.251699994074750466 9.1938651459572627e-06 -3.0198026674836265e-06)
(0.214786944518647827 1.03722399570251141e-05 -2.99328887293900047e-06)
(0.177027928402392259 1.18269294974313498e-05 -3.00627634890752686e-06)
(0.137862725305566008 1.38167399875273336e-05 -3.09799206469247383e-06)
(0.098122880086954814 1.48378467797922443e-05 -3.1356676784971416e-06)
(0.657209656482080185 -1.89803833340905837e-06 -1.42887379587857551e-06)
(0.621058902978450345 1.30100313953790401e-06 -1.92542413551200496e-06)
(0.58402007150262758 2.20118971193832557e-06 -1.96092818027471596e-06)
(0.546863916365900482 2.96869366938255762e-06 -1.95834962347989972e-06)
(0.509911065001308561 3.72294077789609222e-06 -1.97379786852891273e-06)
(0.473124203688495115 4.38395131748435396e-06 -1.98415602516541075e-06)
(0.436485291536277409 5.03924064438670656e-06 -1.98770975373176082e-06)
(0.400027424083334304 5.72858900086629575e-06 -1.99828528884780501e-06)
(0.363639007897496425 6.58006492368774399e-06 -2.00221720617884722e-06)
(0.32680491961037117 7.66841627048272246e-06 -1.99696197559679816e-06)
(0.290082870586729658 8.29570096427434438e-06 -1.85092431263175151e-06)
(0.253888153429470687 9.34720657517920748e-06 -1.80881688397848366e-06)
(0.217262512552397702 1.05291531445860631e-05 -1.78633782116945575e-06)
(0.17981827010424678 1.18928042474777754e-05 -1.7779270598357517e-06)
(0.141004061003782238 1.37641085653537952e-05 -1.80174637971081802e-06)
(0.101774619322103757 1.49094514539423844e-05 -1.79211828139740255e-06)
(0.65786833983102222 -1.6132230908340136e-06 -4.61377850689045847e-07)
(0.621676551840981362 1.36128432280568618e-06 -6.07904409787765989e-07)
(0.584624239371932419 2.27539896422939633e-06 -6.21327219995284719e-07)
(0.54753510882756673 3.04828393825424548e-06 -6.2475095981008094e-07)
(0.510706103696186298 3.77359529622459973e-06 -6.36812944771378646e-07)
(0.474014472929251918 4.42807013326754042e-06 -6.46810840029364868e-07)
(0.43745462661858131 5.05077062986249645e-06 -6.56409638920720469e-07)
(0.401209726687713264 5.71549072386419984e-06 -6.70662507114412168e-07)
(0.364480648183780787 6.88565160104692994e-06 -6.98192250257932745e-07)
(0.32721075092672508 7.57502837913105975e-06 -6.37732931659646467e-07)
(0.290733768870928333 8.32965058015455549e-06 -5.94349476697468929e-07)
(0.25458084491614219 9.38658162797147776e-06 -5.78355443999253647e-07)
(0.217958359547015118 1.05837261917845166e-05 -5.68158903975359092e-07)
(0.180371072166491037 1.20316458107708297e-05 -5.61266259410642874e-07)
(0.141329926672394274 1.39484279962675087e-05 -5.51037672697237568e-07)
(0.101497836381332265 1.49705130951164508e-05 -5.18258269046300201e-07)
(2.7838078469794007e-05 1.36886892895909828e-05 0.0266568015050576493)
(2.69751993521190529e-05 -1.02843321274912733e-06 -0.00562705899632856554)
(2.59862844419758577e-05 -2.85580750522190299e-06 -0.025490580480150217)
(2.35915731901528309e-05 -4.1708285357364365e-06 -0.0360947094942392632)
(1.96378512650855099e-05 -5.04882320347783187e-06 -0.0404231040672985362)
(1.80213488192934799e-05 -5.39943289697592196e-06 -0.0393967071029011559)
(1.60645608087978284e-05 -5.58365695147000399e-06 -0.0337208956825705355)
(1.51888498914432117e-05 -5.57143442048874188e-06 -0.0221547643554399175)
(1.08875188025153431e-05 -3.79912114580355699e-06 -0.00123959250594679799)
(1.07757266771744898e-05 -2.16015812043858836e-06 -0.000729287659041407397)
(1.01930396690254147e-05 -1.27825193857101354e-06 -0.000298318988433981418)
(8.91148541354424965e-06 -4.33688268086815773e-07 -0.000326162484544476278)
(7.29535250509627677e-06 3.78293280645471685e-07 8.88992898861076827e-06)
(4.65528337772068388e-06 8.41744458514322261e-07 0.0001220831770087067)
(2.38438058138906061e-06 8.33088855285391161e-07 4.50418179076742851e-05)
(7.10545346335873735e-07 6.48977218621583268e-07 -0.00251530848781337819)
(2.07725418862852776e-05 9.3613958762138552e-06 0.080520587564196125)
(1.89939844084185257e-05 -5.18807965422408132e-06 0.0502333750241314297)
(1.48821360600750422e-05 -9.22206225479189857e-06 0.0226078925330117815)
(8.25627461020078668e-06 -1.03102486830404395e-05 -0.00288424353961399529)
(1.89827441869504713e-06 -4.49082291805319428e-06 -0.0156446527097813919)
(5.45302348218046967e-07 -2.16481506742245951e-06 -0.0106179079588756952)
(9.09079048592542877e-08 -1.42339608200463261e-06 -0.00318162542557338468)
(-1.91124434128270194e-07 -1.14940040686896342e-06 0.00104844761250299156)
(-1.5762360865090854e-08 -2.22399245647385793e-08 -3.09550536838377013e-06)
(-1.8271522755428931e-08 -2.01286977784770226e-08 -2.75861713994676778e-05)
(-1.944138375661867e-08 -1.74769450924442169e-08 -3.34920977535503416e-05)
(-1.97174866821881496e-08 -1.92281132360381499e-08 -4.44009377344324512e-05)
(-2.28920681807545207e-08 -2.07104631183065279e-08 -2.01576578535495216e-05)
(-2.5703847190668371e-08 -1.81157835142994485e-08 4.41744079649135273e-05)
(-3.90817104710394282e-08 -5.65408229626803683e-09 0.000117966375569058412)
(-4.3395971611085429e-08 -2.02595353700970518e-08 5.80536205887356209e-05)
(1.7024716097400407e-05 3.64336711487067285e-06 0.125024059216048006)
(1.24364608785719218e-05 -6.99711453897627017e-06 0.080420136306464815)
(4.08083981876800497e-06 -6.99970350838949762e-06 0.0339340605569655521)
(5.92674714966594533e-07 -2.71268184813269628e-06 0.00828865835967087031)
(1.16324408333379596e-07 -4.95144700872508814e-07 0.000964821889085455903)
(-3.38028737299968408e-08 -2.24627543185970161e-07 -0.000639069012567957122)
(-7.06184813898314311e-08 -1.08248335960183475e-07 -0.000752495284300131449)
(-1.78692421147574006e-08 -3.5085897801547441e-08 -0.000397944423105623627)
(-8.64350446531232202e-09 -1.67127821991257319e-08 -0.000211549033063633622)
(-1.81877466473729273e-08 -1.54332829888482331e-08 -0.000153535735712043641)
(-1.60684509604268227e-08 -8.65524572378310787e-09 -0.000168003149236476865)
(-1.56037459304988129e-08 -6.88089759838967058e-09 -0.000200291209192164388)
(-1.55620072676969308e-08 -4.89821319774696884e-09 -0.00023858900578423186)
(-1.83782937683039363e-08 -1.36754118033590471e-09 -0.000232297363992033145)
(-2.60218742505403211e-08 -1.57417743102803574e-09 -0.000273922838387203693)
(-2.384689224242126e-08 -6.45483680849653024e-09 -0.00032643630620881513)
(1.76491232682026961e-05 -8.67110830090389672e-07 0.087583915908161239)
(1.16175901618735236e-05 -7.63138857301095325e-06 0.0476191793579877898)
(8.51587384958403808e-06 -4.79591958436656875e-06 0.0183558819179216078)
(1.68526692959459127e-06 -7.00873344236539677e-07 0.00662002573854285868)
(1.0682377382888e-06 -6.2529239620698459e-07 0.00259320105510451064)
(7.91936836774423159e-08 -8.77227859549687659e-08 0.000568173689579920017)
(-3.0609057898047345e-09 -1.08380095123425163e-08 0.000112236491612895318)
(-2.54285943392297415e-09 -6.59150116627951022e-09 -2.33403917341607923e-05)
(-2.51490878389328551e-09 -5.85836146423290189e-09 -0.000152233455752358749)
(-1.74294892319324346e-08 -1.85283601761015283e-09 -0.000168226918835271783)
(-1.9476179868213151e-08 -4.31923642788772987e-09 -0.000165613012683344041)
(-1.90503705094099992e-08 -7.18646755309361077e-09 -0.000166397313078661072)
(-1.91366125919134031e-08 -7.12152214073421797e-09 -0.000185907033370481285)
(-1.92374707121049495e-08 -8.67068876753060373e-09 -0.000211204763868762019)
(-1.8970735122509065e-08 -1.24337506421614626e-08 -0.000244364173946019813)
(-1.19567875799191609e-08 -1.47850914738120929e-08 -0.000263565536180789223)
(-0.00678979027085876898 3.85327880991395503e-06 5.27673003652927248e-07)
(-0.000498952095991759452 -8.20567071120241844e-07 4.33313173417228501e-07)
(-2.10274136784101718e-05 -6.6499061703878124e-09 1.52576444358410664e-09)
(-8.50637985725099805e-05 -1.78912291054218076e-09 4.96021449628846702e-10)
(-0.000140456910128524992 -2.18162865396254671e-08 -5.11816029259831067e-09)
(-0.000139407663979273339 -7.23905001379249612e-09 -1.62029099446318293e-08)
(-0.000125273618952107712 -3.77629839291506672e-09 -1.2396895799099465e-08)
(-9.97994508561042386e-05 -3.65781024354549963e-09 -1.17437737142975239e-08)
(-6.85595583141222076e-05 -3.38363185990302366e-09 -1.17354935823320779e-08)
(-3.61492377505977827e-05 -3.32204750326013898e-09 -1.22991341596343599e-08)
(-5.33053067417990316e-06 -3.48812759906982102e-09 -1.23510668403789695e-08)
(2.40988204285291283e-05 -3.7077484028171059e-09 -1.19228124557327745e-08)
(5.22058269938992838e-05 -3.87188384606746845e-09 -1.16045231652427298e-08)
(7.86291683456627634e-05 -3.97230575883170793e-09 -1.10537965298463248e-08)
(0.000101839025301803159 -4.04046016840284251e-09 -1.01222387204886198e-08)
(0.000120460953312960306 -3.11525967408232475e-09 -9.05232308150374124e-09)
(-0.00162195368284725311 -6.29579656594590844e-07 6.71335234509834158e-07)
(-0.000272157475641988228 -6.66461094174167743e-09 -1.79284374918211944e-08)
(-0.00024175523389093214 -1.02593159341705751e-09 -2.74334922125003994e-08)
(-0.00023228166634386326 -3.37706546797022666e-09 -2.20846867218408338e-08)
(-0.000202704920231306171 -1.50363164766858794e-09 -1.4652138901903737e-08)
(-0.000167184390037317809 -3.01079993186839864e-09 -9.47987895774559003e-09)
(-0.000135302597531660937 -3.50917823721963554e-09 -9.35422999152555889e-09)
(-0.000104637129211585788 -3.15953384629460281e-09 -9.09570896562220077e-09)
(-7.38480696193232204e-05 -2.98846817017831908e-09 -8.77637624212056895e-09)
(-4.32900226808649518e-05 -2.9057695424648696e-09 -8.50270289429718329e-09)
(-1.33506301363217257e-05 -2.86137465202693769e-09 -8.24508689543216799e-09)
(1.57416117041150926e-05 -2.78418667048094755e-09 -8.02908301885646743e-09)
(4.37536996537591155e-05 -2.83626229086017142e-09 -7.75189255749166912e-09)
(7.03572261995384337e-05 -2.70072788511859622e-09 -7.46107642329562882e-09)
(9.46736950179761204e-05 -2.78327166981633348e-09 -7.10708772334489742e-09)
(0.000115200637856034614 -1.87379884957478566e-09 -6.44452992187811392e-09)
(-0.000360809952771821204 -3.99158244008883309e-09 2.59836533658564079e-08)
(-0.000260945299192373624 6.61467572459364301e-09 -1.00027710716029228e-08)
(-0.000246194302792863951 -1.91591893733965105e-09 -8.84496599887040203e-09)
(-0.000223460601116990174 -3.36264043393088752e-09 -7.51342325440502555e-09)
(-0.00019805065291151846 -3.48613750140757452e-09 -8.72074790808013334e-09)
(-0.000169486494840003334 -2.78018140262343541e-09 -9.0674495545996135e-09)
(-0.000139443829736638527 -2.47328749653946993e-09 -8.65670246046274251e-09)
(-0.000108941610986227906 -2.37288862318192695e-09 -8.33758947314940278e-09)
(-7.83619901353626333e-05 -2.30120456282239518e-09 -8.00188148606801505e-09)
(-4.79568837426002783e-05 -2.24395008350184372e-09 -7.68928522987258904e-09)
(-1.80427530479879037e-05 -2.22478080775365325e-09 -7.38739091691681789e-09)
(1.10985646784613737e-05 -2.179532249963538e-09 -7.06864886460686401e-09)
(3.9150454906164146e-05 -2.27115152301648007e-09 -6.75862414126184149e-09)
(6.56208741035430178e-05 -2.0378288666623311e-09 -6.43698683749754301e-09)
(9.00207811509665519e-05 -2.21568607102990138e-09 -6.08125514591362133e-09)
(0.000111267382118239791 -1.50696127721867969e-09 -5.79984857087919127e-09)
(-0.000391205406255747405 -1.08988567051750135e-08 7.12942946364677803e-08)
(-0.000277338025964904834 7.48112095741819606e-09 -2.67148281530292614e-09)
(-0.000257756822151122887 8.17124662542174429e-10 -9.97708251218055258e-09)
(-0.000232772377904782323 -1.09898574396519862e-09 -9.55608545363857688e-09)
(-0.000204620915971716013 -1.46794730387190822e-09 -8.33983819737336103e-09)
(-0.000174750308070888534 -1.54467680284386814e-09 -7.29453368054962666e-09)
(-0.000144189451083217977 -1.60036558834071491e-09 -6.69713893815502341e-09)
(-0.00011312565744846638 -1.57890712478535924e-09 -6.22219881250609892e-09)
(-8.19921982426638317e-05 -1.56672395426248833e-09 -5.84189330434350161e-09)
(-5.11068043947850086e-05 -1.57957687056687138e-09 -5.50603822576523967e-09)
(-2.07755458100685355e-05 -1.6285840975683587e-09 -5.20443011059044758e-09)
(8.64280208959521844e-06 -1.61973398938670672e-09 -4.93866654461130791e-09)
(3.6774767697405677e-05 -1.76686337155555156e-09 -4.70712586430081291e-09)
(6.32333482943897985e-05 -1.58104188707891909e-09 -4.50535030850840258e-09)
(8.73417285466427491e-05 -1.89153735212404787e-09 -4.34391627578986575e-09)
(0.000107960869215340224 -1.15243826089319573e-09 -4.05560189155617145e-09)
(-0.000496475865392035937 -1.20876628633158341e-08 6.69424324274575693e-08)
(-0.000322413503738082732 1.41100625675157492e-08 1.05621851205693084e-08)
(-0.00026795774484501681 4.88235818703212444e-09 -5.3850730432896793e-09)
(-0.000241882536344931859 1.08908796273861202e-09 -7.43688816560153602e-09)
(-0.000213248328421029144 -1.94609507306101798e-10 -7.18303950322589509e-09)
(-0.0001821335491014934 -5.22439096081287507e-10 -6.65651957757095009e-09)
(-0.000150194107881800856 -5.82712745526912265e-10 -6.13067841524115566e-09)
(-0.000118011951423090559 -7.1985184602913831e-10 -5.6356854524839661e-09)
(-8.59576303202605761e-05 -8.24916879885020798e-10 -5.21090039432067799e-09)
(-5.43239600129548413e-05 -9.10313507039380024e-10 -4.8426363889920953e-09)
(-2.33647011731106064e-05 -1.01921923940342602e-09 -4.51702680298801571e-09)
(6.69728533411954237e-06 -1.06332911529073535e-09 -4.21920904955710771e-09)
(3.5389573065160439e-05 -1.23774522538333733e-09 -3.94492095488722744e-09)
(6.24861299935051479e-05 -1.16998272267189682e-09 -3.68876671560717685e-09)
(8.76469432804225022e-05 -1.08940360901878071e-09 -3.53726631520344543e-09)
(0.000108668455770158427 -1.37814013498646282e-09 -2.8543977069571267e-09)
(-0.000470562884242208045 -6.73998130739040866e-11 2.08065669906628116e-08)
(-0.000370319002327065979 1.35299946001888132e-08 9.06022196480685408e-09)
(-0.000301155154875562244 7.30553298360446076e-09 -3.90389242723054442e-09)
(-0.000260733058548100964 3.41078112283117176e-09 -6.43134363538665607e-09)
(-0.000226749706397220551 1.7008306708853952e-09 -6.13614869106767418e-09)
(-0.000192283202304488905 8.74585763097538079e-10 -5.30247547886490037e-09)
(-0.000157809020080159452 4.90357039373207094e-10 -4.61164860777910826e-09)
(-0.000123785724315318533 1.68579410543418562e-10 -4.09383078864841926e-09)
(-9.0338936464297141e-05 -6.77105586312221881e-11 -3.69494568988598347e-09)
(-5.75796346148398981e-05 -2.51765429970227248e-10 -3.3746327518169167e-09)
(-2.56464855658521389e-05 -4.29034213634862606e-10 -3.11353298110953596e-09)
(5.35033794000905164e-06 -5.19911807689826736e-10 -2.89024979823033431e-09)
(3.51380212043500719e-05 -7.6104659907518832e-10 -2.69218162084915206e-09)
(6.37214095598117734e-05 -9.06335285617297368e-10 -2.55300699292511919e-09)
(9.11666691709295658e-05 -1.8202510834123643e-09 -2.83435777476944929e-09)
(0.000116864450857702624 -7.34583592895555792e-10 -1.3076729841962634e-09)
(-0.000455785207090699299 1.8894327860812614e-10 2.50332167183324254e-09)
(-0.000391346819494531415 7.31734258326874543e-09 -1.52955602267124754e-09)
(-0.000329714328843558715 6.52698568474892269e-09 -4.64577792412958081e-09)
(-0.000281432276135552058 4.88829034544164048e-09 -5.01903323408995184e-09)
(-0.000241570952554179556 3.31038112604595442e-09 -4.40349175883408235e-09)
(-0.000203625316476682754 2.16589045584857886e-09 -3.70557986607188138e-09)
(-0.000166389192900990397 1.49513060870323186e-09 -3.1772230144223742e-09)
(-0.000130247674420087595 9.94748750453497343e-10 -2.77268724565081857e-09)
(-9.52370865725471824e-05 6.07054010418454918e-10 -2.44905176425555548e-09)
(-6.13389137101807736e-05 3.09185111250767321e-10 -2.19665354120551349e-09)
(-2.85727814213724333e-05 4.0163583259288953e-11 -2.00297924075220369e-09)
(3.06335609962995393e-06 -1.42858254450241463e-10 -1.85986914452424617e-09)
(3.34788879788568339e-05 -5.85730989948980914e-10 -1.75026070505755735e-09)
(6.31095179158118491e-05 -1.67045430991898709e-09 -1.73600402444645843e-09)
(9.2171429644361181e-05 -5.81632934768417585e-10 -1.53974350607316541e-09)
(0.000123459523691467468 1.54899216922843673e-09 4.53825368736200296e-10)
(-0.000465257194788293034 -3.69191531407934976e-09 -7.34543095092210438e-10)
(-0.000410045025561605182 5.63107402650773365e-09 -1.52180984114263406e-09)
(-0.000351746236323047723 7.75014490128044725e-09 -2.26123465738663218e-09)
(-0.000299277801959114541 6.59280759834746495e-09 -2.16222956199155726e-09)
(-0.000253770853568146128 4.79700448937302586e-09 -1.78993034657711292e-09)
(-0.000212291339845420445 3.32552606372502345e-09 -1.42072856139161011e-09)
(-0.000172805108784892928 2.33618093493405863e-09 -1.17138745432024444e-09)
(-0.000134951075192426249 1.63570769047607137e-09 -9.93335316713827777e-10)
(-9.86798443221667695e-05 1.09893114216074957e-09 -8.58246016741264552e-10)
(-6.39200487748157949e-05 6.92640335690800597e-10 -7.54992760329076525e-10)
(-3.0610752697412211e-05 3.62019355455716007e-10 -6.77374429891717503e-10)
(1.3887580702947665e-06 1.48745523451243888e-10 -6.3029897291336253e-10)
(3.24761911753251148e-05 -4.01714289631196182e-10 -6.51700941691184394e-10)
(6.37869884975358756e-05 -1.08650540951903317e-09 -9.41938415873152444e-10)
(9.64495416334112016e-05 1.01380734856362219e-09 -1.2841730005784582e-09)
(0.000131586336147819375 4.87469474377862005e-09 -2.69518619781926167e-09)
(1.46051778626012548e-06 -0.0341188232031532229 -4.41581648124924971e-06)
(3.4004486259753582e-06 -0.0418953999856796627 -4.46579740703855874e-06)
(3.23704121683230272e-06 -0.0431095298838892541 -3.70121961137056793e-06)
(4.03112024490137646e-06 -0.0481856262944450539 -2.52066365359803918e-06)
(3.39779427084068578e-06 -0.0469951785928451674 -2.9847645431966421e-06)
(6.14189902456319927e-07 -0.0546498874691516145 -1.85388988544273395e-06)
(4.83446985850600454e-06 -0.062901370428940645 -8.92895956546292738e-07)
(-3.38638614991373789e-07 -0.0690252583524735286 -1.67894806721460036e-06)
(-1.50584815824004416e-08 -0.00220359731040987994 -2.94459215811416544e-08)
(-3.29254332133898549e-08 -0.0022324427909277242 -9.54338171067333882e-09)
(-1.85893858683799962e-08 -0.00195271284413024281 -3.49534058047655359e-10)
(-2.83532589957204577e-08 -0.00151760436029564844 -5.55512443563151202e-09)
(-3.31472408962956648e-08 -0.00094418149261690711 -8.89622762632275699e-09)
(3.65041478341665919e-10 -0.00304400528331694436 -6.42924864469620084e-08)
(-9.30986329970393792e-08 -0.00498854645604912723 -3.5088993066146378e-09)
(2.10137041996174029e-08 -0.00414168311389201665 1.13279511829844348e-08)
(-2.68949111440909866e-08 -4.30298386349350467e-05 -1.79932260980041574e-08)
(-2.10563710267851365e-08 -2.05155790640756536e-05 -1.42404667437483686e-08)
(-1.34699646847902689e-08 -0.000106439497596557344 -1.2468912772310494e-08)
(8.41078211316252022e-10 -0.000125958624268001946 -1.91649853332140149e-08)
(6.7246836590760117e-09 -0.000371215523589113515 -2.49236691013254849e-08)
(-4.66139069809370039e-08 -0.000942241591402237099 -1.28193752606110516e-08)
(-1.91258068391458089e-07 -0.00153455859055483279 -7.23438626564514017e-10)
(-3.61539456554163595e-08 -0.00213186911254912084 -1.32668191530584855e-08)
(-5.12441265822220352e-09 0.000313665936376535256 -2.59859814286110906e-09)
(-2.95486066212784966e-09 0.0002764173426701158 -6.36948827621517254e-09)
(-9.27480055316777629e-10 0.000215754603498564241 -6.59751504494948484e-09)
(2.28359743186057009e-09 0.000108178042162860449 -2.69012162683717508e-09)
(1.74544521492438342e-08 -2.88172015550847615e-05 -7.24657882727465947e-09)
(-2.16474090976605454e-09 8.2390654052284245e-05 -6.35084866576696392e-09)
(-1.12460133602479443e-07 -8.59316440543219197e-05 -3.87064278289554342e-09)
(3.08588999740600592e-08 -0.000263287848128778649 -1.01938301345203337e-08)
)
;
    }
}


// ************************************************************************* //
