/*--------------------------------*- C++ -*----------------------------------*\
| =========                 |                                                 |
| \\      /  F ield         | OpenFOAM: The Open Source CFD Toolbox           |
|  \\    /   O peration     | Version:  2206                                  |
|   \\  /    A nd           | Website:  www.openfoam.com                      |
|    \\/     M anipulation  |                                                 |
\*---------------------------------------------------------------------------*/
FoamFile
{
    version     2.0;
    format      ascii;
    arch        "LSB;label=32;scalar=64";
    class       volScalarField;
    location    "0.450000000000000178";
    object      p_rgh;
}
// * * * * * * * * * * * * * * * * * * * * * * * * * * * * * * * * * * * * * //

dimensions      [1 -1 -2 0 0 0 0];

internalField   nonuniform List<scalar> 
29184
(
1918.55500953975138
1918.69535276248052
1914.58712153729971
1907.04604507413728
1897.99272094923094
1887.44476819798433
1876.29238893701881
1865.81638744893507
1857.21844616814474
1851.14603464121592
1848.72358698190419
1848.58928780822271
1850.76557801663716
1842.34257412609963
1828.24054337335519
1686.06562786879113
1918.01612872275109
1917.73015664004197
1913.56352425398472
1906.04289098316349
1896.75590571617317
1886.15514133274701
1875.00614911928324
1864.45984006082836
1855.68010989081085
1849.55296650651849
1847.02717090925262
1847.46295981338449
1849.74163135140634
1843.63204396446554
1827.97276503895432
1691.29811520159114
1916.74526227388765
1915.83074020769186
1911.48361452006247
1903.94657302867267
1894.51824326465271
1883.84236066277549
1872.59735139495251
1861.84532791183551
1852.78540528157146
1846.48833202257151
1843.96016008885681
1844.97888545083856
1848.21991082771137
1844.78442014738994
1831.58791287192867
1698.7853788647476
1914.61719040404546
1913.11382181356976
1908.50531742786097
1900.90484097962167
1891.32139337038802
1880.45551008580946
1868.97892931051524
1857.89572953104584
1848.42854570176542
1841.82209988042814
1839.2605665092658
1840.93106693812979
1845.7393716988006
1845.6896427569452
1836.69698267123977
1709.69454286548171
1911.60274817872573
1909.60136970065014
1904.64610736891268
1896.89746804160291
1887.11800559608241
1875.9834853698303
1864.16490730127612
1852.61376924834303
1842.5746658015712
1835.48519785125882
1832.80709991089998
1835.20548592621321
1842.1050095482658
1846.31858533129935
1843.24284589417744
1720.1495113479541
1907.69876170887164
1905.25640982097889
1899.90200223628199
1891.93452017079562
1881.90966340716454
1870.43271220035172
1858.15388588859219
1845.97126563132815
1835.15138081070495
1827.35245245123338
1824.39295743238995
1827.52451536052126
1836.96605376565344
1846.45355952168165
1850.8706286244776
1734.08001612500857
1902.90699421332124
1900.03095911374658
1894.2288830155112
1885.98047365850289
1875.65861025383902
1863.77564219155329
1850.92416567137229
1837.92698785451762
1826.06124810277879
1817.24662610582664
1813.73003569950129
1817.49040505116727
1829.87208468907079
1845.70981123749084
1859.31012845466512
1754.05566557825637
1897.16240108903799
1893.79376330766513
1887.48446620692539
1878.91309586235866
1868.2624186400476
1855.93485933842203
1842.4104007997048
1828.38652799649935
1815.12507988352195
1804.87462964221027
1800.36726110667132
1804.4681701049833
1820.09365970648673
1843.51073190195871
1868.09217724635391
1779.72847385365799
1890.1739453994071
1886.14432328472617
1879.25462827751448
1870.35398535660556
1859.3924036417111
1846.63112632901834
1832.35508112761295
1817.04302961070539
1801.9044887032494
1789.64635002956038
1783.49465711180687
1787.27098249014011
1806.3553945361175
1839.10254439414007
1876.85494817774816
1824.77566954914755
1881.15138559789466
1876.06239223252692
1868.49848197640881
1859.31067605638782
1848.12941623886923
1835.00550276186323
1819.89178043468132
1802.94758060895674
1785.2415980564399
1770.22927347162863
1761.54320733945292
1763.77184854879033
1786.01244506792068
1831.01396431988678
1885.04291340007012
1840.45089222431216
1868.18534171642568
1861.33452524488393
1852.98805857666844
1843.5855110325399
1832.31547450023118
1818.87467232184144
1802.6702221153173
1783.43275918024437
1762.28258484129992
1743.43065117676861
1731.2364440241322
1730.8436662622255
1753.77716497627421
1813.98841912365128
1891.62380564064097
1855.12917832705602
1846.83625654224579
1837.37789703237991
1828.20942823040627
1818.57908053129563
1807.25222663048089
1793.30577534401004
1775.26240935063333
1752.05488698566819
1725.86026064962994
1702.72210972485254
1685.992471105096
1681.39173794061276
1699.25516579514897
1777.74522783220732
1893.59188877949123
1913.4449645123068
1807.99487631837565
1794.90242155441024
1784.92268057775777
1774.59835155627911
1762.73115977716361
1747.25413177975884
1725.16133026833609
1693.93227412812848
1657.82255722475134
1613.5283255144102
1510.63237364536803
1442.47807822898085
1531.05640798313107
1694.17465840806744
1887.05530710646826
1927.39381252030148
1734.90450919327509
1712.96372299368227
1692.8252312610789
1677.09967173244809
1657.90874679185617
1629.21720073900883
1568.11533861235762
1408.25498344594234
1129.14179457064552
942.005855803573354
665.662016284984929
456.50305593053713
635.546472511485945
1460.24346971227169
1861.30765308055788
1935.56609153540126
1312.11809052117337
1207.87902994818728
1147.79126051841513
1084.49301210708563
1007.24749181016091
905.7452052549977
732.994883562330529
530.88269200505772
343.797922502350673
175.230331957103829
68.1305632543023165
16.1587529792919824
32.872156135726982
520.656542159275205
1634.47293764961887
1945.60749609717368
495.473676650902462
428.645016740095684
394.51634986098901
331.470748776895846
273.467119655449267
213.288703104033317
141.609197987057769
82.5882550090347962
64.8224891349935746
31.3102276005137163
14.6634420666024958
9.19851531034830394
12.6303257068314796
36.063152182884096
1796.22433657478882
1959.37822162683005
1919.64942915559959
1919.89590428601537
1916.04919872332289
1908.9932488316233
1900.6778406853
1891.21374418575942
1881.61530058971039
1873.32045707854559
1867.68385151641041
1865.75104639219262
1868.82825432119353
1877.09144365468796
1890.29317532810819
1903.63691469259584
1912.31199419735913
1890.26077925925392
1919.11229333731399
1918.93855297975801
1915.03853864100506
1908.00405060811181
1899.46801614391006
1889.9629966197283
1880.36958120237068
1871.99450790051401
1866.19428232234009
1864.20227915777423
1867.30350480623497
1875.97728945520316
1889.5899432589772
1904.36620503355903
1912.57672029835112
1890.28260889193461
1917.84799636948765
1917.0557644770347
1912.98510609443997
1905.9441740395464
1897.28603906290232
1887.72140403998401
1878.03673283572016
1869.45970548108971
1863.40355734046352
1861.27403579080283
1864.44761277059501
1873.66341171383738
1888.23982584696137
1904.98524454181847
1914.96985771305981
1891.50493615738287
1915.7340251439548
1914.36168317771239
1910.04339539550961
1902.95564525555005
1894.16855400905979
1884.43647262696891
1874.53075266570909
1865.63257895391189
1859.2005672850305
1856.81239964388351
1860.0332549421521
1869.9143616749991
1885.97469305072241
1905.35850560403173
1918.46980714093797
1894.33834921543757
1912.74159471747498
1910.87406617676561
1906.22826888113582
1899.01954658696218
1890.07375533218828
1880.10104013311707
1869.86384240009579
1860.51006910156889
1853.54644154203629
1850.74685581648805
1853.95348725834083
1864.61726997347932
1882.65590451929847
1905.47626817979017
1922.97022916494461
1892.89990095916892
1908.86159994954437
1906.55235277318479
1901.53435761129776
1894.14797648853369
1885.00741111361981
1874.72152642285323
1864.02796563975767
1854.05307135694306
1846.35916893621629
1842.94450994754516
1846.00610627634273
1857.50312215744702
1877.98138751960869
1905.14799940850708
1928.39342793254127
1894.89924998373795
1904.08065107302991
1901.34143168337209
1895.91850008994538
1888.31020172898297
1878.93698670909384
1868.26694050120932
1856.98668371059489
1846.19948362643322
1837.52437572498116
1833.21865468409806
1835.9086754965299
1848.19485409381832
1871.54006925755243
1904.08564277245318
1934.55605730785919
1902.36886088067945
1898.31314208695312
1895.09337296762828
1889.2427181730593
1881.39402800211792
1871.76502818606878
1860.64827297504439
1848.64700623537396
1836.82360231454459
1826.84225279782072
1821.26598266909423
1823.2249972902664
1836.09831414521864
1862.67552355741373
1901.77946940206493
1941.11051993330284
1913.47878377667234
1891.2348408889543
1887.37808525517244
1881.09628213976157
1873.03398069912487
1863.16258486975494
1851.56125469106246
1838.70803551205677
1825.58326028703618
1813.86234526162616
1806.49692803179505
1807.18626478361011
1820.11910296775227
1850.17577702909148
1897.55678231353068
1947.66771096556886
1927.78120504058325
1881.97711603157813
1877.14132616505935
1870.43019587416688
1862.23892269848238
1852.18073538198291
1840.08625488673692
1826.2732065394614
1811.51444442823436
1797.46756507335317
1787.61650715140604
1786.336880358499
1798.25698847185231
1831.55413887803525
1890.20876382364509
1953.67894253659597
1938.52680425214976
1868.53424424277341
1862.14464781051811
1855.00122465013396
1846.79897023040962
1836.62722761196301
1823.99781418068892
1809.00578637205467
1792.25644786810381
1775.04241783446446
1761.82050881668465
1757.79974682709417
1767.06622372093398
1802.56018575540406
1877.10406571209205
1958.38899277426253
1944.49237123127523
1846.39561584305443
1837.82160013760358
1830.29503518122624
1822.13488066605782
1811.79184930953556
1798.42130215562588
1781.74493860467942
1762.02470397977095
1740.82576226801689
1724.28969876391466
1716.31467359433964
1720.07724629218842
1755.82665899224867
1853.97000030844561
1960.09059613181216
1957.92207984504739
1806.3537710048829
1794.90053259471529
1786.96878562209213
1778.62446987465432
1767.58638661833561
1752.71569212626287
1733.00868624631812
1707.99704420557987
1680.14472685247256
1655.75554591394121
1606.4164792520769
1593.106928171856
1654.71739468020087
1815.54015792752693
1956.01510669804998
2020.70975478352671
1731.37997844212373
1708.27708567748778
1693.85073903918328
1682.3676001896315
1666.95426998300286
1637.31362430686886
1583.50149348145078
1490.93139669120478
1293.83481106050476
1078.01776497670403
856.798785580537242
756.242389377527047
1055.03686160547159
1692.40442160476232
1941.26740842130857
2019.86743602934439
1277.27945127540966
1187.83086350817371
1141.68889939053315
1100.88730413864619
1046.99991199068177
954.186628631965391
809.743468014430732
614.535395403428083
446.271450632147378
260.392337367962
121.912422711627727
27.7960283285090846
121.133059445971071
1155.47006150860534
1891.67919589271878
2022.8919927403208
478.8418845600537
419.956613276436883
389.357764720645605
354.043123652497968
312.181867619123977
260.32063312620852
195.488520626596141
123.107771155777286
70.1273908683779865
41.7548271680277026
11.7001907436573784
9.27313022493588512
12.3249573088739375
221.200364450042088
1845.07923951748671
2030.50619520389296
1920.61230910300446
1920.9461660943025
1917.36807699853443
1910.79653105646048
1903.1868969729428
1894.73409316149991
1886.56266961044821
1880.22738392866268
1877.18803323305497
1878.74286353128764
1886.33717078901418
1900.69608473728613
1921.41632516967638
1946.24258367985976
1969.90144866403716
1985.68147223758092
1920.05578184552928
1919.97749054508085
1916.35864677612039
1909.81492581548127
1901.99786055233949
1893.51516814177398
1885.35186020978153
1878.93427906093575
1875.75238011623401
1877.26418832180775
1884.93421785645614
1899.64737971043837
1920.89075653722807
1946.81601652343261
1970.84404591815064
1984.97921873807923
1918.7567954131373
1918.0757735581592
1914.31143191048477
1907.77948032021845
1899.85856946087847
1891.33141273968045
1883.0870644413294
1876.47800547951715
1873.06617460801385
1874.47189449393909
1882.26199609548962
1897.50316951832269
1919.69734303676978
1947.22153086011849
1972.7222220469323
1987.98928159181378
1916.5979762072941
1915.36111809351928
1911.3828007377831
1904.82800121012838
1896.80062751354262
1888.12965476006389
1879.68461000151115
1872.77250418235872
1869.01515399663731
1870.20773358979432
1878.10878684040745
1894.03392567429205
1917.63950869617679
1947.36524205092792
1975.1671863320978
1991.04480958854788
1913.56035433256102
1911.85884919936825
1907.59216005546932
1900.9446419541041
1892.78665166647465
1883.90684936440061
1875.15751848911464
1867.81125357239807
1863.55668277988684
1864.39885393561735
1872.37217266749667
1889.12651218658516
1914.60603161628546
1947.25740567582375
1978.28966623109091
1976.811033995461
1909.64646044016877
1907.54149836976535
1902.93974394700308
1896.14331374107337
1887.82368666585717
1878.66909582047242
1869.49283571934257
1861.54389991367202
1856.59561448701402
1856.90201879885626
1864.85004232965389
1882.52070497955356
1910.32332169161009
1946.72073610864777
1982.09544228043706
1974.28627764290741
1904.85437256327418
1902.36591022571156
1897.38564190322177
1890.39289123721278
1881.87672297373115
1872.37743963969388
1862.63602766121494
1853.88015454786955
1847.98960121004575
1847.51272722552221
1855.25828139278497
1873.85507658564916
1904.40644247531213
1945.49473834713194
1986.47272499512815
1976.37460209434107
1899.1150025653078
1896.19185953728288
1890.79011869937176
1883.57479096480847
1874.83505564263623
1864.91575931910916
1854.4507410329611
1844.64129775354513
1837.49685304210175
1835.91214027249475
1843.17558817176632
1862.57382436070452
1896.2324960826038
1943.17046473986943
1991.19804997620327
1980.86215256672131
1892.11666924714996
1888.57974731425884
1882.73235729622434
1875.30862683987471
1866.33383896562759
1855.91935160315711
1844.55289198403648
1833.39519952354203
1824.60872114112522
1821.50572344390366
1827.89847861388512
1847.7021052644759
1884.73541951463039
1939.20252355976095
1996.07991913452315
1988.27319389472768
1882.94535536655098
1878.41830237253589
1872.13925590656049
1864.56073370332774
1855.35181748429682
1844.34387996872647
1831.88702284586884
1819.01417228545847
1808.09567450886584
1802.9891003384987
1808.10292910498151
1827.51136668001891
1867.81325449092651
1932.69181317303583
2000.81010899016064
1996.86707903405681
1869.46068037937039
1863.34543858321786
1856.71416469872543
1849.02392817708164
1839.54093856053464
1827.78732758765204
1813.96270049492136
1798.87869597497934
1785.15429686764696
1777.54646223091913
1781.12627754451273
1798.43337448098669
1842.16769531637647
1922.5598222148044
2004.86178914812058
1997.62480137075363
1847.00677457470601
1838.60095366425912
1831.84225186165122
1823.98955587846808
1814.03758958837102
1801.20476365028549
1785.34775693751158
1767.06341700949861
1750.54123461899962
1740.06508636216995
1741.77386522859456
1754.52543819053562
1801.05285406458893
1905.91901290111673
2006.55031981195702
2003.55847182730781
1805.95722204810295
1794.66254634461302
1788.07628468126927
1779.70283147293571
1768.74210072072606
1753.94457722182938
1734.29749063591203
1711.33575059248869
1690.14048369455259
1677.17445708569176
1665.85732430547
1668.52633931891842
1728.21173933920818
1878.96987213676516
2005.41413003891512
2039.87122703470209
1728.59061322652565
1706.4993284146517
1695.83724083358811
1681.15989428489729
1659.20426050951642
1626.15654836106705
1567.24951438936
1464.34897717509784
1316.83249633718719
1186.03732498566683
1031.59661945996663
1040.19179572547773
1347.46100451431744
1801.4492140030643
1997.04930031044887
2069.55945113121606
1266.68080441426969
1176.21502629884367
1146.81714808438073
1098.12451734298793
1032.66200360329231
938.432000763701012
787.09655197522693
587.352467112236354
434.562184946032971
316.193467506146533
203.443706296908744
102.373138464964171
297.47218046413235
1485.51082598811581
1969.63144333869332
2063.3832252323873
456.858117028086269
405.571317402734508
391.245174020666923
361.307898895670746
326.834162900353533
269.600740466069169
193.057620236457382
121.948382424547148
81.5649419127235262
50.9809786437099319
20.9228028299002773
9.50817821033569643
36.4014581103687576
706.301236824542684
1883.72969125027271
2070.76606744103174
1921.49962756774539
1921.93856593792907
1918.60545550961638
1912.45356032810173
1905.44867134166634
1897.8630662759449
1890.90861351952049
1886.22767705888145
1885.33939065530012
1889.6902874844975
1900.71026843229151
1919.15129387082629
1944.32044199235293
1974.09794154667748
2003.53102583183841
2023.35791638650335
1920.94305546533951
1920.97464933622791
1917.60400845522508
1911.4789774369417
1904.27439425457101
1896.66383106994249
1889.71687758604435
1884.95194190671509
1883.94464683595947
1888.26673900632818
1899.38891169495741
1918.18570204298953
1943.92993121496875
1974.81815644816106
2004.18287269084271
2021.73614792353396
1919.64514733031433
1919.07895799979246
1915.57009680258284
1909.46416346013734
1902.16694911255217
1894.51781432284292
1887.49100926696519
1882.54221243815914
1881.33477096792262
1885.58544474607675
1896.86793907795345
1916.20536292279826
1942.88483273293218
1975.22441989551362
2005.63553250999348
2024.0777781484187
1917.48754827544644
1916.36533854804134
1912.6530334011386
1906.53872226150429
1899.15065883161765
1891.36691863437227
1884.14331724815634
1878.90487263409113
1877.39193597334156
1881.48733513883099
1892.94492913466979
1912.99967494471366
1941.0492534889604
1975.37060418292822
2007.59834505174126
2020.42618827935235
1914.44512340790175
1912.85231293196512
1908.86636933141131
1902.68338248322402
1895.18605237377528
1887.20315344759206
1879.67811842452693
1874.02382998967187
1872.06778450293314
1875.89451960928386
1887.51329030921056
1908.44977058079849
1938.30644044312498
1975.26832011492229
2010.14717528436881
2009.93664679377912
1910.51642135118209
1908.50245670005961
1904.20323813735695
1897.90447590105691
1890.27105957690537
1882.02169286152775
1874.07192988437919
1867.84143904640905
1865.26456612211086
1868.66388358637596
1880.37629033309531
1902.30883144902714
1934.40980820873324
1974.75628174736721
2013.28685581440209
2006.70550175716039
1905.69863958073461
1903.26178210946614
1898.61296993220458
1892.15824411684071
1884.35800377879491
1875.77397194570744
1867.26610163216242
1860.26950020358049
1856.84635016270067
1859.59848431059754
1871.2608792147405
1894.23791698060427
1928.99789838334004
1973.62853683834533
2016.94378977123733
2006.40550535782791
1899.92030831721127
1896.98142740663025
1891.93876067778774
1885.30711761328348
1877.32283258939901
1868.34215069782431
1859.1354259346042
1851.1501284688502
1846.59607992736687
1848.40336078356063
1859.76685238366395
1883.71233450901696
1921.4898585935855
1971.53770795013133
2020.97563572538229
2008.07140136056751
1892.86841869276213
1889.22099416168498
1883.7360968556211
1876.95166159893392
1868.80886215074975
1859.39048772988326
1849.34534859842324
1840.1109729997213
1834.06730412172419
1834.55074251404676
1845.23734596410554
1869.82742952831404
1911.1589427103554
1968.07772984694247
2025.20936353529828
2012.6062406164433
1883.65571160116497
1878.86682499553103
1872.89792484156055
1866.05713948382368
1857.84820449716176
1847.99708949315527
1836.97927120583722
1826.16266874190546
1818.1640119807048
1816.87247463576932
1826.46759521855483
1850.8923240843535
1896.04976784247538
1962.61644455196711
2029.48766083324745
2020.12863574283006
1870.20774459979816
1863.53377728980172
1857.07748428218133
1850.35710822057808
1842.21377797968717
1831.97440762372548
1819.82882598631249
1806.94737660588135
1796.33749894619177
1792.79940868409608
1801.10630647976541
1823.79639826317361
1872.62616279805616
1954.42793759227447
2033.58354903995883
2021.99710729495905
1847.93141874469757
1838.43384224072452
1831.63663954007052
1825.26726696886431
1817.30563629013704
1806.57691998098881
1792.77611571742545
1776.84338172886328
1763.43209539595159
1757.46583258573037
1764.36981548806284
1782.59349278298873
1835.24264979602799
1942.10449291871328
2035.79216899023481
2025.33363878392197
1807.21965370519092
1793.93832813583435
1787.17930445291245
1781.30373131381248
1773.42665014924819
1761.57153326541038
1744.24860919453749
1723.57903097296253
1706.38459761914123
1698.96918335297482
1701.28275706079057
1707.85092411000619
1773.89451547273666
1922.48478505324192
2036.73553514620448
2031.25622721259901
1730.61622808054926
1705.09714280215417
1688.51872252510861
1677.42027518061332
1664.45566753907769
1642.56418153242407
1592.56474841699514
1495.56059690254801
1378.40186625818274
1285.61576034782092
1163.15301977789795
1210.42309381104747
1506.38254120912848
1872.27579046601022
2033.81482581980595
2078.27876408506472
1286.18430215546414
1176.4590682339242
1129.85693360988034
1089.40229031135323
1042.954791923431
969.798754086864733
826.346828043753476
626.679922386918747
475.359830229692363
387.638588797156785
272.654705626188274
195.7583515550605
528.055292621680451
1661.72721594074142
2017.57754345546959
2083.97076061525559
463.264544589102343
402.725165748404379
389.286411435995831
365.452992767221247
333.107443113263741
280.312875648166255
200.546127632874061
132.982521156821122
95.8790734807997893
59.8990851936300572
25.1561058767441494
15.4054415714388249
56.8565627092451962
1136.47353990257966
1995.27983030293126
2083.53607828307577
1922.2476085671899
1922.76271631591362
1919.64425462712666
1913.84569125112807
1907.33093936717
1900.44678053883399
1894.47706999083107
1891.11026270627895
1891.89760535055871
1898.32624447298326
1911.72736323238405
1932.74492267194569
1960.32019345892559
1992.3174793767007
2023.20868097910829
2043.38177439119636
1921.66318683526242
1921.78077619646683
1918.63888137297226
1912.8753313187442
1906.1714374142075
1899.26548178424378
1893.30192541135625
1889.85815401255013
1890.55340531714296
1896.98321626763618
1910.53823694448715
1931.93807005567987
1960.15056491539713
1993.07743266722332
2023.88579411222236
2041.52959821008881
1920.30979967638791
1919.8581515298963
1916.6037957210599
1910.87315310215263
1904.08321842415739
1897.13808630994049
1891.09516196331128
1887.48074562930947
1888.0075923921288
1894.40517644885585
1908.16659753401154
1930.13072782195923
1959.27176995877085
1993.58209864222317
2025.36651291305384
2039.47803699761948
1918.0764857256861
1917.11541719703814
1913.69089933421697
1907.96562779147575
1901.08828923854799
1894.00816388433623
1887.77255799116301
1883.88829158607336
1884.15263260072379
1890.45250489657656
1904.44945119013187
1927.16716039127095
1957.65468946547776
1993.80796309321158
2027.32510686379601
2035.33667750421932
1914.94772201378191
1913.58271528716045
1909.91725596004676
1904.13240486693303
1897.14496520260218
1889.86395814812954
1883.33338583633099
1879.06041600472145
1878.93872275003264
1885.04645646966128
1899.28156926750762
1922.93091764826454
1955.18907020557072
1993.81292667429943
2029.78927958221243
2029.97597322291494
1910.95065923255606
1909.24134307060172
1905.27642766164558
1899.37492848020906
1892.24819993564233
1884.7007804936452
1877.75646165981152
1872.9434907909947
1872.27444940620421
1878.05107853754839
1892.47670397546608
1917.19633776918317
1951.65966072191054
1993.47156925171316
2032.75262678905483
2026.45004006448653
1906.1177849365547
1904.03425132930147
1899.7103571872949
1893.64644434269803
1886.3588917028676
1878.48762489984506
1871.0037192089676
1865.46909905709322
1864.04359444372062
1869.28708447105419
1883.77635991060288
1909.65165823711163
1946.77766206686829
1992.61327292895521
2036.19143855838774
2024.65910508732463
1900.40222578614066
1897.80377648865988
1893.05375955418003
1886.8171546883973
1879.38617543532564
1871.15823349302013
1863.00866548374825
1856.53188150734081
1854.07513542686729
1858.49802333520893
1872.80658081004503
1899.79541867174134
1940.03682776027313
1990.98945550264921
2040.06431474998863
2024.90496200543612
1893.53212278786441
1890.1447579728549
1884.86795912087905
1878.52681149509658
1871.06070449447043
1862.50082945517761
1853.56778717537873
1845.87548649922178
1842.01381308402301
1845.22192856455808
1858.9201430386795
1886.77101640778233
1930.66063382095786
1988.29766363138242
2044.30410579217346
2028.29220674954195
1884.73601102966586
1880.0211512560345
1874.07575537529601
1867.86562602158097
1860.6554631528943
1851.8813975902242
1842.00667941680172
1832.72486063500264
1826.9149601596414
1828.38351394878987
1840.93495560172369
1868.93536049875161
1917.1030468860265
1984.12220268372221
2048.84924146409048
2032.77344543425124
1872.13275230948125
1865.09048955562866
1858.37726074021816
1852.83796962861607
1846.39625652431482
1837.5005165417042
1826.43293486659354
1815.0123866133647
1806.45650135206279
1805.52113226860229
1816.65926614783734
1843.42512566939354
1896.19822712333848
1977.69485120455465
2053.60089690013865
2038.68114254119791
1851.29731683562727
1840.5603262326897
1833.17310016221131
1829.1848773192055
1824.1390383612088
1815.00659426979519
1801.99135259066225
1787.55128272297225
1775.36668994276647
1771.951338786208
1781.75162022551945
1804.42251905725561
1863.24476900692298
1967.64115415076685
2056.41753707441558
2042.71161901427058
1812.60275417520688
1796.68587499871319
1789.11393235601781
1787.99632170669543
1784.75641927937227
1774.47545752430278
1757.37486904915204
1737.80401448600537
1722.48627477380342
1717.98521140715911
1725.91441464323611
1736.83365968650514
1808.48098710920476
1952.09031330312473
2057.54340496460054
2048.34726653747975
1738.46582056094553
1712.44630969875266
1693.46291059860778
1698.3006799987138
1703.48950353211876
1684.93445203752822
1629.52516336325266
1539.87740339357606
1445.38688731159345
1373.39103100838656
1273.97349853942978
1362.02923139007771
1619.80900545579652
1924.71662838003908
2058.56476601870099
2059.74103792880078
1339.18203405721192
1194.28640357458198
1144.28397040427581
1160.20274044111625
1147.53059139893412
1057.075504177634
883.632926865112154
689.578798264730153
541.44410394741692
454.497160525152367
334.114153615247687
300.583190169855015
805.345906710180884
1787.41454241643169
2051.5133706873944
2098.99715505579888
486.747385553442882
408.251008403950664
394.503575400185468
395.813490502907598
360.935813892758802
290.058362296022949
210.740974316105024
153.214661182241485
114.205191896585418
70.447614136276016
35.9862243916197713
26.535270434655974
86.928173228077398
1445.18468064217677
2030.61545732752143
2095.1472236533159
1922.98072133024266
1923.56384414069407
1920.59333057353342
1915.02510817494658
1908.8475537459708
1902.47916220894354
1897.24929726928713
1894.85664334484431
1896.87062901657305
1904.75271519806483
1919.7615537735835
1942.35951506314905
1971.31107835032799
2003.95137475311753
2034.08936694751719
2052.2688394314273
1922.4138546680631
1922.60735851900336
1919.59584938394846
1914.05413814223198
1907.69628751431424
1901.31506448147024
1896.09666617565972
1893.63866082926802
1895.57499293410388
1903.48052167620381
1918.6614588992818
1941.65618407550278
1971.1810026832818
2004.70606429998725
2035.22351828528917
2050.51936448106017
1921.09588462578699
1920.72116902302355
1917.56860853507874
1912.04889942932687
1905.61287787699757
1899.20332267236813
1893.91692141230237
1891.30512418856279
1893.0935578399492
1900.99089678231712
1916.40191057313291
1939.9751646032862
1970.39811828873644
2005.29147805012144
2036.70692948197006
2047.10285797555321
1918.90922649381059
1918.00735686858593
1914.64773200203945
1909.1252874468621
1902.61675257148545
1896.09244192160531
1890.63361529124722
1887.77569689031657
1889.32904015637246
1897.15973922044986
1912.8388904380945
1937.18606200127533
1968.92506087664287
2005.58236686248574
2038.7222330139341
2042.15463424638597
1915.81949158036423
1914.46678370107929
1910.83342108618558
1905.25837239491011
1898.66830515049583
1891.9732376563295
1886.24618660845749
1883.02887484490475
1884.22989055261792
1891.9072497559489
1907.86780263223386
1933.18074163810229
1966.68484498093721
2005.67787632823911
2041.2156535926224
2037.90212299697919
1911.80416275242123
1910.04270418353121
1906.10543941389187
1900.4495628145869
1893.76681677113334
1886.84348259028093
1880.73176133557945
1877.0066121545201
1877.69934270050135
1885.09358669903668
1901.30324957566813
1927.74639985695126
1963.45072705128814
2005.50553889975686
2044.19239093141869
2034.60926637156058
1906.83626663900441
1904.66147332615265
1900.4035870381158
1894.66016641498095
1887.88108045094236
1880.67181861189147
1874.04186742072034
1869.62520287638608
1869.60585690365519
1876.52986088994112
1892.88270351147844
1920.57394025980693
1958.92772093632652
2004.90430747147548
2047.64851844158011
2031.72236502785654
1900.81776754655857
1898.15546659407414
1893.56959698095875
1887.77267191140095
1880.92678168752627
1873.38326742703316
1866.08170584810159
1860.74702614251305
1859.75223489907125
1865.94841675009707
1882.23263443212863
1911.18176107375393
1952.70156717407394
2003.68930950425965
2051.58891454087825
2031.14550982861851
1893.38673712328387
1890.0539726985196
1885.16715624158337
1879.44438749269852
1872.63411797807362
1864.73099433044536
1856.57748285959656
1850.0451423270415
1847.73932893255915
1852.88031025779765
1868.73915275947206
1898.81546390724498
1944.15600738404373
2001.61591687668283
2055.99941900827798
2033.80717834133293
1883.56445855318907
1879.21185521292477
1874.12286397312641
1868.80149865429985
1862.23273957129686
1853.95984880490209
1844.71119239966447
1836.61517438405031
1832.57067826238017
1836.27958416752494
1851.21565573800376
1881.99736434976603
1932.37950819199909
1998.31150015381036
2060.83764610565049
2040.24400534293113
1869.17687633925129
1863.25286524029116
1858.18205363162065
1853.82619026378165
1847.82047818083151
1839.04602961928663
1828.40433608886815
1818.24051019960621
1811.87915490796968
1813.7619902811673
1827.74692033926181
1857.87564551883315
1914.36773694404587
1993.33589929297591
2066.07423449972976
2047.2646454566584
1845.61430837651369
1837.430840225971
1832.80914138643925
1830.24138312572404
1825.10215150004728
1815.39674660431001
1802.64243334804996