/*--------------------------------*- C++ -*----------------------------------*\
| =========                 |                                                 |
| \\      /  F ield         | OpenFOAM: The Open Source CFD Toolbox           |
|  \\    /   O peration     | Version:  2206                                  |
|   \\  /    A nd           | Website:  www.openfoam.com                      |
|    \\/     M anipulation  |                                                 |
\*---------------------------------------------------------------------------*/
FoamFile
{
    version     2.0;
    format      ascii;
    arch        "LSB;label=32;scalar=64";
    class       volScalarField;
    location    "0.480000000000000204";
    object      p;
}
// * * * * * * * * * * * * * * * * * * * * * * * * * * * * * * * * * * * * * //

dimensions      [1 -1 -2 0 0 0 0];

internalField   nonuniform List<scalar> 
7236
(
29.8016155631195758
94.6648937177196501
133.228189695983815
143.071612915675445
147.908822779343211
154.091872088433519
166.179522505294358
177.735349092779842
189.184585418545424
198.672534104223445
204.687051932351153
209.31081186516414
215.33927537969106
216.844924718995799
213.54145645797189
207.569521342548569
203.558234059175305
201.663409303642197
199.578716754102885
195.865382448082926
187.002368400935438
175.779305720925379
172.893885821687434
169.110040871285207
159.541858264709248
154.890850595691916
151.116207646859436
130.117734729533197
123.037236290743806
123.692147925577331
111.230225584299376
93.6827538071129879
83.6180132594518142
84.4024550670768292
101.730127151456458
203.291182043889108
695.164767690731537
1563.27794254845526
-3.2126235845090747
27.1373151906161141
45.1571117723512288
46.5065727964534759
48.5221062064058231
50.5810007602252369
56.3498417253081385
63.4768507398010371
72.4906913320986206
79.7645700995915945
84.8743769644138695
86.5890232789252252
93.2213520956305786
93.2807090435889563
90.9484396408147688
83.9053136497984724
79.1352149963497027
78.8020519461177855
79.301187042436851
74.0487231506917567
64.1586153378578672
55.6470807241097987
55.9423590034318465
55.5887941561119874
49.3257049475340921
47.8740378858913971
48.7177487855663855
34.8445135063049349
33.5375021761600891
35.880558839828538
28.2309260112482434
20.0609578860937461
15.8687123936045609
15.5763778994983397
16.5298399864863157
40.7961001490888577
300.143031741893822
1212.43042747995469
0.945978736366214878
5.7874710176219164
13.7941524830744466
13.7308186564071324
13.1523737349922367
12.9231682346663526
12.4513110511740379
13.8093835375726961
15.9789509493993904
17.2796345853944189
18.7520148822589476
17.2808278470706753
18.9710105514709397
17.9080474998978545
17.0722227480177793
13.5107995089169322
10.76262253141849
10.3717842288784539
10.9522576807932737
8.1360337849779043
4.39241706099705542
2.81918008831396349
2.31736038174443992
2.06359802138425596
2.1778180414104833
1.16807628717235534
0.722663645018344569
0.958252464172340779
0.699595265901969299
0.629911778924379995
0.728915346527276187
0.606614722251511473
0.532839870885978284
0.637300507215471046
0.784025390399109234
7.98644097476630943
86.1075780962072201
660.211610036588354
1.61400129648064494
3.34114412814527828
5.44764791462179598
5.60177340589653117
5.15901323407862034
4.72443690334770583
4.20850202813798813
3.93697325173842394
3.88827789225667697
3.93192199874760728
3.8047593916825484
3.80702813825830955
3.29311180177285046
2.9718580476241252
2.39856542723152399
2.17977146078894801
1.9406409348132847
1.62304000746923949
1.50298856579670748
1.62516548314290166
1.77752952857682778
1.52165168772338766
1.26454036761710542
1.05546565769303125
0.84867038974151765
0.589801150250530926
0.47583131814930546
0.508392589703638653
0.471970240378973727
0.435018299796481045
0.427433463666109792
0.416843772750539521
0.397909458524278947
0.46524657953819859
0.677668752051762358
2.70301180835316401
19.1325450285649765
298.36126893572532
1.97585898604718047
2.57817296528232776
2.8508976396036978
2.78729119210238396
2.46697191911706071
2.24015463403393067
2.13680896563398015
2.10403031871493162
2.06025404752697217
2.01186849400000645
1.90210967129297925
1.80022447887811454
1.56517947921446376
1.32158750415356074
1.07586185621232167
0.941763682057715545
0.858293036057462766
0.807644235595419202
0.795671804363730972
0.839835002554704113
0.879146882214181691
0.8353290969638556
0.708312079591296495
0.558849003759326113
0.429182962256673073
0.347568101406097174
0.290917878017070253
0.278457027473730911
0.267710806808398982
0.261286024252865734
0.260801017902455801
0.264182739200966243
0.249823071219775206
0.271522704598073483
0.389629781723598856
1.2262461496372743
4.28796102155700254
142.636856103096676
2.1630871551770996
2.27187087908011831
2.24953833330408814
2.1612521791407211
2.02073209617757232
1.85875049874262666
1.70671886811079299
1.59617260589087029
1.49203091503365437
1.38600968603345076
1.24312848829199019
1.11829422078631491
0.973962625695996786
0.831319521480323731
0.710145728791523601
0.619413568358537003
0.55861710754159799
0.527751102720846799
0.515463907758475059
0.507943075501738672
0.487714184212188151
0.440820004948576205
0.350876891449779293
0.259642003870367954
0.184848110428917578
0.140190150145990233
0.110068974456182578
0.101759086815155775
0.103298478392839121
0.107184610144895109
0.109794846421918946
0.11376604024721293
0.10510580476302267
0.105087569564589201
0.120317811710245026
0.636887277150249842
0.614087709535851012
61.5748419058795662
2.19678815669941496
2.20622930992047195
2.1443992877077469
2.0291649702373129
1.87849497013264388
1.72022397964784401
1.55899460066316609
1.40340879916591588
1.26011784215214662
1.11582606498413917
0.976713675662963854
0.856824648065721561
0.744683971736736172
0.643492711734544476
0.552084440808730759
0.469673842291489452
0.404219327952932694
0.358490242223996614
0.327045039026070516
0.295382254793851384
0.250550285949854512
0.18753823636724487
0.116322521358694919
0.0526635346418673489
0.00565640073174022984
-0.0198388452516675695
-0.0336797464672988767
-0.0361733082172911447
-0.0304979068652512231
-0.0238582263668573047
-0.018141047269626065
-0.0121508753349068854
-0.0170618075362647392
-0.0294065367323484983
-0.100714300565237447
0.353754859189058135
-0.564743684244186639
25.3370587220416894
2.13580188501929547
2.1369458782426749
2.05761853043762466
1.9186662396831089
1.75576710585633711
1.5941284924499266
1.43072862020839087
1.26821431983846566
1.11427954962921194
0.963059364532025453
0.830445050200781409
0.713922146562834148
0.607939412711719807
0.510512949661965698
0.422664596005262627
0.344151413419285679
0.277418870057456579
0.225900785175212837
0.17970558572792894
0.127995307338214293
0.0659982930765814491
0.00168687831308766967
-0.0538608270184726123
-0.0978016393414685714
-0.127440420652044528
-0.144106274802669021
-0.152543027105875639
-0.153006130036517751
-0.146494337273839426
-0.137134305839875958
-0.128489165832595176
-0.122096866467202414
-0.126922288428146013
-0.144144096057680748
-0.264269101159036346
0.19091199346449228
-0.794971650067390456
12.0670513239155639
2.05465692053539861
2.03581190593588346
1.94382574651139217
1.79970551402796231
1.62946018148249028
1.46040067731198753
1.29411545248197979
1.13220064188965486
0.975682136266695199
0.825539795955251732
0.695475434460642861
0.581830082602988963
0.480174401107037463
0.386393690797841138
0.299588709436635403
0.221060869792968351
0.152442224064995635
0.0938530981571985556
0.0368091274937285551
-0.0250503072785597247
-0.0884929267249368046
-0.144532170172838925
-0.187653770621880156
-0.218751473370438543
-0.240121064379320792
-0.253290357612579453
-0.260435964188563185
-0.2615524245899431
-0.256766383795791864
-0.24839569607914469
-0.239282996401640524
-0.233487160657774639
-0.23306856092810524
-0.24557984477820316
-0.390235083207611355
0.0573655676360631528
-0.740604405245726127
9.70482238214151494
1.96146638686953279
1.93246660176913254
1.83952100373167804
1.68173559688390184
1.50003552131559736
1.3232352589275358
1.15317965294824498
0.989433249221375544
0.834667036623237824
0.691582448760724278
0.565040401805140924
0.452647613021314621
0.351245267971526109
0.258304601064873518
0.172811224249604711
0.0950356586719862673
0.0257380215511320287
-0.0378109810625943954
-0.100058369527861846
-0.161142977873122595
-0.21661604097590037
-0.263108770242223788
1.85597501710634871
1.83351053931178187
1.7413908274470995
1.56309290357861408
1.36576153528420474
1.18110944702658083
1.00759739698987993
0.844151960747939523
0.692734949715513082
0.554638838205558482
0.430889153220693988
0.319784168067471786
0.219142291883564599
0.127332636949211819
0.0433436462661889177
-0.0332845508513961441
-0.102629385029399556
-0.166825150378115961
-0.227631533883682735
-0.284509696164093162
-0.33452615545439246
-0.376785079729415107
1.73591573550322908
1.73671552443465615
1.64817370345219105
1.44002074732047891
1.22453879195381599
1.03266508638090393
0.857563738111591922
0.695968513360492036
0.548160815870988527
0.413937520001042669
0.292983841203784845
0.183850319333000556
0.0848350014414274156
-0.00537443247411140135
-0.0876772305642914418
-0.162630677690212666
-0.230895194195174014
-0.29348589503044753
-0.351588762756051887
-0.404753352174229919
-0.451945773815522811
-0.492357285707517467
1.60945622522875564
1.63839480512749414
1.54866601835614137
1.30123042422463353
1.07238684317570709
0.877027520093559554
0.702969226692879978
0.544670663142123646
0.400783610245226685
0.270364182669375008
0.152469232634600882
0.0456828159686362145
-0.0513838397472179409
-0.139777544558010947
-0.220236424853231583
-0.29331601432591814
-0.359794298734341877
-0.420577964523227488
-0.476465713192901541
-0.527215137216611174
-0.572288431869563241
-0.611016979605241484
0.124260110923127165
0.00960852352290264555
-0.0946015778846727162
-0.189495561142174695
-0.275867312410955634
-0.35431384649039166
-0.425419933500626568
-0.490014257486885096
-0.548992059505521546
-0.602918468779195749
-0.236825242414807624
-0.329310382155227677
-0.413463819805090171
-0.489770977895204629
-0.55883594049359675
-0.62151182013457329
-0.678616873909784202
-0.730621147934624071
-0.552379064332263026
-0.626467209355388244
-0.693464641612235644
-0.754204824872701129
15.1053224250598195
34.9686013375455502
53.8114075753635319
70.1603373840067945
78.2499201302927077
79.8061800691434655
83.3992703031371008
93.7472336408799265
108.940613542062124
117.248747123274413
131.392353922787095
141.979479181215794
153.642977851426821
162.170029506036656
164.335629151090131
162.566048265351213
163.254840668788063
166.248019744832192
162.176402129859468
158.952440835567785
152.358444729876595
151.809146432433948
154.047768814414439
141.086951031026047
135.59212340603878
139.803192318171625
129.13234406075469
121.244339406484599
108.927706326705731
100.49253931387922
96.9462989961137396
91.1923194825433541
77.1566134818180416
73.0913686415058663
83.2682224098535926
165.275870727496169
608.806267817710363
1425.6667810819813
1.74075487832280285
5.92236414748427542
11.6445670796105176
12.6394222363422077
12.9070306403323158
12.9263539055789334
14.2594538521027641
18.440985917978491
25.507487717721574
28.7675794028728262
34.9612549217354882
39.4222369753966007
46.1129707407492049
50.8854349343805552
51.5938264441122101
49.8618537655490002
50.4779391014542114
53.5470714896983111
50.8968862678260905
49.2810583903014106
44.2390803893758431
45.8864378545182205
49.2355131299649145
39.1347868942547592
37.5457637318614701
43.6155020619641789
35.7809778597739694
33.4631655612842991
26.5809397649361614
22.3104721931511349
22.5726371094793166
21.3482002955741947
13.9522337182971512
11.5875852693800141
11.0494292415829953
29.4105411882077377
246.680325047374765
1080.50683416807192
2.0521662353052732
2.36854189280546779
4.5599258564621179
5.29391732914005253
5.41117812282245048
5.16941223300135899
4.89642111546112702
4.55928935139190994
4.33588048996616848
4.70234412312214722
4.33917901154829089
4.14013425191540474
4.03202631334714834
3.60254322361967905
3.23158559326197192
2.69011844362106745
2.16699411729047808
1.7673589404054586
1.83922206817032396
1.61814268118979165
1.59928867125352481
1.52470538933707234
1.29518799409409979
1.4384552495304157
1.17197191315227278
0.815422524057233922
1.09922535565273627
0.852821498242785525
0.890829504787564397
0.833618038965343588
0.708495860722036408
0.662744135460866746
0.688364260340737388
0.68481563170875126
0.818152690706161145
6.20249531162006473
66.9745874661328031
571.275601726647778
2.16906427969074356
2.2947967162110654
2.70902581211132887
2.78824372157452327
2.66253092507211697
2.44044429134690866
2.27071044907183017
2.22256816373526567
2.22933709497626253
2.28440000256712494
2.17459855727109819
2.00926323039133203
1.86928997143791698
1.68243776360863917
1.48052756207464387
1.25945087157020219
1.08697928741182404
0.973517355362158332
0.954766765357604408
0.935109040530823332
0.957472336150771763
0.937250904373368554
0.854497306387543176
0.804620934225701356
0.695908115334278543
0.556684796848879504
0.575107897204494511
0.556614705143616328
0.557320296052655206
0.545287930578321922
0.52507163845160254
0.51027005614288945
0.482895489748674245
0.492604314658626641
0.670294573294825557
2.37038636645025536
14.5274574354344832
260.176789939080777
2.23039174047064304
2.26579463575255424
2.30326122691540647
2.24563039365514516
2.12310609526773719
1.98226248329827559
1.84478204874122031
1.73199591905400041
1.63235362043676147
1.5428535971430315
1.42389526398525579
1.29205320392617717
1.15971251619216553
1.03292035478746458
0.907126031802820809
0.79999966228762498
0.724658787964667761
0.674621756033208508
0.65438122476726257
0.651478662216382065
0.657494415475912364
0.64149424869185534
0.594280490836244457
0.546816042129299351
0.484632807333993054
0.405276372505833704
0.370700232919816908
0.353248902104465134
0.347067563399257151
0.346777356829700678
0.342909861822838669
0.335013564858227086
0.304078449688037988
0.285600753453020828
0.362585785348027434
1.0788048086477966
3.36375459261633125
125.202440577840491
2.22743608789514447
2.22855984608700375
2.19392085697919059
2.10972729295292671
1.98212890981970835
1.8350977212015076
1.68833163567140909
1.54353349182999189
1.40175406805545633
1.27069982475235155
1.13638588469223523
1.0108741302359725
0.897359114039109729
0.793471980673072896
0.700186957448147074
0.620216472861952806
0.555198165311198144
0.506101739935435724
0.474707891053284814
0.456007908054079203
0.441798855322606321
0.418856968600955781
0.376370504590927246
0.325383821311330479
0.274508206217498274
0.220991480970881948
0.183577332545331484
0.166960034094785437
0.165150702206695255
0.171804085226089032
0.180541460422008915
0.182712869186106963
0.158611726288413246
0.127252243143963772
0.0993926939438134482
0.549808774865661265
0.259127517445826516
48.6631242611916832
2.15731453387813898
2.14551881895927421
2.09847829430531796
1.99859665977320278
1.86153602562399878
1.71073241568278256
1.55674968704859662
1.40482252683196762
1.25399061350861141
1.11080297349919688
0.977379621356224582
0.858408570581963515
0.751423981120285078
0.654149092426903001
0.565393146835041605
0.48674525868266838
0.420545015730932503
0.367697806217680001
0.328102105784246034
0.297959613989608574
0.268932189503978236
0.232068663645620621
0.184839649441381315
0.130947163850859916
0.0862662266553475554
0.0534624362377114082
0.0319802075250703588
0.0224277954395610823
0.0231062920455104015
0.0340601402311180301
0.0506128978852992129
0.0630236263069287039
0.047663365207976649
0.00693801806776228602
-0.110691271093815824
0.28779895905606645
-0.684447852632015241
16.0867299068182774
2.0782736334189682
2.05908809720905506
1.99717678101932261
1.88530582389048007
1.73754638225673785
1.58086393466074293
1.42335727444865245
1.26823369859209256
1.11868874661018758
0.97419715768444648
0.842436712402559795
0.725714483187827608
0.621587416982613883
0.527981398945271629
0.442829700700888007
0.365858226186637547
0.298578198188254706
0.242839498010093413
0.196772885402060727
0.155575257088042651
0.113007669311891767
0.0657651519852635591
0.0163627824180172521
-0.0286598321289178726
-0.0626412667761396813
-0.0836894222080148964
-0.0950556219947407133
-0.0976808339979432505
-0.0924093702088656377
-0.0797332119884157642
-0.0622809886139514823
-0.0485762976454615636
-0.0570158894665925287
-0.0970705144160594058
-0.270697036697980287
0.149401575356371552
-0.662599528046220243
10.0948089703542507
1.99130289878385924
1.96969554496180499
1.899644267552977
1.7741088625664978
1.61344416923387191
1.44867418424844074
1.28714763281639288
1.13133443699589664
0.982407723554421075
0.841262576020431307
0.71328071506798052
0.598991041889899156
0.496604451505243905
0.403728765772566778
0.318939435814682426
0.242463935673285169
0.175378183007968591
0.11796108325742094
0.0663506149114490018
0.0158267534859153347
-0.0333623340354394227
-0.0796402717693079909
-0.121242703750986114
-0.156163259766556983
-0.182518032576251432
-0.200247106987173629
-0.210142928478113
-0.21266140202802597
-0.206989795160042234
-0.193799251927396332
-0.175798567047769527
-0.160484239846704346
-0.160049967837074592
-0.19290058063443305
-0.397810245409285557
0.0125209713713074766
-0.857814622656025705
12.0535570559408995
1.89890615981025168
1.87716930367093893
1.80673634352627732
1.66347682464040125
1.48691560760046038
1.31332003277141918
1.14766204809041716
0.991113115156311508
0.843896542525834015
0.706711428755303794
0.582036671341846112
0.469739493476145187
0.368336243562300769
0.27617079616886886
0.192227054272271713
0.116430513659929291
0.0489649061897516891
-0.0102835278431734345
-0.0643296247792237708
-0.116251616427818005
-0.164254544283153558
-0.207187768134561745
-0.244553156676564298
1.80067602449157849
1.78331559455088695
1.72307672795471567
1.55322185773026256
1.35625513562440814
1.17339112615879548
1.00436764325648009
0.847754768007337844
0.702559834752618961
0.568710492311399918
0.446906710369384008
0.336679527956917246
0.236760776715093213
0.145972337585382528
0.0634334203850992484
-0.0112604114005250278
-0.0783545196557331458
-0.13865396823186904
-0.193325274805081992
-0.243878921726968789
-0.289795416342855661
-0.330211362859412882
1.69738471185830986
1.70080820750498907
1.65322519625069919
1.4407039633177765
1.21902255825956907
1.02734565728724858
0.856641901393884853
0.701241375071137929
0.558630788653597055
0.428003761691424067
0.30910359606471749
0.201185154792523857
0.103148814043696024
0.0140143928600224843
-0.0670019495758371608
-0.140397580576857584
-0.206580619138214683
-0.266214067987831315
-0.320279353135725309
-0.369482894656687044
-0.413804193069886139
-0.452714893846348776
1.59561373703574061
1.63268610130973402
1.59257819299929126
1.31736695870281917
1.07082915542484192
0.873937204984512217
0.704007903380842848
0.551288340551146838
0.411962284597951145
0.284771716508722017
0.168936660871934929
0.063537019516448856
-0.0323993550354553239
-0.119704440014298585
-0.19905786694095462
-0.270971999582442447
-0.335942073085146564
-0.39455323605620829
-0.447606535296273478
-0.495575849909978494
-0.538463270368990554
-0.575986301127407785
0.139035015499300973
0.0264699175053011437
-0.0762170513692128626
-0.16986154018720212
-0.255145107672442917
-0.332655301238271139
-0.402912000587474228
-0.466453918681792201
-0.523862152839988937
-0.575732851491141506
-0.217898952658129419
-0.309065512873285986
-0.392156191603760584
-0.467679826308865509
-0.536150533720854305
-0.598108973532258448
-0.654107959932778593
-0.704650051791879228
-0.530585868963376672
-0.604024736879316126
-0.670628365733618725
-0.730915221992551656
4.30552592372753917
7.08855964542528216
12.1021644426600581
19.6554060195191447
28.3543572903809604
41.0230302555552413
50.2217979428968704
57.4025516363745893
63.3856075765353353
65.8529428715439451
67.9766146804867475
74.8483697620627311
86.2992759723917118
95.2823113456646098
101.448978369751615
109.136529123416267
118.644526905596052
119.961121040742142
118.391242033129572
121.884999853890321
127.396098415014109
125.603474566311064
117.666461826264367
113.483163457477431
113.568475378232989
106.511822228594184
102.597616113376304
99.9781149616582638
89.0616972090053025
83.9168876080498478
82.4461726160576376
76.4031825577071118
67.7072828358896146
63.6097896467812518
65.4674436926640055
129.577892711922345
521.753883473451197
1272.62530590354572
2.65287039549737624
3.20388159711782938
4.54522239471052281
4.86169853152517017
5.00381121577208976
4.72301738691748874
4.648582751343044
4.83828230665940584
5.44349018191800837
5.99862814558583413
7.20877638502486295
9.35725681639364382
13.2950824843042277
17.4438422354424247
20.0621872144026909
23.3976773674448921
28.0211267659962004
27.6131839624855644
26.8784026128761724
29.503537691617467
34.2664328932330022
33.2626571490154248
28.0932321041163959
26.9593982543409965
28.5872847999718829
23.9684854685076374
23.3255820213670972
23.12731869294457
17.0959969510587442
15.8524445791418884
16.5046708797333324
14.1878877150461875
10.3974770212164103
8.92896332290134609
5.9912079825658715
19.9996126963021652
197.247728158138045
944.101549690393767
2.36552222423991898
2.51954075158877622
2.69523915928801383
2.79347338635647668
2.78644711737864181
2.66388689854406469
2.54197681879976223
2.53017876173103584
2.57620360624014699
2.62469917769648386
2.77393284637848714
2.79182402956490128
2.67676471412848072
2.50408370513756795
2.30770732873933992
1.98280981501825826
1.58735177603102828
1.4774283782159463
1.37994726021504288
1.29176434168911758
1.17975827212632223
1.24203908626103621
1.35758048638423667
1.20307682680763239
1.0201450704160917
1.1738420244439125
0.992661348103788255
0.869625853212688371
0.883111972989392258
0.791653956341440757
0.781282508669019493
0.812871221470347072
0.737277261530115524
0.68965485396881987
0.879749136219596162
4.69481220294174317
50.8347533326656844
487.127815984656479
2.34318790818485034
2.39067480020650969
2.40555885123446878
2.337004671846866
2.22772334616006873
2.09128247401711054
1.96300138407471381
1.87692418188743448
1.80843183533834129
1.74396731626487034
1.67588290652684346
1.5750309145154564
1.44902791328945435
1.31459198257315313
1.18287659353678865
1.03772035679791186
0.909129388473900013
0.847411155138336536
0.806075231778624723
0.780933654186126591
0.758798652335781476
0.764562161002932728
0.774272595277590736
0.749855788738094553
0.699988365659713452
0.68937653145780653
0.65398886424157765
0.618283449328560164
0.615668342789978729
0.615101215043960536
0.619757724875796945
0.613392953600733537
0.549500261390791556
0.515617778150587847
0.680340774847983942
2.01745531679512613
10.8751044041836096
222.006137405066539
2.2869890047584116
2.30870341135737034
2.29104055224341385
2.20538854353977154
2.08848302531423791
1.95359796966520194
1.81690795151069251
1.68569893720918573
1.55896531703623586
1.44085467775603204
1.32569526593451359
1.20414475541590638
1.08127102287970223
0.968233894577244958
0.867415303657135706
0.776024809000262716
0.698770065874639745
0.645468038720464099
0.61058397020518218
0.586516935673754736
0.569123358829366932
0.560800896558396378
0.553703806598578652
0.538210053100933394
0.506147384829748748
0.474639940448032149
0.446965106504437992
0.424042492641857449
0.41547338604834716
0.413311221070018719
0.416006382460204382
0.408810562271225142
0.362013010860309015
0.319924723794334009
0.375493003549632776
0.97385002468603965
2.27098182522903169
107.176246463876907
2.21649520886801366
2.21498914739121711
2.1771292943419831
2.08736561132173115
1.96326282236656002
1.82529333962636264
1.6844040145794934
1.54327612705155781
1.4023140412880728
1.26729542812476792
1.13823042422505027
1.01509307223727951
0.902978705278831284
0.802370280057186469
0.712459079193025979
0.631828620357628323
0.562062729167415509
0.506927558014150681
0.466469185561242061
0.436451312210592857
0.413487666441383683
0.396327369971580024
0.376664089622498421
0.350378201970926728
0.31678685543721663
0.276857105968525197
0.247957430885940022
0.232733476339264556
0.232953067887886833
0.243935627403470079
0.254466830621859486
0.257448859373301531
0.220188183670168902
0.156752013036600357
0.120121910228551787
0.48976097497248483
-0.557509250849217874
44.4198933304292041
2.13598374531438084
2.12473507860010491
2.07132347246396353
1.97391070481679765
1.84214203370288709
1.69784837514425124
1.55123880866929253
1.4059491465936258
1.26136174987735483
1.12263601519349776
0.992602798989319024
0.872961597702054504
0.764878661291658823
0.66835568379395649
0.582345129139140938
0.506221521232759208
0.439764340581722313
0.384141366366744119
0.339765046097377899
0.304572884288635715
0.274390388815782926
0.246572799458716241
0.215921685516979656
0.181519318482196601
0.146294987202300497
0.114251223386561573
0.091237640817488086
0.0826561294331361607
0.0890675989276997759
0.108685085998417086
0.131474720644360277
0.145923490923311916
0.115604095008938534
0.0291710897622052823
-0.0544912641857354663
0.301863340883209763
-2.44774962722518152
14.7027854302752701
2.0520401602997036
2.03654742946374023
1.97178113306379688
1.86395792435222973
1.7214725130376145
1.56947286350676962
1.4176228533435169
1.26940828869439071
1.12509146373458013
0.988013769759263472
0.860609706792520912
0.744370084109384433
0.639120459322917722
0.544533842894222908
0.460000258173373533
0.384609703461346819
0.318700785740358761
0.262541087585755673
0.215735062007655243
0.175782126694479457
0.138865889728221781
0.1017946478796381
0.0646986186314280065
0.0303618644215531974
0.00143182947395281701
-0.0212989260164424543
-0.0360111221252621405
-0.0407558450610426837
-0.0330621931043135753
-0.0140726177927530394
0.0117530337919021788
0.0363106366009281478
0.0236765545600960969
-0.0725345939881141266
-0.23004668103988779
0.231648340435191225
-1.99831618185215376
14.728032132172352
1.9688925855728947
1.9521917440237595
1.87956218211237092
1.75697255104472738
1.60026442913478895
1.43926089576028637
1.28240481560256869
1.13249552072993409
0.989581672690906577
0.855015278735784312
0.730524358873254398
0.616856387578727183
0.513729672389602099
0.420545847994929112
0.336574350886690965
0.261436343223133694
0.194961255063360372
0.137738109726251112
0.0888835826908325188
0.045328295413527897
0.00460597964016118411
-0.0339475458601863345
-0.0697732254584039202
-0.101446703011760286
-0.12780841209617877
-0.147900812007101146
-0.160192026955670364
-0.163357152958418683
-0.154939960687789036
-0.135344076873638253
-0.106958228843266334
-0.0726131471615536483
-0.0637286675695554194
-0.14929431404826965
-0.417644421921448683
0.0606395113147899512
-1.54476403354814806
20.5423794139431379
1.88843461310448424
1.87012534202806435
1.79607470310801887
1.65235358834849544
1.47720458950447786
1.30612908192193222
1.14436525940772316
0.99310534999448552
0.851327144300327854
0.719118917428342996
0.59725273458753203
0.485949831812938493
0.384775141031979517
0.293036598267220727
0.21010864885253322
0.135684523336736307
0.069441666503423205
0.0114089635995173744
-0.0396441844084676198
-0.0853735670238924271
-0.127045735076500632
-0.16523219247745291
-0.199323473210448965
1.81073796519680008
1.79113546559272629
1.72527955198186023
1.54952221965755044
1.35026354530469428
1.16851845112262387
1.00265989568639835
0.850854683636593112
0.710482424504653043
0.580682731790497675
0.461418360863980137
0.35248765055264264
0.253295931638683358
0.163198854705000951
0.0816362864395170362
0.00822337256253669047
-0.0574028815876241882
-0.115624454026435286
-0.167451454728768656
-0.213807346922217922
-0.255339588195589329
-0.292685581772166969
1.73860978577073544
1.72935111344328374
1.67473733288799154
1.444275877274944
1.21691696358776635
1.02462886788237206
0.856499802056913007
0.705461495114621862
0.567132094270206943
0.440021659401713894
0.323513604461975746
0.217056711856181028
0.119980235976247407
0.0316775211387583244
-0.0483952529843856283
-0.120657674506170931
-0.185498207656700442
-0.243378555285836962
-0.295051672154262645
-0.34123700143928426
-0.382413238045781423
-0.418986486004935266
1.68457546662294178
1.70654823525260668
1.6359900528462592
1.33485525185808607
1.07200145498416521
0.87314459749255291
0.705228971877100541
0.556534489886841843
0.421019188021144464
0.296961951233530863
0.183412773739505264
0.0795786559152642514
-0.0152370687543212924
-0.101605466238139153
-0.180040842695630365
-0.250961801023782849
-0.314778152908118392
-0.371948842168353222
-0.423078844283473421
-0.468737753555877434
-0.509327668109024634
-0.54510941011651326
0.151453018475196322
0.0411124396521389546
-0.0599346137175276183
-0.152347450596165057
-0.236639216513971462
-0.313274375751723566
-0.382666554263058734
-0.445230413225951915
-0.501413692017131929
-0.551729121832431613
-0.201356874661363872
-0.29122886921458524
-0.373310446221150727
-0.448014543974486701
-0.515741135652256766
-0.576886426979612121
-0.631870725645030662
-0.681157093633587563
-0.5114953133616158
-0.584172185898511387
-0.650137090543264851
-0.709757436335717085
3.30798806041858384
3.15275655791835252
4.10517311707167298
5.2688506485526192
6.86856751699643286
11.9066465830915398
18.4265679348087943
23.7640826193732906
33.9578057967874472
44.8443982454410346
53.3434093159543607
52.882978915508879
52.5177648369840213
59.9767038613131547
62.7638614308296567
63.7121468303808243
63.981745634972981
67.657709627358571
72.8889900035101448
79.315166914070744
80.5831764674278759
78.7541561427670445
80.0266734347098492
79.6875094325576754
77.0288642777623238
75.1573301983846278
74.5330687042543047
72.4758881959124324
70.3589664576927873
67.4288715506153977
63.3966250461867915
59.7315185191793674
56.9351112685985612
54.0637515864203735
48.7206636665505997
102.59860357574982
447.662296575878599
1127.55959809458909
2.75346807615949718
2.70006967977555501
2.79041554844271289
2.92356143437250715
3.10254163183502385
2.95336224164549055
2.85818657442091384
2.78314665846182763
2.72022248081732698
2.78577610872232873
2.78838466137524721