/*--------------------------------*- C++ -*----------------------------------*\
| =========                 |                                                 |
| \\      /  F ield         | OpenFOAM: The Open Source CFD Toolbox           |
|  \\    /   O peration     | Version:  2206                                  |
|   \\  /    A nd           | Website:  www.openfoam.com                      |
|    \\/     M anipulation  |                                                 |
\*---------------------------------------------------------------------------*/
FoamFile
{
    version     2.0;
    format      ascii;
    arch        "LSB;label=32;scalar=64";
    class       surfaceScalarField;
    location    "0.480000000000000204";
    object      phi;
}
// * * * * * * * * * * * * * * * * * * * * * * * * * * * * * * * * * * * * * //

dimensions      [0 3 -1 0 0 0 0];

oriented        oriented;

internalField   nonuniform List<scalar> 
20390
(
0.000166880485000492948
-0.000194875836548706697
0.000112818571640921816
-8.48232194009693408e-05
0.000282618097434949645
-0.000185458606669035265
0.000202371316681880254
-0.000132650316105089016
0.000364474115323907915
-0.000136997198630385987
0.00022452925151707971
-0.000169388070439032155
0.000423726772807395255
-9.91249709875517915e-05
0.000231830521434257976
-0.000191958208769429716
0.000470456336323361152
-7.60528834225871142e-05
0.00023718965664676502
-0.000207866331322189592
0.000508489849144818902
-6.05415363775846973e-05
0.00024341877671558236
-0.000220910750328298677
0.000540942220342164747
-5.08108669051019266e-05
0.000250183642504337345
-0.000231825147216182208
0.000569320349861430521
-4.39036824571190722e-05
0.000256421702406968422
-0.00024089614908563066
0.000594850885649647002
-3.90262300102336941e-05
0.000261786512561170553
-0.000248290814999946677
0.000618028165365160651
-3.60218801315090548e-05
0.000266953602219502622
-0.000254108998300232424
0.000639153020673232492
-3.314061056925249e-05
0.000270531927873456633
-0.000258516174296303874
0.000658553066201470827
-3.13602616553316292e-05
0.000273280299731616628
-0.000261320090240156979
0.000677216814305826994
-3.1135433421951025e-05
0.000274882814519921727
-0.000262411135114577613
0.000694828263765230017
-3.05784024525137155e-05
0.000275168537752399039
-0.000262201589346634312
0.000711230083760229525
-2.96937841179428053e-05
0.00027448017589865888
-0.000261188215148342969
0.00072594185510765723
-2.81078904168584169e-05
0.000273092183754747645
-0.000259696062431991558
0.000739885736305057095
-2.76352956482779223e-05
0.000271227320784648705
-0.00025753589947286634
0.000752962253423235446
-2.72554709786901732e-05
0.000268608359594006739
-0.000254429400822777556
0.00076562306154224428
-2.81013715955417999e-05
0.000265986456758607402
-0.000250545892520562306
0.000778079790833939122
-2.8820856663687211e-05
0.000262661761052248482
-0.000246297633682642306
0.000789826237863008678
-2.8674900121677105e-05
0.000258696643984112446
-0.000241768189587025122
0.000800171803871439161
-2.73542130107333596e-05
0.000253767519762242589
-0.000236758871129646065
0.000810254911306502101
-2.74720867194848516e-05
0.000248676942652329921
-0.000231287962792808095
0.000820163755254339809
-2.84800753757856828e-05
0.0002445527727800892
-0.000225981542495550289
0.000829370034569086373
-2.811052888757038e-05
0.000239599120305694613
-0.000220694872951195228
0.000838350031071694447
-2.84805170818307614e-05
0.000233690099872925136
-0.00021418958136348374
0.00084855918439970745
-3.18587280750523541e-05
0.000228877039397808256
-0.000207227465841287786
0.000855861986514437276
-2.86994102214546692e-05
0.000222623566344386589
-0.000201226958407744024
0.000862622730030332798
-2.88718206701590492e-05
0.000217641426488765526
-0.000195530348692391929
0.000870502311821413628
-3.0757215202050655e-05
0.000213562050969486538
-0.000190684416622418767
0.000877743525896131061
-2.93607072624467322e-05
0.000208563714398164664
-0.000186444220790489318
0.000883349611577523286
-2.7869454142181008e-05
0.00020301917586798069
-0.000180755807708294454
0.000887348326272865756
-2.63883689524388847e-05
0.000198619485977021893
-0.000176229832226997246
0.000888831856376672675
-2.31865328973795759e-05
0.000195062617719876766
-0.000173359615034207582
0.000874523528940041712
-6.9815529294215751e-06
0.000192704548913657614
-0.000171414667874475555
0.000770309120942067288
8.26749074093786359e-05
0.000190939270859071062
-0.000169399769404386132
0.000443339615135195336
0.000303743760671641651
0.000180884995616779177
-0.00015765925109205431
0.000418559566353472463
0.0001302755081380708
-0.000105495465799535843
0.000270155992742125272
-0.000380322499720129855
5.16432546344642912e-05
-0.000136352558416005614
0.000375904741465409725
-0.0003242519467563889
0.000218482851216280933
-0.000185438255997195429
0.000430860557563207875
-0.000252229775846405703
0.000269546708039458292
-0.000209269943161694569
0.000466673904769670286
-0.000201866224056368275
0.000286106811456557765
-0.000219178890792141162
0.00049707509302777573
-0.000167848012483175012
0.000287596153137214812
-0.000226202200905674421
0.000522985384076622836
-0.000142621224271809893
0.000289499618439137114
-0.000233330223346532638
0.000547764406536174905
-0.000127726343436243626
0.000291629796291503285
-0.000239493345731956321
0.000572420180616347316
-0.000115299398898901264
0.000290566087667354681
-0.000243826143357500044
0.000596766556319132456
-0.000103993618578177049
0.000287605050095556143
-0.000246984035484157935
0.000620201328554806103
-9.59350308742365802e-05
0.000285725734168974007
-0.000249247364934094304
0.00064292693518032309
-8.87198863174936704e-05
0.000283358237090787209
-0.000250504585854238303
0.000663393628583053307
-8.12950087871449213e-05
0.000280257806971635792
-0.000250789770695182817
0.000683383296351063128
-7.89263738103852569e-05
0.000277036627983179924
-0.000249235369179805048
0.000701528786808564898
-7.53757509564143241e-05
0.000273315564416423587
-0.000246663712036361451
0.000718600449923309775
-7.26694920303538297e-05
0.000269380346490091717
-0.000243476294090011632
0.000733829367270955046
-6.77087498489859461e-05
0.000265077694208667883
-0.000240705737892634683
0.000747411176900054626
-6.41508240051524284e-05
0.000260932220405148141
-0.000237998492992520783
0.000758226324801225277
-6.06929945854246193e-05
0.000257047833079632724
-0.000234425456728882138
0.000767877070978814874
-6.09909949213285614e-05
0.0002540650710045649
-0.000230826194587583462
0.000776459221890757139
-6.07307060536073948e-05
0.000250509174566387329
-0.000227181474144527181
0.00078381602436754965
-5.85405038286159179e-05
0.000246830396402868883
-0.000224321592328179218
0.00078925679257450961
-5.49863946402246655e-05
0.000242548208412160532
-0.000220356794675197719
0.000793513510923709079
-5.31959545880677392e-05
0.000238666727757634898
-0.000217199582600988915
0.000796943882089926102
-5.36650223383601608e-05
0.000237054732539458831
-0.000215300164575228176
0.000799176044666669418
-5.13455147510708735e-05
0.000235329690325165869
-0.000214326874932971052
0.00080011406883193656
-5.0786501347851727e-05
0.000233288298114085372
-0.000211920343273719336
0.00080268444419560978
-5.7865890723433097e-05
0.000233914066290474382
-0.000210477280721390209
0.000801948514307377312
-4.95372246164604109e-05
0.000232085585186907759
-0.000210511839420302559
0.000801003101939585572
-4.99255046547558441e-05
0.000232379620319828767
-0.000210380521196579061
0.000801746969851114448
-5.38508333217582041e-05
0.000234234990982495601
-0.000211885239161348123
0.000802350202914564885
-4.95629513325197705e-05
0.000234806332052870986
-0.000215207321878073594
0.000801924767710976579
-4.66567666089798098e-05
0.000235046685806585172
-0.000215833939993572473
0.00079984958825892133
-4.35190393973634111e-05
0.000236965712172346573
-0.000217759862630602976
0.000801869402223371556
-4.35315494678146456e-05
0.000239441868185570378
-0.000221116663958056655
0.000812497790721807066
-3.61208680623196707e-05
0.00024244843230737125
-0.000223937503989183348
0.000749213027730184235
0.000126721029770525856
0.000240794052423644675
-0.000221555419206077283
0.000497375993849501598
0.000535517178154065396
0.000250774304167705015
-0.000230710706677614584
0.000883926127533348513
0.000248616789560470396
-0.000216607374134478262
0.000281910040452353343
-0.000379712354281299704
-0.000131861983359940992
-0.00015065820922213489
0.000352782536898589604
-0.000397563487331140748
0.000186217047144002457
-0.000183777999866208748
0.000390413063040357213
-0.000322009814572231281
0.00023194362686226053
-0.000199794096431209309
0.000422319736068393892
-0.000265918202601402043
0.000248157989105944978
-0.000216012671412896436
0.00045577996874059481
-0.000228020660627776091
0.000260439820588927705
-0.000233727408398564783
0.000485453728083752253
-0.000194891100770517352
0.00027057589148703719
-0.000247979778854471482
0.000508972229551580332
-0.000171142564621615679
0.000276750123799137206
-0.000256852404945245481
0.000529091458551847081
-0.000155529788361254866
0.000278373959994209939
-0.000258262803012119569
0.000546455698694875555
-0.000142679147881484016
0.000278492128341018778
-0.000257170836514571729
0.000560358678984360765
-0.000131573767525199439
0.000277213343695379777
-0.000255477577218554035
0.000573387536846744865
-0.000125709958422969513
0.000277078666248879301
-0.000253117444794601781
0.000581035885908449609
-0.000113410891059989452
0.000275712663006046825
-0.000251245129069053931
0.000588974519854375831
-0.000115955490061991798
0.000277497138279509455
-0.000248406652023145009
0.000595708968239547264
-0.000113094964384886725
0.000277562211334720526
-0.000246577440789268036
0.000605314717044386132
-0.000116546058253505079
0.00027876370441031064
-0.000244492886004281026
0.000613363165401049752
-0.00010883235894403124
0.00027697755565842452
-0.000243902390029443066
0.000619632071176371064
-0.000100884523842444769
0.000275752607791388926
-0.000245287799631540302
0.000624624272940232862
-9.69626855728936729e-05
0.000276027495999345361
-0.000244749994199675545
0.00062835893948592935
-9.57719494136299908e-05
0.000275523506638513001
-0.000244477212652661916
0.000625552114905977884
-8.61523816725107464e-05
0.000274280290308786731
-0.000246051784297304245
0.000617514844336360699
-7.15428920784623023e-05
0.000275682045274972865
-0.00025464237527410066
0.00060957748902562526
-7.09488730349325811e-05
0.00028006627951275429
-0.000256166432851570992
0.000602585445351750261
-6.84149027590973612e-05
0.000285473216556423139
-0.000263262220309172003
0.000597141749671980127
-6.75729904866676021e-05
0.000295712083992877219
-0.000276360428818108752
0.000597936937917397911
-7.1063574144463479e-05
0.00031237475076922221
-0.000293451893734632057
0.000600727121035132231
-7.78442263266946721e-05
0.000328484002276933722
-0.00030421646801614006
0.000605348004947137554
-8.54103240820888531e-05
0.000340850016628320538
-0.000317926463030428349
0.000613590991821111472
-7.86042104121420368e-05
0.000351141853668017804
-0.000330317838961796196
0.000619534501273600355
-7.17107205724005787e-05
0.000355291737935163805
-0.000339450008625327107
0.000621651954603756151
-6.88887543248248475e-05
0.000352059359989509988
-0.000339138866540758099
0.00062135258215729257
-6.1811815033974645e-05
0.000348883788910770722
-0.000336335532719125212
0.000616315062706607793
-5.40666188714376106e-05
0.000345600731963955428
-0.000333153348152463171
0.000610139225501292329
-5.27991214172678826e-05
0.000341150877050625022
-0.000325694947901562922
0.000593545944920852728
-4.55041011501888413e-05
0.000330936993316074458
-0.000312371139640485517
0.000587510843193850643
-4.87456508953617061e-05
0.000322981230648246341
-0.000304321298070330871
0.000545463959714641354
0.000149970202070238582
0.000285621000521177836
-0.000266823255335201404
0.000352934478092850796
0.000709351928829081457
0.00028313856330204444
-0.000264443816893603057
0.00121176082451443187
0.000274272906407982246
-0.000249173121686503533
0.000227426525391862693
-0.000412353265099923039
-6.14533232758429128e-05
-0.000133332335860576658
0.000273546948361438099
-0.000400443065193228638
0.00010401944437640306
-0.000147260314181254224
0.00031180613966053577
-0.000349442582007209346
0.000166593440358364094
-0.000177419868854153395
0.000353094106702536107
-0.000302313044983997989
0.000202997336337192263
-0.00020789047811996768
0.000383594493647891621
-0.000249353198829062111
0.000220554992843462883
-0.000229722825222663228
0.000397272614826168222
-0.000195394572968954691
0.000222506800199301217
-0.00023568145511996489
0.000397540954323676444
-0.000159550654414594999
0.000217332313564888937
-0.000229192572386317838
0.000392491402894613092
-0.000139727297571644868
0.00021057059456955506
-0.000221323535440693135
0.000387932547877392229
-0.000130179642804466734
0.000209818745980010852
-0.000217759356212999405
0.000386168199526511354
-0.000125352275189397327
0.000216629320417438217
-0.000221086381550481318
0.000384932698331691729
-0.000123580217435969924
0.000229088954628949687
-0.000229983120326024979
0.000383884389507482989
-0.000120366076809591083
0.000246735943930429414
-0.000238732400953710192
0.000382287638031625831
-0.000127331424731858575
0.00026069948001830644
-0.000247726763596865459
0.000386859818508932646
-0.000133240038230735274
0.000271103719989335427
-0.000255530841447505492
0.000395436223285626682
-0.000139178427930779192
0.000276513266185197297
-0.000262457347549185623
0.000406430997357703529
-0.000132666558413749032
0.000280294856242008553
-0.00026745543257214433
0.000414276021796586985
-0.000119775274845639748
0.000283027069720982012
-0.000271981293631090712
0.000415121837568970518
-0.000105358817759471592
0.000285516496824194126
-0.00027796614667030485
0.00041020895529564409
-9.86850510530813533e-05
0.000287907150892920832
-0.000280081167060377038
0.000406435195150386594
-9.12487477474575577e-05
0.000292350476479974106
-0.000283480339514911156
0.000409045790659038862
-8.1384590364776859e-05
0.000297925402092696532
-0.000290694244206470616
0.000416957787374340829
-7.6197639498232759e-05
0.000310176314503096532
-0.000312839475691930973
0.000434271045559569968
-7.67743669777214252e-05
0.000333691961650176428
-0.000342645734726749042
0.000459073911771086312
-8.03972562668385835e-05
0.000362683661908322786
-0.000374662306140674279
0.000487965657067693692
-9.29415493727516395e-05
0.000383527310968944106
-0.00039054114318618551
0.000515202542983530186
-9.98715430605955225e-05
0.000388845100369947835
-0.000394054692773219452
0.00053662500306892293
-0.000101700673388539285
0.000386978629629404827
-0.000392110707433130886
0.000551501790778035641
-8.83029168757464781e-05
0.000382428962296187699
-0.000387606957759779555
0.000556587546252085004
-7.32688815940701427e-05
0.000371468060079984622
-0.000374995538425665093
0.000550995276678116811
-6.48033617150064811e-05
0.000352727290133328982
-0.00035122029098169405
0.000537496464729661375
-5.57087942512749339e-05
0.000325584325715091148
-0.000318188453929394083
0.000517444643705746517
-4.29327538024366301e-05
0.000292656253584720684
-0.000283738248165896971
0.000497381783262080819
-3.90325094543110009e-05
0.000253056061591450294
-0.000246759739115672949
0.000466345510212397838
-2.07471617810643748e-05
0.000225197386437800818
-0.000218917874951354862
0.000385328769450412343
3.03565013709343039e-05
0.000193004317642606998
-0.000191089419919024574
0.000314259513174440226
0.000211322587373877815
0.000260557226270510323
-0.000250840114877939847
0.000223547301947552566
0.000782991571761194405
0.000292265522910987834
-0.000275192871652182132
0.00141505436713115404
0.000282828497680081875
-0.000262574732617417588
0.000135232412955048109
-0.000395246471627142644
-6.57025600281048927e-05
-8.66368131287048463e-05
0.000174687591478548109
-0.000347469191118436008
2.33710673983967293e-05
-0.000115800081207212961
0.000217603363097582596
-0.000320547596302768576
9.00283153878725557e-05
-0.000161838955520052409
0.000242492099831050485
-0.000264133788040612691
0.000126639196879310928
-0.000189707090139282491
0.000242028640554794625
-0.000190980760208603198
0.000125182717617256846
-0.000183091615735421904
0.000228681051998480501
-0.000126461454546328929
0.000111257814465468236
-0.000166843263389422267
0.000215000001210164179
-9.86272662662853632e-05
0.000108855215486780235
-0.000156097526277394581
0.000211038480521782664
-0.000100835362053465299
0.000127073354371008186
-0.000162003754098053858
0.000218484738479845489
-0.000114855559649033032
0.00015932972260686675
-0.000182099911759400367
0.000233437956651463363
-0.00012863207235438168
0.000197963727547230525
-0.00020963689317005484
0.000249038679887461309
-0.000134435380584074939
0.000232503206513962269
-0.000237248573593771238
0.000266479362014933785
-0.000137313110364098277
0.000256173532234946926
-0.000256667065105823484
0.00028532413604725489
-0.000144966554938338182
0.000267086577191048466
-0.000268296191901653267
0.000304635978160494863
-0.000148409823720454213
0.000271918334303144474
-0.000276060462076503426
0.000319620301282058986
-0.000146376665448829621
0.000273296585883455812
-0.000281082721627958225
0.000330155758879865956
-0.000131740048301876749
0.000270435949065883738
-0.000281897827224496505
0.000335904334638350817
-0.000111210962252909787
0.000266484190423020497
-0.000280796939477316078
0.000337690424764423315
-9.15919000607855167e-05
0.000265061493500036492
-0.000280614458341104918
0.000338791423628260796
-8.44487488823934639e-05
0.000264411356630547345
-0.000279748676127511528
0.000346674025430844437
-7.99329533822204936e-05
0.000268720837698951996
-0.000287919155984346187
0.000366374415743602887
-7.52248518547188544e-05
0.000285562510490445761
-0.000311422426236680012
0.000397658011912654734
-7.13881539049974448e-05
0.000313438629444317933
-0.000349531526596673153
0.000434922366608521448
-7.62582277522600317e-05
0.000343811788452734436
-0.000381592287206564454
0.000469867956826440568
-8.30298686136424734e-05
0.000362800933569168839
-0.000395114082365912442
0.000494220710350979069
-8.96173750796787886e-05
0.000366130904081699851
-0.000393808023116277712
0.000505115079008799169
-8.60574727690500025e-05
0.000356715689173674633
-0.000381424196172371261
0.000501258033755753486
-7.66292774339284792e-05
0.00033331090549788611
-0.00035452516957986481
0.000486137761952701818
-5.83636318365876244e-05
0.000300147900884355082
-0.000314966696531361742
0.000461492755642664847
-4.12778818003577944e-05
0.000260846139463882624
-0.000268191859990770905
0.000430276950149175916
-3.13336636073705991e-05
0.000219472362335875457
-0.000221725994648162345
0.000397196929832397923
-2.31102179596778473e-05
0.000178810536072294632
-0.000178328902073918036
0.000365155407959235332
-1.06338791340111604e-05
0.000143843373356957843
-0.000144100512447635113
0.000333714772684792597
-4.63619355828318546e-06
0.000112676175099830743
-0.000115631538663814486
0.000298160037641400472
2.019457350023213e-05
9.48685839904681396e-05
-0.000100254999612969946
0.000209224832630275478
0.000128367749307844341
8.74863656030579418e-05
-9.65615597533958013e-05
0.000145258238875420852
0.000281974240356021918
0.00020020100219297199
-0.000206885594343311866
0.000111654464634188802
0.000800141665563217043
0.000287113746215520501
-0.000270659895817354729
0.00151084224268228668
0.000286734611200362534
-0.000270868019069789052
2.14386162396657113e-05
-0.000305705312423196988
-8.05243817200960061e-05
-3.04554525407213191e-05
6.21232021373546397e-05
-0.000274063908777566012
-5.41534641275156711e-05
-5.99361246912074902e-05
8.89724454691070515e-05
-0.000232144285380370396
-2.21249256084324775e-05
-9.31271920588203767e-05
8.06114627415733761e-05
-0.000148207722750818042
-1.23359095824522124e-05
-9.52286168522551921e-05
6.39175111017362558e-05
-7.97287806835525053e-05
-1.98003403786392724e-05
-7.47572267838527132e-05
6.58790815024496703e-05
-3.93933886403783772e-05
-1.82391727942285337e-05
-7.07899144634581391e-05
8.26050728487759341e-05
-3.69917885960885888e-05
1.90443344185129039e-05
-9.74055646918614066e-05
0.000107299742152812367
-6.19303653096513695e-05
7.6432088270492047e-05
-0.0001400316791685545
0.000136024346258850745
-9.37462301324583846e-05
0.000133545372432098964
-0.000183378956861070486
0.000168437037893511015
-0.000119702487918888086
0.000180467712842679624
-0.000221809616522908846
0.000198447664594457652
-0.000127800533864046953
0.000210536165542291997
-0.00024718141182896678
0.00022536550944707572
-0.000123441835038537082
0.000216654375120244156
-0.000257443360497988606
0.000243908352615465076
-0.000116302452925080998
0.000214600784416393858
-0.00026180765975672936
0.000252236623235467224
-0.000104874831488475958
0.000203640840469132193
-0.000255504038797960164
0.000253392554191000561
-8.85555739328565709e-05
0.00018384304080135548
-0.000242819921255078104
0.000251858321713587289
-6.74179494446999251e-05
0.000164778261589955725
-0.0002275658695438036
0.000250110962807299656
-4.83309980009744705e-05
0.000154241536677560874
-0.000215373930058934503
0.000251270587065363931
-3.78121565869268253e-05
0.000159414081434503836
-0.000214353465454526158
0.000261365587526405947
-4.08477585699548132e-05
0.000178346876815934871
-0.000232042909508882011
0.000286573112438043992
-4.58811343398342634e-05
0.000212247385384932479
-0.000271506479514297273
0.000324002902236469935
-4.87690502431209363e-05
0.000254636972277357454
-0.000318522110281846058
0.000365317177969892606
-5.04827675081234711e-05
0.000292219840482529306
-0.000354439226702580874
0.000397812804948235283
-5.36990055727239656e-05
0.000311742162691578306
-0.000366797130582439479
0.000412604187642148519
-5.43550951617153037e-05
0.000308798890496050319
-0.00035226543615143077
0.000405702867607380985
-5.04307039859255878e-05
0.000283544295215837176
-0.000315830036163877303
0.000381711092420296044
-4.02155082300486427e-05
0.000243574451499369205
-0.000265424760930802091
0.000346974118367696181
-2.76072678383452578e-05
0.000196969151672463804
-0.000211253985979371694
0.000309619520420292707
-1.21424895931266247e-05
0.000153742554917125928
-0.000162608662794150956
0.000273478299774544827
3.91130772127518882e-07
0.000117039014707548671
-0.000122566311474146881
0.000240619877670368777
6.80595003161189177e-06
8.58103977767011921e-05
-9.10911106603505517e-05
0.000211953670352249454
1.34318423074240596e-05
5.7648032087191771e-05
-6.55234088718697951e-05
0.000188450831586762884
2.50129090073151767e-05
3.35362163269278392e-05
-4.56796225570733108e-05
0.000166673117325930135
3.42818065014857725e-05
1.08190868794890995e-05
-2.79587933471165428e-05
0.000152522372360383969
5.45386156027668337e-05
-3.01949549367913377e-06
-1.71728785129745024e-05
8.27666719531817903e-05
0.000213749726929511597
2.40616444959838663e-05
-3.96867829185805311e-05
4.58638166449022326e-05
0.000334976184894616232
0.000152953015595699832
-0.000169051280474986421
4.58702811308252093e-05
0.000783106177250839975
0.000278629977190468264
-0.000261600734469492782
0.00154338661635071038
0.000290521384361928589
-0.000277195475919206704
-3.3367915328119114e-05
-0.000215578989790617917
-0.000105159410196632399
4.84024259288612878e-05
-2.65754381815206585e-05
-0.00020220543511167364
-8.80319065510226705e-05
9.38199543151248391e-06
-1.98821100377051342e-05
-0.000154570266456135645
-7.37557758747829336e-05
-1.05103846218117127e-05
-1.26031382718509065e-05
-9.10947193612806727e-05
-7.08177790152830636e-05
6.42677423387426341e-06
-6.68079221981405234e-06
-4.42546730543169579e-05
-6.32921704637267148e-05
2.18974226261336206e-05
3.18256291281002434e-06
-9.0875659170097798e-06
-5.66403908437623362e-05
1.64728208903119777e-05
2.42365770200709215e-05
6.71063008119313275e-06
-3.8618393639767099e-05
-2.61376259192753272e-05
5.53360558942626139e-05
-6.58532195722051254e-06
9.07520464496379206e-07
-8.73518649885562975e-05
9.34542779994273825e-05
-3.25234732401730826e-05
4.16895840846861891e-05
-0.000141030277055753634
0.000127392095807099358
-5.40509562354605778e-05
8.75555227254511516e-05
-0.000187144723939383683
0.000148047610236360115
-5.06818450753097362e-05
9.40127255937957615e-05
-0.000191786780247676036
0.000156765250173922683
-3.46014160412960351e-05
8.81673506669168887e-05
-0.000185725107191065406
0.000150822757894043775
-1.83027772939420531e-05
7.30387755172855088e-05
-0.000165095357626241938
0.000134684866704439703
-7.10258190731333707e-06
5.19137193908589584e-05
-0.000133547250035107582
0.000117865526446884835
-1.76746485388311348e-06
3.36446123101994565e-05
-0.000103612663862848045
0.000108048550910148168
2.06527551309427557e-06
2.8978891095884648e-05
-8.86446337754747012e-05
0.0001109649310135358
3.69028667048433448e-06
4.0737623529085372e-05
-9.5675125715689047e-05
0.000132494102415998949
2.33240926072394045e-06
7.12346759035465001e-05
-0.000132908580605180438
0.000172155279569017846
-3.08750021606211337e-06
0.000117192173094271879
-0.000194613526561420553
0.000222584253482521305
-8.05841606766837903e-06
0.000169837641279386466
-0.000258088789642348213
0.000270936555183359622
-1.04540556946992443e-05
0.00021381372794435419
-0.000300480407324408682
0.000303733490415655934
-1.15640404552442975e-05
0.000234673802427602034
-0.000306389236330385556
0.000311710397103110305
-9.41645830594632746e-06
0.00022592020286326482
-0.000278179977608273394
0.000294261455927563424
-3.99604961063305941e-06
0.000193331537944143342
-0.000226242203923373311
0.000258960140141434672
4.00176022632018003e-06
0.000147901655679615751
-0.000167033226716895228
0.000218230460018363899
1.25558754111291295e-05
0.000101826625981042498
-0.000113868194259613076
0.000180027437463147199
2.05660679087051274e-05
6.21721005475547661e-05
-7.21417024028505498e-05
0.000147659408512965172
3.03727032557407509e-05
3.19479493741186779e-05
-4.20940948134410412e-05
0.00011990435962898185
3.95581845711023557e-05
8.63659660508776606e-06
-2.00474556526583212e-05
9.51158325857255827e-05
4.64785458385828673e-05
-1.31511772387291863e-05
-1.73163933155337628e-06
7.42074113755079612e-05
5.24939713268541611e-05
-3.44686657030730318e-05
1.63161554985696185e-05
5.77825924601126773e-05
6.12502383799610729e-05
-5.23583144014674146e-05
3.25468739309927278e-05
5.20155943948965593e-05
5.95235638519044091e-05
-6.77270675138666055e-05
4.82533782824137757e-05
4.90903386876897569e-05
7.0918022236136124e-05
-6.57941691351830054e-05
5.23412391460725728e-05
1.8850195275164661e-05
0.00025409090787847379
-1.1947028071681139e-06
-8.90497049380269996e-06
1.35055453581380707e-05
0.000358312388665191401
0.000126238951281929131
-0.000144229518082189295
1.8851031519174599e-05
0.000759950272395501459
0.000270370566755633772
-0.000252559990446372343
0.00154871200940526177
0.000292790498100552253
-0.00027926486275672228
-2.13645980990748552e-05
-0.000200252171177316862
-9.63960294239897238e-05
0.000102434209034304503
-1.36301904244102455e-05
-0.000190630061810834997
-7.41565875823459511e-05
5.48475069311527271e-05
3.24477743744554107e-07
-0.00014251658337394014
-6.64266979861786924e-05
4.04199664009596707e-05
7.59603495277525912e-06
-9.83038014517114035e-05
-6.09634164962921047e-05
6.0902706924139717e-05
8.32988803939312746e-06
-5.06227891157095346e-05
-5.7077717302445254e-05
6.27139528101219737e-05
1.01407932452195928e-05
-7.52665017188800992e-06
-5.26490475598969152e-05
4.92782715903123783e-05
1.63790863468769551e-05
2.24538942056834882e-05
-4.94805584995692313e-05
2.74990203713939863e-05
2.86676695015483863e-05
3.43936732831622352e-05
-4.48122686323385998e-05
-8.45529872249076706e-06
4.71236933230244627e-05
3.27804439613470499e-05
-3.03535982752741388e-05
-5.34065219328792504e-05
5.47836002817257554e-05
2.93083480703203601e-05
-1.80964154104474052e-05
-7.29230933494522929e-05
4.84751622349699506e-05
3.63543269671090998e-05
-2.14406948359643847e-05
-5.92867762175200436e-05
3.60805396138436465e-05
4.32900928888526094e-05
-2.74293179971438805e-05
-3.80662793563180712e-05
2.28345438968448244e-05
4.39606275629931618e-05
-3.52565501904402679e-05
-1.37587176168835897e-05
1.32269983127535785e-05
3.66279245766358065e-05
-3.88919228974625916e-05
4.77102227116056583e-06
8.55770542841806839e-06
2.95653757533439525e-05
-3.50513107441698235e-05
8.38908779413471662e-06
1.1432443587075224e-05
2.63514396047957509e-05
-2.4973419503365076e-05
-2.18698525806189532e-06
2.95641651991030342e-05
2.64510363904072532e-05
-5.76119296983777425e-06
-3.51314287179874544e-05
6.83847049872519946e-05
3.43736230202819281e-05
2.84482908973372948e-05
-9.93100602230102635e-05
0.000120493097746628716
3.94015574265992616e-05
7.28312831291100357e-05
-0.000167428211728900319
0.000168354210427235757
4.17640121396739455e-05
0.000113500543688486614
-0.00021118337923409637
0.000196294170313118061
4.34213133445674254e-05
0.000130806475936178916
-0.000212621305438263897
0.000198857843512930223
4.44892886496468147e-05
0.000121625662858605639
-0.000180242583162683291
0.000180139377093000385
4.54405406665471626e-05
9.34472206230808412e-05
-0.000129586140089469785
0.000148794877224733607
4.70346076815464375e-05
5.74397076074298211e-05
-7.7126148444127941e-05
0.000114100000237307402
5.01019970954196583e-05
2.29395269553547331e-05
-3.43446715260806683e-05
8.25009207323230661e-05
5.44067601271280507e-05
-5.74474867154664571e-06
-4.50586062937774084e-06
5.63319495432951274e-05
5.848761278226655e-05
-2.78856910761930514e-05
1.61349614058366333e-05
3.54440258954632519e-05
6.3997782251643917e-05
-4.38028881892175525e-05
3.10676060808540486e-05
1.82300883856169812e-05
6.95751716661093303e-05
-5.70549312513676655e-05
4.42537133662766925e-05
4.0775026517608481e-06
7.36553646062502467e-05
-6.98759368882641578e-05
5.68535022924384495e-05
-6.68112848482123302e-06
7.70215479305835348e-05
-8.30556180113352057e-05
6.92880221327349535e-05
-1.10739410605113066e-05
8.06363447683315377e-05
-9.50714494655597263e-05
8.00795461078851131e-05
-6.19949779158771787e-06
6.73962968833568231e-05
-0.000104128248245567782
9.13824076960640969e-05
-1.03036868329895604e-05
7.72324923575683529e-05
-8.80115477816468736e-05