/*--------------------------------*- C++ -*----------------------------------*\
| =========                 |                                                 |
| \\      /  F ield         | OpenFOAM: The Open Source CFD Toolbox           |
|  \\    /   O peration     | Version:  2206                                  |
|   \\  /    A nd           | Website:  www.openfoam.com                      |
|    \\/     M anipulation  |                                                 |
\*---------------------------------------------------------------------------*/
FoamFile
{
    version     2.0;
    format      ascii;
    arch        "LSB;label=32;scalar=64";
    class       volVectorField;
    location    "0.330000000000000071";
    object      U;
}
// * * * * * * * * * * * * * * * * * * * * * * * * * * * * * * * * * * * * * //

dimensions      [0 1 -1 0 0 0 0];

internalField   nonuniform List<vector> 
7340
(
(-0.192719385793355763 0.161127538703065204 -0.014636870649096384)
(-0.186348008443609908 0.162238892152001934 -0.0227209852449527065)
(-0.181208248843410469 0.162365722664005535 -0.0300561663042765888)
(-0.176889096948407265 0.162065886947211218 -0.0373591063423769701)
(-0.172806337209314598 0.161488119507513878 -0.0452758627063422348)
(-0.167559402845785438 0.159936930001861682 -0.054024900018481356)
(-0.160352328831651847 0.154883319465937558 -0.0639192501074754282)
(-0.1524194656975488 0.145712666978038863 -0.0755272969540344147)
(-0.143000903143760155 0.134327887874938018 -0.0886382630873320809)
(-0.128194235210528251 0.121315266645579789 -0.102591744418713202)
(-0.102928321551543661 0.106193581062547115 -0.116103227135519058)
(-0.065944366793073278 0.0951512579672521286 -0.123303875722431622)
(-0.0548537526752553989 0.10704080799821436 -0.101004829507878369)
(0.349561565169594635 0.348040493125796491 0.0727587423241920495)
(-0.547139945782143977 0.972111229284715606 0.569906582180210397)
(0.675846147930497243 2.57538319593568055 1.26591704850409759)
(-0.194385786318172937 0.158806488570142346 -0.0173918982489518759)
(-0.188222907689199914 0.160070284824567727 -0.0243661789669375253)
(-0.183472917309713268 0.160340966331419116 -0.0311698882887882778)
(-0.179704169371155131 0.160149925228065537 -0.0381461262315973826)
(-0.17609864206211806 0.159469385075858033 -0.0456483523192871138)
(-0.171428647782404187 0.157386090381566507 -0.053929431306393924)
(-0.165358388620031493 0.152244966810546362 -0.0634320933651137953)
(-0.158769086648321428 0.143639029855596956 -0.0746628734801669247)
(-0.150582876405666588 0.132337361474310078 -0.0876817576850765223)
(-0.136987477533197344 0.117948415548493474 -0.102466371905326217)
(-0.112782819596578626 0.0999723898525655824 -0.118130709264943567)
(-0.0761464242928244911 0.0847672749883187637 -0.12846934304417218)
(-0.0578721693541046356 0.0916872446629912186 -0.110193556932814019)
(0.322422237666755485 0.347336942387948322 0.0629563732101209167)
(-0.533167976514722808 1.00594486570838337 0.561235234586131226)
(0.637070722101338305 2.53568999319085764 1.21418211532057385)
(-0.193121629412088935 0.155744940786628122 -0.0176375405705576672)
(-0.187538968961773439 0.157457218740107874 -0.024048008295336671)
(-0.183366237087777106 0.158213977298221398 -0.0305142376421409511)
(-0.18013231878412253 0.158325987389575124 -0.0372210094060795305)
(-0.177051123964139967 0.15765301192756967 -0.0444345436798040949)
(-0.173280650790588381 0.155393818324605221 -0.0524374091250078972)
(-0.168704753398677382 0.150425708635921029 -0.0616881008894209215)
(-0.16364935481640791 0.142324321105112866 -0.0726642091091029285)
(-0.15696608609375029 0.131012399109816741 -0.0857071988113691369)
(-0.145146396411427153 0.115301905431314342 -0.101237278035235106)
(-0.123092631482255382 0.0943416247789799628 -0.118521166227196731)
(-0.0895187354028160881 0.0746967114760174189 -0.131296236881006112)
(-0.0701249522052586061 0.0762264081970211865 -0.118041168239817529)
(0.278539535462898113 0.336881307634998295 0.0522133149257273318)
(-0.516328247855122435 1.04486861679870402 0.553436772858915349)
(0.591358568994284739 2.48073936912471726 1.15646870133811874)
(-0.191349644169106631 0.152944822242072342 -0.0169404651181687509)
(-0.186381265352265207 0.155151515023555009 -0.022965918869554576)
(-0.182733063195780365 0.156398197363475211 -0.0291213481272080688)
(-0.179982144847485481 0.156850333667996111 -0.0355521704812062009)
(-0.177501647056488271 0.156307106607101287 -0.042499521168278348)
(-0.174753267260920137 0.154132059817692874 -0.0502524495761752371)
(-0.171637918202766415 0.149480896913304101 -0.0592450313846806381)
(-0.16813905271927862 0.141828195616019975 -0.0699615686814789028)
(-0.163214281301941017 0.130521524458919347 -0.0829637990864078301)
(-0.153703908913315757 0.113650108966224406 -0.0989356747255965285)
(-0.134974864973081088 0.0898915167818816474 -0.117227423706962625)
(-0.107487509847059168 0.066163974826560279 -0.131847487770942295)
(-0.0851084074076311342 0.0608433078470297928 -0.123475165925462857)
(0.20833015655624823 0.324262335745525265 0.0465071244331911118)
(-0.505848360164211086 1.08387238729220958 0.544008933401282868)
(0.53779508339548654 2.41256663720839226 1.09483363596758165)
(-0.210815433308296746 0.135190480692951975 -0.000445250938817191855)
(-0.202307144962468405 0.141574855197668104 -0.00510476273580872351)
(-0.1952383767024016 0.146715468269753735 -0.0103027588101136623)
(-0.18949557858981339 0.15060343694131631 -0.0158192760488672403)
(-0.185111496885322829 0.1532851934659403 -0.0215138320618002109)
(-0.181952312147708101 0.15499037362695442 -0.0273683841253142893)
(-0.179687823763854893 0.1558027328980717 -0.0335128656598204511)
(-0.177872779365843614 0.155517498705978835 -0.0401823775282218326)
(-0.176155026936978792 0.153607046950397008 -0.0476564864057830717)
(-0.174409558055403813 0.149371520683980546 -0.0563404122421450049)
(-0.172504758489046783 0.14218675085562657 -0.0667343230198047394)
(-0.169588634159277107 0.130998729693940108 -0.0795309397903092297)
(-0.162890409448904316 0.113335729098942933 -0.0955558662074539877)
(-0.148764194089020252 0.0873817263787560611 -0.114347880830915044)
(-0.130222221994940379 0.0598596672390329515 -0.130547477544468549)
(-0.104874519705718761 0.0488537482208370802 -0.125316863609892803)
(0.114424583369191854 0.315928797730795241 0.0465970510608955737)
(-0.503373985708506777 1.11353386253542497 0.529936372179403703)
(0.47688623516034867 2.33380393053217983 1.03145183630509307)
(-0.20707197753379325 0.132478430028038358 0.000260800978598629482)
(-0.199177105706148883 0.139035133902171676 -0.00425239282095285845)
(-0.192717637622442123 0.144448880794595808 -0.00922589708071728902)
(-0.187573608531259484 0.148675487974964798 -0.0144677694329651049)
(-0.18372877872970883 0.151802374475967117 -0.0198632698429808165)
(-0.181052409089736382 0.153958157805309193 -0.025425870858883301)
(-0.179301800916097209 0.155166644159894729 -0.0312817197534352512)
(-0.17817881005989053 0.155241623255174432 -0.0376431034541009624)
(-0.177454425558816992 0.153722090010300794 -0.0447895696604744056)
(-0.177013312475687412 0.149991679331189232 -0.0530977832843528702)
(-0.17673966782613687 0.143351395566550632 -0.0630725132138241912)
(-0.176017340739599654 0.132480486775994249 -0.0754590736788714883)
(-0.172629034055499786 0.114548851395238724 -0.0911438993173559475)
(-0.164455145406537134 0.0870964301263101731 -0.109911161281896402)
(-0.156959044348939536 0.0566257539106891153 -0.126967729146367336)
(-0.133594568426986887 0.0454011393222526899 -0.123448379255515162)
(-0.00253609462879991754 0.316674436721261998 0.0503901270856409317)
(-0.503905950993856711 1.12384958258675138 0.511047612121174777)
(0.403972902660654554 2.241019944615112 0.962661223498736396)
(-0.2223183369395835 0.112937179622916398 0.00756513173186504004)
(-0.21203804598952336 0.122091971965068283 0.0048292698834893448)
(-0.203229108885488452 0.130145961538698701 0.00110067235893793712)
(-0.195957944442995774 0.136932451770705149 -0.00328703615696409636)
(-0.190073451283035016 0.142627607256335415 -0.0080621173966819934)
(-0.185488818542388828 0.147208317739889516 -0.0130497079595838835)
(-0.182156410445095063 0.150763472652241576 -0.0181675152816888411)
(-0.179968592420068657 0.153368303165671127 -0.0234438121182663217)
(-0.178750589008468991 0.155012606406053299 -0.0290031148790670552)
(-0.178321245367366599 0.155508289165338626 -0.0350298046949286401)
(-0.17855346733423394 0.154481712211105293 -0.0417974208459850616)
(-0.179376545702664536 0.151353292969560793 -0.0496568230388638593)
(-0.180758554335173627 0.145372848788207443 -0.0590982421878624015)
(-0.182388898914395192 0.135085756099062065 -0.0708625442095833225)
(-0.182806089237507741 0.117559041590355171 -0.0858591035394287022)
(-0.18097199167212738 0.0896915014491260765 -0.104126782807153068)
(-0.181874623762246529 0.058276311090916931 -0.120984301000134228)
(-0.17224754093116823 0.0505181229933734516 -0.117788465101716561)
(-0.117032815536616819 0.324541406196753923 0.0544751809098705103)
(-0.502557284383924441 1.10788561818962772 0.485312816722341556)
(0.318236622067496255 2.14616706637964549 0.888321626676233933)
(-0.196570841759314413 0.163686654320385816 -0.0235285911813799264)
(-0.191808642692119474 0.164126970011039763 -0.0304746126057352761)
(-0.188286774808676449 0.164363718069750253 -0.0378582580442021754)
(-0.184627502742102684 0.164355584741360639 -0.0456511425500630702)
(-0.179803512438352325 0.162476713395966699 -0.0545489590763495596)
(-0.174083847206879611 0.157036754619150232 -0.0656280920323111527)
(-0.168400648721911156 0.148709493612158239 -0.0794416183009932497)
(-0.160619799434571275 0.13826273113042678 -0.095640636146991212)
(-0.146060242890177522 0.123915359377485143 -0.114416704621077836)
(-0.119817805485764192 0.103396168257266746 -0.136054931549651759)
(-0.0796738865677422692 0.0825317919664728672 -0.154929684223060138)
(-0.0485791523711095463 0.0827157959788025476 -0.145629341681938251)
(0.33395813954537229 0.295624439660259308 0.0290868229631755862)
(-0.5571394072617597 0.937746840302457252 0.583365741520952663)
(0.665121718140088025 2.39896356399267097 1.30704480214596153)
(-0.201059282105139819 0.159497791127330285 -0.0180967778141612745)
(-0.195151716419372512 0.161459384961585378 -0.024280532971439478)
(-0.19094495687752866 0.162384545924056378 -0.0308833189999586297)
(-0.187865574329625973 0.162864828799036659 -0.0379186481528570249)
(-0.184847620547122643 0.16266184384803628 -0.0455691120852077733)
(-0.181136284152530802 0.160610691767879593 -0.0543761979184398253)
(-0.177011876891572995 0.155631596992145654 -0.0651771127542531692)
(-0.172779154267436508 0.147841019752048497 -0.0785053421105153387)
(-0.166581048162108836 0.137171032231826528 -0.0946136384300402811)
(-0.154363649153745786 0.1215719122059917 -0.114235288684019332)
(-0.131211949503046293 0.0989348738926527776 -0.137475523684314593)
(-0.0956279489829304358 0.0751808482463956068 -0.158555832345126629)
(-0.0645948058052539797 0.0706174002540801427 -0.153024201184683795)
(0.277514341717643886 0.291745256590708713 0.022861866332044109)
(-0.54195951144063248 0.992405996082486475 0.584666808177141228)
(0.613904439475797314 2.35834284795276172 1.25914534006404466)
(-0.198829210507394577 0.156970721944232811 -0.018158400402537675)
(-0.193616625275238013 0.159390186601939876 -0.0240176098946308647)
(-0.189897106570599661 0.160815843019039395 -0.0303096425607034883)
(-0.187219572783049237 0.161571069132824929 -0.037062455238440567)
(-0.184838661328709991 0.16139174261232539 -0.0445172014988420919)
(-0.182264133137033657 0.159456658049473204 -0.0531312992526903755)
(-0.179627802276599663 0.154962121601408459 -0.0635989235569180411)
(-0.176865992560155977 0.147682805050525057 -0.0764993077199133398)
(-0.172476099418943124 0.136977098586819029 -0.0924428583806981286)
(-0.162953704339398681 0.120456323535360788 -0.112474774357792615)
(-0.143905056527141723 0.0959089271191384402 -0.136747512068067179)
(-0.1152240236500333 0.0687761572853851227 -0.159853915963100002)
(-0.080958068839113953 0.0584022321678029643 -0.157875038171945037)
(0.208773080360294572 0.282765485126239002 0.0177633245487677817)
(-0.529721878812009828 1.04173226158357224 0.581755792098284985)
(0.5569642829203727 2.30299613774958978 1.2044220329896187)
(-0.196771820999280395 0.154757868262416942 -0.0176289502080045936)
(-0.192159393752522306 0.157620846057240055 -0.0231864502095565431)
(-0.188892068449602463 0.159512243829762229 -0.0291712696661901756)
(-0.186656050335795937 0.160588288538079993 -0.0356393429353524804)
(-0.184945711958081238 0.160605399299812046 -0.0428344164933084359)
(-0.183444063752379899 0.158950129815707275 -0.0511716617964248222)
(-0.182155105144634122 0.154974845224924079 -0.0612488888077280524)
(-0.180902311891730644 0.148243700171402343 -0.0736811809428196129)
(-0.178517251621244266 0.137719291236532093 -0.0892793658393725986)
(-0.172012665736357817 0.120663640516804407 -0.109257248437392346)
(-0.158120234578875807 0.0944667088110732189 -0.133842468993733199)
(-0.139058606747227531 0.0639014283522615079 -0.157693192246280894)
(-0.102247694544670351 0.0482459204841744829 -0.157306090195923204)
(0.105439644993363224 0.281373440121107488 0.0240438212513830116)
(-0.524595164490039512 1.07602213111299938 0.571398391536856343)
(0.500107638148167055 2.24126182068991486 1.1466704739097604)
(-0.214335234275095099 0.136319901945820887 -0.0037326622727587213)
(-0.206599627852541184 0.142920496169597955 -0.00747945617505971824)
(-0.20007353038325168 0.148444342229786114 -0.0118578059798797285)
(-0.194720404068110142 0.15286326174143125 -0.0167254105480515655)
(-0.190654925467533432 0.156159014864716811 -0.0219923149939305132)
(-0.187850650245400319 0.158487863157705383 -0.027664932620578328)
(-0.186095982933209975 0.159936136701854914 -0.0338269982346707729)
(-0.185069577964651538 0.160283125452025083 -0.040714009178344418)
(-0.184563264872468047 0.159042222399461836 -0.0487043525253539195)
(-0.18453306839328934 0.155650762214186611 -0.0583264528199055818)
(-0.184826750501462245 0.149540298818881839 -0.0702057336793298209)
(-0.184588620379721791 0.139433928704684851 -0.0852427486259340339)
(-0.181426201137466908 0.122364088431429735 -0.104663048109113838)
(-0.173596131588991148 0.0952201867277329 -0.128687531016294099)
(-0.165214873480005353 0.0623535341218847197 -0.152165780023409608)
(-0.134568148584962299 0.045398913113605055 -0.152653446366613321)
(-0.011822669927007895 0.285894365348453472 0.0330679025508284694)
(-0.524876613307996065 1.09025563927064972 0.554524871326996793)
(0.431750853215930652 2.16246305327037192 1.07981151385718555)
(-0.210632223843456368 0.133954830887475396 -0.00306641962623944823)
(-0.203401530537516806 0.140735472856481109 -0.00672082393865543106)
(-0.197401185683766078 0.146522419046783509 -0.0109303881317592919)
(-0.192585274374967558 0.151246125427333067 -0.015561130211438989)
(-0.189026062896079622 0.154947546926211904 -0.0205486758567399522)
(-0.186687556307560981 0.15771674322505197 -0.0259118661993144039)
(-0.18543560422708949 0.159580845872344335 -0.031750718497353933)
(-0.185078706859468256 0.160349497969126842 -0.0382903678942755343)
(-0.185495834880985533 0.159622321579576509 -0.0458721246617934814)
(-0.186661006137992996 0.156888899061868814 -0.0549688633771106064)
(-0.188506758133336727 0.151505428041421447 -0.066190498001101078)
(-0.190502008494933289 0.142080198759174992 -0.0804374711831365025)
(-0.19098337223254358 0.125542908892512184 -0.0988502554868097294)
(-0.189515592230923097 0.0982698516828761914 -0.121633914959483336)
(-0.19078320683117761 0.0645949196063391462 -0.143803178911791341)
(-0.175575112443308423 0.0515146829061028516 -0.144299887170223656)
(-0.120029895141978565 0.297514193451787479 0.0426118248558616242)
(-0.524830194583036036 1.08239943939907812 0.530954569364632922)
(0.34920244861323485 2.06657377229173633 1.00316700914447643)
(-0.223887280934088051 0.114748411447082754 0.00253370658070671377)
(-0.214752261390209587 0.123728689563326333 0.000599959751096309016)
(-0.206778984525867987 0.131831819478774981 -0.00227733374516835702)
(-0.200079054510766852 0.138841820380424891 -0.00583347492270888234)
(-0.194580194802379203 0.144901113594693431 -0.00987247348345405597)
(-0.190271698754411744 0.149958203440606924 -0.0142740599730953582)
(-0.187191256009105661 0.154067656825115668 -0.0189885800356169553)
(-0.185316944514962612 0.157283305382947491 -0.0240450244094320593)
(-0.18457185929786793 0.159600641810932975 -0.0295471987897047358)
(-0.184860737982410955 0.160858378439512784 -0.0357092613466025166)
(-0.186142979448361418 0.160726303376713509 -0.0428302765160151269)
(-0.188447375370215942 0.158737560628297858 -0.0513309442562424056)
(-0.19182834954600686 0.154216677396279561 -0.0617801225615655786)
(-0.196127594170670411 0.145770231923799037 -0.0750181395483397739)
(-0.200497348436243117 0.130439722900688421 -0.0921155538805356472)
(-0.205272542006883801 0.104378922357212037 -0.113392529546974152)
(-0.214831655739337241 0.0718713054352850544 -0.133766168936002766)
(-0.218137432314568336 0.0641909937450320794 -0.13182551932881581)
(-0.214647659087220527 0.314232027112695544 0.0524654483072488909)
(-0.520466355531182256 1.05534179182285071 0.502397453679836792)
(0.256707014084016305 1.96716788539743703 0.918990491264970233)
(-0.202801278860378714 0.1622030239315706 -0.0252508443097950522)
(-0.19882272056109615 0.163413890704467407 -0.0317593429315710246)
(-0.195849303050850881 0.164217946552989519 -0.038660214670854523)
(-0.193031825494866305 0.164208606734268431 -0.04635306370598756)
(-0.190231476310912917 0.161979303247297174 -0.0558373056641280341)
(-0.187593047416483638 0.157335500510782378 -0.0681169943167436315)
(-0.184836137177912363 0.150294294916964666 -0.0836349241838294372)
(-0.179931276557911024 0.139999218659992208 -0.103126006943635704)
(-0.168905752458674369 0.123668280569919117 -0.128578789083185652)
(-0.1468245852555711 0.0991473310613879832 -0.161410460898047919)
(-0.111539111277304759 0.072241463390877711 -0.196008932098024696)
(-0.0640578312130278826 0.0639030196681811824 -0.203555670498855368)
(0.252048173344665727 0.247082468634826663 -0.0298039928640186046)
(-0.5670985111593978 0.930323032805734029 0.585024993125226489)
(0.649482974766751431 2.15287364490949029 1.30477529223901634)
(-0.205997440874645665 0.158766284729554202 -0.0199982274173877983)
(-0.200896132931480204 0.161334168783591275 -0.0256339042523988994)
(-0.197356648999760853 0.16300495844409818 -0.0318567489482020905)
(-0.194870552510158362 0.164048486758459455 -0.0386196211228293229)
(-0.192844232587362996 0.16405374172945511 -0.0462917146306968327)
(-0.19108995045188315 0.162207735463515551 -0.0556356832015087732)
(-0.189755097130230893 0.158070572265590514 -0.0675136590683853843)
(-0.188552709542015945 0.15143270668270109 -0.0825866919739620953)
(-0.185761641292332025 0.141298134206750831 -0.101936497958551711)
(-0.17771540792188667 0.12486627821405244 -0.127572307701469462)
(-0.160135081788179645 0.0994609186787663857 -0.160725178749945852)
(-0.132671274584789112 0.0697589447394241502 -0.19630326070414042)
(-0.0833718656266458913 0.0572500118763582394 -0.204935048771866468)
(0.177583037660019954 0.244296887768771065 -0.0272341567361239732)
(-0.550607422644872502 0.987163176742521964 0.596086692638385318)
(0.578408664071359935 2.11972649500428822 1.2635725841938239)
(-0.20379741593629308 0.15742465097051575 -0.0198935897227841968)
(-0.199245771883232559 0.160440986543831293 -0.0252569177656330746)
(-0.196119046730070218 0.162560015279394066 -0.0311865621146422724)
(-0.194091733099980984 0.163881011960158474 -0.0377353549554801451)
(-0.192787383735195827 0.164128826731068073 -0.0452321351878210987)
(-0.192043655371526761 0.162699669078193221 -0.0543065927903141829)
(-0.191938776497248997 0.159137410746383934 -0.0657319917888435495)
(-0.192213619548635917 0.153059766508605227 -0.0802695237593838984)
(-0.191490786938108559 0.143318783970629277 -0.0991633104922622494)
(-0.18659085559751562 0.126960459260462039 -0.124393269887329627)
(-0.174476215278951186 0.100712762110545348 -0.157076006553856867)
(-0.156512580808726487 0.0682598556324898048 -0.191822590668005721)
(-0.109026744947444576 0.0516219736504338819 -0.198824017287392074)
(0.0608641846858117563 0.250779824038286692 -0.0101726845048227613)
(-0.541361723526890937 1.02372224390304156 0.593550089266935088)
(0.511924403242498993 2.07637415546590143 1.21634275257007074)
(-0.201679043013314657 0.156122276125292808 -0.0192470073772715265)
(-0.197629638072544189 0.159556724036038516 -0.0243289685652574861)
(-0.194922170340661477 0.162111867903475454 -0.0299658693053507577)
(-0.193371385380586791 0.163793378718150445 -0.0362431910326310655)
(-0.192751062604978235 0.164391593629654859 -0.0434681273799439882)
(-0.192949842113937592 0.163444955336709691 -0.0521815220322419254)
(-0.194001594713232306 0.160525038647359425 -0.0630783858336096681)
(-0.195721592332931793 0.155139921106540096 -0.0769620745153927477)
(-0.197077664935315811 0.146015823099010067 -0.0951083224162970614)
(-0.195524963418515135 0.130066116831865475 -0.119390824028382581)
(-0.189358090884784641 0.103375433864873176 -0.150710336962714769)
(-0.180861597840663607 0.0688042789736211385 -0.183163253108875879)
(-0.146056266535793733 0.0521351701984945903 -0.188257969818766718)
(-0.0536224991850728083 0.262236434659721684 0.00867207375493760091)
(-0.538433632522690386 1.03797683401883667 0.580404267271162677)
(0.439703732363061706 2.01661702306808177 1.15701126503448215)
(-0.217260554015008017 0.137479928302200516 -0.00701837767789804598)
(-0.210252740565256863 0.144220487955119714 -0.010163191110462837)
(-0.204313200524418231 0.150032617357159281 -0.0139136159944493153)
(-0.199470505343059629 0.154882296395562724 -0.0182085035802054054)
(-0.195897333358111547 0.158727605096150221 -0.023019197490686906)
(-0.193626524556490237 0.161709581750215575 -0.0283543252314000099)
(-0.192566218215170754 0.163805194402896426 -0.034324094704594757)
(-0.192594803173538165 0.164841689668289215 -0.0412133294712250173)
(-0.193660875034577573 0.164458177326350291 -0.0494925852992954274)
(-0.195802875987366093 0.162252057120950866 -0.0597863570888461926)
(-0.198945209304607545 0.157677866792334614 -0.0728907666957302608)
(-0.202399431319048084 0.149406103342006297 -0.0900285365642770202)
(-0.204336340367786778 0.134252792457277725 -0.112875291034636921)
(-0.204379172366435546 0.107730345596132981 -0.142029244709329927)
(-0.205820485586414303 0.0729253434295300818 -0.171193206084933436)
(-0.188590194641740927 0.0617520848705457176 -0.175010207664467704)
(-0.150400377694497239 0.276963388975381197 0.0235725668919113257)
(-0.537707502646270652 1.02942881581672685 0.557513723353170509)
(0.35689539843816559 1.94004258234645066 1.08611061620339111)
(-0.213544380296805975 0.135461700340674146 -0.0061922565116844068)
(-0.206967728214273894 0.142425988974559936 -0.00924131638685226492)
(-0.201485712327173966 0.148528091370218301 -0.0128386203470550464)
(-0.197120457337614824 0.153697078352120986 -0.0169162531190262394)
(-0.19400326839014731 0.157943735061798596 -0.0214553689956509322)
(-0.19216781272923858 0.161351213392139731 -0.0264851900089217787)
(-0.191588973437423149 0.163896264678731723 -0.032123682190126096)
(-0.192222847557004861 0.165436556581657068 -0.0386305380366661483)
(-0.194080878039236904 0.165682378068421648 -0.0464160569021199801)
(-0.197242136548097191 0.164261370709637394 -0.0560368313423241088)
(-0.201754163658118518 0.160614634926971478 -0.0682366205210180876)
(-0.207278702976729956 0.153433434985461081 -0.0841280750751370321)
(-0.212748144425112556 0.139548433059999255 -0.105202304343477271)
(-0.218916028069853691 0.114318478448142802 -0.132051534160320588)
(-0.229834348568666857 0.0811867409795636041 -0.158520861935959961)
(-0.231156591727315064 0.0763213736965758921 -0.158559252239098974)
(-0.231581980019159639 0.293153780419484034 0.0356968342435426411)
(-0.531918724595432213 1.00966810332047352 0.532312998933646808)
(0.267276468479188178 1.84663579052204074 1.00354856000666781)
(-0.225015045774972361 0.116512920201734996 -0.00146409412547960673)
(-0.216849109356950787 0.125397010249838708 -0.00295514557579748451)
(-0.209643179631219284 0.13355548581808438 -0.00526580221666446673)
(-0.203523911986753264 0.14077334508114131 -0.00820726131501536144)
(-0.198481650145717697 0.147164564958663618 -0.0116420738673701767)
(-0.194569571639679695 0.152669769678747513 -0.0155020935373668851)
(-0.191886504856016854 0.157326243343036243 -0.01977180247662505)
(-0.190478881258156735 0.161175118468934675 -0.0244944533952277353)
(-0.190363504454133359 0.164202998863031163 -0.0297851318068091744)
(-0.191560422391295448 0.166299837583743226 -0.0358763522585342221)
(-0.194141955141930972 0.167236414458756782 -0.0431212687545317053)
(-0.198247014229836899 0.166683346282696709 -0.0520043582103499671)
(-0.20405397060830785 0.164099557810736235 -0.0631855242557654018)
(-0.211585398423501714 0.158263749451564933 -0.0776398408534423601)
(-0.220527388894808551 0.146242648402711922 -0.0967109789209344012)
(-0.23235631732030973 0.123630930681445206 -0.121019008468351286)
(-0.251839313628649197 0.094086898955891507 -0.144167725862772655)
(-0.272390571304508389 0.0949569343823083029 -0.138206019286100545)
(-0.305723771735691319 0.317886698196816364 0.0525289180183696053)
(-0.527586547429961916 0.978732365853432151 0.501149493586911299)
(0.173057355693017084 1.74779689100066093 0.913769619893601504)
(-0.212881911744767421 0.157562798916625474 -0.0248837272203790982)
(-0.20798463124615299 0.160199780909333456 -0.0303748055085863895)
(-0.204593652432870393 0.161947662329839676 -0.036447961286615628)
(-0.202453006618178694 0.162897446586465544 -0.043117375477734407)
(-0.201230240883506856 0.162686881133123573 -0.0509068572083650195)
(-0.200941393626633241 0.160824788052258721 -0.0606984116604060778)
(-0.20174808211963341 0.156997238178752829 -0.0734597446556641692)
(-0.20336550877278306 0.150767755085273097 -0.0902811189395827107)
(-0.204301973984580332 0.140921430422268817 -0.113320046621611048)
(-0.201013034023744597 0.124586074962741683 -0.146421880979178853)
(-0.189998143625110333 0.0988566945024498267 -0.192864644682802705)
(-0.169681555702883013 0.0690493115744777314 -0.246815521451074271)
(-0.108111700143436629 0.0604614463169519528 -0.26618687331696278)
(0.0649740282293640448 0.225553886432781486 -0.0845141497096568578)
(-0.596534515426433876 0.933315838123494945 0.578092109824305256)
(0.623874795613905686 1.84511169425758825 1.25657477888900693)
(-0.210632783305508359 0.15834071477465797 -0.0245663931083350932)
(-0.206225086843506322 0.161477828623124153 -0.0297600579347862201)
(-0.203277977168503238 0.163710556013360625 -0.0355435828290510819)
(-0.20162537729324298 0.165079602313100537 -0.0420276286914433236)
(-0.201083901816271587 0.165334931151070702 -0.0496385443040159233)
(-0.20170153219298903 0.16405637460022196 -0.0591531180107583016)
(-0.203608911280620974 0.16087604997615354 -0.0714905795318688114)
(-0.206645816921548764 0.155377529044344515 -0.0878542771053779925)
(-0.209557656402747733 0.146392744501096461 -0.110391335630649748)
(-0.209200932916599469 0.13108356803987703 -0.142618890796582798)
(-0.202826256601992189 0.105857109127822521 -0.186909380076284409)
(-0.189219726188689485 0.0743409340949257313 -0.235739914171028103)
(-0.13994953733479934 0.062962548352773734 -0.250006272611969171)
(-0.0349088274172135171 0.238190785937133331 -0.0553048476952327436)
(-0.571283823897173693 0.955483412252727593 0.583809324505709326)
(0.53482165128022896 1.82503250361557567 1.22292743520140412)
(-0.208435558816782218 0.158506945454707393 -0.0235500882864349212)
(-0.204502015202661258 0.162082098179234774 -0.0284491444064967)
(-0.201991658124913903 0.164767623728032941 -0.0339329637103981258)
(-0.200829996431592439 0.166576524224259698 -0.040150500534755329)
(-0.20093797859367063 0.167310697168124578 -0.0474941992960931716)
(-0.202399245407234557 0.166625258703578916 -0.0566402374833418834)
(-0.205340728917943055 0.164174296530113228 -0.068446391130424028)
(-0.209698884216871856 0.159534503211087253 -0.0841383325027525303)
(-0.21449261371954359 0.151595434758972247 -0.105769240249579621)
(-0.217123115257704058 0.137378791785458115 -0.136388317654821706)
(-0.215787819536893966 0.112523392725185356 -0.177589532263943667)
(-0.210432771386145773 0.079506215667823843 -0.221094389115233436)
(-0.177889170750075626 0.0697964377323982144 -0.23210989442669383)
(-0.125521577890352037 0.250812292158490657 -0.0279450137799241716)
(-0.557877153046973384 0.960052392821368006 0.575621860330327917)
(0.444823112087799233 1.78699642970792461 1.17474078373457047)
(-0.206168701403955767 0.158196132784394178 -0.0220772160371934534)
(-0.202691782253592551 0.162185617348701766 -0.0266852688037723176)
(-0.200613380713155376 0.165311789358776745 -0.0318647921977675275)
(-0.19993581287519932 0.167582342370510673 -0.0377793826032284327)
(-0.20065886332140162 0.168825467206325547 -0.044788344202945099)
(-0.202890183167915267 0.168771518581580682 -0.05348356386164764)
(-0.206785283625304933 0.167132769267467396 -0.0646689584525300953)
(-0.212375111974881292 0.163471847773271672 -0.0795144980261632273)
(-0.218973145417888704 0.156698492500443376 -0.0998774324803291258)
(-0.224633806578438427 0.143730868664652928 -0.128369930839463853)
(-0.228705887122490625 0.119642515200161753 -0.166189378198922488)
(-0.232741431713768765 0.0865357902825272252 -0.205140358225414154)
(-0.218713271202157278 0.081306901551817079 -0.211113469298504552)
(-0.205125916435581868 0.265408949283816253 -0.00628961718253287505)
(-0.551323719643063148 0.952427505117230511 0.557360008342499991)
(0.351697654872667964 1.73284597709022736 1.11403555313990421)
(-0.219814439344951873 0.139221450218427356 -0.0104874923641648694)
(-0.21344654734426019 0.146165334783000755 -0.013254651789384609)