/*--------------------------------*- C++ -*----------------------------------*\
| =========                 |                                                 |
| \\      /  F ield         | OpenFOAM: The Open Source CFD Toolbox           |
|  \\    /   O peration     | Version:  2206                                  |
|   \\  /    A nd           | Website:  www.openfoam.com                      |
|    \\/     M anipulation  |                                                 |
\*---------------------------------------------------------------------------*/
FoamFile
{
    version     2.0;
    format      ascii;
    arch        "LSB;label=32;scalar=64";
    class       surfaceVectorField;
    location    "0.330000000000000071";
    object      Uf;
}
// * * * * * * * * * * * * * * * * * * * * * * * * * * * * * * * * * * * * * //

dimensions      [0 1 -1 0 0 0 0];

internalField   nonuniform List<vector> 
20856
(
(-0.189397859318920864 0.161683215427533555 -0.0186789279470245088)
(-0.193552586055764336 0.159919840668256402 -0.0160143844490241265)
(-0.180608861475548166 0.15829612786283484 -0.0107867530805961318)
(-0.183907478829055976 0.162302307408003721 -0.0263885757746146477)
(-0.187285458066404897 0.161118106751338447 -0.0235435821059451142)
(-0.191459425101462161 0.162962773236193875 -0.0231092087850460724)
(-0.175287076865870195 0.158930519424529293 -0.0203747239898254169)
(-0.179201938201410366 0.162215804805608377 -0.0337076363233267465)
(-0.182340583076561868 0.161293196139248668 -0.0306130272965324315)
(-0.186508445767764985 0.163246346337522663 -0.0302712015307707583)
(-0.171052704599784833 0.1589671850231896 -0.0285519875464565059)
(-0.174945831390225182 0.161777003227362548 -0.041317484524359599)
(-0.178296633159781198 0.160975377271068004 -0.0377526162869871729)
(-0.182587935878541857 0.16321480250848075 -0.0374707068911964841)
(-0.16722533521261404 0.158792067111831331 -0.0360644223497164906)
(-0.170428541184530963 0.16071252475468778 -0.0496503813624117538)
(-0.174452489635716329 0.160340995667372505 -0.0454621075128146743)
(-0.178716919975708655 0.162921852124437272 -0.045387899870067451)
(-0.163436917434487489 0.158257318259249019 -0.0440976399904420904)
(-0.164460860679603638 0.157410124733899648 -0.0589720750629783505)
(-0.169494025314094798 0.158516159848853561 -0.05397716566243764)
(-0.173681457642068882 0.161206821698914177 -0.0543117278646005966)
(-0.158608633637087798 0.156675941610249364 -0.053104779279459946)
(-0.156954934741682983 0.150297993221988224 -0.0697232735307549145)
(-0.16285535872584167 0.15338919664247988 -0.0636756717362946117)
(-0.167218088019265715 0.155960037042543881 -0.064814040439540116)
(-0.151849784666161225 0.151778087464225442 -0.0628760505671579761)
(-0.148293070204541133 0.140020277426488482 -0.0820827800206831854)
(-0.155594276172935114 0.144494102813161301 -0.0750950852171006628)
(-0.160410057209729978 0.147211080295098551 -0.0775051138475583851)
(-0.143883966849817052 0.142711895092546948 -0.0734517264480501753)
(-0.136679596339876447 0.12782157726025889 -0.0956150037530226482)
(-0.146791889774713358 0.133164331307299266 -0.0881600103862043016)
(-0.151810351289165701 0.136295309502682399 -0.0921898585437725959)
(-0.134366109066034273 0.131384664740169355 -0.0849041312378899793)
(-0.117953851364426196 0.113754423854063591 -0.109347485777116005)
(-0.13259085637186277 0.119521564776032388 -0.102529058162019709)
(-0.1371272390503529 0.122615313011532473 -0.108537716290782044)
(-0.120193886101699038 0.118994593760113454 -0.0968921460345385094)
(-0.0872197009624882252 0.100672419514899567 -0.119703551428975374)
(-0.107855570574061144 0.103110969068051853 -0.117116968200231319)
(-0.111373063518653906 0.104794874659906931 -0.125831135331817279)
(-0.0967258582018926671 0.106202473340682141 -0.107652602079791201)
(-0.0388191688988870631 0.101096032982733244 -0.112154352615154995)
(-0.0710453955429488776 0.0901951131573191789 -0.125886609383301901)
(-0.0728091266804077736 0.0888415249668624979 -0.138314741250424006)
(-0.0626612737144942311 0.100361056392515927 -0.110256349872696433)
(0.0280173138885073808 0.227540650562005425 -0.0141230435918431596)
(-0.0563629610146800172 0.100304956160438261 -0.105599193220346194)
(-0.0517164525231824726 0.0948783019885084539 -0.120996927459659842)
(-0.0623752503032556707 0.119375683267311516 -0.0840562346656729131)
(0.049363975062844262 0.660075861205262959 0.32133266225220497)
(0.335991901418175087 0.349603425678177815 0.06785755776715649)
(0.341759852357483462 0.321832466393027983 0.0555776706283342484)
(0.340907914728223349 0.372451391388873843 0.0858975172501051515)
(-0.00826706293327368613 1.77374721261019164 0.917911815342150494)
(-0.540153961148433392 0.987902709640374743 0.565570908383170812)
(-0.552139676521951839 0.954929034793586373 0.578497399761446873)
(-0.526841308825246935 1.01976538624446045 0.567508858480792577)
(0.656458435015917718 2.55564295103717454 1.24004958191233561)
(0.670483933035292634 2.48717337996417598 1.28543961959928321)
(0.677681073819390911 2.62867806429683615 1.223049501856184)
(-0.191219063356623087 0.15943838669735505 -0.0208790386079447006)
(-0.193753707865130936 0.157172071606179103 -0.0175147194097547733)
(-0.197722534211656364 0.159152139848736301 -0.017724994693340608)
(-0.188481430630922653 0.157050891103223178 -0.0163417393294231772)
(-0.185927379826555633 0.160205625577993421 -0.0277680336278629328)
(-0.18788093832548669 0.158649185614914201 -0.0242070936311370999)
(-0.191687312054286213 0.160764834893076553 -0.0243080121303135728)
(-0.182649025990561403 0.157755345269317226 -0.0239593179057882542)
(-0.181713534793063652 0.160245445779742313 -0.0346580072601929551)
(-0.183419577198745187 0.159161102181244574 -0.0308420629654646145)
(-0.187208937093620964 0.161362756127737761 -0.0309829832674641953)
(-0.178166642362940109 0.157733502645831108 -0.0310390595871090427)
(-0.178010559568416465 0.159809655151961799 -0.0418972392754421788)
(-0.179918244077638845 0.15912021044367633 -0.0376835678188384565)
(-0.183784871850390552 0.161507377013551084 -0.0379789755871106915)
(-0.174431692392737314 0.157435738634495392 -0.0379919571629904473)
(-0.173996573094122309 0.158427737728712298 -0.0497888918128403732)
(-0.176574883013129014 0.158433354085918771 -0.0450414479995456044)
(-0.180473131304620366 0.161065614461947171 -0.0456058367812427271)
(-0.170695276612665814 0.156653263372386331 -0.0454128517920267538)
(-0.168810477001579556 0.15481552859605649 -0.0586807623357537764)
(-0.17235464928649627 0.156248534136074368 -0.0531834202157009106)
(-0.176282465967467494 0.15899839107472305 -0.0542148232140158351)
(-0.165882062980172273 0.154472156907566049 -0.0535685185618569662)
(-0.162581644803675374 0.1479419983330717 -0.0690474834226403045)
(-0.167031571009354424 0.151165715404821682 -0.0625600971272673584)
(-0.171185132755802244 0.153938281901346008 -0.0643816033998530213)
(-0.159559670474159587 0.149313014336810879 -0.0626021638035296479)
(-0.15530999697497333 0.137988195664953628 -0.0811723155826216125)
(-0.161209220732364683 0.142799391812265725 -0.0736635412946349266)
(-0.165774120457878954 0.145740024803822726 -0.0766641614814832645)
(-0.152467620421132599 0.140670727721967398 -0.0727832565072395188)
(-0.145004340515304531 0.125142888511401928 -0.0950740647952011686)
(-0.153774481249708439 0.131502458199194705 -0.0866944782482228365)
(-0.158581962283887712 0.134754196853068303 -0.0912441689476841122)
(-0.143842859341148183 0.129440329988820046 -0.084262677976933556)
(-0.12760413055650785 0.108960402700529452 -0.110298540585134969)
(-0.141066936972312235 0.116497889753549702 -0.101851824970280669)
(-0.145675563343471565 0.119760163877242587 -0.108399473695207679)
(-0.130252569739528784 0.115740005853744068 -0.0970470726114325694)
(-0.0977062489332883033 0.0923698324204421661 -0.123300026154557874)
(-0.117937725539416963 0.0970902161531632946 -0.118325937746070142)
(-0.121997384549812446 0.09945363187260918 -0.127634519448533601)
(-0.106657516024934201 0.100058969502248282 -0.109781077806592561)
(-0.0491399228848237307 0.0882272598256553658 -0.11933144998849278)
(-0.0828325798478203035 0.0796003453158074803 -0.129882789962589146)
(-0.0858871866378774357 0.0799740616173571922 -0.143008960837526122)
(-0.0717341305619716429 0.089699454956630717 -0.115636859486493909)
(0.0191112939905158929 0.219512093525473156 -0.023618591861344268)
(-0.0639985607796816486 0.0846390190758262162 -0.114117362586315788)
(-0.0612334875796793007 0.0811523224585357084 -0.129742606401326399)
(-0.0618873036644018784 0.102876981324779071 -0.0928259407466460323)
(0.0594711309244969621 0.676640904048174674 0.31209580389813274)
(0.300480886564826744 0.3444329439058752 0.0575848440679241139)
(0.299968289692199686 0.319541099489328517 0.0471765116647412455)
(0.321168445624618104 0.373335017714311879 0.0771953897207416084)
(-0.0323293089057798966 1.77081742944962039 0.887708674953352483)
(-0.524748112184922677 1.02379096464235397 0.557336003722523343)
(-0.537563743977677588 0.999175430895434924 0.572686829467225267)
(-0.517195645601684184 1.03550924473214545 0.552662971995073637)
(0.614214645547811355 2.50632869387853097 1.18532540832934608)
(0.62548758078856781 2.4470164205718099 1.23651182448253416)
(0.640811095392999075 2.5923705576245788 1.1702123177636754)
(-0.190269870594394097 0.156601079763367984 -0.0208427744329471136)
(-0.192235636790597769 0.154277345780688219 -0.0172890028443632091)
(-0.195975419959741742 0.156357831365430466 -0.0178640370169278057)
(-0.189404404914726099 0.154213786160229405 -0.017365152037544896)
(-0.18549440199509018 0.157835598019164636 -0.0272811229687388405)
(-0.186960117157019323 0.156226467612857522 -0.0235069635824456218)
(-0.190577797118505726 0.158423702671023875 -0.0240238533262788316)
(-0.183885172476876302 0.155432061448736336 -0.0241016878432663041)
(-0.181846124645786283 0.158269982343898274 -0.0338676235241102686)
(-0.183049650141778736 0.1572084722077568 -0.0298177928846745099)
(-0.186631671829188384 0.159514910158630396 -0.0304019313417070516)
(-0.179750048436761151 0.155856598477102148 -0.0306664541066624038)
(-0.178703694495024407 0.157989499658572397 -0.0408277765429418751)
(-0.18005723181580402 0.157478642053125589 -0.0363865899436428691)
(-0.18367594578358587 0.159948528261200013 -0.0371488541636741734)
(-0.176400940932676747 0.155768868838209895 -0.0372965324968442119)
(-0.17537552693678829 0.156523415126087445 -0.0484359764024059961)
(-0.177276385510314133 0.156860752656184488 -0.0434670324240412145)
(-0.180944892646424993 0.15952237726994753 -0.0445279211837243186)
(-0.17306273919585824 0.154929554540901404 -0.044349256970151997)
(-0.171345090047072157 0.152909763480263167 -0.0570627550072143261)
(-0.174016959025754259 0.154630397651250584 -0.0513449293505915602)
(-0.177772391963811005 0.157425238187039213 -0.0528812535636961831)
(-0.168940623880194679 0.152518838395033884 -0.0520868882817853568)
(-0.166648503599952452 0.146375014870517045 -0.0671761549992617724)
(-0.170171335800721912 0.149800617356238064 -0.0604665661370507798)
(-0.174166277837638522 0.15269391511866473 -0.062760353955097839)
(-0.163845256170370962 0.147432857169129738 -0.0607914162536933519)
(-0.160949961469591729 0.136668360107464859 -0.0791857039602359702)
(-0.165894203767843251 0.141906830592517158 -0.0713128888952909157)
(-0.170257673688281985 0.145003563077818975 -0.0747133672747613414)
(-0.158109303146057645 0.139220099943577119 -0.0707984864553760085)
(-0.15235126081550926 0.123157152270565701 -0.0934722384233019898)
(-0.160090183697845667 0.130596875491083675 -0.0843354989488884765)
(-0.164721092756346749 0.133994748848317913 -0.0892212367833823544)
(-0.150753530722164186 0.127937467463730525 -0.0824346830714420137)
(-0.13705416701338935 0.104821765105147152 -0.109879222131215926)
(-0.149425152662371469 0.114318766343786363 -0.100086476380415818)
(-0.154050050375412945 0.117879114483337571 -0.106967371608049588)
(-0.138437988181209115 0.112863194662813721 -0.0960328186075989076)
(-0.109796485147080874 0.0845191681274985174 -0.124908701554101539)
(-0.129033748227668221 0.0919963587430385338 -0.117874294967079685)
(-0.13349884400469858 0.0951252759490592015 -0.127591542445784745)
(-0.116121634335127857 0.0940881759640059961 -0.110529062131194664)
(-0.0655296508202285605 0.0754615598365195595 -0.124668702560411696)
(-0.0985031226249376279 0.0704065790526998553 -0.131571862325974204)
(-0.102371379526424708 0.0717364343807012639 -0.145114094070963401)
(-0.0826333545363878708 0.0790089745073077193 -0.119241312182229109)
(0.0023558062259369239 0.206553857916012051 -0.0329139266570435893)
(-0.0776166798064449048 0.0685976613715175848 -0.1207581670826402)
(-0.0755415105221862726 0.0673143201824120824 -0.136477897998099063)
(-0.0683707193224898369 0.086319665713781385 -0.100676556673470641)
(0.0567711399545292039 0.690874962216851185 0.302825043892321344)
(0.243434846009573103 0.331767094976128052 0.0493602196794592149)
(0.243656307911596232 0.309823396380618565 0.0384170576857311291)
(0.286809144135682592 0.365759844891581809 0.0675013947859711416)
(-0.0540513272089333252 1.76280399296172674 0.854952737098522375)
(-0.511088304009666761 1.06576573726256374 0.548722853130099053)
(-0.523025063333566131 1.04330043919113802 0.566809499264695371)
(-0.503753145873825359 1.05869176905948148 0.539935851306989512)
(0.564576826194885584 2.44582858151123306 1.12565116865285031)
(0.574161425957328664 2.39186775343715352 1.18097101858470177)
(0.598492692395889314 2.54268468759582067 1.1140216071230955)
(-0.188815765425404014 0.154048168632813703 -0.0199531919938617172)
(-0.190422611379460011 0.151707345811768812 -0.016379870583517999)
(-0.194060732584193513 0.153851345252244642 -0.0172694876733400712)
(-0.188311337608166346 0.151388747151261882 -0.016757113776449787)
(-0.184577088775452397 0.15577485619351511 -0.0260436334983812946)
(-0.185746381118794018 0.154149102175947933 -0.0222398754656773917)
(-0.189270329552393757 0.156386180540397546 -0.0230868243343929705)
(-0.183327178397277024 0.153191254353286621 -0.0230094375284644881)
(-0.181430284981274309 0.156624265515735661 -0.0323367593042071938)
(-0.182342687671744247 0.155610543586585021 -0.0282448661262611825)
(-0.1858125658226914 0.157955220596618706 -0.0291680165473055496)
(-0.179646673029141252 0.154126993423424036 -0.0292218706238559327)
(-0.178845202084332938 0.156578720137548699 -0.0390258458247422432)
(-0.179834984305670187 0.156227082744033657 -0.0345325180705133294)
(-0.183319097591640695 0.158719311103038052 -0.0356456539125044325)
(-0.176742708308110119 0.154343605129642958 -0.035567075355348976)
(-0.176308144837602293 0.155219583212397066 -0.0463759853722268273)
(-0.177687213211165929 0.155802717579084371 -0.0413409493482500903)
(-0.181223679507284741 0.158456252953456667 -0.0427563618548424118)
(-0.173977157762602169 0.153589806180792321 -0.0423356421480559492)
(-0.173493061782297953 0.151806478365498515 -0.0547487404804278543)
(-0.175454147098949464 0.153746201008396755 -0.0489544679909791544)
(-0.179098665506650018 0.15654109481670006 -0.0508393990665299694)
(-0.170811268445975079 0.151206592532905054 -0.049790917383122163)
(-0.170310418728788521 0.145654546264662038 -0.0646033000330797635)
(-0.173023738129085114 0.149283889990731222 -0.0577927218134128146)
(-0.176896511673700269 0.15222787106911409 -0.0604006455373704357)
(-0.167095590195644822 0.146353990425640235 -0.0582508849288964695)
(-0.166285843998648097 0.136174860037469647 -0.0764626838839433665)
(-0.170321905604162688 0.141845957086004115 -0.068347945850641828)
(-0.17452068230550466 0.145035947893711159 -0.0719974115869290443)
(-0.162836184195807421 0.138506317087373404 -0.0680955243116809356)
(-0.159773990777234781 0.122085816712571696 -0.0909497369060023042)
(-0.166401457730609076 0.13058275548653589 -0.081247369438358516)
(-0.170865766461592655 0.13412040784772572 -0.0863165615887090953)
(-0.157066471319888989 0.127136210646497216 -0.0798341709285531054)
(-0.147432652243026791 0.101770812874052929 -0.108081549216279743)
(-0.158297159181110036 0.113281894205722405 -0.0972457704665252581)
(-0.162858287324836787 0.1171568747415144 -0.104291039607359776)
(-0.146686262635929349 0.110750551413738532 -0.0940266066982044235)
(-0.124334516615081922 0.0780277458042208522 -0.124537455738952529)
(-0.141869529531050698 0.0884147768903908171 -0.115787652268938834)
(-0.146547549775978447 0.0921791127964774332 -0.125648422381702707)
(-0.126860593936148403 0.0888132626764706889 -0.109720094413626679)
(-0.085692168756001677 0.0635036413367946889 -0.127661326848202611)
(-0.118854865920999753 0.0630404334992241966 -0.131197482657705422)
(-0.123273058297143356 0.0650327015894108934 -0.144373463377316547)
(-0.0976756486011525621 0.0690185351365287802 -0.120470040189191496)
(-0.0248720904961012013 0.192552821796278695 -0.0384840207461351266)
(-0.0949914635566749543 0.05435337148025466 -0.124396014767677837)
(-0.0936780509761507563 0.0545446141656021205 -0.139737939454533361)
(-0.08064374375354251 0.069958430952769296 -0.107409684313482856)
(0.0213472504455082812 0.7040673615188624 0.295258028917233961)
(0.161377369962719952 0.319106876696991948 0.0465520877470433428)
(0.156884900774805713 0.302817887933316376 0.0379563010212065274)
(0.231684817744864213 0.351963131909389881 0.0588529803124411971)
(-0.0786689727457297316 1.74821951225032102 0.819421284684441975)
(-0.504611172936358932 1.09956625719765499 0.536972652790343341)
(-0.515221762327125354 1.07994725920260448 0.558258206217826847)
(-0.490503866840882652 1.08792814683534456 0.525841225736659146)
(0.507340659277917716 2.37203258852896992 1.06314273613633747)
(0.518951360771826797 2.32691422894915334 1.12195092410019615)
(0.547475412550300633 2.47873697244968527 1.05302742624395362)
(-0.206535146200518854 0.138382667945310039 -0.00277500683731295768)
(-0.208943705421045012 0.133754437211819677 -9.22249801092819453e-05)
(-0.212575333791695908 0.135755191319386431 -0.00209122022443132809)
(-0.208639508974379329 0.134502719165328799 0.00131490430477653407)
(-0.198714904409014126 0.144145161733710975 -0.00770376077296123889)
(-0.20074212533430863 0.14022149217671051 -0.00467857777838079098)
(-0.204453386407504795 0.142247675683633029 -0.00628598430666484943)
(-0.199775056269588164 0.140613661649969662 -0.00394455653160652887)
(-0.192301355538323171 0.148659452605535036 -0.0130610174294904756)
(-0.193978007162421862 0.145501391830321902 -0.00976432794541547654)
(-0.19765595354282664 0.147579905249769938 -0.0110810418153377555)
(-0.192505387179060961 0.145446974533869705 -0.00964777831484308832)
(-0.187255531631525474 0.151944315203628305 -0.0186665540553337013)
(-0.188534593560536451 0.149566198616253559 -0.0151435227409161734)
(-0.19210799132896178 0.15173334934137378 -0.0162864754168298501)
(-0.186672663754060469 0.148999136535156035 -0.0155274939072421962)
(-0.183537397359078175 0.15413778354644736 -0.0244411080935572483)
(-0.184420137807515816 0.152473674034795642 -0.0206885509523905102)
(-0.187883211176428117 0.154722104165328556 -0.0217880228008626199)
(-0.182258469859570449 0.151341819881219669 -0.0214222804813531086)
(-0.18087428882653564 0.15539655326251306 -0.03044062489256745)
(-0.181502360618722242 0.154399096957060944 -0.0263971274920987882)
(-0.184901481196554224 0.156739118392329901 -0.027570647491023486)
(-0.17904588721492451 0.152759545408982372 -0.0273303574220708501)
(-0.178866329468051227 0.155660115802025267 -0.0368476215940211141)
(-0.179494812339976051 0.155399862066700256 -0.0323972927066278546)
(-0.18289190334853242 0.157869434799963293 -0.0337539506036902068)
(-0.176621698005485522 0.153322354696258017 -0.0334004307822059615)
(-0.177161858406968936 0.154562272828187908 -0.0439194319670024522)
(-0.178025794712867058 0.155282579630268869 -0.0389127404911613975)
(-0.18147117866524759 0.157900312079001959 -0.0405672848575163933)
(-0.174520208405300858 0.152780024832492978 -0.0399032135812882258)
(-0.175526950257339581 0.151489283817188763 -0.0519984493239640799)
(-0.176804726247897892 0.153552071733278728 -0.0462230280331287421)
(-0.180359145904723406 0.156324634674929408 -0.0483344112993178629)
(-0.172372596903006658 0.15060494226146276 -0.0470901562128052606)
(-0.173821327490035538 0.145779135769803558 -0.0615373676309748721)
(-0.175711435265545612 0.149548689004158658 -0.0547190977632489445)
(-0.179471313224346563 0.152511141449083565 -0.057516990073462837)
(-0.170013244869208435 0.14608994441170256 -0.0552863053036315721)
(-0.171584694584146158 0.136592740274783547 -0.0731326314050567555)
(-0.174622213157591827 0.142612706380356863 -0.0649034181168144653)
(-0.178665754495254542 0.145863524837254205 -0.0686822805610204506)
(-0.167310470782785714 0.138614394434589422 -0.0649141071962133082)
(-0.167509886915357092 0.122167229396441632 -0.0875434029988815254)
(-0.172802987449438367 0.131553181897937049 -0.0774950067345903659)
(-0.177088627269499477 0.135216329199312479 -0.0826266159632416536)
(-0.163434152154193713 0.12723232725903233 -0.0766084911972376853)
(-0.158996389597036325 0.100358727738849268 -0.104951873519184682)
(-0.167759721752202079 0.113679943572969094 -0.0933498827624049538)
(-0.172158305293185598 0.117849908765186334 -0.100378536552817255)
(-0.155564229663937181 0.109804560902808893 -0.0910674933769142769)
(-0.141612727120403209 0.0736206968088945896 -0.122447679187691727)
(-0.156609669747778679 0.0868656754693846733 -0.112129521056405723)
(-0.161180162839005714 0.0913009565532444806 -0.121764009922462835)
(-0.139490730560493353 0.0851486195725780215 -0.107483225396982032)
(-0.110345360005373899 0.0543567077299353177 -0.127932170577180704)
(-0.14359063317193993 0.0580869142806008307 -0.128757603345417942)
(-0.147718547737472894 0.0611066006804588391 -0.141329790568913455)
(-0.117651653152872543 0.0609060527122088011 -0.119977990211879354)
(-0.0646455005719026865 0.182391272975817365 -0.0393599062744978481)
(-0.119234544066352949 0.0456234546118453391 -0.124382621432703969)
(-0.119721334145340544 0.0471263306672210641 -0.139492081507278154)
(-0.0976545427185836479 0.0561155776419548086 -0.111260009866464324)
(-0.0393418287803751765 0.714731330133112297 0.288266711620151106)
(0.0559442443701955866 0.313724021725781399 0.0484935890732682631)
(0.0513009567210919726 0.300911581539624384 0.0413811736018995999)
(0.150544597689114046 0.339867651250576941 0.0559135379025504503)
(-0.109038094531913751 1.7236688965338014 0.780694104242247944)
(-0.503639968351181744 1.11940111628518446 0.520491992150289184)
(-0.514125299508251477 1.10189475090303723 0.542805547082785722)
(-0.486500774927091428 1.11728945338177543 0.512776989875034728)
(0.440429568910501446 2.28615229348595994 0.997056529901914623)
(0.454318544188139661 2.24813349190127587 1.05570068307760079)
(0.489782863717789785 2.40409591047631377 0.992977994256201146)
(-0.203101857225433252 0.135756781965104933 -0.0019957959211770542)
(-0.205150543209640851 0.131185588077074311 0.000680736668768285253)
(-0.208852100688624809 0.13321663045775689 -0.00143608293079880564)
(-0.204885134070508207 0.131599566917947747 0.00205991413618488405)
(-0.195885518140717613 0.141742007348383714 -0.00673914495083505205)
(-0.197567525074572314 0.137863508554040837 -0.0037697144889584774)
(-0.201289318121832844 0.139885303379326392 -0.00551497528666668874)
(-0.196687430996923096 0.137955186893800957 -0.00301208024715933715)
(-0.190078380692141363 0.146562184384780275 -0.0118468332568411501)
(-0.19139554445273857 0.143427073312837911 -0.00864400723869964034)
(-0.195059411653104114 0.145485649920689658 -0.0101108172382206041)
(-0.190068744644407012 0.143118123663337066 -0.00845547973144401832)
(-0.185601709323168884 0.150238931225465999 -0.0171655196379730084)
(-0.18653121353682417 0.147840617061950008 -0.0137587386962744977)
(-0.190079441453113535 0.149960806701148947 -0.015059846427599461)
(-0.184859151373878594 0.147051220659497217 -0.014035683167340161)
(-0.182383531127848109 0.152880266140638182 -0.022644570350932109)
(-0.182942594587401947 0.151185692277186451 -0.019015392562334834)
(-0.186377420812894212 0.153374960701089497 -0.0202693588333896536)
(-0.180987395788495542 0.149880046784513665 -0.0196247288473308211)
(-0.180214727796310176 0.154562400982601988 -0.0283537953061593802)
(-0.18051050075490252 0.153564614461121546 -0.0244348414885748148)
(-0.183869982698648682 0.155837450515180581 -0.0257511691122328107)
(-0.178248571994058191 0.151761258306604363 -0.0252493725697815474)
(-0.178805008730760134 0.155204133707534581 -0.034462411603768138)
(-0.179026194962283114 0.154981319961279729 -0.0301424173162511549)
(-0.18236870257159335 0.157373745016119532 -0.0316239198878920449)
(-0.176344952856437309 0.152711669499206754 -0.0310517144058638089)
(-0.177929632524328835 0.154481856632737613 -0.0412163365572876528)
(-0.17825002771362855 0.155265164760020724 -0.0363364540745148012)
(-0.181628758459679407 0.157795560612150637 -0.03810856473869563)
(-0.174947994881926444 0.152487141160794759 -0.0372713540853152822)
(-0.177426257764559864 0.15185688467074504 -0.0489436764724135998)
(-0.178003946446525452 0.153977388066183496 -0.0432934952532297371)
(-0.181475130219901248 0.156672205794938652 -0.0455061425930995689)
(-0.173801218846406508 0.150647472466931276 -0.0441589316690699091)
(-0.177173892688798823 0.146671537448869904 -0.0580851482490885723)
(-0.178194929089175974 0.150527411826210017 -0.0513773031616083647)
(-0.181837159306840218 0.153440289196529023 -0.0542404646035343149)
(-0.172757941094353273 0.146562353956696645 -0.0520369406684230429)
(-0.176816152252914055 0.137915941171272483 -0.0692657934463477842)
(-0.178749111080655249 0.144192072980594332 -0.0610853777008433033)
(-0.182623212979736826 0.147428411803986054 -0.0648718785142362309)
(-0.171678010796757069 0.13953201684143568 -0.0613547433502271006)
(-0.175462633150230363 0.12351466908561641 -0.0833014864981137804)
(-0.179203119826997437 0.133581155701666121 -0.0731608089442273984)
(-0.183259674617266499 0.137280342767584634 -0.0782260624442679964)
(-0.169920704635003472 0.128301293123617016 -0.0728094175081581835)
(-0.171581637354671745 0.100822640760774088 -0.100527530299626341)
(-0.177717561646503763 0.115795464264564163 -0.0885015014283923179)
(-0.181806203144021655 0.120045880143875447 -0.0953126774590887654)
(-0.165090508991342227 0.110208387230349217 -0.0871960217325491588)
(-0.161736621994553076 0.0718610920184995228 -0.118439445214131939)
(-0.172713568539332285 0.087987265781287613 -0.107018972044524735)
(-0.176985368818730116 0.0926831409045931753 -0.116088525361797604)
(-0.154235362959558614 0.083239281382358879 -0.104004969068277081)
(-0.140616973948170826 0.0510134466164707881 -0.125208054200941277)
(-0.169416834055593046 0.056494652441710945 -0.123976015073250789)
(-0.173871125590058573 0.0606103367585141273 -0.135865451402769094)
(-0.14235959901386791 0.0556717980978162427 -0.117941636093647093)
(-0.119528026267110801 0.18103778802175885 -0.0365291260849355814)
(-0.1529210546790776 0.0465618685541968405 -0.120618422178615861)
(-0.154584840435147641 0.0484579111141777708 -0.135026310148949946)
(-0.121796984038330586 0.0491855385576715834 -0.112072285875400371)
(-0.122096052725320731 0.720262009654014879 0.280718869603411414)
(-0.0597844550827083682 0.319570065219345834 0.052432653997755721)
(-0.0612829948853893039 0.307094315086524738 0.0466912263118451978)
(0.0458898599371013738 0.333684884834078654 0.0558082484044653895)
(-0.142286708292517217 1.68243476360092759 0.736854417809953199)
(-0.503231617688890576 1.11632082770241392 0.49818021442175825)
(-0.514368072788446429 1.10312451099291464 0.521399616869980709)
(-0.489583973463374567 1.13398150195887881 0.495046905150410055)
(0.361104762364075238 2.18861629169136984 0.925491425087485053)
(0.376587675636944674 2.15379685845342417 0.982057764473661998)
(0.421009044555905598 2.3151656171745123 0.929272753389002726)
(-0.217160884850178704 0.117514575793992299 0.00619720080767720456)
(-0.223102808936835789 0.113842795534999583 0.00496878843407793681)
(-0.221197246967564876 0.111961315454158689 0.0106563650186419848)
(-0.219909901853818895 0.111615321575961934 0.00812363495049631644)
(-0.207601980376767248 0.126118966751883416 0.00296497112121367392)
(-0.213395153689866474 0.122910330764197301 0.00263664078425595704)
(-0.21025158026978738 0.121181398749750119 0.00730383835579281014)
(-0.209943763938183536 0.120845334789911829 0.00534434742366789867)
(-0.199557712160712608 0.133539206654701953 -0.00109318189901309913)
(-0.205004046705678233 0.130988890508736855 -0.0006578422226555695)
(-0.201017567507632139 0.129178336392288207 0.0029720576815117721)
(-0.201433318859084776 0.12897928755867899 0.0016322184507416911)
(-0.192950105296598451 0.139780029513520282 -0.00567457677682304488)
(-0.198018499476881327 0.13788713607556502 -0.00462384007699742205)
(-0.193499600575524594 0.135808721070598465 -0.00196265441745526771)
(-0.194426420078918971 0.135891542528636833 -0.00269166357076061147)
(-0.187710358224702001 0.144917962498112451 -0.0105559126781329168)
(-0.192326823042707123 0.143764360425514437 -0.00903212915229026879)
(-0.187498339027003663 0.141287273298608129 -0.00718830390277140022)
(-0.188790958714683793 0.141730659554361094 -0.00737063475390161132)
(-0.183770367866903733 0.148985895196065588 -0.0156086116206364083)
(-0.1878802586484003 0.148583260590248234 -0.0137361967990113701)
(-0.182873585941667888 0.145605159819242047 -0.0125013964708264019)
(-0.184448732015925154 0.146487983472618766 -0.0122393109459540024)
(-0.181042843087308086 0.152065887908956338 -0.0208056636999775363)
(-0.184673833227100348 0.152415564738678622 -0.0186674233039975726)
(-0.17951990824197897 0.148887431146659477 -0.0178134975296504357)
(-0.181349322244802713 0.150248186088285551 -0.0172240517660558305)
(-0.179381099225626034 0.154190454785862213 -0.0262234634986666625)
(-0.182642768467515648 0.155325804274309309 -0.0238512875367732913)
(-0.177268210834922946 0.151219095812418242 -0.0231648595838679222)