/*--------------------------------*- C++ -*----------------------------------*\
| =========                 |                                                 |
| \\      /  F ield         | OpenFOAM: The Open Source CFD Toolbox           |
|  \\    /   O peration     | Version:  2206                                  |
|   \\  /    A nd           | Website:  www.openfoam.com                      |
|    \\/     M anipulation  |                                                 |
\*---------------------------------------------------------------------------*/
FoamFile
{
    version     2.0;
    format      ascii;
    arch        "LSB;label=32;scalar=64";
    class       volScalarField;
    location    "0.450000000000000178";
    object      rAU;
}
// * * * * * * * * * * * * * * * * * * * * * * * * * * * * * * * * * * * * * //

dimensions      [-1 3 1 0 0 0 0];

internalField   nonuniform List<scalar> 
7236
(
3.25409698224720962e-05
1.90937016719174566e-05
1.39491534094021349e-05
1.13314639592202862e-05
9.98896078130681685e-06
9.11551031573141766e-06
8.42836225304795036e-06
7.90607472705890342e-06
7.49151098536873601e-06
7.17498979427827822e-06
6.94931945807743212e-06
6.77024620605845978e-06
6.62181178369835149e-06
6.50899914158808229e-06
6.42625527963848145e-06
6.37264107376847403e-06
6.32056664628885223e-06
6.29435421702288734e-06
6.29207543271942584e-06
6.31149765777604557e-06
6.35130164319211533e-06
6.39531701784870985e-06
6.47322444847954758e-06
6.57145023583376724e-06
6.69573869358575015e-06
6.86264721779346046e-06
7.05508485278829641e-06
7.29620730078594951e-06
7.57635968511176534e-06
7.91229740194907059e-06
8.29350582937818682e-06
8.71542666062755756e-06
9.17738428494301592e-06
9.67277608411243432e-06
1.03619055498913721e-05
1.12140605586682753e-05
1.29522243539888567e-05
2.06646331582905549e-05
5.92667489705328489e-05
4.58977766957634819e-05
4.13009860035712923e-05
3.54714028198795098e-05
2.96154711251841939e-05
2.32919912014510879e-05
1.85129152998464222e-05
1.46759851642675681e-05
1.24906758931259498e-05
1.08951185782876544e-05
9.46068238008101017e-06
8.52258386059257985e-06
8.12212614096749806e-06
7.96306654287274718e-06
7.81668745295820418e-06
7.51536160634000742e-06
7.39727901657298857e-06
7.68579336755558113e-06
7.70230263805868538e-06
7.71099210873859421e-06
8.00827153023996179e-06
8.5798873615392576e-06
9.15024155924684547e-06
9.69253755954912504e-06
1.04677100205062819e-05
1.22926300090708591e-05
1.39718486336049055e-05
1.56390700632853335e-05
1.7873606256444335e-05
2.12456706046965807e-05
2.62671626241895268e-05
3.08311866259311837e-05
3.38259716983968644e-05
3.88944200232988537e-05
5.46838353477588316e-05
5.30822215982716989e-05
2.53749503123098263e-05
1.68966756250775572e-05
0.0002112270648765939
0.00012420763904976307
0.000113818057565340922
0.000101273033476714799
8.62961448126295274e-05
7.46839713414663157e-05
6.70821395561984718e-05
6.07549976113753187e-05
5.59473058269675016e-05
5.19108652648496679e-05
4.77016631184407896e-05
4.68529206723381766e-05
4.86976058515041426e-05
5.43309355603815693e-05
5.67515368587283975e-05
5.62863361961550923e-05
5.47469600754154091e-05
6.03054443662629899e-05
6.5815502383196749e-05
7.25147660927974393e-05
8.05012897663914714e-05
8.8957452298725839e-05
9.89600031744816071e-05
0.000110554918418554423
0.000123198900581691071
0.000143309922850954989
0.00016612923065719012
0.000194174665543684645
0.000231732641762709662
0.000278621167038937262
0.000341150608785796648
0.000424332718148494369
0.000530020269724877711
0.00067430070540362545
0.000873752367250700546
0.000352456727834911333
6.86145052806241758e-05
1.84941203137961703e-05
0.00046688095752542416
0.000347122174484178409
0.000309541921801469177
0.000249612690673237645
0.000211062885083096447
0.000203327687462074409
0.000210128165391661864
0.000221028989281917194
0.000227438806832145338
0.000229979902213578371
0.000233424618025924416
0.000245540831814547401
0.000263113194234839407
0.000283836622730790366
0.000300728798673192412
0.000319025229270433384
0.000341817801454229165
0.000382347874035890488
0.000415882446956831098
0.000453643230089470636
0.0004901006648822501
0.00052292892557025128
0.000559014391458662399
0.000601360714025193357
0.000657492907187004526
0.000756762306816620954
0.000891238995055842445
0.00106604696324267851
0.00129864214752793824
0.00159960631240394684
0.001975209119524026
0.00247192963152255722
0.00308648295857572984
0.00381967227306560797
0.00466515080694241118
0.00163458452782110162
0.000128061370228299169
2.2335265722121358e-05
0.00218350357348839896
0.00194206965788976831
0.00123937103555933235
0.00081766948784382852
0.000849883159225004446
0.000994707437738099731
0.00114606436868280046
0.00120860824886272569
0.00113176170802198328
0.00100930244157195121
0.000944249071743791767
0.000935421395664858381
0.000940826038438921175
0.0009681461758185531
0.0010252741989050186
0.00113489519623515629
0.00127298198414980729
0.00143840290813603022
0.00153983371431491733
0.00158458567300973877
0.00158418478106926068
0.00158631169354583315
0.0016440534861142293
0.00177230077566321908
0.00194801283107704382
0.00221865070926394268
0.00261357785661077251
0.00314402419703927903
0.00383607533333786598
0.00464620504689818893
0.00534447047633241582
0.00595008716060855744
0.00676931431026867557
0.00831821530685118195
0.00953002262831755854
0.00399454119238788763
0.000225333237339320593
2.3951301832885869e-05
0.0116215470017247205
0.0121218506314071956
0.007549035436846715
0.00546347064541965674
0.00978647275441333481
0.0112457825383608673
0.00951611826894416084
0.00632684587176486537
0.00434394867376596688
0.00326558646164209739
0.00289691226377401193
0.00273375499797537868
0.0027226220302880343
0.00291875016449171052
0.00330839814241284469
0.00387824829037244868
0.00441996725149800939
0.00474116129276673254
0.0045406661419506349
0.00413521514630641514
0.00379904085002291322
0.00364310484092130078
0.00371890326115921054
0.00402087836152186656
0.00456492714927358382
0.00535904796803918053
0.00622739929990660974
0.00701320788086549993
0.00797878082238301367
0.009385755992025617
0.0112853241999643309
0.013117977811921918
0.0151747872143920479
0.0163109975250919602
0.0133428097435923498
0.00647049554283720893
0.000357850855024480902
2.27138887268815642e-05
0.0130320769223737261
0.0132009824236098833
0.0138957505873987478
0.0154108973138282184
0.0173500700138609944
0.0193312799419918142
0.0214350705914611271
0.017867101834344902
0.0138383633206660243
0.00973436170474610216
0.00889333233133893578
0.00868387847313613348
0.00932960532666809832
0.0109174951153204261
0.0129865728906552163
0.0147304954001580592
0.0150366183476012202
0.0133497150706978693
0.010610242454002411
0.00859963380713492723
0.00753051803490128405
0.00708225354271274556
0.00709360533198261957
0.00766802050424534448
0.008832760135859926
0.0106057335969131326
0.0128706378923926605
0.0150118986275644926
0.0171256029430667915
0.0185809517674797656
0.0188735312364309848
0.0187298265891505007
0.0185514161075219612
0.0181888132785004604
0.0150978391847404053
0.00818799591219013939
0.000439312618377354122
2.37779486357477676e-05
0.0137210929187887437
0.013640728266381727
0.0144962281619910906
0.0160807433166572956
0.017851948252484106
0.0196719197905187784
0.0217010184524144625
0.0226985783431628702
0.0224716994459174882
0.0209632093303990241
0.0217750552445686273
0.0226983407143326911
0.0238337191122644509
0.0245126086825388917
0.0248846954888198683
0.0250228666112086336
0.0249805301633532449
0.0211332867840822274
0.0164866757341109033
0.0135641540725193847
0.0121970419245096585
0.0121066297482282023
0.013208993885683128
0.0150609861986910013
0.0172627228444725521
0.01903147174104243
0.0194680802262005674
0.0195963812825874772
0.019675094848175919
0.0196086567695749926
0.0189689096345705722
0.0178808270453582226
0.0172489390329432363
0.0166710614530098285
0.0140491503211780146
0.00931198315623441887
0.000576854365436543673
2.73710770926482367e-05
0.0138901793341313032
0.0140491742354759367
0.0150081954391018523
0.0165240036623999914
0.0181142008241281585
0.0198596124829746659
0.0217634817907448458
0.0218775036972232231
0.0217990939139682191
0.0216948889405784232
0.0213539367537127454
0.0211337559218851626
0.0211384501343296269
0.0212927897663791714
0.021399578190735475
0.0216517639167001855
0.02191412042820437
0.0214681805475805433
0.0205373636382854413
0.0189848182701456911
0.0185078858615915359
0.0191392126739321454
0.0198844104905494638
0.0197503831348896063
0.0197186468474146101
0.0193781644731932691
0.0186999725751358335
0.0181358460498290026
0.017681428428129517
0.017257798749387647
0.0168209355433917192
0.0162989588828558706
0.0159775890200763507
0.0155876033320572639
0.014015376397671149
0.00983627071435932976
0.000741536888354456182
3.35870294404211521e-05
0.0138631698855570251
0.0144388415946059487
0.0154811103477935572
0.0169847725165689842
0.0184850418023270631
0.0201589036613282133
0.0219937192105689357
0.0223891043779743289
0.0217054406971644021
0.0212108866406378153
0.0209658339045314113
0.0208565517924649071
0.0207585939234624581
0.0206546835525680365
0.0204849834294089685
0.0202825826747723113
0.0201591420466759215
0.0200641307140633149
0.0199442098415307453
0.0196726967441133785
0.0192419794613267088
0.0187064022813279891
0.0138277172096659753
0.0147244073485878011
0.0159117887521647641
0.0174209242900837911
0.0189158102043892051
0.0205594985197569968
0.0222958398685696411
0.0230633586767243839
0.0222573431989625085
0.0216828593709957503
0.0213058160365039544
0.0210514798939827816
0.0208355635129084636
0.0206023270580291927
0.0202933436653158737
0.0198709548610769768
0.0193428745039607927
0.0187721323050320278
0.0182657276403287161
0.0178693579942982815
0.0175932985907913085
0.0173865126360179326
0.0138034115532565029
0.0149112023797893112
0.0162852150760874927
0.0178639919020834106
0.0193979717451623727
0.0210266329133314556
0.0226747640592405361
0.0236706619710194029
0.0227811156299772728
0.0221367301479762704
0.0216664995082714723
0.0213097033137673794
0.0210085485687768227
0.0207052873560130586
0.0203410475553702889
0.019876622243588455
0.0193167232298331118
0.0187306297535860915
0.0182347111614225288
0.0178572351710148576
0.017587344776216509
0.0174185727992390016
0.0137637826388476488
0.0149854194077866723
0.016639119484503171
0.0183427765092464487
0.0199315177398478281
0.0215353347157821659
0.0230939973896752762
0.0242058131981129562
0.0232349307775478325
0.0225198726412433291
0.0219778803017124519
0.0215515112600213089
0.0211930922907400641
0.0208513676283469292
0.0204730488285828176
0.0200194902390509154
0.0194963520146607359
0.0189643369268419522
0.018504304420498302
0.0181452819432638413
0.0178860110864682148
0.0177123407801028435
0.0228550598544888794
0.022252098816794727
0.0217732076950612335
0.021372078080955148
0.0210015475121393264
0.020614802323020355
0.0201779167059583792
0.019695012840438255
0.019212417940041835
0.0187843436569921779
0.0219753008639372686
0.0215370759901882432
0.0211402912265942836
0.0207420906477007033
0.0203130509666496553
0.0198559778913751581
0.0194053509803401927
0.0189994734492652979
0.0212828457978480531
0.0208688963616745667
0.0204386091220431568
0.0199948035831110961
0.000179894345540596728
6.76338628444114742e-05
3.35388404210765182e-05
2.05438021456049367e-05
1.49692565466800113e-05
1.22481281570662211e-05
1.06497550266220841e-05
9.55368789544204652e-06
8.86250603732539792e-06
8.33654804443958039e-06
7.79138745604857382e-06
7.48154918714629793e-06
7.2456732489486052e-06
6.99105685222573814e-06
6.8059267718603222e-06
6.68474253758327807e-06
6.61666472324882497e-06
6.56583334694956495e-06
6.54720578523196833e-06
6.56580902314649276e-06
6.5865665598597521e-06
6.64760817188231165e-06
6.72287989244339543e-06
6.8356804227567392e-06
6.98361329943185001e-06
7.16891846914286234e-06
7.39855570007704147e-06
7.65933580967483736e-06
7.98537825045430983e-06
8.34878738433575326e-06
8.76618382300789382e-06
9.22023172717651472e-06
9.72878139725428193e-06
1.02693295874386851e-05
1.09777857724876604e-05
1.18305552418019213e-05
1.3484348123312434e-05
2.08654758345678718e-05
0.00137628729391331352
0.000228306689116100804
0.000123679445594493506
9.84951287531795705e-05
8.27015846186550065e-05
7.02964847731640677e-05
6.17777896349833242e-05
5.27426096695646609e-05
4.32684270129429899e-05
3.39523997278897682e-05
2.5815989756876283e-05
1.96543511308229329e-05
1.69622184625836568e-05
1.52276005464651454e-05
1.33971456119643593e-05
1.23836140879292395e-05
1.20873450930439096e-05
1.16832876973174021e-05
1.12326948818558324e-05
1.12621914445376603e-05
1.17924605808224689e-05
1.29062744534737311e-05
1.36913010305707319e-05
1.4533634712845326e-05
1.59997253094382122e-05
1.73895611782337946e-05
1.97618029301164675e-05
2.26745728851574002e-05
2.47512865740863782e-05
2.80372493540107598e-05
3.52259098549941783e-05
4.34604408997933802e-05
4.92282710680432459e-05
5.58094179339132534e-05
8.29647855978187453e-05
7.08591870332408443e-05
2.87741364828229708e-05
1.7281159646203466e-05
0.00942322247220150205
0.000701758271820472298
0.000436677243640497161
0.000333047833647235171
0.000255737551320373599
0.000208330990940709866
0.000179900466816271574
0.000161728929472926042
0.000146714298721870392
0.00013396558627739658
0.000123376885073150585
0.000115582481060117582
0.000112977806444353705
0.000113314261807977309
0.000113532744807106286
0.000113435245572717598
0.000114180497615250134
0.000116830921100377996
0.000122043099952691072
0.000130577009949046571
0.000141693718045680234
0.000157444570893888009
0.00017374083484083096
0.000190198007894685703
0.000212321840722573687
0.000236663304805713297
0.000268478792764182805
0.000310729992429197835
0.000360191375709774701
0.000421201281856346213
0.000510417593063148167
0.000627918623815586197
0.000769559605370079866
0.00094500244155257436
0.00121576128690929872
0.000468449142810815108
7.76440568822566943e-05
1.86946373098394074e-05
0.0120932581900519715
0.00533188563095143668
0.00253290834388618597
0.0013281136560427348
0.000883050586587705842
0.000767790357596045622
0.000747833007352854268
0.000751476211757562493
0.000746170920513463732
0.000711221610872197606
0.000676424536188913812
0.000653312524619554689
0.000648780267257888731
0.00065908212982668322
0.000664331488680222366
0.000666291694556475547
0.000685643744116110412
0.000724210672176688421
0.00079270347054004721
0.000862558453095824129
0.000909724251305796695
0.000951885946911590125
0.000987671698530651369
0.00102433285139926552
0.00109494567516208244
0.00120606776797836028
0.00135404524281712482
0.00154736959664848067
0.0017789684162722477
0.00207169688272615263
0.0025064228182653742
0.00306685556001760635
0.00370154740784872476
0.00443718331475909285
0.00524289490682904469
0.0020974824500139661
0.000148810535807358016
2.17477774965188137e-05
0.0136674869763562627
0.0128249051877522349
0.0146620938673603304
0.00661024239023234178
0.00624371762256800342
0.00731756202467089001
0.00830165792192800144
0.00736139614280776483
0.00561046933068714854
0.00390581632265676101
0.00305089317951591065
0.0026444121214569097
0.00243860523668984475
0.00235534483042399269
0.00235736306976762214
0.00246042581588915054
0.00263809922327310625
0.0028381536289905961
0.00299697660324183901
0.0030415872572211386
0.00296084199517951006
0.00286758449583570741
0.00283235223279792135
0.00286891193229617605
0.00300721614945983302
0.00329340961181666305
0.00368073219147417282
0.00421043379279829356
0.00471543518725315702
0.00519558336264761
0.00569330169673298598
0.006421470703286929
0.00775649487074459194
0.00998968169156631315
0.0103864402382719771
0.00491521439009811722
0.000275338480621899185
2.55285163378123164e-05
0.0142823478863693034
0.0137605859460671037
0.015371507541272025
0.0167898671249693786
0.0182176832337938195
0.020342113412077957
0.0219840976753276005
0.0206982221049606882
0.0168058326418105038
0.0115087259078472566
0.0091924949035704015
0.00819520933143986184
0.00776419397787776137
0.00785255777430488022
0.00842060071239401214
0.00919004062447580268
0.00981807450722575921
0.00995629995907712159
0.00940824161765961391
0.00836040794859336557
0.00734347625333650351
0.00664767699257842737
0.00632436210579430478
0.00620535080711195636
0.00629676753613775397
0.00671734604057582039
0.00745798202505756989
0.00856397378671181625
0.0101530174585858484
0.0119991399812679912
0.013907750326752703
0.0157792117666759706
0.0170826551121832752
0.0169825320792161352
0.0142517135021584182
0.0077529009244566606
0.000460400572916725749
2.70686434181486001e-05
0.0146019757169128014
0.0144787558687266577
0.0156923330621909669
0.0171921249120052799
0.0188515679734855141
0.0207615268801911793
0.0206323084130710412
0.0215230384960012032
0.0225317218190302475
0.0221794058223167938
0.0227397535405015547
0.0225647697314519738
0.022402712966599507
0.0233062253504346326
0.0242825556244160752
0.024805437973492734
0.0239891938076635322
0.0216383148385921043
0.0185258104538302479
0.0154358737174581408
0.0130608707747618142
0.0114031884501577373
0.0107343030549041513
0.0110692001706108392
0.0122495341552096744
0.0138976234770808917
0.0157404406276037516
0.0174607056062214619
0.0185846969640567732
0.0189042031641631254
0.0188979049885180106
0.0187466773177046991
0.0186544238812350466
0.0183608372388400221
0.0150535959759328705
0.00938414922909787223
0.0005270149133128119
2.77065970748817632e-05
0.0149670657204926567
0.0150422366707582793
0.0160280358702053101
0.0174458418199346377
0.0190662323562351757
0.0209129430686354513
0.0212454572105833274
0.0207518041404876168
0.0205700476058616119
0.020787577489133513
0.0208646888370389895
0.0208534911125041987
0.020742079142325405
0.0207121759574976777
0.0209369529106728652
0.0212522588780235423
0.0218540184800765785
0.0214874146494648394
0.0213865998738369881
0.01990402065717993
0.0181299875968247079
0.0173124203797159482
0.0174887718760797888
0.0183954971758794189
0.0193045432541873695
0.0195756199413814579
0.0194909413002439039
0.0192165150434385965
0.0184880907861889598
0.0177233000220041181
0.0170647091929660467
0.0163686890328403126
0.0161374426867573126
0.0161994767917542047
0.0139423094556263318
0.00985200746917574977
0.000592709860190480877
2.79676616619325787e-05
0.0152200435448152718
0.0154773050311841562
0.0164091442522907235
0.0177668693635871268
0.0193206119052980081
0.021060927213319966
0.0222414838846038097
0.0214566156181840023
0.0208694757204688532
0.0204660974438702452
0.0203142736075369972
0.0202033576718954992
0.0201483310905462877
0.020075419973437536
0.0199931748927661204
0.0198782302969358476
0.0197737633987103492
0.01976488492423965
0.0196442986716884732
0.0194165340528475207
0.0194697394537270384
0.0196303512934901427
0.0190922776898146893
0.0184116376109262486
0.0178205051376330095
0.0174124230447927006
0.0171060289777354678
0.0168513130230741291
0.0166123020246254083
0.0163660442848184255
0.0160645743627239948
0.0156675219771036031
0.0154591679544933969
0.0153806212603649142
0.014028804718519956
0.0107473021635547655
0.000754310929979626951
3.02219257065708775e-05
0.0153316288421392836
0.01576032479631128
0.0167524707773233222
0.0181055585798807414
0.0196210029054248274
0.0212788219268233679
0.0229102078082948704
0.0222286440615557662
0.0215054595999933061
0.0209800189979017851
0.0206755746310834237
0.0204458844513182095
0.02026663755775596
0.0200802244195651611
0.0198528184733959071
0.0195459792672655897
0.0191618573964795168
0.0187436621449005546
0.0183158685228957188
0.0179231849294529955
0.0175683110246203193
0.0172749867281461363
0.0170372753415148626
0.0153446227320709807
0.0159316272993519047
0.0170679264832069924
0.0184646556587179655
0.0199744222304870656
0.0215763703644444096
0.0232138505150002936
0.0228894221649244695
0.0220928994917954542
0.0214945534379984912
0.0210810412398493609
0.0207599406655668527
0.0204898563930712881
0.0202232745115682212
0.019922495257238812
0.0195455565964263722
0.0190863570750012604
0.0185624846861878398
0.018051881999162158
0.0176212347905933438
0.0172924190276308662
0.0170620035595265389
0.0152755586797145935
0.0159935876456197765
0.0173601386884747466
0.0188548929777966646
0.0203823291078009082
0.021943883642220316
0.0234995338922657747
0.023478274569135954
0.0225989663433610842
0.0219327736836085266
0.0214345630637972975
0.0210395810931432899
0.0207036311464518959
0.0203837314901416308
0.0200426836433284412
0.0196455285052104349
0.0191851755874242781
0.0186907710012919198
0.0182189477234099319
0.0178139209353461517
0.0175038928998796951
0.0172917149640694316
0.0151220815956330575
0.0159401876774224495
0.0176489988118623715
0.0192947584786959982
0.0208531082442846016
0.022376704134957754
0.0238597954324879166
0.0240161654867318067
0.0230502619127298837
0.0223127956236067598
0.0217431498842025756
0.0212851999699713822
0.0208959950125242218
0.0205350805631125677
0.0201665647366191698
0.0197627822192679506
0.0193195683295811632
0.0188614981384521568
0.0184320277080251074
0.0180626329479811124
0.0177725087997678416
0.0175625604262919614
0.0226541564193761674
0.0220225661703488014
0.0215100384817180322
0.021074586654431831
0.0206778649129929944
0.0202861012537742282
0.0198764204000410824
0.0194463907536477389
0.0190156828128281163
0.0186152994501378698
0.0217180230000660647
0.0212416646049037872
0.0208129663957388536
0.0203998498897759069
0.0199826039840812833
0.0195593369583481544
0.019145131370506191
0.0187618659933036884
0.020959927903662072
0.0205260897088787378
0.0200991293484342817
0.019677415007138762
0.00228411002394398287
0.000482153627844736409
0.00021624311573829942
0.000105874447325036682
5.19070169475849467e-05
3.05842938581792829e-05
2.07743673024613999e-05
1.52064226404202738e-05
1.19682194658061134e-05
1.06359954008845096e-05
9.98024581882609233e-06
9.11933321631951044e-06
8.34351758864005842e-06
8.0392689471156856e-06
7.77715993084104354e-06
7.49339304205015374e-06
7.25226910531196399e-06
7.14066954705166546e-06
7.08850443996651763e-06
7.06746813270530285e-06
7.11346093027027222e-06
7.15285065822657719e-06
7.24098109354988757e-06
7.34380263495316779e-06
7.49246074954122999e-06
7.69164144659681684e-06
7.92673478627421806e-06
8.2243919232004529e-06
8.55191025596995083e-06
8.947457131633041e-06
9.39166715026368545e-06
9.88851847630264991e-06
1.05079543351244478e-05
1.1321480656843417e-05
1.21124643225683164e-05
1.27202465385241489e-05
1.4380765006932728e-05
2.18794897567312656e-05
0.0148248998207361708
0.00143468655249751986
0.000522874725045069009
0.000335170642405392639
0.000233380044531772358
0.00016867784817105124
0.000133578692912163547
0.00011036956152054519
9.42599538333298179e-05
8.4449748964253942e-05
7.77172032060701227e-05
7.03401159210143045e-05
6.30373690115244075e-05
5.38475364899717251e-05
4.60084288755007842e-05
4.07936387869438938e-05
3.60470523522459741e-05
3.14990936992405436e-05
2.8193349280953931e-05
2.82127963638575014e-05
2.89119010985110832e-05
2.84879934303767017e-05
2.91018102842781286e-05
3.14290253931010741e-05
3.2253456953144849e-05
3.34251675316970037e-05
3.68170363242108478e-05
4.07211295344733019e-05
4.49269304427928569e-05
5.09932536676207675e-05
6.06303116219932724e-05
7.43427237058866144e-05
8.86640158652203281e-05
0.000107931136226833274
0.000147598301323738536
9.52286770749665584e-05
3.37735894605186416e-05
1.82636991731650677e-05
0.0141202131190004011
0.00746538994997289831
0.00322858171981076775
0.00178666518696268036
0.00105452462362395439
0.000728853076481622911
0.000561255292308586711
0.000463105293501050942
0.000401999110112548255
0.00036807003327300568
0.000348245053129399057
0.000335835191551774374
0.000327355128880971527
0.000320399973012149768
0.000318843845975150416
0.000316330270230990229
0.000307065228902886637
0.00029844370492071627
0.000295679004446051518
0.000309036329450754926
0.000328667856505120886
0.000347668448324279264
0.00037147608490382413
0.000402063529322195859
0.000425154777917145484
0.000454232672388922099
0.000499566239918008861
0.000556788268882642723
0.000628866375171762424
0.000723530650338892445
0.000847986035048541986
0.00101028470147718577
0.001201433987741045
0.00142860018003477369
0.00176322796953470775
0.000656710661502136182
9.04603544863521487e-05
1.9794365273614233e-05
0.0143114492655062094
0.0144093059381517046
0.0162553266976099946
0.011709224838313782
0.00594472239240756341
0.00412279496021146583
0.00349422268533010382
0.00314747342642048098
0.00282763656939680674
0.00247137180621186288
0.00220358130995489555
0.00203394147767596437
0.00195358112613180056
0.00189154914825505165
0.00183361210065406135
0.00174908802200242266
0.00171705492785749611
0.00171546228583575812
0.00174565310899733352
0.00181451196450456756
0.00188285323046835521
0.00190205769655717562
0.00190287341083786462
0.00193011446065328865
0.00197900811915122056
0.00205674266000656315
0.00218545374401755629
0.00237234715054325963
0.00262083725428372471
0.00295494871477180012
0.00338296808243351496
0.00372242288942752552
0.00414269161932387907
0.00510948033980961232
0.00613316833366787245
0.0027524551700432668
0.000176502448496541783
2.22705578876241067e-05
0.0150556662503968982
0.015293544708189874
0.0168027860103813799
0.0193283383666373772
0.0204870874734665274
0.0209257296479400702
0.0207090194512600037
0.0179605201297131645
0.0144811488755434929
0.0117311181293321826
0.00880484134406979424
0.00711054747621636847
0.0064185155051646051
0.00606898665188567756
0.00584713916150909375
0.00579177775026497657
0.00590152277836884526
0.00602329799947821671
0.00606762479710405266
0.00601496720271910059
0.00580086300474931624
0.00547366136118896448
0.00514938138838315785
0.00500221616310906995
0.00503675640735726585
0.00518416528466433997
0.00532125039685797923
0.00560646903357970607
0.00599169428082049153
0.00655875568615743153
0.00754345027550883552
0.00889342902147802379
0.0107035432214033464
0.0125081600942743964
0.0118131214693165901
0.00620796722744614612
0.000335800817284813316
2.54296146679376692e-05
0.0157736998124957326
0.0158688201281470022
0.0171260640597027808
0.0189565578108871965
0.0203654134528005008
0.0211146246550717454
0.0210004102586666061
0.0218848166414443851
0.0214705490157321918
0.0206164666316550373
0.0195008437755860055
0.0182106506189616997
0.0170589631108349765
0.0164945511861366162
0.0168648515706896762
0.0174392043879052876
0.0175608422597803501
0.0169076833180161791
0.0159239636080107383
0.0146676426141985183
0.0132247629137623116
0.0118252137119839017
0.0106440159375050733
0.00980825128937451614
0.00958169111202152902
0.0100742059545353875
0.0111152830845328999
0.0124100097511657924
0.0139202623126516746
0.015531317982751109
0.0168544948049788486
0.0179633399984099815
0.0183343225790271319
0.0176317664414561634
0.0144513317787246971
0.00939694136087167869
0.000590267992582252832
3.13220350082468466e-05
0.0162626033755092735
0.01633876919165312
0.0173626093673858485
0.0188654264149961011
0.0203516529144089561
0.0217482948605868427
0.0210104555943199135
0.0205259346119324414
0.0204605105787905618
0.0209483572764213276
0.0214943626860276647
0.0219303377003508548
0.0221434352659918496
0.0221489348924884637
0.022167300676808898
0.0224766171237101575
0.0225582968659993784
0.022314424809055107
0.022205268546611083
0.0214797940712737334
0.0198697321234693296
0.0179237862439255158
0.0168932367721099062
0.0166979917164676896
0.0170691308187680899
0.0178968238214480546
0.0189682923965677278
0.0195268099022871539
0.0196112174148137981
0.0195096606758348619
0.0187117095206531144
0.0174550800540633315
0.0170076218109657153
0.016533862836621737
0.0132858988041697941
0.0103335130409101545
0.0007134956960470649
3.7677405578493179e-05
0.0165710953453163876
0.0167186148428192446
0.0176195968162457979
0.018961161477659718
0.0204357995374044032
0.0220661183934125413
0.0217642970139134244
0.0209556647437546331
0.0204068907839500061
0.0200589827528582614
0.0198952629166040465
0.0197884705168771373
0.019705996745991116
0.0196704121809360283
0.01967689989081986
0.0196673757366551856
0.0196530976319132002
0.0196853964841736118
0.0198666276076732914
0.0195601357301002608
0.0194326724379729476
0.0194856243720818827
0.0195612955736068177
0.0196090100126949697
0.0191835064477360907
0.0184436451427297948
0.0177797206773266554
0.0172914293018719412
0.0169147450124551256
0.016564690695895324
0.0161656326310559255
0.0156934586326163174
0.0154229092051191771
0.0145543936925671205
0.0116431033042335326
0.0109172142606599552
0.000629116714936944267
3.29682599318545643e-05
0.0167576278843412502
0.0170033762249980833
0.0178748034295219543
0.019145484768643594
0.0205876879679209868
0.0221689318361996228
0.0225432555868330872
0.0216597064659208582
0.0209779117581581354
0.0204933029230499851
0.0201855287013318029
0.0199501359232169689
0.0197721607175879929
0.0196263831583964286
0.0194627028826928894
0.0192685262109607777
0.0190292300858620998
0.0187706855904051055
0.01849981961231488
0.0182199619893332852
0.0179381524856690629
0.0176466312325419122
0.0173392372882363067
0.0170481136540817126
0.016813342425004877
0.0166225022873129451
0.0164733505893214401
0.0163834014030607086
0.0163092534126519986
0.0161942769986960881
0.0159625713077614605
0.015563350599764901
0.0148941830432328427
0.0132296563956828608
0.0106370513367826519
0.0111104898908977699
0.000807277557967553687
3.39084684458515752e-05
0.0168325081863530401
0.0172002665441470907
0.0181261309020005271
0.0193892448317500403
0.0208131579427361033
0.0223452956558785609
0.0232613145540236307
0.0223048382027217669
0.0215535312071684047
0.0209863595557478605
0.0205832700673101027
0.0202695470270707542
0.0200157125315715452
0.0197856109099912893
0.0195460763489292665
0.0192735925471051416
0.0189493744122247385
0.0185792981246131923
0.0181685958148804817
0.0177672904433979414
0.0174065000703409328
0.0171086327658875707
0.0168724902966029371
0.0167892564315006015
0.017303032075888642
0.0183637786934351191
0.0196790568295343547
0.0211076147118743201
0.022602129062147841
0.0239198781439784215
0.022881484678348267
0.0220551211451030134
0.0214204503540798355
0.0209432380756246379