/*--------------------------------*- C++ -*----------------------------------*\
| =========                 |                                                 |
| \\      /  F ield         | OpenFOAM: The Open Source CFD Toolbox           |
|  \\    /   O peration     | Version:  2206                                  |
|   \\  /    A nd           | Website:  www.openfoam.com                      |
|    \\/     M anipulation  |                                                 |
\*---------------------------------------------------------------------------*/
FoamFile
{
    version     2.0;
    format      ascii;
    arch        "LSB;label=32;scalar=64";
    class       surfaceVectorField;
    location    "0.450000000000000178";
    object      Uf;
}
// * * * * * * * * * * * * * * * * * * * * * * * * * * * * * * * * * * * * * //

dimensions      [0 1 -1 0 0 0 0];

internalField   nonuniform List<vector> 
20390
(
(0.517088017915168008 -0.174780243959417159 0.420061111338573934)
(0.527781465881576706 -0.338505414039119712 0.414547364466097079)
(0.197193162795342103 -0.177375509765064748 0.410531603815281532)
(0.685215690083309736 -0.10362672433089648 0.250608777292249341)
(0.882071724300748206 -0.171283397909049312 0.551879819094043378)
(0.932540668371256154 -0.315781880810264037 0.607420873848061982)
(0.562132247065393664 -0.21858247805556083 0.656326226044599781)
(0.964592899304172802 -0.12619001712558095 0.389746160555186683)
(1.1527387261317501 -0.130671625721613283 0.618030570072357621)
(1.1864895191143694 -0.235049184059552801 0.687950798397707342)
(0.894273898445504423 -0.191322974756015202 0.70994720585688742)
(1.22552397394233759 -0.105042840120749548 0.510515886272673192)
(1.35661729678783938 -0.0923961020439765801 0.660879588610801982)
(1.36827639327865702 -0.172883846417483139 0.721997246902933765)
(1.15100484139572901 -0.152503079354506549 0.727311289049073495)
(1.43035157885502717 -0.0764298327151116119 0.585422202785244705)
(1.51838518608531925 -0.063183102280608458 0.693581072807824328)
(1.51049819009104991 -0.131790357470190023 0.743312689881810207)
(1.33367020300110495 -0.115158133335949847 0.738472025186429959)
(1.58844046528982474 -0.0531474732608598691 0.636659235134904411)
(1.6538404937908473 -0.0421895619650449472 0.722813960744538186)
(1.6315243777141919 -0.106892233563058492 0.760817146697128743)
(1.48303687116899319 -0.0858392963718670049 0.754122582009373654)
(1.71440926386244263 -0.0364339249492018763 0.675793442998868454)
(1.76543431990038568 -0.0283698566568637914 0.750566187289473885)
(1.73579065756549933 -0.0858951917627970851 0.778880268374976037)
(1.61216183989041362 -0.0624948854776033944 0.771812632506034157)
(1.81893107164324963 -0.0259726485787597286 0.711616099202556751)
(1.8642536418603195 -0.0201965024188324946 0.775480550157493398)
(1.82755181597705652 -0.074903123221173179 0.795830574021967663)
(1.72453156172506561 -0.0451524947051941405 0.791965715793428338)
(1.90904536675205661 -0.0204722826872697841 0.740978802446981777)
(1.95212610211426529 -0.0150436854866062564 0.796369935511227367)
(1.91307561630534617 -0.0666407856796275289 0.809344899328783285)
(1.82443354353403775 -0.0322287482192378238 0.810512107154599648)
(1.98948023616313274 -0.0175639239314493781 0.765103024484132255)
(2.02952805470265396 -0.0122620933249611951 0.812889123510761591)
(1.99210614133263264 -0.0589574118120598581 0.818779093717025175)
(1.91362317370814061 -0.0229068457172604059 0.825365924321434297)
(2.06164815196191675 -0.0164151029798217454 0.784853064672418776)
(2.10049001019230941 -0.0115751386827823641 0.82453964511787714)
(2.06531086339797731 -0.0549322880939698277 0.824625202371591093)
(1.99406602145727363 -0.0176144413365623975 0.837849363560402849)
(2.12733332207711845 -0.0169787228081223172 0.798946730493374946)
(2.16693969856344104 -0.0120640619052939171 0.831299064245997088)
(2.13412255983859955 -0.0528241098097060116 0.826175712565315301)
(2.06784925440219691 -0.015333289007939916 0.846568917909446217)
(2.18869653209427106 -0.0182780110959849251 0.807370382249778307)
(2.22894186118055693 -0.0130426743731724016 0.834249691587884534)
(2.19919778540565947 -0.051119069120253921 0.824729844638956489)
(2.13746865588590795 -0.0143384789707834501 0.851641034315759438)
(2.24679497040649689 -0.0199068630696524751 0.811405105484923728)
(2.2855429747126994 -0.0140770006878357043 0.834072145069036819)
(2.25902068516496124 -0.0493002210947838942 0.821089464106166123)
(2.20180265723232482 -0.0137174457183071655 0.853728250525572996)
(2.30075434983155791 -0.021004034220581197 0.811728952318945929)
(2.33754099503338697 -0.014703428019129397 0.830979481289443433)
(2.31396434660905914 -0.0468549121630052329 0.81547479499970088)
(2.25989722833964146 -0.0138121326124432744 0.851746796076408907)
(2.35038501678177969 -0.0221730953693315205 0.810034934240620785)
(2.38308224213118036 -0.016580966699878439 0.82558578988192588)
(2.36367610523327132 -0.0431418152410568481 0.807430238663840116)
(2.31266666800104526 -0.0142220913233770674 0.846733300465748018)
(2.39589969014225712 -0.0228710209858748736 0.805990871902553141)
(2.43068933645995244 -0.0189670913147479275 0.818448663437767787)
(2.40850221887000027 -0.0468311091378091973 0.799600099915899087)
(2.36248418262991233 -0.0160050899768132311 0.843324005489289319)
(2.4396001268413956 -0.025163829560033369 0.797268897263325615)
(2.47255451422819172 -0.0203198138771184048 0.809336244834954144)
(2.44952044587596118 -0.0450234553119905068 0.79111875519138819)
(2.40930777510446648 -0.0166823521731113526 0.836237526217432081)
(2.48188398794314269 -0.0262638637672362382 0.788055818243781125)
(2.5134734902602478 -0.0214231469153881998 0.797087957424839844)
(2.48557759685480262 -0.045865538415109014 0.782010394637352335)
(2.45237358685190898 -0.0175552001408422614 0.826965745581009437)
(2.52277873553185117 -0.0274518267495092588 0.776153642032862745)
(2.5513362802049393 -0.0219720713983259271 0.781728229047200074)
(2.51778370385967065 -0.046068098542536913 0.768195089044474311)
(2.49275138276441721 -0.0186622742079208259 0.814366384019791889)
(2.56184452021087328 -0.0269261925604685898 0.760092962033030783)
(2.58556852254547431 -0.0230314379959160806 0.765756462968338658)
(2.54572651019263851 -0.0456449624780483273 0.752737823982323695)
(2.53088570801159651 -0.0199381897088110396 0.799833232202355471)
(2.59689529280061837 -0.0261326567079929323 0.74277553971748167)
(2.61998710595852025 -0.0242163821837537395 0.750603142754064256)
(2.57000216870051545 -0.0481732836633326639 0.740188829580626151)
(2.56686877023166415 -0.0209706455705911746 0.787768061349668591)
(2.62957403701949666 -0.0269269525028607293 0.725840063170734573)
(2.65052338431810508 -0.0246639454340893301 0.734934338896500616)
(2.59110027108629115 -0.0464698877588286471 0.729997090759040623)
(2.59993340677335594 -0.0213286140696180813 0.773391034512597719)
(2.66132448732911664 -0.0279588642363962879 0.710987522531193683)
(2.67784993349350531 -0.0265222601572545832 0.717903572428100434)
(2.60840872681976865 -0.0454042608908249851 0.719176805374039052)
(2.63029888216384355 -0.0223073470223007948 0.75715748890011525)
(2.69137225459559115 -0.0287661016382536848 0.693675508284532505)
(2.70947289559591642 -0.0287055714703665227 0.700095403289409113)
(2.62342762287359133 -0.0514634907976454989 0.708933588997086361)
(2.66003386621863314 -0.0244976923223340186 0.743539757146802316)
(2.72068916522601167 -0.030607101756572077 0.672235734010258934)
(2.73610117722974477 -0.0294140574052260025 0.68179021073114443)
(2.63778610923697254 -0.0493046459240360987 0.69936389076349903)
(2.68895888638627856 -0.0257158027219396394 0.725854095270090371)
(2.74953606516628346 -0.0314290429994247278 0.653873077526503144)
(2.75978122256836667 -0.0299740295126895116 0.66449070782011499)
(2.64829541785130163 -0.0483471684399710208 0.689216208480759707)
(2.71536496364653379 -0.0267351106332202187 0.707975796299638693)
(2.77488631827004806 -0.0310490782754139806 0.63496149649098832)
(2.78224307533544213 -0.0305558964369299739 0.649871644792373693)
(2.65544606353754764 -0.0482727566251304613 0.682232220913030152)
(2.73886001821503111 -0.0274575215685229912 0.692674653654595796)
(2.79649498413470976 -0.0312284307206490766 0.618590989575133587)
(2.80386826958491975 -0.0311441958667299339 0.635257938556422208)
(2.66138386731368692 -0.0467090559069489389 0.68027313631131181)
(2.76008266799338919 -0.0280255065612829909 0.677985783114586238)
(2.81875030556589623 -0.0329629105429768074 0.606192865585652774)
(2.82359276101443912 -0.0317563509712982042 0.618977914776017824)
(2.66886511796102077 -0.0466727841201672045 0.674940881014839733)
(2.78048518811491086 -0.0291272542234582016 0.662222232365362817)
(2.84133993018130049 -0.0331938559217299783 0.588601159457023626)
(2.83999122711021856 -0.0319759666405444454 0.604223141722951995)
(2.67532355293152513 -0.045929350472636965 0.668704469426391945)
(2.79948181457911138 -0.0299216120335734637 0.646931350769781144)
(2.85916697851657631 -0.0326384322850247696 0.57147112338883288)
(2.85311950991795804 -0.0319152715151776178 0.592876971857053903)
(2.67830552928876608 -0.0433787058645222975 0.666334062959272666)
(2.81528715295863874 -0.0301597950909765732 0.633544771850458655)
(2.87261782441943891 -0.0321833255789758521 0.559915651801641268)
(2.86574362789456716 -0.0318120822510374254 0.583689086360058118)
(2.67854553070807411 -0.0420489854752740602 0.668285422360153869)
(2.82834731622706403 -0.0303822881021468816 0.622750126111091928)
(2.8849260739259126 -0.0320749461258737212 0.551276281022288428)
(2.87632201577851188 -0.030761070198537032 0.574986462811184262)
(2.68067703253673661 -0.040505358900515688 0.670783931300034109)
(2.8403750987465739 -0.0306834172346617563 0.6131968502647408)
(2.89694813817888042 -0.031685608209208703 0.542764524075814658)
(2.84523394559108533 -0.0174794060175801173 0.567781193292370312)
(2.6794183605976194 -0.0207626939001996809 0.671006411023370553)
(2.83900241907273587 -0.0294707883312369558 0.605312131513937812)
(2.89061222348004598 -0.0287899272205356695 0.532698672700414821)
(2.55867560365383007 0.0608235142326320893 0.544678423525312594)
(2.60221248102816816 0.108600598968488102 0.664014463282884049)
(2.73178804562741506 -0.0074414760816794252 0.597848838404380523)
(2.77227876469252399 -0.000104370341090571971 0.52849168837069338)
(1.53920390913627325 0.208070354347517417 0.43423296408983969)
(2.2844645856360204 0.474533904201096368 0.66759266517491378)
(2.31487543071502522 0.119720212445287716 0.559347197214192904)
(2.3353116189639942 0.140399297722884148 0.48894330650851775)
(1.43676968929414817 0.7247705626486729 0.531572105463162581)
(1.22460961470336094 0.284672564867612998 0.394242606839046272)
(1.21921520826456775 0.300832525055770794 0.304579833021836666)
(0.888526490714957928 -0.468057564470970522 0.601907126975584683)
(0.710085764685301268 -0.636652769565140386 0.493983696539644357)
(0.441556146537991245 -0.466777703575631864 0.125717057014092054)
(0.862808678840191523 -0.336631378617274435 0.417948771796297747)
(1.23867860952121034 -0.412969692688678058 0.743491853151725945)
(1.12780465512665717 -0.545177167069505031 0.704207574132705072)
(0.995815016780819962 -0.491686242130320694 0.687731443524092101)
(1.2319315973016387 -0.371538304417423637 0.579093042302000205)
(1.41132671851370484 -0.313400850806615561 0.791917475228283374)
(1.26896404570417709 -0.415118237976765447 0.741666095499546763)
(1.2485268458535983 -0.391457727242350562 0.84664499916357705)
(1.42340843235541858 -0.313908532365371529 0.659155174219491879)
(1.52296955836128278 -0.242584844629326835 0.804430348173942211)
(1.37782109159376653 -0.325710683162809045 0.760829182989795183)
(1.37760492471636598 -0.293840554887523808 0.8828616226303867)
(1.55469425045370691 -0.249619860711644936 0.688850924514426088)
(1.6213879147750081 -0.198866286872348058 0.810548763771114733)
(1.4875529406467376 -0.2727387417853398 0.788111000266165207)
(1.47709999588693086 -0.225190357898371663 0.891489948784270236)
(1.6579075726998056 -0.20162650436980048 0.708011651998562197)
(1.71550442115807189 -0.169229296575169025 0.816883454327566483)
(1.59145177934395177 -0.243194591817765454 0.812790829989335384)
(1.57434268747835704 -0.186430464166845944 0.902201697351406651)
(1.75052488767266556 -0.168323564398765224 0.723713486497458036)
(1.79669469716730545 -0.148352961381112786 0.824144655107469815)
(1.68151291035818051 -0.210482182926107014 0.834324305404525624)
(1.66638482258174037 -0.157830065924695007 0.910146471230130372)
(1.83629058036125614 -0.144324053701846672 0.742162756455433614)
(1.87613827178738002 -0.13487953558457827 0.829694923193257328)
(1.7567015224164837 -0.194823811376034356 0.847839974773385685)
(1.75166924831893889 -0.139680240028303676 0.917852596646889451)
(1.91745155927901445 -0.129649711438518889 0.75745479962158091)
(1.95375001233765255 -0.122339244240584732 0.831754057534581093)
(1.82042552632979415 -0.179578646879321735 0.854355953449023597)
(1.83291866717042806 -0.126270496364095819 0.917156786398018231)
(1.99664616387526683 -0.117750107146811167 0.768892789570270851)
(2.02722021290091137 -0.111429342497937595 0.830515172577854788)
(1.87789726347390595 -0.161674307766069392 0.853079663617680173)
(1.91054916400820307 -0.116388359227880669 0.90781302514290918)
(2.07194212612705986 -0.107032634959154077 0.775849371332018256)
(2.09850965330585959 -0.103851403139881435 0.826261269819029365)
(1.93214550888839431 -0.15022904595462927 0.846583510893172964)
(1.98237903771547908 -0.108881208902427473 0.897469230777322879)
(2.1423480523106071 -0.100163969348867163 0.778165215240346653)
(2.16642654858033534 -0.0980648856079968517 0.819606492958274702)
(1.980033699947366 -0.140728150877654695 0.840366078143231721)
(2.04779854567818198 -0.105175064999757914 0.883968597205569306)
(2.20843918673179029 -0.0951447199487362033 0.77607758163357754)
(2.22993178548634674 -0.0927598649815887105 0.811569617157237966)
(2.02481101444698997 -0.132827868907709312 0.833472603080811725)
(2.10954842856638969 -0.101811919904818637 0.871091288990600621)
(2.27079269213791157 -0.0913614168947416011 0.771178992085471471)
(2.28744451314530695 -0.087122495216043247 0.802492114036830073)
(2.06144280161936333 -0.125803585341676044 0.828469119560081291)
(2.16585851274813468 -0.0961974527857141631 0.859131158592184363)
(2.32722579056508749 -0.0860291378189168704 0.763637022707288504)
(2.34124625414862519 -0.0805733894614478752 0.791925552374097563)
(2.09949757277534355 -0.118028474665206259 0.821603048424875082)
(2.21744434327372009 -0.0909703058542516291 0.84498430955500059)
(2.37825544887129814 -0.0816015141071868427 0.756438835283356759)
(2.38618386523161163 -0.0769419325457419423 0.781444548697813435)
(2.14052504550410472 -0.106615968161114544 0.811880798997734243)
(2.26705846263437705 -0.0863556388987916923 0.829473251588917826)
(2.42338770248986979 -0.0768847959509273149 0.747462617178513811)
(2.42979271926411133 -0.0757892581800856391 0.772270191669519379)
(2.17537075534284829 -0.110348958086160687 0.803095668960269737)
(2.31358085768742727 -0.0841562267070228853 0.820980987852672817)
(2.46096673900238949 -0.0772355929100028843 0.737554232534392118)
(2.46161930622432701 -0.0746106633158360733 0.763792904993786381)
(2.19793427552417864 -0.101637973827542957 0.799749743686906989)
(2.35535608940645202 -0.0807269123597783439 0.809848830719542834)
(2.49447482078021698 -0.0771405838605919297 0.72844639203157957)
(2.49023741621025296 -0.0745543426652486713 0.753117526256986913)
(2.2026960084235796 -0.100281242571684762 0.80756759018612001)
(2.39046899686890946 -0.0786419436596210164 0.800094192831336537)
(2.52504993509617215 -0.0791931445096887288 0.719880880082507391)
(2.51254348395048277 -0.0738938791373410925 0.739204683979597821)
(2.20262374401068151 -0.0989118979562570999 0.802729642375691221)
(2.41926241799838726 -0.0780765342039978077 0.788030028994120113)
(2.55224870747846566 -0.0774044913293143316 0.704648499028121988)
(2.52871236205162342 -0.0736129514251989414 0.727170190594611077)
(2.20163325248068942 -0.0948517747426021463 0.796582400233006083)
(2.44314630689636836 -0.0785190269695078269 0.774455268503531413)
(2.57197847078203168 -0.0746357711929405976 0.692210517243519785)
(2.54243805084204766 -0.0732012623513758481 0.719582777585602518)
(2.19753708938664793 -0.0971417603470073193 0.798241744222506044)
(2.460697794770212 -0.0775627154798296387 0.767752232378640209)
(2.5850379722393404 -0.0741465196637962343 0.683540950763499855)
(2.54986595429044227 -0.0712223398207692399 0.714239557236579059)
(2.19250395637845008 -0.0901407396128275501 0.808198028920251499)
(2.47339301352045471 -0.0747900910770329247 0.760461537750122707)
(2.59439600136904902 -0.0740576493889629761 0.680547725656875047)
(2.55062573199615938 -0.0721386646199478065 0.710206821943024869)
(2.18873892933815339 -0.0844465572157027944 0.821839127925979018)
(2.48079157342834167 -0.0736422482823049507 0.753313696307969072)
(2.6009696833838265 -0.0737291555519032499 0.675988876163072017)
(2.55453234166877508 -0.0736744546630861002 0.708202076471176389)
(2.17972298481964355 -0.0964063190403468551 0.841519038860459312)
(2.48318158275933243 -0.0744864418743738654 0.755065269177542908)
(2.60364120547032663 -0.0755776900203974089 0.669086204800368622)
(2.55018706400687778 -0.0718838726517765508 0.706789888513114306)
(2.17553253305356131 -0.0879172760744269116 0.861393926579985258)
(2.48274938529906386 -0.0732552269606212419 0.751906326153962135)
(2.60371514243320057 -0.0749810022795756592 0.670335759286932564)
(2.54287666235347354 -0.0698228929704786394 0.706957721573674647)
(2.17745954544010889 -0.0845164963852268053 0.878581293343636993)
(2.47807275508804592 -0.0717504500963771913 0.749520655328062113)
(2.60037647253437232 -0.0714777497628119457 0.669871573408828413)
(2.53454797319035041 -0.0679075397530287811 0.712633712431968269)
(2.18335663977273553 -0.0838224564441461678 0.890218678752930037)
(2.46939709310186029 -0.0689359300438265876 0.751864057566408839)
(2.59322192035059196 -0.0691771424698675308 0.672435957549655683)
(2.52668420126284587 -0.0662009500867982437 0.719956078769729335)
(2.19007045878539097 -0.0778296869828259963 0.893888737774546027)
(2.45908267022512073 -0.0658771796655056863 0.755233371677402898)
(2.58546839976943632 -0.0710512513272177626 0.685128335006277123)
(2.52132774270841331 -0.0646193089637949192 0.724667435665213855)
(2.19651517924510253 -0.0782207238585951314 0.892214447590912507)
(2.45235643958765559 -0.0654111110999103934 0.758474589559528733)
(2.58374864067449161 -0.068855754011590678 0.690022254579589989)
(2.51420957569241077 -0.061611941167823113 0.730815390662712616)
(2.19953160347291465 -0.0767811892926425626 0.889240656762584791)
(2.44789777522399499 -0.0637765252767033275 0.763069697974701366)
(2.57997838014738878 -0.064012251167338996 0.694247861140594558)
(2.50242035647402128 -0.0580915576780089912 0.741742513462372632)
(2.19775959136057342 -0.0693895764822377997 0.888314978186273363)
(2.44043362308966394 -0.0595243132008042089 0.769683331090499467)
(2.57063613757599985 -0.0603887247565678756 0.70587237571944117)
(2.49251589034190069 -0.0563218405558485874 0.755380267300130082)
(2.18397313010330452 -0.0667749937466525084 0.888378434391512983)
(2.42811900547993353 -0.0556709335418392251 0.780001299382914182)
(2.56131560222998411 -0.0591069658941350065 0.72064479622227795)
(2.50382940142350341 -0.0514210982816628651 0.766803879512220177)
(2.17298907357926252 -0.0751641849034306309 0.878232465441787458)
(2.41979224107116098 -0.0556120718165034958 0.791288922695135954)
(2.55833799647185112 -0.0598962911231512712 0.733284719143871166)
(2.54767984005668469 0.0174917521430402456 0.767239681013883956)
(2.09390269020420483 -0.0763003926140988081 0.864239168530363089)
(2.420156740908324 -0.0462513470184206243 0.804208500084608646)
(2.56351308990774029 -0.0467427984594037324 0.736983479120421614)
(2.39656958832534128 0.306495449976338319 0.786928704932484235)
(2.05688482265932304 0.152817297925016971 0.826592854895803253)
(2.38513718288729715 0.0818219656828333419 0.793123641707855653)
(2.50721647185222984 0.086337017294823723 0.73044679006621227)
(1.64189072267632863 0.759492900552828698 0.764931806548234894)
(1.84872271995529758 0.822594513823241558 0.873923159118676907)
(2.18275007032055157 0.528654232714123151 0.833578994549022512)
(2.27465347323145828 0.5450553184508099 0.775021372387723728)
(1.53774695519052962 1.49698182573907879 0.782371330965301093)
(1.6316926593768748 0.976118517034839539 0.779890146841648479)
(1.5957457512698825 1.00921899140920446 0.682421949175180953)
(0.927710398292854732 -0.679352492291009691 0.596284143696762858)
(0.700503667759619586 -0.658379107479046932 0.505375451764769834)
(0.328692750266317557 -0.516988373184078087 -0.419454805920619511)
(1.00697781419829457 -0.577282335928315238 0.464802648451079881)
(1.14862055556672171 -0.575865294271048045 0.702381816480525667)
(0.943091560249630811 -0.67122760273812232 0.570701057335299189)
(0.881201446257473098 -0.619824686015885695 0.603095635634338767)
(1.27145108244080163 -0.58827259595416681 0.571904846453232807)
(1.24627142968693216 -0.444441534607172506 0.71057780326105846)
(1.01746589043723001 -0.505507846066131195 0.595387149252554315)
(0.997865300829559598 -0.467980370243605615 0.670585168879520466)
(1.34678905011230987 -0.47296654874143329 0.587456922688416427)
(1.34278535840090929 -0.359225400634531011 0.744509835082018179)
(1.15060345655566465 -0.410075702309038281 0.668801058626596778)
(1.09056972303444599 -0.36352892906562928 0.699975505813556498)
(1.43081951643148253 -0.37301702087287264 0.627759455877791472)
(1.45630325079810552 -0.314651066417713066 0.790353066484385858)
(1.29160144073823902 -0.359471470059853582 0.744892785318304163)
(1.22056688311765327 -0.312950412863637117 0.751082635968440271)
(1.53476415022275359 -0.317275824886368463 0.691135060629145315)
(1.55824577418478172 -0.283464640040884508 0.830231681066294303)
(1.38780358960692851 -0.319977419941690766 0.77296140765465926)
(1.34583171119168155 -0.286249672979121406 0.796617028137696859)
(1.63788580325411881 -0.284927630758517236 0.744993847725252345)
(1.64202009475198762 -0.256738333878899327 0.858019625070441605)
(1.44084948506370036 -0.277373361480768688 0.778312137998779963)
(1.44778511615509253 -0.255398213982693634 0.830505237435838262)
(1.72751137472044536 -0.258789969971098321 0.780497029685594423)
(1.70049958656839006 -0.237667066440031133 0.872501005029151955)
(1.46267172938513279 -0.245274946611089617 0.771329998856363663)
(1.52230230526007038 -0.230334305731737687 0.844027674394764338)
(1.79919355957466687 -0.240970915754876031 0.801604754558385757)
(1.74475961833946269 -0.219879101769492435 0.875681559532122678)
(1.46669742963492333 -0.222442228714533868 0.768660849163400162)
(1.57108814400526731 -0.211191826458141607 0.851815926260662826)
(1.85380437340569282 -0.225388011902351498 0.810348759222510817)
(1.7818843837867071 -0.203568835949182764 0.869148001932998349)
(1.46926640521061502 -0.203637225197569827 0.772564378871860247)
(1.60318097956323591 -0.198082654751598364 0.854994711608153324)
(1.89789685319453016 -0.209646814439316709 0.808193732270632625)
(1.8133089611275397 -0.190554085481122515 0.860688319217375319)
(1.47224504554630675 -0.192610887816708071 0.780732614369971767)
(1.62720560612571141 -0.186129660853842943 0.854219306097897535)
(1.93520112640188202 -0.198612829573669075 0.800880307038177031)
(1.8381176030982167 -0.179792873428731015 0.854232188265768633)
(1.46801811582379438 -0.182390261103890061 0.791131688582822457)
(1.63692297210044901 -0.180824963470657324 0.852797005143230424)
(1.96545292645833447 -0.189178776677625171 0.794281414566958222)
(1.85829983906986418 -0.169758623017340848 0.850372105483654939)
(1.46919642595298772 -0.173794672517143339 0.803544601570898909)
(1.64068029001811588 -0.176526100858686114 0.849908361074004914)
(1.99288916390449811 -0.182045095634375931 0.788156999173405648)
(1.87348989984675907 -0.160599312816483097 0.847580053948126189)
(1.4819759575559821 -0.164239430959119637 0.816947688249009651)
(1.64154916769141113 -0.167501696684832557 0.846849398298248679)
(2.01399099121607339 -0.17088040243429195 0.785167767173078235)
(1.8984395293837506 -0.149819870058963245 0.841558295048511762)
(1.50873191116837213 -0.161989180552109396 0.826439616738100846)
(1.65394683735105108 -0.161404283967487683 0.845511735571909395)
(2.0368133495215166 -0.162557340295154118 0.782539887042332905)
(1.9272220879253037 -0.144651598519482338 0.833531919260190657)
(1.54367726193863541 -0.157094964663766518 0.836806031567462583)
(1.68150926216325414 -0.155412253478757256 0.849234561688989587)
(2.05805928978689279 -0.15014391864124782 0.777059092455969047)
(1.94725606224015735 -0.140459272198888235 0.830575220977657236)
(1.56505433206085653 -0.158401046801049189 0.843158943540429195)
(1.71547499548096094 -0.154997889269072764 0.851883237916208458)
(2.07093314569243647 -0.150826554704098198 0.775813081830900586)
(1.93648721416184921 -0.131809276910555412 0.843524428879240729)
(1.57251078634493702 -0.130350256535151782 0.854321584615707508)
(1.73677075910310519 -0.145139626795893317 0.848374235668598042)
(2.07220420169203567 -0.143503944899926072 0.780180871164672607)
(1.91673404004340986 -0.127202850409891405 0.857179706304824318)
(1.55889978096016479 -0.120531772283312077 0.863248398191380661)
(1.73496948848106114 -0.136347766459093717 0.862666958756891811)
(2.05488661686883356 -0.145544669040966856 0.802412779312825397)
(1.89124604196338986 -0.121865671950164026 0.860107358629099261)
(1.54843928687681043 -0.124285392434087191 0.874064310052866111)
(1.72216195138536721 -0.131895900896830121 0.875362273449097228)
(2.03676644735225265 -0.133647719860790493 0.79912736338018775)
(1.8699638471154385 -0.118076169038565604 0.867653953860900939)
(1.5485926469260709 -0.120168229548593977 0.889591234413891541)
(1.70331577102583109 -0.130122379518245984 0.879352575538773551)
(2.01611081336378994 -0.122184067773832922 0.807437540522588759)
(1.84759205879773813 -0.113774021764603009 0.886856995557154582)
(1.55544594874422248 -0.116430025468205134 0.918305591251244779)
(1.68669008710387658 -0.125229927559355414 0.888109524683428742)
(1.99231323772783298 -0.116744999694205348 0.827161228834200291)
(1.8318754313908634 -0.105419176531970499 0.915797599609651125)
(1.5705601735504171 -0.109316140309703519 0.962125101296774088)
(1.67660896985455254 -0.11566632351639379 0.912404144867385858)
(1.96796978052737637 -0.113335183327157599 0.858336760888187111)
(1.8171670955329644 -0.106841315522327229 0.953151344843413351)
(1.59907795283405063 -0.104150748241613994 1.01292765432127907)
(1.67046774532115405 -0.11190253773289012 0.947939473352357065)
(1.94680000775815687 -0.108534021053828214 0.893822866050915654)
(1.80107303107603056 -0.10963962988239899 0.994710888969268403)
(1.6311641270085695 -0.112968333275773408 1.05643266406329639)
(1.6638976028081518 -0.11404051853428715 0.987455655012911548)
(1.92518201165313507 -0.111355714810977974 0.93823764535530163)
(1.80343438053284788 -0.10327548400976011 1.03318533141050772)
(1.66952119999484427 -0.113115640418784691 1.08035050685259315)
(1.66688105292531485 -0.109275331966380104 1.0299231821790138)
(1.91304144096973716 -0.10842183290247287 0.98188777276863648)
(1.81736128593261337 -0.0985518480639828165 1.06184225052289238)
(1.71233611958300158 -0.109855317731440777 1.09529727237831187)
(1.68157910915876618 -0.105459930938664376 1.05936828688385454)
(1.91817372357678906 -0.0994745392534226586 1.02261745148600025)
(1.83824850863422018 -0.0950678780408061863 1.0714737040955078)
(1.75330322880510847 -0.10542793519640932 1.09675441262901319)
(1.70756259231737517 -0.09984481747986855 1.07250162815385464)
(1.93638821012624884 -0.0946713500695766652 1.05017780786805592)
(1.86090403214447986 -0.0922054321474603256 1.06614710659572931)
(1.78314269579565687 -0.0977592541104118501 1.07764933511742589)
(1.73797169498169191 -0.0946254897475566487 1.07257681362309021)
(1.95118313122973364 -0.101975147722008136 1.05537315492819284)
(1.87511802587510235 -0.0898424364212344756 1.05678766868828333)
(1.79485401733459771 -0.0920731406692757576 1.04505349456751029)
(1.76197580554594979 -0.0971062916530042453 1.06387353071467161)
(1.96400927699974281 -0.0967958845478091301 1.05038267452750156)
(1.88276980227917301 -0.0837030288046168858 1.04674024428614532)
(1.78593064412529046 -0.0866888802567901406 1.00075769849617613)
(1.77685835256270597 -0.0942652423449144156 1.05358674666587282)
(1.97333840125632864 -0.0869401229934364944 1.04142316485685127)
(1.87907131011325612 -0.0772646065943506655 1.03495089911541371)
(1.76521457168375751 -0.0754882288359025322 0.948572176679472912)
(1.78626272405747288 -0.0832711348400510115 1.0444755355345956)
(1.97258750227404978 -0.080514226754600543 1.0285797808434447)
(1.8636196294660019 -0.0799942240400439292 1.01123063253317058)
(1.7220888829898271 -0.0694112949457137557 0.885179586601502533)
(1.77887800018821851 -0.0759686313397670565 1.02876520615144762)
(1.94697453952704569 -0.0820459176320170458 1.00804094844700809)
(1.81105072595304395 -0.0829309832450568357 0.975667754459929815)
(1.6852872389429252 -0.0643856841000050306 0.823849675196381859)
(1.77100315611834835 -0.0875214850808255784 0.999056623464552707)
(1.92106004534193264 -0.0951047531065169205 0.968044715330319105)
(1.78465722685696027 0.0440395337770909459 0.923592342412282497)
(1.4828605693950021 -0.0796469110201515618 0.751088097355500417)
(1.62832960021958173 -0.0824797461349502936 0.964289309272912343)
(1.75398863599740529 -0.081452494888197044 0.931202784755306379)
(1.65873307281695825 0.584347435281543537 0.913587309081994703)
(1.32481149199345327 0.190465627360386247 0.825441015323431282)
(1.58805148332902535 0.164511195239598701 0.912259077307212451)
(1.75067878345887595 0.178802674658088356 0.861631594366291442)