/*--------------------------------*- C++ -*----------------------------------*\
| =========                 |                                                 |
| \\      /  F ield         | OpenFOAM: The Open Source CFD Toolbox           |
|  \\    /   O peration     | Version:  2206                                  |
|   \\  /    A nd           | Website:  www.openfoam.com                      |
|    \\/     M anipulation  |                                                 |
\*---------------------------------------------------------------------------*/
FoamFile
{
    version     2.0;
    format      ascii;
    arch        "LSB;label=32;scalar=64";
    class       surfaceScalarField;
    location    "0.750000000000000444";
    object      alphaPhi0.water;
}
// * * * * * * * * * * * * * * * * * * * * * * * * * * * * * * * * * * * * * //

dimensions      [0 3 -1 0 0 0 0];

oriented        oriented;

internalField   nonuniform List<scalar> 
20390
(
0.000188314568822282923
-0.000127131335416712959
8.42610559563605966e-05
-0.000145744289663127393
0.000286240348344384205
-0.000141235327941197498
0.000237744351438206626
-0.000194390766171961338
0.000350292858923288383
-0.000113986139074158009
0.000259910433171249111
-0.000209551056455574712
0.000396318107893654618
-9.17528257985964271e-05
0.000263652448165258501
-0.00021712018895796441
0.000431688018090155029
-7.50190618904084556e-05
0.000262058626385278841
-0.000221449041831514327
0.000458205414052117565
-5.90258782923166266e-05
0.00025911910161935598
-0.000225627306255650939
0.000478774123933034903
-4.7738664126823552e-05
0.000257967949153230626
-0.000229874767071205303
0.000494702304467044534
-4.01356666693719637e-05
0.000259380366429260714
-0.000234511109265122495
0.000507266251456755298
-3.57700640318439324e-05
0.000263016353229243304
-0.000239270002840126739
0.000517274522220921964
-3.29649834921376828e-05
0.000267564443162135056
-0.000244235107887637336
0.000525763896519750094
-3.15998818356897769e-05
0.000272117700835582219
-0.0002487926774041328
0.000533401433960439819
-3.08611948521064159e-05
0.000276055740489104372
-0.000252689106942095701
0.000541013071116802136
-3.04372452845573545e-05
0.000278541231720615991
-0.000255611427737180354
0.000548795203753814419
-3.02972858749130954e-05
0.000279791634623744226
-0.000257210983847433548
0.000556600647383319888
-2.9942044276873091e-05
0.000279530248173158783
-0.000257349544990871041
0.000564926253092508639
-3.02821762642421775e-05
0.0002781684382545085
-0.000256174095642922853
0.000573220603107926817
-3.0041089431993433e-05
0.000275665201596022615
-0.000253865676202572109
0.000581807188969717419
-3.03574636833820254e-05
0.000272268042595837328
-0.000250417576735570283
0.000590460567236388511
-3.05290350296930188e-05
0.000268246104584092776
-0.000246274066604998095
0.000599330163099378102
-3.0957458963363898e-05
0.000263994861792814716
-0.000241778515399178036
0.000607752639963376486
-3.00138773854554932e-05
0.000259168993659367132
-0.000237383971096151165
0.000615885244611410272
-2.92279592051883035e-05
0.000253917664903558578
-0.00023258043699300748
0.000623897120209910487
-2.87734588884328413e-05
0.000248696083255986054
-0.000227699733578452693
0.000632454830466480915
-2.99915105678279127e-05
0.000244828069213118792
-0.000223160300212362238
0.000640459493081391271
-2.86306379080737476e-05
0.000240522919459447421
-0.000219610333985941543
0.000647314328165735217
-2.63092860488247924e-05
0.000235591553176510567
-0.000215749694294842481
0.000654724729908639363
-2.74593849705498865e-05
0.000231351174844966171
-0.000211003319393378958
0.000662636179818488851
-2.82436296691167712e-05
0.000227583449312894405
-0.000206971037630120693
0.000669893446470174489
-2.62350866264007264e-05
0.000223744228407884028
-0.000204401093808355774
0.000675722724877733378
-2.31145506422090986e-05
0.000219038864349527376
-0.000201343194513552007
0.000681326374846289427
-2.30692068499166395e-05
0.000215068100656993057
-0.000197240267423540102
0.000685007765685539342
-2.12358683074236594e-05
0.000211232587393208021
-0.000193498443301837333
0.00068381924523080095
-1.68133465900438791e-05
0.000207613000658137003
-0.000189742963321722888
0.000663675568447199106
2.97537474505637438e-06
0.000203666264506748099
-0.000186575055134127835
0.000588478435334209679
5.90235311296155428e-05
0.000197522616159940992
-0.000181271968894785088
0.000395908592398810499
0.000178236279862676022
0.000185251678986233332
-0.000170835222585892358
0.000126583278509272222
0.000258078313109022127
0.000161801671118706823
-0.000150535162506528858
0.000120861419050065515
9.37181305690896652e-05
-8.82181237496562485e-05
0.000163986345988157204
-0.000158587489970728749
2.30390808793332338e-05
-0.0001604030901128963
0.000264695062876629209
-0.000238086392688060085
0.00018371047224193638
-0.000206934753747052981
0.000329382840121785207
-0.000195194912047859723
0.000237957579402649813
-0.000220714074319261142
0.00037622918749733792
-0.00017739292135719083
0.000264451637803414107
-0.000225314254670656774
0.000406343627905087065
-0.000139660022588744434
0.000262526190228116476
-0.00022660580359406201
0.000429347578571192862
-8.89969025664296077e-05
0.000248376719233795373
-0.000224706551233550748
0.000454353617061452341
-6.70520886543018166e-05
0.000237649454114124059
-0.000223342043009991907
0.00047695813504541136
-5.91435577576983709e-05
0.000234675756141961706
-0.000224258599265429943
0.000496484280307485501
-5.66286716156517517e-05
0.000239671379459470711
-0.000227112611367846339
0.000508925166314757238
-5.63151909584458523e-05
0.000246336516963176254
-0.000232275563563956238
0.000519376670328494205
-5.80986082422634185e-05
0.000253601424108021705
-0.000237118482418336807
0.000528228739891234162
-5.77128816246674954e-05
0.000260622076817761637
-0.000242395437723791688
0.000535724133887944252
-5.68321117129018692e-05
0.000265989061586466183
-0.000247021462388324886
0.000542577771833465663
-5.61277704288906396e-05
0.000268814522486676948
-0.000249869026475171667
0.000549126046759371047
-5.54688521701195359e-05
0.000269483476301811788
-0.000250452883876858931
0.00055621159462149964
-5.71177265746946445e-05
0.000269174705661728766
-0.000249331746534719068
0.000562966585798040098
-5.69673013694101658e-05
0.000266898796279447983
-0.000246649151994176024
0.000570297368634525457
-5.84927403328479114e-05
0.000263248310481786925
-0.000242351472242465616
0.000577910195471453099
-5.90695870471764949e-05
0.000258320105250044879
-0.00023728621446625616
0.000585478359823003161
-5.91432761551415935e-05
0.000252579805291753754
-0.000231811100136475589
0.000592019335692487206
-5.46057707240425058e-05
0.000246186667128889313
-0.000226654521294755533
0.000598185840988457794
-5.5539803901874693e-05
0.000239373105938740636
-0.000220617145663495933
0.000602031858586581222
-5.35987203209652261e-05
0.000231604848288807742
-0.000214762954288887076
0.000607947832262069332
-5.0841223653353619e-05
0.000226913952350868821
-0.000208605842004543399
0.000613234517182734617
-4.50267016565543293e-05
0.000221599033156126394
-0.000205157031122724218
0.000616391654656948864
-4.37732510804701925e-05
0.000215019191577349954
-0.000200600949296174543
0.000621189799407870485
-4.78490338734856565e-05
0.000209893496929934923
-0.000195074666582353194
0.000612045600501013145
-4.32017499717242447e-05
0.000201557576237766265
-0.000189965265575353079
0.000613670497992506252
-3.07713281583684537e-05
0.000196551673060232056
-0.000186085820882012461
0.000619468145676270281
-2.46507932058904791e-05
0.000193324587268205481
-0.000182691930479566569
0.000607430432863800092
-3.06291182492752001e-05
0.000182245506556787416
-0.000180035308763090148
0.000596636999613857832
-2.64186976802195866e-05
0.000176796542443840259
-0.000171117564619469975
0.000604433832863761063
-1.99219250822867214e-05
0.000177261676423190852
-0.000165819764765803737
0.000605714049309953942
-5.63930360681234028e-06
0.000173213064832267914
-0.000164117321312893041
0.00059503074204628355
5.83703596587572697e-05
0.000190009300724146095
-0.000177813171429003832
0.000508091896715752553
0.00025205162395251188
0.000186572801927640397
-0.000173425462551436363
0.000282770733050849953
0.000471924142440956467
0.000178430470843281421
-0.000166802831868037826
0.000389967968921254389
0.000164998383253145631
-0.000151719414324255733
0.000120834084564894233
-0.000133513015636538485
-8.16712492688522112e-07
-0.000154814005358529428
0.000207470026119945796
-0.000227583315451495769
0.000107349529339349797
-0.000210993648191305512
0.000221490767938233778
-0.000142216352802671512
0.000157704227584064868
-0.000224943915901768048
0.000176259244279268723
-8.15879299037971021e-05
0.000131918086718412121
-0.000179654315641487839
0.000131498244538076658
-4.19179249057671397e-05
0.000109843224456731412
-0.000126803949280130887
0.000102119700712661955
-2.23667400868915263e-05
8.7579984942220458e-05
-8.85416279443117878e-05
0.000113647607397443029
-1.3999929694369269e-05
7.01008583693040578e-05
-8.34298436158709979e-05
0.000157859309187764253
-8.95852113954883033e-06
5.83838434291818155e-05
-8.80044673567484414e-05
0.000221616175665328909
-6.15813932274909104e-06
5.51169041150331035e-05
-0.000107734847549306286
0.000290536344999902437
-4.25566542573995106e-06
5.91024314821825617e-05
-0.000139398638855653162
0.00036095537570103196
-4.4878739734137148e-06
7.98889168944423068e-05
-0.000174496962107593306
0.000407013197355440002
-7.59483579952598423e-06
0.000113557265662794291
-0.00019185188991264156
0.000430918474166994483
-1.21284144696535186e-05
0.00014169616814650748
-0.000204146625840447005
0.000441977609104321208
-1.65326314712709e-05
0.000160481733409739919
-0.000210169513157865145
0.000447356351784551675
-2.04688235622275979e-05
0.000172338655263255618
-0.000211602229611234564
0.000447657393466081616
-2.27222941349847133e-05
0.000176048249395479141
-0.000207468996185626326
0.000441595232869029103
-2.29950991578743748e-05
0.000174965781253190114
-0.00019536980063693146
0.00041236703146587143
-2.07541603720317604e-05
0.00016359288134457477
-0.000178152676668886611
0.000386189299068460099
-1.72784448775184092e-05
0.000148487556777191182
-0.000165703417528618242
0.000334309881326137748
-1.42358854954435055e-05
0.000123554642044765745
-0.00014520171986889043
0.000323927199176105842
-1.07740871787105469e-05
0.000114356108064807348
-0.00012103463421084719
0.000349236528105770975
-8.4437470105169512e-06
0.000119582647143647773
-0.000115948009996839506
0.000311573977660828969
-6.41977376295559148e-06
0.000100430381941449265
-0.000117916644071362542
0.000219432887427362046
-5.66532095060002434e-06
6.50645924865390506e-05
-0.000101303665968940112
0.000212788738974129687
-4.13733094963020152e-06
5.70905566500721573e-05
-6.98451073715097609e-05
0.000243394765282209125
-3.06452619732086381e-06
6.93159161848706958e-05
-6.80101244911641029e-05
0.000238845405004073201
-2.66035966802046071e-06
6.45921233858914911e-05
-8.31751609510020267e-05
0.000142497156341768878
-2.22762931217154544e-06
3.71039317038450027e-05
-7.31762702936988461e-05
0.000108972911063495899
-1.48744024341795477e-06
2.94107547071260968e-05
-3.91488581900625981e-05
0.000115241350324487915
-9.57678830146296382e-07
3.16340242887725202e-05
-3.74334288891147127e-05
0.000145818405962071663
-8.56397047144874345e-07
3.99803868566972706e-05
-3.55510509839391425e-05
0.00011837385048809629
-6.95400348324017034e-07
3.00520864803704684e-05
-4.08114295441236582e-05
7.03564640205594187e-05
-7.03214233165073974e-07
1.90662404050836136e-05
-3.18372937780954379e-05
7.86038898192910373e-05
-1.95162393421672318e-08
1.84733894981544775e-05
-2.20154223687016846e-05
0.000116421883443496271
1.83250981722782103e-05
1.8787617780986901e-05
-1.91930474402954705e-05
0.000243801519171329007
0.00010871345726756973
7.12421231823752769e-05
-6.7791091231610525e-05
0.000222695847820496095
0.000473234819500142065
0.000144839734185974345
-0.000136321285900807218
0.000599845065068280517
0.000157752757779093669
-0.000145795407038009874
9.73348408091891733e-05
-8.95126567017206511e-05
-5.67073578509448195e-07
-0.000147874164608910501
8.71118960793721211e-05
-0.000100387216263821534
5.31688624014493082e-05
-0.000180913628223418023
5.39365463993506374e-05
-5.25996496310584763e-05
5.84789470361117203e-05
-0.000114765710005087468
3.34546805592608103e-05
-2.09366830903116955e-05
3.5868810859757461e-05
-7.57163540717753492e-05
2.22160938291774722e-05
-1.29714589109740087e-05
1.94213995066797717e-05
-3.80949912386595516e-05
2.12047559861563615e-05
-1.22479258580687567e-05
5.93537903500867048e-06
-1.66150933811184533e-05
2.27048303656716131e-05
-1.06834445112564022e-05
-1.71068881046283892e-07
-6.02318492684032015e-06
2.34650306089716898e-05
-7.6909991446312081e-06
-2.0451187371376075e-06
-1.15626701838361598e-06
2.33766178329099457e-05
-4.5340740872170641e-06
-2.90691051747924658e-06
-1.4352385734194274e-08
2.3552153051031295e-05
-1.56822228650404393e-06
-2.81744799626946315e-06
-2.41147892117454575e-06
2.55771995718463425e-05
2.82796408857219641e-07
-2.17186885663253499e-06
-8.44878338255750731e-06
3.4267136916884713e-05
1.37637963582096974e-06
-8.73941737598055557e-07
-2.13239335381396296e-05
4.80843891822814494e-05
2.4906420513411693e-06
3.65236725533552603e-07
-3.2483218093239798e-05
6.14799600705446018e-05
2.17206874269020039e-06
2.43315987844825724e-06
-3.69400158435258206e-05
6.95852428644966396e-05
7.34749241529621681e-07
3.52573018254844534e-06
-3.45658144084339122e-05
7.39649468532096468e-05
-9.65509863596130698e-08
3.90615804373483446e-06
-3.28798295241188639e-05
6.74606140255598434e-05
-1.39568821538805158e-06
2.81351322458468603e-06
-1.96487578132448332e-05
5.89894371016018351e-05
-1.67266960441264497e-06
1.22686590718628367e-06
-1.30879373168115795e-05
5.02771199029015316e-05
-1.68781483616142605e-06
7.80604532796024005e-08
-8.36132901031267531e-06
4.11894372863271519e-05
-1.8381182626616638e-06
-2.45298172013143138e-07
-4.75871749588036656e-06
3.34197186679185916e-05
-1.89547105329183866e-06
-3.86030280578972463e-07
-2.07467084977523149e-06
2.69747938535907598e-05
-1.95327822921818014e-06
-4.07719768752306294e-07
-6.16074541884638767e-07
2.19685018357029236e-05
-1.96471790612912886e-06
-3.15460530174551319e-07
4.04362936584334876e-08
1.75271057043175118e-05
-2.0645523260575531e-06
-2.94403776888829499e-07
1.66809284842129493e-07
1.43162448414978129e-05
-1.76434401984509504e-06
-1.94194741052833402e-07
2.66091761316065425e-07
1.18848107738861914e-05
-1.28696553822699027e-06
-1.2869247478339086e-07
1.92146900098366665e-07
9.80858024856909255e-06
-1.01361145404137837e-06
-1.21680904634387535e-07
1.38519024046182942e-07
7.92431465730169683e-06
-7.79239026254640016e-07
-1.28282589159821885e-07
1.3487559467147979e-07
6.47987264032313148e-06
-5.13536605515822257e-07
-1.59199700620278621e-07
1.8690791009541793e-07
5.35090142648421969e-06
-2.13628992774086745e-07
-1.98072600004042102e-07
1.90383509258550731e-07
4.19272630109574957e-06
-9.88674060628234112e-10
-3.13917836457393271e-07
2.57233280510020793e-07
3.1569914287776917e-06
1.19976860482967186e-07
-4.68389033845204852e-07
3.79130375997107986e-07
2.2960912982505459e-06
2.58957911498573257e-07
-8.79442394749403448e-07
5.07252426021338459e-07
2.82423930396328732e-06
2.4409452131242069e-07
-2.46674503318699503e-06
1.3660478753875585e-06
1.68729453550343567e-05
4.19898656844527541e-06
6.54018751265553986e-07
-8.7455392424178619e-07
7.1683696151477472e-05
5.20144505522877396e-05
2.08534283333556804e-05
-1.98506685774484643e-05
0.000152403458906636498
0.000377181957167615491
0.000114239405623896832
-0.000105962346666368314
0.000739745576847565468
0.000148144767788323408
-0.000137750761584383706
5.33406290106534873e-05
-3.16951571530535783e-05
-5.59267352918746708e-07
-0.000115513668943379669
3.19960592551812162e-05
-4.08812528245994827e-05
2.89066703335702789e-05
-6.70348514186427783e-05
1.16136848101467087e-05
-1.72481847334551852e-05
2.31263963125210205e-05
-3.66760925969077204e-05
4.68750431426805013e-06
-8.77999646024265977e-06
8.0908552480146005e-06
-1.37779703432047166e-05
8.67621482808638555e-06
-1.64471617413237918e-05
-9.30677512443509066e-08
-2.08848005023115004e-06
1.59998890760766155e-05
-2.16240140517580363e-05
-3.28361163297372626e-06
3.09715748911848257e-06
2.07634603006201339e-05
-1.84478478494749348e-05
-4.92014434353246962e-06
5.734074641164557e-06
2.38171012463934975e-05
-1.38001291875638752e-05
-5.61443915248940941e-06
6.87458257720110596e-06
2.47689813864054471e-05
-9.09300369996715576e-06
-5.87523152673945415e-06
7.27086350627195485e-06
2.44443632390417692e-05
-5.0781116886831403e-06
-5.74382156539171732e-06
6.94044935761022273e-06
2.44114789096691277e-05
-2.1496064557845172e-06
-5.53152231672710108e-06
6.11639317286232762e-06
2.44765093640623567e-05
-6.96817926080937978e-07
-5.34561489521639621e-06
5.59628564989389338e-06
2.41176393540495611e-05
2.86961126034181622e-08
-4.57286510121702277e-06
5.69399873900497358e-06
2.30620925645022231e-05
-1.82875499826065002e-07
-4.05092457943217479e-06
5.48196115590669202e-06
2.10622180860184546e-05
-6.40123339507899252e-07
-3.78809029368446958e-06
5.16066668271989631e-06
1.94468240148212475e-05
-1.2405132981917369e-06
-3.53458016078795116e-06
4.72324289953515523e-06
1.6989850245088412e-05
-1.60196947102275425e-06
-3.19186525517861738e-06
3.81820825354602656e-06
1.58987334486501174e-05
-1.40227243704159267e-06
-2.88211932113281011e-06
3.29414449690717312e-06
1.51934417021889798e-05
-1.17266773212864192e-06
-2.40357643278428073e-06
2.7022792771404936e-06
1.40016295764121438e-05
-1.10293694417287882e-06
-1.83240998468301987e-06
2.13726254448588428e-06
1.25002626627528106e-05
-1.07173361095295822e-06
-1.3845586240946969e-06
1.64921769734188955e-06
1.07302908106366536e-05
-1.1642214433556456e-06
-9.46454618073097757e-07
1.1848076549279446e-06
9.15671381845555028e-06
-1.25738376986843441e-06
-5.26146862733127115e-07
7.88347152283193376e-07
7.67183225110933519e-06
-1.23584794542836495e-06
-2.55798233046085524e-07
4.57986477445156172e-07
6.29265617236325575e-06
-1.0345700299147071e-06
-8.23030177015793259e-08
2.4343406618148108e-07
5.21907493054261274e-06
-7.22295274065830724e-07
2.62731197845972136e-08
1.2415363179495257e-07
4.52101770564850934e-06
-6.21422492137969758e-07
4.99809421931952822e-08
7.01129022375609671e-08
3.83246811048382256e-06
-5.0761733017182253e-07
2.55088735359551835e-08
6.10229521437786294e-08
3.21267501778530846e-06
-2.57216033965571588e-07
-1.6535665479815626e-08
8.41634645766630212e-08
2.60715410213821878e-06
1.9730767435150936e-08
-7.40196105897570774e-08
1.1833554109182312e-07
2.17434819615414306e-06
1.39003718024703823e-07
-1.70519765960703355e-07
1.73876814691627074e-07
1.76334017266537397e-06
2.92783855507054529e-07
-3.30951494638200152e-07
2.85888839180201334e-07
1.47506108844131301e-06
5.05725201796934467e-07
-6.69149567622504627e-07
4.55345033274705165e-07
1.9816331655817898e-06
7.25254588886725843e-07
-2.6937821589836219e-06
1.45799327707925298e-06
5.72779579627294962e-06
3.06288646413136757e-06
-6.49571630992188619e-06
3.62100211625150376e-06
2.90652384005134252e-05
2.88278527542234804e-05
3.75754735280326025e-06
-4.58205496043267695e-06
9.26015431663546436e-05
0.000270012062018044972
8.98896171130254547e-05
-8.42567914765400159e-05
0.000820538505401464924
0.000139227934018785506
-0.000130549300583759231
2.36742649953984992e-05
-1.08806700956532338e-05
-6.62980695004654874e-07
-4.43412644904755428e-05
1.28834813957645802e-05
-1.25643233887037555e-05
8.74411776783105667e-06
-2.65147449167108456e-05
3.49777843935397213e-06
-3.89169292875117096e-06
5.03366118215209809e-06
-9.17375642669836285e-06
5.71683910634901e-06
-1.17434799513201803e-05
-7.09941215600301756e-07
-4.8471398805768942e-08
1.61077634460826077e-05
-2.83159446207733689e-05
-4.15289971087579023e-06
4.73168176965704196e-06
2.42092249079551729e-05
-3.35667330200813439e-05
-6.05618291789205138e-06
7.31441902628422529e-06
2.78700214586753611e-05
-2.72878623790129216e-05
-6.88468675771740773e-06
8.25629398219897188e-06
2.95067188392908721e-05
-1.92457854557812023e-05
-7.2500387560089214e-06
8.42677817701904413e-06
3.01109982042680953e-05
-1.28614765395636345e-05
-7.26227236250924407e-06
8.2259990179841962e-06
2.98600733919981863e-05
-8.23393774184645321e-06
-7.10967757553304753e-06
7.82150357565148474e-06
2.95984773472196167e-05
-5.11622230579380132e-06
-6.7452202818509526e-06
7.32754100244551732e-06
2.90394344634228807e-05
-3.0102747801348847e-06
-6.58552085629952117e-06
6.85760710594148055e-06
2.67204359903014704e-05
-2.31934757289118005e-06
-6.29903559578448275e-06
6.21972078475377202e-06
2.30610969204428949e-05
-2.57600843791187331e-06
-5.68055033758953751e-06
5.20742817123885664e-06
2.00966929100676569e-05
-2.79613241731308367e-06
-5.14100115508949205e-06
4.16322886475140706e-06
1.71499654783134924e-05
-2.80875233710332056e-06
-4.50501319857979816e-06
3.64573750404120114e-06
1.4504525038388087e-05
-2.79911693176400691e-06
-3.8724865626350451e-06
3.21322934352277924e-06
1.31226237864647043e-05
-1.97554139634009792e-06
-3.1424728731456229e-06
2.46446424869067128e-06
1.23208831947483865e-05
-1.43214062466848772e-06
-2.28542821979008962e-06
1.71801272781726674e-06
1.1668278922290452e-05
-1.15917428896202885e-06
-1.53285459519480054e-06
1.24847476845349566e-06
1.01018531325973535e-05
-8.91141030057530268e-07
-8.86672563483088107e-07
7.3917365520225833e-07
8.64390780216592833e-06
-9.56096849205353341e-07
-3.272921092518619e-07
3.82421437863569125e-07
7.03451856389209409e-06
-1.10441445976869108e-06
6.8111694601367356e-08
7.07129821778607262e-08
5.41512809547243093e-06
-7.40531132224880899e-07
3.00461032669638271e-07
-1.29573760888002391e-07
4.38279710781064736e-06
-6.70489662708136652e-07
3.46017724914624668e-07
-1.95416189000251759e-07
4.00693698224749987e-06
-7.2784536050706722e-07
3.22788639164718401e-07
-1.66219633037946131e-07
3.50938529405978913e-06
-5.58336091871519786e-07
2.53963355842573027e-07
-1.04161009579713698e-07
2.92713749445381374e-06
-2.97532511562209008e-07
1.65393600759452106e-07
-4.91001117155651242e-08
2.40810866915666327e-06
-1.49706827778354629e-07
7.47826133584325674e-08
1.5115960523906347e-08
1.98740366046532937e-06
1.07215752973983518e-07
-3.29025029566032502e-08
6.94963271368668368e-08
1.59370003232764822e-06
2.72702337840580469e-07
-1.33668828201714506e-07
1.51254078542439083e-07
1.23803682346344762e-06
4.35736312473799974e-07
-2.75427607263977951e-07
2.55627454548280876e-07
9.8442142237801878e-07
6.21672171155269895e-07
-5.07495007837676414e-07
4.00855499363300725e-07
1.26652265817212461e-06
9.59725034675200314e-07
-1.9709909667473646e-06
1.21563560260129686e-06
3.46135887889829763e-06
3.72239657845287358e-06
-8.22344343214911921e-06
5.22218456860579763e-06
1.26363374594453776e-05
2.12154517251605319e-05
-4.15458978397477303e-06
1.94678933475872701e-06
5.07494980585929828e-05
0.00026862709380703686
6.02030118662052902e-05
-5.30446920398686909e-05
0.000865681327308871285
0.000132646607462455626
-0.000126283412181140168
1.14585825935353999e-05
-1.75192998646383762e-06
-7.84098070269871606e-07
-2.09081668547175769e-05
5.04225094953355858e-06
-1.0270083267954984e-06
1.7786772224050344e-06
-6.64015990232979142e-06
2.49439241641345479e-06
-2.59182379567575053e-06
-1.41539184066935257e-07
3.38714508118263893e-07
1.34433989140731591e-05
-2.42068617868652665e-05
-4.58388555777535054e-06
5.55607209252859518e-06
2.4826587342408981e-05
-4.63527657697036016e-05
-7.23572279057734942e-06
8.90101017791552568e-06
2.8943301052002389e-05
-4.18618625182511143e-05
-7.75560437253670643e-06
9.48629300485973479e-06
2.89314582608081572e-05
-3.08009346807678182e-05
-7.55013007801664757e-06
8.90410205389373045e-06
2.74573854358846672e-05
-2.05501506512839195e-05
-7.09977289527077591e-06
7.92338302191410562e-06
2.6265387868762553e-05
-1.34913412156791163e-05
-6.60287636826267652e-06
6.92470513934536589e-06
2.53878349823133661e-05
-8.79809217735442102e-06
-6.0889248510957595e-06
6.13885445693252627e-06
2.48773709385115684e-05
-6.25544080063383396e-06
-5.68481891721345748e-06
5.45755922273392498e-06
2.44154946593434639e-05
-3.88019367863912857e-06
-4.96747912485795327e-06
5.04550370019317824e-06
2.39819642820436416e-05
-3.17207084475666998e-06
-4.48060264653731408e-06
4.69434398490176863e-06
2.31068040335293737e-05
-3.16287968345101278e-06
-4.07834882815876031e-06
4.40486102855736763e-06
2.07351071022385199e-05
-2.34485992752829127e-06
-3.64658416096111482e-06
3.92911512001961135e-06
1.57450840440752296e-05
-2.1548805785578224e-06
-3.18029228170238356e-06
3.10045677797158831e-06
1.20850428313875798e-05
-1.59380778323111956e-06
-2.52911154788264869e-06
2.27786211982775379e-06
1.26057465647608772e-05
-1.16663986369454717e-06
-1.87859130616093511e-06
1.95354231554567121e-06
1.21878933713786292e-05
-1.1720054404288549e-06
-1.29895021237490123e-06
1.4478535174419462e-06
1.15508958865413044e-05
-1.24800662589643736e-06
-5.95426575577223938e-07
7.305789414235279e-07
1.1369027676694611e-05
-1.33767371306046837e-06
7.23879483161246431e-08
-1.62576924585865759e-08
1.15053625198992916e-05
-1.55539779262134102e-06
4.57185782452035469e-07
-3.96113783482824691e-07
1.06774419693558747e-05
-1.72032434845794507e-06
7.48310964482594016e-07
-6.17942103560744697e-07
9.23044292908102796e-06
-1.75872450391912862e-06
8.80724176391846887e-07
-7.2892914486760544e-07
7.36411489572641362e-06
-1.66723561182472105e-06
8.73957623116374947e-07
-6.49111240185440677e-07
5.06430823646158951e-06
-1.44765793263690398e-06
8.86398365186210977e-07
-5.65397291176253409e-07
3.04539614649870027e-06
-1.22241680034902342e-06
6.20495721355630773e-07
-2.77996538152538262e-07
2.35804824357282583e-06
-7.12986950936710954e-07
3.51403754199615539e-07
-9.38454240253131234e-08
1.83329177883207426e-06
-8.93296104572646564e-08
1.16117444381343248e-07
1.29407271472875786e-08
1.53641956392250712e-06
1.56057787721611748e-07
-3.64580648234706035e-08
9.75838869852794633e-08
1.2660541933131034e-06
3.29325176217088796e-07
-1.39719412872668261e-07
1.59992266137127335e-07
9.84574167055262821e-07
5.12467156699682714e-07
-2.55495092595847777e-07
2.53431921277052983e-07
6.92245282295495444e-07
7.4346882559619478e-07
-3.69941274442455871e-07
3.47290865205132688e-07
8.25908263191880717e-07
1.06827739647014793e-06
-1.49175272673046394e-06
1.02054521661380213e-06
2.09508200187075738e-06
5.35888860944427569e-06
-8.91906527520124677e-06
5.90104930652998496e-06
4.25262426846432069e-06
2.08724060510759207e-05
-7.46196457739485332e-06
4.90919878346032754e-06
2.90134574761378652e-05
0.000268093874701952589
6.98857345405743877e-05
-5.72197414831705875e-05
0.000887835605195851454
0.000124763916254747622
-0.000120984641078297075
2.74065296839454873e-06
5.57105517468329844e-07
-1.00234897134284802e-06
-4.78172607512628343e-06
8.9823385749669687e-07
2.05945597473956151e-07
-9.37384184941373178e-07
9.16590281864314581e-07
6.66031653595802555e-06
-9.07888059990145994e-06
-3.71878160949360842e-06
5.01976691995376731e-06
2.24818031762536518e-05
-4.99635174198463986e-05
-8.80583671522028354e-06
1.08653556405984019e-05
2.93017930798349309e-05
-5.78474154586134791e-05
-8.6958087149862122e-06
1.10970344453599053e-05
2.79579993488276456e-05
-4.44409609329038404e-05
-7.88324085861416829e-06
9.51879510545525539e-06
2.39733685686742198e-05
-2.97134012593570926e-05
-6.66797587293037176e-06
7.60642279550646167e-06
2.01134758921620882e-05
-1.75833987155043562e-05
-5.60278013526808889e-06
6.04167353770884136e-06
1.66172462932813598e-05
-8.84557932862731772e-06
-4.4446692765092861e-06
4.61880358810593802e-06
1.56948581431169869e-05
-4.57639844981935839e-06
-3.36419986383468823e-06
3.50538353974671464e-06
1.64695450103513205e-05
-2.52986110228466686e-06
-2.76185802730321797e-06
2.89212664440029623e-06
1.632311154670471e-05
-1.64799038830396858e-06
-2.24164895717448401e-06
2.36144626882701002e-06
1.37419694886571309e-05
-1.25256553929054682e-06
-1.98647054640101424e-06
1.75633917252664171e-06
8.28037512256778283e-06
-9.29068999477727551e-07
-1.7407117136668927e-06
1.16189916086448836e-06
6.87746934861071498e-06
-6.71946445452015638e-07
-1.14807004834014837e-06
8.43035729367823662e-07
6.12038154260247002e-06
-4.98721619694483324e-07
-7.4098629339624002e-07
5.67472561259234286e-07
6.10043476690956026e-06
-4.57907362186477706e-07
-4.91329534278766851e-07
4.43530979130607987e-07
8.91600707537086003e-06
-4.31814143563518467e-07
-2.62341775415769866e-07
2.29952531911919311e-07
1.11983784823995741e-05
-7.87458859365239577e-07
-2.06493301529259896e-08
-1.19323898633061325e-07
1.08746307752633336e-05
-1.63412905250092055e-06
3.0195741268249883e-07
-3.48790060476695896e-07
1.07173065406724665e-05
-2.11619885548918814e-06
5.11501289530630154e-07
-5.45543531813498857e-07
1.08494143523751757e-05
-2.25493626263730022e-06
9.70204489779138939e-07
-7.9566843073512613e-07
1.08054906421905797e-05
-2.29738834601839638e-06
1.23167694751693819e-06
-9.54946189095354632e-07
1.00057351730941801e-05
-2.24861018859474044e-06
1.25331142934833847e-06
-9.43809012029244919e-07
8.87986360045182726e-06
-2.03244123960206213e-06
1.12756333514308387e-06
-8.14435804943992972e-07
6.61522686166144181e-06
-1.78225118582296485e-06
9.09071105803492607e-07
-6.71079129200389164e-07
4.09602093829340435e-06
-1.3210154162499869e-06
7.17118365045960646e-07
-5.23616719865591263e-07
2.07968296851151834e-06
-6.99132274595696015e-07
4.9327297155760613e-07
-3.3202095002071698e-07
1.32201790154262904e-06
1.59462655753616856e-08
1.20933102614543805e-07
-5.74013955251715007e-08
1.21272603193015053e-06
1.32558965738708043e-07
-3.51689322993870248e-08
6.80283239400154059e-08
1.02772464079984997e-06
3.4745974091117179e-07
-1.3765333688815732e-07
1.56479691731035544e-07
6.93006197897175079e-07
6.49351849304274787e-07
-2.221923510712178e-07
2.3950188953258527e-07
4.51080225572074521e-07
8.79863525637838011e-07
-3.10315601191301193e-07
2.98094775731063074e-07
4.89162926416149928e-07
1.11108218117857899e-06
-1.16792680636289254e-06