/*--------------------------------*- C++ -*----------------------------------*\
| =========                 |                                                 |
| \\      /  F ield         | OpenFOAM: The Open Source CFD Toolbox           |
|  \\    /   O peration     | Version:  2206                                  |
|   \\  /    A nd           | Website:  www.openfoam.com                      |
|    \\/     M anipulation  |                                                 |
\*---------------------------------------------------------------------------*/
FoamFile
{
    version     2.0;
    format      ascii;
    arch        "LSB;label=32;scalar=64";
    class       surfaceVectorField;
    location    "0.750000000000000444";
    object      Uf;
}
// * * * * * * * * * * * * * * * * * * * * * * * * * * * * * * * * * * * * * //

dimensions      [0 1 -1 0 0 0 0];

internalField   nonuniform List<vector> 
20390
(
(0.660731629968853929 -0.155748405334385054 0.623093096110487243)
(0.612427746147616636 -0.254218076065093002 0.506352757766843298)
(0.303581366070658609 -0.156253687293602672 0.324101980341291673)
(0.823886099339890765 -0.107241002636822597 0.476397463666772936)
(0.990485547599939009 -0.130401848407674326 0.794128507269915684)
(0.96821850461932113 -0.266665052898550803 0.804435338843368264)
(0.74657335094273336 -0.166717563271156416 0.835966735373050551)
(1.05574724474785064 -0.104546557975387103 0.632390503491029654)
(1.19215498438784429 -0.0861552846375670117 0.807560041238869819)
(1.13178839298030964 -0.211453066820557728 0.859603083313542515)
(0.995115404335970899 -0.11540020906289658 0.904143137076765857)
(1.19054139382103719 -0.0780038632917296609 0.682906427330584931)
(1.33317542147979906 -0.0574257827765194129 0.805827988496660375)
(1.2911877914026868 -0.167444151916716522 0.865285508350060351)
(1.18622386500179622 -0.0720870243303130681 0.903772974574460597)
(1.33274994928675206 -0.0553424361615761431 0.709905074926199364)
(1.44087255939055559 -0.0406997346762307255 0.802914480539972497)
(1.4231020526544369 -0.136154641557366202 0.858978872268849281)
(1.33148280600746682 -0.0484814889834552717 0.88971886524191568)
(1.44683644597004823 -0.042603107903569519 0.725106706603724449)
(1.52007059316556292 -0.0303081302806968191 0.802335529437695039)
(1.52062462815939736 -0.106487022357857244 0.845513923427687164)
(1.43498360092213395 -0.035674404563863199 0.872121926931012981)
(1.52657483269796224 -0.0344606255375768319 0.738345940158663283)
(1.5783895133994148 -0.0248876302430745718 0.806291898404160823)
(1.59234464276262311 -0.0843438984610227482 0.832483465160606229)
(1.51150246486615902 -0.027917625291729694 0.86104147051696367)
(1.58357445341408298 -0.0294621279253571601 0.750672617842496392)
(1.62172379720631943 -0.0230894502334739668 0.814907730172312661)
(1.64376835063202043 -0.0694264598510138387 0.825017142018557026)
(1.56989130383801889 -0.023213582010418659 0.858960694629027577)
(1.62597434542981634 -0.0269852504873121964 0.763442086832950784)
(1.6548831841468703 -0.0234289508144592991 0.82685500021324565)
(1.67914385469831129 -0.0607288636992226807 0.825591933663118227)
(1.61422810266633387 -0.02056273451030214 0.864731632381176785)
(1.65773422870034204 -0.0259645688600795947 0.776433311048381314)
(1.68135639002334503 -0.0248213153779573911 0.839911707705954025)
(1.70618900078438274 -0.0552936769250670854 0.832597228015638846)
(1.64850088025882391 -0.0192817552271854487 0.874433496008489297)
(1.68233425584405705 -0.0261337733030132004 0.790319359651866726)
(1.70456234451043631 -0.0265840753912213908 0.852038862676764208)
(1.72673506938381172 -0.0526238628139722095 0.842238195072034013)
(1.67646763889042139 -0.0194439959891086339 0.885321783204431001)
(1.70311427753296285 -0.0269056367074060956 0.803280019492815134)
(1.72597188757529252 -0.0280064490335982796 0.86154189171411133)
(1.74382279621804925 -0.0511758826913593506 0.852521134534308334)
(1.70059277873634307 -0.0202404484785553319 0.895471263480440149)
(1.72235171515309715 -0.0278576785285138337 0.814529043060254532)
(1.74771346596228994 -0.0288264749664645659 0.86701844542961215)
(1.7599193298109459 -0.0503393881250534178 0.860478250521533705)
(1.72289677593369195 -0.0223018239379662274 0.90199779018863957)
(1.74194822622994994 -0.0287006771756175318 0.823060589576437462)
(1.77103824444404112 -0.0289643464961640562 0.867957623538564316)
(1.77740904627205354 -0.0499862011325185526 0.864479300717645449)
(1.74582780400887283 -0.0248177403743679408 0.904424452634421283)
(1.76352806846322885 -0.0292187766938444178 0.827776825340244549)
(1.79537067284922358 -0.0288368803427970048 0.864833568404793973)
(1.79683538874223814 -0.0493778053775063286 0.863589557936074725)
(1.77037953417082816 -0.0270900337246723737 0.902616699682775914)
(1.78721294813650089 -0.0290258856999999551 0.828193522371065471)
(1.82225283340573574 -0.0284428411804275409 0.858469857971916217)
(1.81886307754039001 -0.0500176573992648296 0.85938675035343659)
(1.79688375172036041 -0.0284894605261521022 0.897888848733446543)
(1.81300837863213249 -0.0290863595716015985 0.824735709705146536)
(1.84986480359687233 -0.0278769592263116359 0.849299944985415167)
(1.84361005248797727 -0.0498166346513987321 0.851854282682588893)
(1.82510869844158385 -0.0286457000279819324 0.889949006181406266)
(1.84092820847361183 -0.0284733015259670229 0.817927723612930424)
(1.87916481676022395 -0.0274081052480236523 0.837964033409045239)
(1.87062499798107162 -0.0506084067899879794 0.84105984446327231)
(1.85464743333444271 -0.0284332607681358866 0.879573902377918992)
(1.87020712370466091 -0.0279107457706454683 0.807657116191682345)
(1.90928220501557333 -0.0269822150286364547 0.825478534343859538)
(1.89975643565325969 -0.0511853926851443333 0.827981781976641629)
(1.88544392495145674 -0.0278036070229703801 0.867503320488260732)
(1.90028202557169767 -0.027210866334744583 0.795249935841979561)
(1.94070201819488086 -0.026118197852539389 0.812391437519803139)
(1.93092837957351104 -0.052284997517479545 0.814145202516384781)
(1.91687012470157314 -0.0268559981833761813 0.854951280401739955)
(1.93089898075931776 -0.0267525417300519472 0.78180110643546652)
(1.97088610791638752 -0.024807203909973978 0.798290021242458403)
(1.96297517015741052 -0.0510060526356582652 0.799897443440588329)
(1.94779567267626841 -0.0253773263510760141 0.840617293919306396)
(1.96178544597609239 -0.0259405623669570068 0.768789284403956108)
(2.00014959329960629 -0.0239601624396919947 0.783197696210002792)
(1.99388776449644545 -0.0499106460551807934 0.783815812402946177)
(1.97773633976191099 -0.0245191738318619595 0.824908123673877669)
(1.99193751487954551 -0.0245955174258459044 0.7543503247860327)
(2.0293301495557996 -0.0243962339229062478 0.76902502456390498)
(2.0232915610054012 -0.0495107568203041193 0.766724786587919205)
(2.00808514909758795 -0.0248679735550967965 0.809330709223558098)
(2.02087640926454037 -0.02378920800587166 0.739489749552929898)
(2.0612575934317916 -0.0244365628845018522 0.756860251053482758)
(2.05453868492535374 -0.0519945843854924331 0.753297015319221219)
(2.0394905640531289 -0.0246258611595763788 0.797815606000998323)
(2.05010898894735849 -0.0244860848386769248 0.72575385013660676)
(2.09067889572471399 -0.0227161273653338942 0.744714192122820751)
(2.08731229345117031 -0.0496903116010015758 0.742769699727592214)
(2.06976506768516977 -0.0227592061676023041 0.785357035771029)
(2.08033396875575116 -0.0244686186251018116 0.715397668572225198)
(2.11606293857253602 -0.0219667593824709219 0.731375628585702153)
(2.1157070150770485 -0.046012207985538775 0.730025068228401075)
(2.09742836929409915 -0.0214734479536662949 0.770396601249146107)
(2.1091339275852854 -0.0225674978670161418 0.703756208694781948)
(2.1434544099813464 -0.0230847558352748408 0.718453169820759352)
(2.14101615771406362 -0.0478023340775283467 0.716268366753122665)
(2.12450640095274412 -0.0221249035576016814 0.757765096607604272)
(2.13581054963738604 -0.0219945348295857851 0.689551946922941861)
(2.17422788896437424 -0.0232912664053048779 0.707876564743474046)
(2.169158761367592 -0.0503086895678248533 0.704175866004050355)
(2.15364100403671355 -0.0230933077785116861 0.746991627453626239)
(2.16278065661946561 -0.0226941810764219876 0.677147806055258816)
(2.20271896024363167 -0.0211614138494890039 0.698064252318099543)
(2.19969444197582265 -0.0471668676387834857 0.697283101846851383)
(2.18269912970640112 -0.0211296670071202883 0.736008894277260572)
(2.19142460891764523 -0.0235197139420651145 0.670166264892005481)
(2.22575218802255215 -0.0194826064433631201 0.686848664000327291)
(2.22586044619630075 -0.0416599901692317476 0.688052098377994859)
(2.20863319538096281 -0.0193875766309582753 0.721879099334905572)
(2.21907140135456782 -0.0213768326561875714 0.661592346651104446)
(2.2492391333632149 -0.0186671448567523324 0.675274149083341046)
(2.24742255027210502 -0.0422517197043173962 0.677301327180047208)
(2.23241700195123727 -0.0191572731411893647 0.710485142185437901)
(2.24349900462792329 -0.0200961587274060341 0.649468676847428705)
(2.26591838377285182 -0.0160176114938932884 0.664194527523555234)
(2.2670655968332416 -0.0387899977812171115 0.666944650284882368)
(2.25313357212065712 -0.0176332308566666367 0.699562300787180735)
(2.26415371656242304 -0.0187218247946426275 0.638661628149700733)
(2.26421085900692765 -0.00420263196254054214 0.653025391372262898)
(2.28197707520644189 -0.0298391127625596726 0.658335288849367539)
(2.26273974518430165 -0.01285397236820255 0.688949243012449308)
(2.27430414828471994 -0.014397115342991984 0.627563509931663543)
(2.19621047869484087 0.0314717569463120045 0.637886289954705088)
(2.27898515677452451 0.00455189223632486081 0.650406547601178331)
(2.23546630154228554 0.00766033093115797703 0.676062739845845972)
(2.24969834983718808 0.00430834357583481913 0.617166059440054093)
(1.94777203840181223 0.131925344438663272 0.611625874296687577)
(2.19116605278073706 0.0964228036726660354 0.638098491332917184)
(2.10477306316740131 0.0608349284930724613 0.655336356166800416)
(2.12498264545793525 0.0549022380099490059 0.599743451751272194)
(1.31143911917102995 0.234754305940121255 0.561689974746520826)
(1.92650612131958932 0.293286131032374331 0.615023012747543563)
(1.76001632545906128 0.211452588708003569 0.616432139421355996)
(1.79044878131624197 0.20351271351098521 0.566671601963373628)
(0.422481995132330868 0.181256512827987104 0.424079406385711455)
(1.28285172441186224 0.424695759231909831 0.562639542338823406)
(0.95366268440306845 0.265839814185794387 0.541953251187057949)
(0.991655087184857842 0.261572449422435793 0.502388119212058504)
(0.269667066499070351 0.200138273099807973 0.433089829998038134)
(0.0307261237270877556 0.100925502471079592 0.325668585518761322)
(0.0448299874248430028 0.0985198648438166402 0.303463461160615233)
(0.816396704613863378 -0.407363318034384081 0.687695000499723652)
(0.798358876168423381 -0.48243829167562513 0.565687960421246361)
(0.382506243257586531 -0.338555732301386192 0.182448563390207985)
(0.886067672036532694 -0.305721915298145852 0.542404719916074418)
(1.08596755152052382 -0.376714517961412754 0.869909914886994984)
(1.05833146862864003 -0.503260310532233524 0.894363692437241564)
(0.907447465390356811 -0.432297036223727449 0.903807310262884411)
(1.12025459952705475 -0.315705386807574373 0.700187563738785435)
(1.25938849714353029 -0.30998054618943105 0.917328550424733047)
(1.15953717481332785 -0.432226472510135795 0.984052186795277617)
(1.09615039696443151 -0.361623353073119547 1.03996982087676493)
(1.25107581575928584 -0.281207488127826977 0.771843915665027747)
(1.39144364087258832 -0.256883906769260262 0.918436392122249257)
(1.26090227786125575 -0.365484459749429225 0.998199851643930325)
(1.2493997999324864 -0.29179602752160283 1.05486902560217843)
(1.38901410346434862 -0.236074638845991641 0.79084355460836997)
(1.50237071079854045 -0.210856356260089306 0.901578315156563947)
(1.35652982121639165 -0.307987501729754254 0.971265396465333719)
(1.37853582835324273 -0.243578780328632533 1.02966560217840342)
(1.50798170511737029 -0.199980824493840831 0.796926984344575207)
(1.59202886465988458 -0.168491319097443165 0.875661859150598576)
(1.46179800167062668 -0.247712693671643891 0.912877232303292097)
(1.48301136596562011 -0.202802084483285155 0.985560820189378739)
(1.59706193742529812 -0.165163246761284133 0.792767690861247321)
(1.65810000288062698 -0.134159422951126373 0.851208708775002321)
(1.57929825973796945 -0.194924091440235508 0.854445820711851156)
(1.57167573753927514 -0.166023927178908071 0.939910174747710103)
(1.65983596295022839 -0.133952396766434612 0.784821002097781051)
(1.70097927891846412 -0.109542029808311028 0.835701345509362481)
(1.67569530035721437 -0.154237984462849614 0.823314623314175487)
(1.64310237143794668 -0.134892876626645813 0.90554351977161418)
(1.70127401620224505 -0.109461253151040008 0.778799804569756504)
(1.73046744818324938 -0.0931270688529050317 0.831334161465511423)
(1.74085330118186499 -0.130859952782409666 0.81114229035770069)
(1.69440450488608763 -0.11073019414496349 0.887912459532565146)
(1.72691485389423316 -0.09081097448621131 0.77713848936644836)
(1.75055048397150825 -0.0826508769796964332 0.834923715381718834)
(1.77740627700198051 -0.114646429169418335 0.810509140924690397)
(1.7301788527089319 -0.0924771991025064716 0.882022470181065499)
(1.7444193275398161 -0.0787452457433218816 0.783400023580535287)
(1.76583355093645356 -0.0764065463684256152 0.842720466929578138)
(1.7911175090623539 -0.10648203600413525 0.816079304420104124)
(1.75349365687325665 -0.0798019710398393811 0.884581533732381575)
(1.75592139170665029 -0.0713176930088865735 0.792148259858224679)
(1.77741767882908963 -0.072454866220272765 0.851457493341730709)
(1.79857785785993163 -0.100767695099498275 0.826079754127893029)
(1.76888320385403564 -0.0699572840084187325 0.890837904123291002)
(1.7650750979874863 -0.0677286639169269039 0.80323839685592191)
(1.78938300242625026 -0.0701266872987977158 0.857939105809567004)
(1.8049494385929794 -0.0972692538277458857 0.836878513522133716)
(1.78039299528377248 -0.0652791511983470407 0.895660749463977113)
(1.77503503886326319 -0.0669675516722760128 0.813766331983270308)
(1.80349030174675518 -0.0685498282154443916 0.860111235115155859)
(1.81400524572927901 -0.0954573773737353165 0.844910953558030364)
(1.79259855602896168 -0.0646764685378149184 0.897917584939028401)
(1.78840318777950147 -0.068176940379478787 0.821082547764380277)
(1.81979694938290493 -0.0683462085692193022 0.858142739884717343)
(1.82666789590318079 -0.0941505800771767071 0.846160100230058276)
(1.80775046028927155 -0.0667257113410401614 0.896132106663362737)
(1.80533185631773252 -0.0687008792996257611 0.822893249660451076)
(1.84105341310573767 -0.0688984171429594949 0.852771175064109266)
(1.84416512969391633 -0.0968489938072800982 0.843450283638226717)
(1.8267723531148059 -0.0697956029077535511 0.892682128722956159)
(1.82622595667313514 -0.0716832988926968395 0.820275968836591374)
(1.86382586135080541 -0.0700044233962500012 0.843614182160445814)
(1.86692259136450156 -0.0968980636243942234 0.833478936064183773)
(1.84896591310801162 -0.0716465815220386909 0.884549766775118096)
(1.85124788017913411 -0.0732458720387045015 0.813159398104889575)
(1.89135650331013649 -0.0720717189535397262 0.831077593030868478)
(1.89378645765691322 -0.100484509223504437 0.819180253888324161)
(1.87394248871634872 -0.0738865178306917364 0.873339831455516746)
(1.87949249923502903 -0.0755753195104259257 0.801118301346969375)
(1.9208481817282701 -0.0747955640614954703 0.816648450149166871)
(1.92462262053085853 -0.102192760732265048 0.80251822957826402)
(1.90189897938788643 -0.0753950057682495206 0.858903376368042815)
(1.91011034578463756 -0.0771636839122519375 0.786380337150151987)
(1.95446636518002737 -0.076163681711940559 0.801651208437169971)
(1.95889646230510484 -0.105971362215320247 0.785686646823069545)
(1.93220947620289718 -0.0764238610640504135 0.844336579626295602)
(1.94246446602110678 -0.0795632943744475629 0.770582045318055187)
(1.98604053552650717 -0.075261748915018592 0.785423234601076103)
(1.99564031573316303 -0.10192780402340372 0.77046811001489024)
(1.96300960814199343 -0.0749773820079177172 0.827065919859189425)
(1.97633097773449973 -0.0802767867566812066 0.756796601886552844)
(2.01684556511278013 -0.0744668868775784643 0.76734290278086259)
(2.03055729991099465 -0.0994811437755337008 0.753173460610867429)
(1.99243700175808702 -0.0745274663893964739 0.808409690463529951)
(2.00954565998616719 -0.0782460606838315531 0.740073706888918159)
(2.04583421161179846 -0.0767428747866845118 0.750996777343235333)
(2.06110945412196056 -0.0970270916957131496 0.732954827269728826)
(2.02308730324728447 -0.0771003415061117803 0.789241624693781452)
(2.04005362778889276 -0.0763066856308741437 0.723197522189555242)
(2.08352752624535809 -0.0781739395347296334 0.739206463993330676)
(2.0960037740933295 -0.108034282066076667 0.717975875986891388)
(2.05699691985911892 -0.0782828489853327897 0.781019286468128793)
(2.07062478656839399 -0.0783502056637257055 0.706633107379619707)
(2.11406003494514705 -0.0743553618279401835 0.728080575833172539)
(2.13653315656778009 -0.0987790907599800233 0.712255352986423063)
(2.09002949209850231 -0.0746914497329618787 0.767708347129710145)
(2.10382490050822524 -0.0791036768587761452 0.70006327749670072)
(2.13775921552181725 -0.0725473933296312129 0.714917806395821587)
(2.16427062584946173 -0.089329461747035821 0.701995590372652578)
(2.11787116261716735 -0.0715110713394472713 0.75157281875583859)
(2.13461353158530276 -0.0743696231114528983 0.688637607187546741)
(2.16503923068639947 -0.0751020103037974701 0.701991062936413668)
(2.18534198726265849 -0.0949793516173379482 0.690438013966542585)
(2.14345892776452507 -0.0730862144567265143 0.740923648398379209)
(2.160628041764594 -0.0725009162132733004 0.673849793139229214)
(2.19713890537651668 -0.0756850801522551131 0.693582403107427803)
(2.21143417295292899 -0.100890653030376892 0.674100084065996863)
(2.17246133515526063 -0.0756998808257645095 0.731026080081467744)
(2.18571717592203818 -0.073082847236555365 0.661961869070007314)
(2.22541124370861709 -0.0713362566727306635 0.687270947906746699)
(2.24356517383679144 -0.0919445199637489163 0.676904081791334211)
(2.20259524250532124 -0.0721404135545004044 0.72230042039140252)
(2.21422799425419514 -0.0754274948469293716 0.661017422732669946)
(2.24441289725451742 -0.0676442208957341445 0.678504761557714664)
(2.26278721155380014 -0.0786443844024165145 0.669516399814122032)
(2.22684136864510673 -0.0684206804044878297 0.708888676059699518)
(2.24209688046659306 -0.0707766675853800098 0.653921585669627214)
(2.2674834360449676 -0.0657793593422845019 0.66897182838158864)
(2.26577251004564939 -0.082532891610228809 0.663767812429843507)
(2.24700600261837646 -0.0675298714635889225 0.701322041595813794)
(2.26435299409157853 -0.0679016850403518224 0.643830390216453385)
(2.28398497954677371 -0.0621776714909924033 0.661085411610694562)
(2.27263478181980982 -0.074199155814033399 0.649364005040336423)
(2.26719555362769976 -0.0651478494352078635 0.691274890762737959)
(2.28371871448317165 -0.0651439869881741823 0.636958098423331287)
(2.31255707701200608 -0.04667400416403545 0.655716445078282861)
(2.28117935221583812 -0.0750627648520309915 0.641159965264841758)
(2.28757925451754573 -0.0588328996306523161 0.689056838995918408)
(2.30201255387393644 -0.0594747137809595317 0.627181395536988595)
(2.31168706673964808 0.00628811628032799157 0.65061874897939076)
(2.27603418691121817 -0.0224603716809991943 0.641808478670580329)
(2.30493544373565973 -0.0313639396226872078 0.680852637881138811)
(2.32163241965902722 -0.0344139388122445475 0.625957952412415475)
(2.18208482078173649 0.163306899731304245 0.641495629783773391)
(2.20763325279694023 0.133073203631543874 0.635715100430445323)
(2.25327909162061424 0.0506167885706645324 0.674796260463751629)
(2.27585961816470084 0.0430828715020612971 0.61849516970506313)
(1.7806294688006481 0.425926732398075991 0.615972580339846587)
(1.98582912910517906 0.467551004499865752 0.633210922498279483)
(2.05589647590777957 0.292268516192614847 0.660675320561128987)
(2.0888645603817344 0.275362562381134268 0.607750591723853262)
(0.964816301652001385 0.505978813471184008 0.571649965951148697)
(1.57310077812974636 0.810573178261140836 0.604581738863527063)
(1.55734346292542725 0.580154639552086904 0.615260666074156193)
(1.60850196931615108 0.567407473343437441 0.571202582572779893)
(0.561585145179129497 0.658658320601264724 0.557593327578361886)
(0.475536631304427804 0.442953680639234293 0.56318996212901884)
(0.515279768079103251 0.439444166197106634 0.515414430096237663)
(0.99104066306969385 -0.547439219749375372 0.772356652358761053)
(0.946304373341834371 -0.486967177196217405 0.633279163568268744)
(0.377062499075805413 -0.312592225863783768 -0.404618946827928372)
(1.00750069218712412 -0.424912391265219125 0.577363863316086356)
(1.10800206172393034 -0.574253921497211328 1.00850596434552409)
(1.07107665246690864 -0.654048121843539554 1.01721078860880842)
(1.00873864674505942 -0.625154982823913685 1.00299763553855392)
(1.15533818496630092 -0.508922810694531491 0.818383264899717577)
(1.18191316791909262 -0.514389287200682555 1.06492348801447489)
(1.03261147819689736 -0.585042931001909294 1.0930235265507684)
(1.07590122119285336 -0.550993651981869004 1.15156171886090664)
(1.22570029668953873 -0.496485523625217862 0.919839890850661757)
(1.23259334836979995 -0.446795054764092203 1.05102885598701468)
(0.981678688099264396 -0.505589561604567694 1.06725799317772108)
(1.09447907394449939 -0.456159914738108296 1.1703410137286232)
(1.30539152359464405 -0.436840149874164363 0.940810960599299473)
(1.31189208089483533 -0.374726702119815902 0.982564313612061757)
(0.990190258800181078 -0.442405468338825714 0.911781913207600825)
(1.11596814368558905 -0.388610128738930083 1.10244127722991525)
(1.38335946657712916 -0.378616535497517059 0.912904110259081136)
(1.44934096283580649 -0.300610728392512794 0.891661193864545232)
(1.14373000819762893 -0.38170688947692738 0.67697224955884816)
(1.21254427077067306 -0.329928051327667726 0.975713375630217983)
(1.48030755740953546 -0.314621261656391649 0.84517393966158838)
(1.59996081134055257 -0.23712403767094975 0.8265517352510241)
(1.41872866902554984 -0.309266571589144279 0.463105996996641567)
(1.39961379351234094 -0.271127939598014178 0.855581536625858008)
(1.59854704321756502 -0.252742264507762882 0.777516566607494686)
(1.71567680728567962 -0.193649623839837887 0.798755568162513696)
(1.70666449551484511 -0.230422696929385634 0.336967408996347195)
(1.5998526794513257 -0.215630101857297585 0.782770956586358535)
(1.69931862104263276 -0.204743652216270444 0.746117662445644925)
(1.78850403153703641 -0.167473572558832329 0.790317269816879553)
(1.94893308144770283 -0.177496266375716888 0.273445497826012407)
(1.76435727718152768 -0.171724947397779937 0.758510567559884219)
(1.7669039502361088 -0.171385630598720029 0.738065246308357792)
(1.81589549337493517 -0.150928758867514473 0.791664729963075575)
(2.11505197048414484 -0.146904287916623078 0.266746685171611764)
(1.85203393080735768 -0.143072383408656523 0.783663851820415092)
(1.79694209515872272 -0.150059127955427613 0.746539627996837485)
(1.82383228048948509 -0.140826885606681607 0.799438591618419014)
(2.19246800830410082 -0.136906884830206604 0.305133099730242607)
(1.87487209793139264 -0.126988788754486798 0.810167978445355041)
(1.80367021429259444 -0.136248957631728479 0.757255066487451334)
(1.82585669199809986 -0.134689962477804015 0.811500774308296036)
(2.17912702820751836 -0.131143491768572235 0.403795020150698736)
(1.86433552129118585 -0.117004756865624657 0.830253815725914279)
(1.80486081320267111 -0.129617948934821203 0.771526625975385572)
(1.8293047094658812 -0.131390475962797793 0.823850361270597187)
(2.12443993981263768 -0.125244696297370228 0.502752739864942177)
(1.85330245176784136 -0.115994926265583179 0.838507562485901192)
(1.80840601437429171 -0.128775678920389214 0.786004706993371327)
(1.83753220562626352 -0.130202507129730222 0.830959818672932893)
(2.08447163732457508 -0.122467132334943302 0.567555171340992537)
(1.84872081873989358 -0.118912320099970797 0.843263069220302253)
(1.81812937821000808 -0.131778536207002417 0.797471090604748856)
(1.85019150407498256 -0.132067332542415455 0.83146764398356765)
(2.07577870924583907 -0.121805926636882694 0.585848684094429251)
(1.85277607203604089 -0.124274739089557176 0.84244615655092403)
(1.83303886715162978 -0.133928575879227879 0.799794799282225854)
(1.87144065682925498 -0.135203238915552221 0.824158044638301224)
(2.08709464272789624 -0.129533337311811159 0.585625683683829168)
(1.86504079466043104 -0.129879973752738104 0.841274991490415514)
(1.8539303195264567 -0.140751865059910802 0.797155479315393767)
(1.8957119192186036 -0.138053523252675087 0.809045007792061899)
(2.12846642022137988 -0.132275577053831278 0.548222274525608011)
(1.88436461998331706 -0.133349606962868766 0.832030322117541465)
(1.88183653906254844 -0.144145603120651833 0.785546572223749795)
(1.92749503120197008 -0.140746789036168718 0.790620890435719481)
(2.18205163684281622 -0.140065199340070362 0.496438806879028249)
(1.908967240279134 -0.136276818974240516 0.818765170110007712)
(1.91402666204870608 -0.147504049980093338 0.771386922142666798)
(1.96144944924498654 -0.142874674375929128 0.771556426252166805)
(2.23885574100180973 -0.14228273756094173 0.444901560170310295)
(1.93919747839918655 -0.137931961116554647 0.801630729115607954)
(1.95017966860731162 -0.148844452998151161 0.755405222833508638)
(2.00239438047943485 -0.142127447760778874 0.754503548400789592)
(2.29783818822808028 -0.15094015103154701 0.396850942108492644)
(1.97341565237183403 -0.138469594927417283 0.7865159602344578)
(1.98877187684606893 -0.149483985308612205 0.737523349203700551)
(2.04001600161167529 -0.137715343008958824 0.738218336024681565)
(2.35592082132859115 -0.143149046537067393 0.355858101833425811)
(2.00885886031102823 -0.134835528849158254 0.768918078437662911)
(2.03077930305069998 -0.147399049400980336 0.724097230661415847)
(2.07516411280980684 -0.132344608485529952 0.718785385099733887)
(2.4121042808312656 -0.13848850982467345 0.326344401494173986)
(2.04216049034434244 -0.131381124345060801 0.749905907726903243)
(2.07146727761334626 -0.140479311105303345 0.707039249912179368)
(2.1046853742146201 -0.133195564493962637 0.69993392591338488)
(2.46078347244646611 -0.129535914191591495 0.312732158047920816)
(2.07588074982274007 -0.133468858764570042 0.72509878429748853)
(2.10580708104788084 -0.133870750728579485 0.689602339321461089)
(2.15641360212204214 -0.133643366828294502 0.691024764979983774)
(2.50037492662812255 -0.163422678449956671 0.308449875922297667)
(2.11927550436069589 -0.133035711805084417 0.72726186193290665)
(2.13911379996750961 -0.134755941771692506 0.668213267633679053)
(2.18942995856079436 -0.124164239084145145 0.686170367525902991)
(2.53234839708460768 -0.138269022549454335 0.312801433451290523)
(2.16011026483644075 -0.124192373938457029 0.715397520704175616)
(2.17916950701304746 -0.134072055290922254 0.66943406172991371)
(2.20550840143106885 -0.118605102978876178 0.677515797943373688)
(2.55384966337488351 -0.118048231217563013 0.316972947602530919)
(2.18658387982054236 -0.116920059973781146 0.70273679735358785)
(2.21045984178873134 -0.122630214560714615 0.661377779886232253)
(2.22976613556390424 -0.122293509059430788 0.66254703509612578)
(2.56614720997068169 -0.130079799672989882 0.318700603724052178)
(2.20772629693997491 -0.117089904505487244 0.694764964133022356)
(2.22878110196169299 -0.118906380672328157 0.648821827103522653)
(2.26387535299868992 -0.121465588714302297 0.65742176274990316)
(2.56995085988090377 -0.143762485843661858 0.306450260125120388)
(2.23494173585167433 -0.121986041560435646 0.684422841187061537)
(2.24537761945048375 -0.118362405392796369 0.63278833735090434)
(2.28574821345493318 -0.109253283546946287 0.659149533698709433)
(2.56914812303327134 -0.121041351721441329 0.300453755029112368)
(2.26511368504256483 -0.110306670625530318 0.683380034884654708)
(2.27010857264697874 -0.121519471379880492 0.647059135405272712)
(2.27600389244921431 -0.101398414249577282 0.654779450686250764)
(2.55061611783442554 -0.0916352708426445145 0.287637839319303701)
(2.26987873603901669 -0.101479988552165723 0.674205458394755319)
(2.28876654241762711 -0.108581345626922787 0.638479363984937542)
(2.27678367330398634 -0.0970686913984085964 0.644159989088591289)
(2.50675553135990548 -0.102594565284735526 0.261575378350483112)
(2.26124665488066157 -0.099483881210933392 0.669435580950701214)
(2.28331707978435805 -0.103844488444653715 0.630092031847606093)
(2.25607845424138764 -0.0910552252128797729 0.629438558694483397)
(2.43750138476138511 -0.0722067252591125364 0.207107520020580721)
(2.26124464669048875 -0.0944482441550899138 0.640599197436563461)
(2.27504487650144904 -0.0973247335189429408 0.623878683943103418)
(2.28046900344727099 -0.0698488247431893333 0.627251998857139004)
(2.35976741051512606 -0.122683234202669161 0.123606271385115263)
(2.25851383697292984 -0.0840367125658934705 0.66440713105452831)
(2.27295829688662554 -0.0900921810060960199 0.593556527921209387)
(2.24119822325000273 0.0314172269651492794 0.626904830121634671)
(2.05344911883194747 -0.0145474688913603926 -0.0750565644346017358)
(2.22137284885468889 -0.0434808603077677797 0.63973356835423012)
(2.2465993467412666 -0.0553811121540921311 0.616288192331573725)
(2.04983566044857968 0.304195975591345702 0.627430393144951415)
(1.9500192402453671 0.210785575866681535 0.373563837260691312)
(2.12317763916125068 0.131766529920959302 0.636508971306187221)
(2.16475943274365035 0.0990170111331932917 0.600570802101766055)
(1.64740647016651875 0.714771653451155675 0.621820081021960958)
(1.65934979827831097 0.646897573851351604 0.590632498815598206)
(1.86741516194022439 0.521354712069595938 0.648728326721097148)
(1.91708182838368613 0.480324673887286613 0.604992350078915941)