/*--------------------------------*- C++ -*----------------------------------*\
| =========                 |                                                 |
| \\      /  F ield         | OpenFOAM: The Open Source CFD Toolbox           |
|  \\    /   O peration     | Version:  2206                                  |
|   \\  /    A nd           | Website:  www.openfoam.com                      |
|    \\/     M anipulation  |                                                 |
\*---------------------------------------------------------------------------*/
FoamFile
{
    version     2.0;
    format      ascii;
    arch        "LSB;label=32;scalar=64";
    class       surfaceVectorField;
    location    "0.450000000000000178";
    object      Uf;
}
// * * * * * * * * * * * * * * * * * * * * * * * * * * * * * * * * * * * * * //

dimensions      [0 1 -1 0 0 0 0];

internalField   nonuniform List<vector> 
20789
(
(0.0437595361119777967 -0.0115562315268566296 -0.0273119557493722055)
(0.0228151882252725369 -0.0196139770979069927 -0.0257407939349152091)
(0.0215477637716708359 -0.00876955792707395654 -0.0253535986008539167)
(0.0220983986638985733 -0.00866482853269080235 -0.0256841873525070243)
(0.108225777297002279 -0.0150561713008569593 -0.0302123395770137089)
(0.0771393855269855849 -0.0289387104440356167 -0.0286710774953278826)
(0.074658291310534447 -0.0143797995488130458 -0.028480981425539717)
(0.0763187291522338662 -0.0142408376229018595 -0.0290550924311423903)
(0.176212550847574284 -0.0158217951700001178 -0.0335421597984520425)
(0.139549772474697908 -0.0305206744807861863 -0.0311490582804204927)
(0.136029803025889129 -0.015721490935166501 -0.0308889315382271899)
(0.138832184658546243 -0.0156610762184647943 -0.0314976298312999517)
(0.242484354819953063 -0.0151559109247208119 -0.038722626428348908)
(0.207189088458241771 -0.0297632211921385371 -0.0352095668688414479)
(0.209301568663715021 -0.0158133411612594414 -0.0350327241860275834)
(0.213845706097506111 -0.0159039919109988243 -0.0356509346377010192)
(0.30176160945101882 -0.0135659730746210579 -0.0462620426363855586)
(0.266923243359963203 -0.0266623408685700836 -0.041325324883077115)
(0.270057662654881847 -0.0142910411347990703 -0.0411583373938626124)
(0.277127865977806809 -0.0145053674067200308 -0.0417921130108081448)
(0.355076088595157935 -0.0120557613115776039 -0.0567761761286359329)
(0.321828581391146784 -0.0240825907929039344 -0.0501530157988474973)
(0.323818799565676829 -0.0125811220764892855 -0.0499347361143792079)
(0.333840829638555492 -0.012858880621439233 -0.0507092370182825325)
(0.404030100983935048 -0.0108865453900174811 -0.0715110415443793446)
(0.373277172912989341 -0.0221571489399359847 -0.0623100775541304414)
(0.373220819610834864 -0.0112536587316767918 -0.0619212417709581325)
(0.386994270805421925 -0.0115719311231355024 -0.0627208727525083581)
(0.448274193563287071 -0.00975111712046015759 -0.0911309333018831408)
(0.420673832927692448 -0.0204506493699355245 -0.0792826811707552925)
(0.417778430591544681 -0.0101963255303954524 -0.0787607453381945904)
(0.436313422892333935 -0.0106038756338265611 -0.0803339689463085371)
(0.487352526336248981 -0.0084902941854602676 -0.118133917401139626)
(0.463471036488105836 -0.0181296401198542366 -0.101374260619538192)
(0.456883172151205441 -0.00890220278169745124 -0.100348128264424546)
(0.481822506447379673 -0.00940822527706410873 -0.10187106324482037)
(0.517952534151594146 -0.00686042982158655088 -0.153131340242339931)
(0.500049279413632308 -0.0157185643050012785 -0.132405289392133002)
(0.488214798244566262 -0.00751176838515908024 -0.130930815742321099)
(0.52178838265076033 -0.0082409712837531509 -0.135167910521189566)
(0.540901481383836091 -0.00527085094719465484 -0.202383255853241212)
(0.529097906187975919 -0.0120766069697018016 -0.171318399259142967)
(0.510385680897422089 -0.00553626516379981861 -0.168296857556903878)
(0.556113772522400573 -0.00637847162787844642 -0.17205107002517997)
(0.549346125652168227 -0.00356420439175992405 -0.265854725485253462)
(0.548026482240774104 -0.00997335041726339286 -0.229231733004228028)
(0.520394992575786586 -0.00414993241587286159 -0.224282698926895591)
(0.581615830228980113 -0.00533555900412148627 -0.236723134829697701)
(0.551720371771440732 -0.00290270268984654583 -0.362041577373183765)
(0.556858948576096857 -0.00604359656748490633 -0.298975898695261977)
(0.517431610784254481 -0.00204914103722912255 -0.290253490963051253)
(0.607470982206539611 -0.00305020191650429108 -0.3002302706521634)
(0.508229393622442238 -0.00347538791156970115 -0.490863239448054101)
(0.544176710090676918 -0.00751171959268880519 -0.420273660308287)
(0.493289287074042015 -0.0026923200857297833 -0.394121359642360558)
(0.604549692824744023 -0.00500654825639871258 -0.447803441664813229)
(0.443980571603458218 0.000731245625772216322 -0.793601784819010558)
(0.527143467579592406 -0.00864885870787361448 -0.557791675458948588)
(0.453241991529171995 -0.00421471554328010489 -0.513442463033506047)
(0.706159135630483603 -0.00772528571618235661 -0.587850272041495869)
(0.266900617199384793 0.00841273683121212916 -1.04340082260495937)
(0.264412212260611346 0.00796349770443520802 -0.771794956985711766)
(0.571882891618159417 -7.45619612397143512e-05 -1.14961888780852117)
(0.0479178329458806382 -0.0366223416307616539 -0.0270999156808708862)
(0.0249125632816386763 -0.0411241215968025098 -0.0258622844536854149)
(0.0235649216406556561 -0.029346731921554705 -0.0254013026675028175)
(0.0241286986033105687 -0.028999663715928204 -0.0258280223364075259)
(0.111222176349018223 -0.0446065003776250357 -0.0296077961987346629)
(0.0806145524080104925 -0.0574002750690393443 -0.0284906585995593174)
(0.0780233513497489983 -0.0439847738732810634 -0.027761805852285798)
(0.0796659426290863559 -0.0435930230942532942 -0.0284145021782781643)
(0.173463790587227495 -0.0443108080610225899 -0.032816465350809905)
(0.142558085457267697 -0.0585227799735430834 -0.0309530854116770483)
(0.140228613357795268 -0.0451280566244531278 -0.0302035724628996263)
(0.143139077246497326 -0.0449839691002083125 -0.0308819881418793095)
(0.231754138791241404 -0.0414958774553642051 -0.0378122653235696618)
(0.203267221276616089 -0.0559913105908552422 -0.0348162889131066952)
(0.200512119294745994 -0.0431566257393774036 -0.0341438313601855059)
(0.205069424717915699 -0.0433643120819356409 -0.0347863407139995737)
(0.287980107714729316 -0.0378383152053776775 -0.0452162980455390537)
(0.26071301353749915 -0.0519626428346084551 -0.0408002648456933098)
(0.256911945990185242 -0.0393136531128516695 -0.0401885053200896208)
(0.263572070845349449 -0.0397958826904505694 -0.0408103847796844679)
(0.341238852245835778 -0.0346744758520372426 -0.0556869172243420127)
(0.315411629827749895 -0.0480821698894907945 -0.0494901721155482296)
(0.31018837215370032 -0.0357560931764128592 -0.0488610496487017557)
(0.319531751591825841 -0.0364019183911042446 -0.0495190917538308184)
(0.390983205752367668 -0.0320091267035675087 -0.0700817171805064171)
(0.367261951005023457 -0.0446848499483781664 -0.061608553588088949)
(0.360161566705857639 -0.032940037130691581 -0.0608519418989496991)
(0.372965036583998877 -0.0337274279376510444 -0.0616901423549516895)
(0.436514089843108521 -0.0291231966448886916 -0.0895260084884103163)
(0.415490289089573694 -0.0412889956632272875 -0.0781229066105289943)
(0.405929139895208624 -0.0303043802829939916 -0.077093460979842654)
(0.423193683003626142 -0.031311467960687539 -0.0782981673990063437)
(0.477078995853948584 -0.0256633709118157978 -0.11564563261053161)
(0.459224570241906105 -0.0371323712238561254 -0.100296084696357896)
(0.446508259663902785 -0.026956975417137978 -0.0987702392254638378)
(0.469689813588533234 -0.0282288989985285156 -0.100717986754131086)
(0.510570033447429128 -0.0213588319213597645 -0.150592348408936094)
(0.497140896558532774 -0.0322065087775962738 -0.130112446932899584)
(0.480423285339419137 -0.0230227742305342716 -0.12774199962772162)
(0.511362328703342528 -0.0247478507974651131 -0.130948261114708475)
(0.536216860890021407 -0.0169576646754791387 -0.198166876410129783)
(0.527699875184624689 -0.0261603195981337661 -0.169890366826954603)
(0.505721510521139006 -0.0180008990236884305 -0.166129932444278733)
(0.547894207952708268 -0.0200913087132853427 -0.171500397679361427)
(0.549098958241129198 -0.0126746013031930772 -0.262352906214236625)
(0.548550469509019423 -0.0205407781185406486 -0.224884914102576772)
(0.519824326054399211 -0.01371896296935495 -0.218485112220082378)
(0.576214171248997542 -0.0164780823118405063 -0.228169298730160286)
(0.550902819372373398 -0.0102617094176167441 -0.357207981630365101)
(0.557890180162770588 -0.0151142838246313919 -0.297878287663900843)
(0.519036624948774339 -0.0088979949867371913 -0.287213453954261733)
(0.603353638803010295 -0.012029472044543266 -0.303751403014340615)
(0.513408617632919229 -0.0137309530851740628 -0.487202096319181654)
(0.54522333046707594 -0.0127443274091185339 -0.413561870771286422)
(0.497845739644162733 -0.00826406718765664364 -0.388805543725941838)
(0.606678576707061712 -0.0135357131449290718 -0.432598999724500999)
(0.44771760683163625 -0.00100496784157851939 -0.807590713244895841)
(0.525017218982672507 -0.0259818961348544895 -0.557167256438476644)
(0.446285504581153347 -0.0152316416293552734 -0.500742253217770106)
(0.680727932832445815 -0.0247962835411275929 -0.593800365021814214)
(0.267216469342910434 0.0228273288856960868 -1.04673363356876248)
(0.277083156113950846 0.0221008861680516248 -0.808907873229437802)
(0.55116631031032759 -0.00105710454132537418 -1.17804983388719964)
(0.0522474633946652389 -0.0620653213653670349 -0.0272530273723738496)
(0.0267713360541495214 -0.0646556877813420638 -0.0260585276913786051)
(0.0257368818704205374 -0.0526419881501543965 -0.0252272477819540375)
(0.0263182891410926843 -0.0519924918179898235 -0.0258482306920789114)
(0.113372319662018911 -0.072072750276979819 -0.0298359478125016994)
(0.0837238707358452794 -0.0850062005704724233 -0.0287938643059341241)
(0.0816148138652038613 -0.0716023496397291959 -0.0277800906134676659)
(0.0832680907390341701 -0.0708345316935855007 -0.0286587945159283049)
(0.174447818670728033 -0.0708416857906834369 -0.0329529089739738421)
(0.144237240735267253 -0.0860961483529866234 -0.0311523718803042859)
(0.141994364400407858 -0.0723393838373837528 -0.0302351895392966412)
(0.144842691211772456 -0.0720092852925303395 -0.0310926369219332137)
(0.232786960718717933 -0.0668419900568418268 -0.0378042884352303432)
(0.204083714684933415 -0.0822942559649696703 -0.0348149411713489509)
(0.201458781835212986 -0.0687903246194551538 -0.0341082200996744925)
(0.205909803022912924 -0.0690176180707182396 -0.0348570563942291675)
(0.288910533420682458 -0.0623278532124800985 -0.0450741389157024858)
(0.261439708579185859 -0.077230489469185426 -0.0406106300160135464)
(0.257842155419161223 -0.064101228983499528 -0.0400749388215100866)
(0.264401853555673694 -0.0647722087086514547 -0.040722955200186095)
(0.342462511958284976 -0.0580878356213925737 -0.0554118084792951868)
(0.316358932388830061 -0.07219298057411562 -0.0491528651192116445)
(0.311323401004614586 -0.0596527749795577045 -0.048669288908983116)
(0.3205724372096313 -0.0606228873336352725 -0.0492891563532692478)
(0.392752938812638008 -0.0539446248390016217 -0.0696497430181115262)
(0.368631692732116822 -0.0674058933303312569 -0.0611203865658904305)
(0.361695252676413614 -0.0555409948320597854 -0.0605440219217703302)
(0.37439107229840618 -0.0567673107299858232 -0.061283493452803442)
(0.438966632773969134 -0.0492641670121920852 -0.0888929828184765597)
(0.417497670715771652 -0.0623727152057816092 -0.0774526062146951022)
(0.408083328078966856 -0.0511995913826962037 -0.0766182761265524481)
(0.425215192103341688 -0.0527255710381557413 -0.0777068140583375144)
(0.480076817802771061 -0.0435953672604559445 -0.114762899018725911)
(0.461930540884063157 -0.0562930228974369007 -0.09938703634539027)
(0.449317348145638062 -0.0458744413945703505 -0.0980753245906384741)
(0.472334479485955805 -0.0477944076364331324 -0.0998542767002532639)
(0.514100366155676558 -0.0367948362146520852 -0.149410465350918065)
(0.500484423361543529 -0.048856722759603885 -0.128904353551421713)
(0.483800985249718984 -0.0393682164561018483 -0.126766981306271481)
(0.514561430031687084 -0.0418545828096526101 -0.129824414464892374)
(0.539578963735316885 -0.0294506795298997391 -0.196608404519401592)
(0.531329686673010615 -0.0400436643070952517 -0.168313703206540766)
(0.509284392486303417 -0.0316255619049800249 -0.164868846891972953)
(0.551240209551332461 -0.0347970636780092907 -0.169988018703688237)
(0.552219576317678484 -0.0225524714704700736 -0.260410295552241211)
(0.552085337770691242 -0.0309223813113685998 -0.222797546820447168)
(0.523361711744475211 -0.0238446758634670956 -0.216767080917605465)
(0.579489907952799088 -0.0278881579834838952 -0.226294215482072347)
(0.551652574532696116 -0.0171917331580525336 -0.354232176804822219)
(0.560018883583027871 -0.0229283141252143927 -0.295378002553982721)
(0.521203553442544543 -0.0166368346228808785 -0.285233821933761345)
(0.6048512273050074 -0.0221416083905051908 -0.301365908985791187)
(0.512915150202754577 -0.0236790357754955126 -0.483527030890581799)
(0.545137016346218806 -0.0167969223291321995 -0.409384897500965406)
(0.498833386410878654 -0.0120170603931748603 -0.385647617827801104)
(0.606354103422255375 -0.0190396354288599017 -0.428186125688766961)
(0.433055128847252224 -0.00234882377507964965 -0.79631017676234328)
(0.520461124831667288 -0.0352972299737528833 -0.552426864555263908)
(0.442203524077869448 -0.0261854425660494571 -0.499100477348789373)
(0.674108737867615271 -0.039381595504184283 -0.58871778124266172)
(0.251848541139615079 0.0320821002561309868 -1.02685453853420494)
(0.258116550546762247 0.0381051874588079487 -0.792664456708557452)
(0.532076588762602998 2.86207765661092253e-05 -1.1590927176384076)
(0.0553120328869481231 -0.0878284660313132792 -0.0275993646249388797)
(0.028049770414889489 -0.0897099197865105641 -0.0264658917432063351)
(0.0272861182841065975 -0.0771481766104055444 -0.0251842293439834657)
(0.0278775433738324176 -0.0760049281999203297 -0.0261264559552447026)
(0.115250407502462168 -0.0992664712180512387 -0.0301102883737367072)
(0.085971286323726484 -0.112233258157971236 -0.0291910052921503238)
(0.0842618289791157993 -0.0986528389763818708 -0.0278087510171936732)
(0.0858625068844759282 -0.0972969602068641665 -0.0289843347818517019)
(0.175331675186103625 -0.0976888459982295232 -0.0330144040776793948)
(0.145736789810293255 -0.113334020737872535 -0.0313193510025319352)
(0.143633086885895822 -0.0995630847081565573 -0.0301982131093985404)
(0.146326629066195091 -0.098907645976858527 -0.0312684001258414501)
(0.233421153344090582 -0.092723927787530025 -0.0376212827521321611)
(0.204905044879542891 -0.10854398101182744 -0.0346650038476009198)
(0.202194322161746876 -0.0950078307099601754 -0.0339322491788511191)
(0.206452928421082677 -0.0952198625067854354 -0.0347965636335099346)
(0.289535976434610598 -0.0871373500884150831 -0.0446893562195226912)
(0.26221884202079726 -0.102496764676427876 -0.0401998223488709977)
(0.258400732446345094 -0.0893280730825187219 -0.0397705908032524522)
(0.26478121556950146 -0.0902156904648300784 -0.0404232646727794437)
(0.343409725299802238 -0.0816062211789100739 -0.054861443205806916)
(0.317472080319404937 -0.0963956557675239439 -0.0485617661335333919)
(0.31212972372250658 -0.0837220087201849955 -0.0482586966436082884)
(0.321213677028173161 -0.0850516009532729239 -0.0487762889497099575)
(0.394302215009848855 -0.0759323583491287174 -0.0689232497624740204)
(0.370289363651271963 -0.090298636294930526 -0.060371865336082936)
(0.362991339422973569 -0.0781897703741086386 -0.0600106886809700577)
(0.375509978275244349 -0.0798657092658601048 -0.0605584077938910448)
(0.441295819064501382 -0.0694553237963964898 -0.0879466597416088403)
(0.419905384449990982 -0.0836767311259617591 -0.076512397196447493)
(0.410088757151315875 -0.0721864926376988708 -0.0759003468007985876)
(0.427006570504245064 -0.0742324902654919461 -0.0767362757840677062)
(0.483142373188496954 -0.0615490334814171453 -0.113528490878086058)
(0.465194410591340535 -0.0756388638806962804 -0.0981980098877400509)
(0.452132169188995237 -0.0648525452783311196 -0.0971024578622326218)
(0.474877523098097831 -0.0673984928557207208 -0.098597262087465623)
(0.517834890823324345 -0.0520269976584307459 -0.147807591407044359)
(0.504557536703866827 -0.0656695084807144558 -0.127360113250399754)
(0.487371104720761728 -0.055722069183695308 -0.125435788001152571)
(0.517790874800084677 -0.0589983099268598654 -0.128223655261952896)
(0.543404483390684034 -0.0413893472519103744 -0.194502845507586342)
(0.535953881544036781 -0.0538481132382074082 -0.166286974373121982)
(0.513329318893144371 -0.0448649026786810332 -0.163114550231587052)
(0.554830449686519067 -0.0491126891074391836 -0.167994956196178546)
(0.555542683803484372 -0.0311029877164981997 -0.257765253822188622)
(0.556605640961593262 -0.0409763213397131149 -0.2200628328871439)
(0.527350966431738621 -0.0332197112771794936 -0.214422119097938652)
(0.582938842602457097 -0.0387276412820656973 -0.22374050024854783)
(0.55218348590021693 -0.0223606343685132727 -0.350530723250126075)
(0.563149935639903121 -0.0294259380169235099 -0.291988266647879635)
(0.523957814067416816 -0.0225314461158006886 -0.282406524157256533)
(0.606512273823494485 -0.0300929689055636045 -0.298387795854905935)
(0.511264900046196735 -0.0283410498124458052 -0.478284731165647625)
(0.544782553880707621 -0.0195058931523888826 -0.404223910183268142)
(0.498673080165199623 -0.0140617734979158922 -0.38153978627415841)
(0.605188543070011797 -0.0235818800919365169 -0.423329870666599772)
(0.422037183783461112 -0.000753267004576688159 -0.782971226327126124)
(0.515508771933292143 -0.0394335934543122782 -0.545432308241882158)
(0.439327813238285403 -0.0298128974096228475 -0.494569471181082576)
(0.663768829398777793 -0.046935445869694975 -0.582155701119626889)
(0.240742430703815291 0.0409984326123005935 -1.00571444180693415)
(0.246051899649074174 0.0512364620167495358 -0.778336039362109933)
(0.516764526911603017 0.000865252411254440823 -1.13564747205174199)
(0.0572988354959100207 -0.114265362096536496 -0.0280575324104177827)
(0.0288699781420686773 -0.115847522345664214 -0.0268867056560935687)
(0.0283157368779906743 -0.102895554486133786 -0.0251494095496919284)
(0.0288899284340629683 -0.100929281309951019 -0.0264923035776348306)
(0.116829382694198694 -0.126404724903589921 -0.0304000679209455518)
(0.0875523439498360201 -0.13939774108640246 -0.0295155655790453504)
(0.0861816947372824188 -0.125840849814524425 -0.0279192660276846617)
(0.0876286346635129915 -0.123611856230724723 -0.0293321832717216291)
(0.176307856485835246 -0.124338326605486743 -0.0329699507724534602)
(0.147048503292620591 -0.14037789313249821 -0.031301390202488448)
(0.14508964315560835 -0.126554248602349845 -0.0301627449257985819)
(0.147500264261089864 -0.125421575859313267 -0.0313807276519474307)
(0.23436890065930735 -0.118452132053466913 -0.0372435434443397703)
(0.205959353099023995 -0.134807785045990225 -0.0342544322141393603)
(0.203173247721271294 -0.12103215269599929 -0.0336667170759516465)
(0.207135806636133762 -0.121208187790336444 -0.034584471685453963)
(0.290748745981198098 -0.111870031062462919 -0.0440722322628816915)
(0.26348259542158059 -0.127834877569141164 -0.0395223958006321804)
(0.259439268890064856 -0.114397990392460042 -0.0393309193682759226)
(0.265580705572600051 -0.115541876855181441 -0.0398917208244467247)
(0.345119125815009364 -0.10519250951576388 -0.0540721882638094259)
(0.319246785414607548 -0.120690422537278019 -0.0477372171206070089)
(0.313599465832182234 -0.107787249922256606 -0.047705820291892187)
(0.322490158042368469 -0.109513932542651279 -0.0479661627551636396)
(0.396760205727106186 -0.0981173913373388079 -0.067961012770056381)
(0.372754556995334607 -0.113323377331343775 -0.0594258307799966565)
(0.365114326318112581 -0.101021341114042235 -0.0593379934658004732)
(0.377442005809643266 -0.10315372760170044 -0.0594843185714030026)
(0.444695038858505309 -0.0898835103955187287 -0.0867637473425787176)
(0.423256961517390562 -0.105154413207679515 -0.0754067114814248041)
(0.413085298091441899 -0.0934804884135588682 -0.0750357630875931603)
(0.429774202467310351 -0.0960070214573585934 -0.0753824110782266577)
(0.487496820273889242 -0.0797139996827292419 -0.112029632260053705)
(0.469576901017451032 -0.0951650804977292319 -0.0968508539763572734)
(0.456142560879377268 -0.0841480536614473557 -0.0959335098502856198)
(0.478579004489671667 -0.0872228710146434605 -0.0969399466290098849)
(0.523069611077584651 -0.0673469933131031484 -0.145839496216477377)
(0.510002999684948666 -0.0826766986549823529 -0.125583795002088799)
(0.492379460074290953 -0.0723601531807026993 -0.123801978758237841)
(0.522373357857500276 -0.0762912398175840806 -0.126196103738033139)
(0.548972846557938543 -0.0531750094310749558 -0.191846961752679457)
(0.542299554378391835 -0.0676796247027051101 -0.163822768336341268)
(0.519109750793627533 -0.0581701447385836456 -0.160854256127749035)
(0.560002940338994226 -0.063343667866854636 -0.165492195064824599)
(0.56047358326841612 -0.0389190170341580099 -0.254285845712834913)
(0.563046101810826483 -0.0506706733630731473 -0.216605428004389172)
(0.533159865819479939 -0.0423130461978303007 -0.211360008072009192)
(0.588028191083471041 -0.0491820522239538455 -0.22052592488667716)
(0.554094613359769839 -0.0261904037447737402 -0.345681453581021869)
(0.568101069047505125 -0.0345927809413218365 -0.287503749234903572)
(0.528445916283574402 -0.0272909203963749916 -0.278517104491392387)
(0.609585327693238477 -0.0368427760058533948 -0.294521131074258424)
(0.509463564696738813 -0.0302040709683818742 -0.471371487259502508)
(0.545696906363810741 -0.0202350897619004919 -0.397720848977043795)
(0.499625779356000443 -0.0145415600799825642 -0.376180783615588044)
(0.604972519728361413 -0.026600348107148182 -0.417311303456640859)
(0.410968861039420597 0.00300578408964295718 -0.768175523721691178)
(0.509687598556944121 -0.0388751260945227259 -0.536451345166235383)
(0.435929670316553386 -0.0298072429144410865 -0.487595670881796561)
(0.650646825513487626 -0.051486559192801859 -0.574029581035510494)
(0.231274496216563985 0.0516296581052341913 -0.982336311056347999)
(0.235912044251740755 0.0646935735107686122 -0.766143491311285452)
(0.505080358565434873 0.00477868668612096981 -1.1101867054222796)
(0.0585551637836443442 -0.14115254415138076 -0.0283447388247211399)
(0.0294171616003987973 -0.142706322073071767 -0.0270037665032529274)
(0.0289583871055046418 -0.129560815726664086 -0.0249838936247669882)
(0.0294635063357121946 -0.126349189450798871 -0.0266524231556005686)
(0.118105790028373264 -0.153472908107997019 -0.0304168878605882501)
(0.0887398631721417752 -0.166587273211145304 -0.0293893406840318207)
(0.0875467851058460977 -0.153071197298613321 -0.0279793004028277142)
(0.0887075191854999473 -0.149675551606981289 -0.0294244435346412425)
(0.177376643496954312 -0.15095420456457348 -0.0325858716441743482)
(0.148349950566497885 -0.16731401077504135 -0.0307933569112171235)
(0.146421264006671464 -0.153401110475225005 -0.0300081302072574066)
(0.148419523344964777 -0.151703532029080435 -0.0311951446430652965)
(0.235660391347158216 -0.144286465431433975 -0.0365332845704317705)
(0.207381260625500552 -0.161101623891163476 -0.033416285292819925)
(0.2044102998362472 -0.147075168171948656 -0.0332385103928055509)
(0.207993885553725139 -0.147296874158514779 -0.03401839651121389)
(0.292526060542424526 -0.13674166646408728 -0.0431873806583574979)
(0.265340909098198519 -0.153211378377855117 -0.0385515691767531754)
(0.260969169308807314 -0.1395814561007655 -0.0387593329616334609)
(0.266841391681356954 -0.141109435413206585 -0.0389650923456019566)
(0.347552569740912198 -0.128910999008008176 -0.0530908596367942534)
(0.321744018837982704 -0.144980689795606854 -0.0467510729083722501)
(0.31572846367412144 -0.13201237713690922 -0.0470835052267895501)
(0.324424151927512727 -0.134216774341108569 -0.046751628871668699)
(0.400064527500997191 -0.120437404405055015 -0.0668715294913650865)
(0.376037974918706552 -0.136354740836283489 -0.0584117372793320211)
(0.368044304182316373 -0.124064423832791274 -0.0586432910680477967)
(0.380184245652691211 -0.126647767609536804 -0.0580287589092247508)
(0.449085900946029348 -0.110463029824825157 -0.0854938181152034016)
(0.42754038334594191 -0.126716514001983582 -0.0742883158352775907)
(0.417037842001458881 -0.115057789719705511 -0.0741537089680310013)
(0.433486539582309205 -0.117955030452890117 -0.0737033832625347968)
(0.493095873792702755 -0.0980657333898034417 -0.110405016718392299)
(0.475121370411983046 -0.114899439808861289 -0.095456066085407687)
(0.461316036257853113 -0.103787138676057017 -0.0946733683825744937)
(0.483385322740545076 -0.10717171781562701 -0.095022091684765761)
(0.529917570053362819 -0.0828176097980282966 -0.143567067121952746)
(0.517050956230674319 -0.10004110376741171 -0.123538732923652528)
(0.498886854719778505 -0.0893746115078391107 -0.121893970906234245)
(0.52832293827914345 -0.0936837886763613875 -0.123892347076749787)
(0.55659024968420201 -0.0648244437899336695 -0.1885812345880509)
(0.550825603132638286 -0.0817940752699426038 -0.1607027452930892)
(0.526832945334497094 -0.0716594963850809563 -0.158039860532787346)
(0.566924610736462387 -0.0775052925651510544 -0.16255978253055145)
(0.56753650533793687 -0.0458478777700651249 -0.249823331526458053)
(0.572084486673031578 -0.0601136058130489204 -0.212082016407313084)
(0.541209802533018425 -0.0510333619340328989 -0.207443801042384524)
(0.595145946619564437 -0.0591348339320297914 -0.216599841026897666)
(0.557903501477926111 -0.0280983985238130521 -0.339543144630925608)
(0.575596623758281023 -0.0383769032908603883 -0.281611447707709517)
(0.535138323677367356 -0.0305989244580748866 -0.273464604464779604)
(0.61463728940122575 -0.0420877650248312474 -0.289595677280983954)
(0.50793988926128375 -0.0284822371916214796 -0.462800706883776447)
(0.548713467447917602 -0.018284990724327075 -0.3896487252842743)
(0.502230796126868495 -0.0125070011312043584 -0.369465804938088005)
(0.605895753560649286 -0.0272806254639163526 -0.40997778032704657)
(0.399675651746428773 0.0100447878161444848 -0.750612132500892537)
(0.503892552505232794 -0.0333600413359197295 -0.525546986825540574)
(0.432123126184739637 -0.0253045779216420422 -0.478867337833471407)
(0.637813910019670027 -0.0506171829944079346 -0.564072112415836768)
(0.222870830085445559 0.0642748228553641499 -0.954065367966896005)
(0.226192780015611689 0.0793190387019709758 -0.751634616573076619)
(0.487259398471844629 0.0136245933131573377 -1.08161169653553646)
(0.0594946983207011657 -0.168316036172569738 -0.0280483683625636082)
(0.0300403468091160752 -0.169964784494882726 -0.026445886652121154)
(0.0294091461561538821 -0.156774389174935941 -0.0245991337573438357)
(0.0297707955552226934 -0.151880435978720668 -0.0262318288688175236)
(0.119376382061671879 -0.18053145128730988 -0.0297658097346606941)
(0.0900309251437140523 -0.193789820650692279 -0.0283775728007380074)
(0.0887301028864148217 -0.180368562813573996 -0.0276927967721138403)
(0.0894875399240777497 -0.175649679326615404 -0.0288696779045971436)
(0.178807350366166962 -0.177560079654430825 -0.0316237705598627003)
(0.150049907934366317 -0.194155402843720931 -0.0295308174481298882)
(0.147968117407413502 -0.18014556566907472 -0.02953762112849578)
(0.149478332667743435 -0.177970108390374915 -0.0303928614684537378)
(0.237553969705018131 -0.170133393707945751 -0.035434569899141323)
(0.209468439122820649 -0.187344323347942515 -0.0321011703759267047)
(0.206206700968643741 -0.173079709327794679 -0.0326019072690117706)
(0.209392599155680537 -0.173565660372378111 -0.0328680975725026275)
(0.295045149064941337 -0.161565580811136367 -0.0421152614267679415)
(0.267982842774116548 -0.178458599777289895 -0.0373965473896955419)
(0.263251756882113497 -0.164763790962116685 -0.0381381209987150457)
(0.268879163867373649 -0.166847981342144236 -0.0375293237480222308)
(0.350809150018567106 -0.152548622411205703 -0.0520719505509100317)
(0.325045633756767927 -0.169078429969058947 -0.0457906824200495499)
(0.318717929211903284 -0.156264955100710368 -0.0465365770144881424)
(0.327245597668814503 -0.158984388705981639 -0.0451640909334447768)
(0.404271918223401749 -0.142741632731545415 -0.0658285236232445392)
(0.380151831761012915 -0.159265839768370582 -0.0575270934192809169)
(0.371925361274760669 -0.147232262943338993 -0.0580687093207729529)
(0.383877359958596343 -0.150157130617745688 -0.0563684816627594912)
(0.454581409387239455 -0.131193693485389284 -0.0842505638054818762)
(0.432806133964834916 -0.148401951138127541 -0.0732735861411453748)
(0.422072407963628105 -0.136945333699854593 -0.0733283254235864435)
(0.438233557737594148 -0.139949973611888434 -0.0719796643146452114)
(0.500239943110624363 -0.116798509555432473 -0.108589782290667861)
(0.482083846820548279 -0.135116946109331448 -0.0938984040338015219)
(0.467872890515133644 -0.12396052422345355 -0.0932617152519446824)
(0.489444920263838568 -0.12725078974817805 -0.0931113231136863478)
(0.538969798103122399 -0.0987724615321384225 -0.140674411094789065)
(0.526244460444822537 -0.118213959653193867 -0.120767892457386727)
(0.507337895008077577 -0.107089488315748119 -0.119480302375247399)
(0.536001748276188184 -0.111344376365050721 -0.121399478369443231)
(0.567075701792609466 -0.0766113940444905356 -0.184203527112351551)
(0.562277585521754553 -0.0966282784400367134 -0.156217816517633085)
(0.537173516245447957 -0.0856727076138232013 -0.154320166965018352)
(0.576223419368655287 -0.0918681551389166906 -0.159005699663115646)
(0.577703138891444312 -0.0519479332243068179 -0.243870132588564881)
(0.584559704714706974 -0.0694561385494661537 -0.205764343206277983)
(0.552326964855709646 -0.0594983989548810432 -0.202303928211042983)
(0.605119798743933179 -0.0687196843185042261 -0.211542586406912897)