/*--------------------------------*- C++ -*----------------------------------*\
| =========                 |                                                 |
| \\      /  F ield         | OpenFOAM: The Open Source CFD Toolbox           |
|  \\    /   O peration     | Version:  2206                                  |
|   \\  /    A nd           | Website:  www.openfoam.com                      |
|    \\/     M anipulation  |                                                 |
\*---------------------------------------------------------------------------*/
FoamFile
{
    version     2.0;
    format      ascii;
    arch        "LSB;label=32;scalar=64";
    class       volVectorField;
    location    "0.209999999999999992";
    object      U;
}
// * * * * * * * * * * * * * * * * * * * * * * * * * * * * * * * * * * * * * //

dimensions      [0 1 -1 0 0 0 0];

internalField   nonuniform List<vector> 
7340
(
(-0.169137571131804831 0.136781276255911854 0.0913924029080483702)
(-0.165339302589750298 0.150457891040685299 0.0941206334749127016)
(-0.161642300553932028 0.164989225747235846 0.097835189544532658)
(-0.157576255187881098 0.18142637059098049 0.102600020861688665)
(-0.151674115340362209 0.200388463290082197 0.108384374326709623)
(-0.142421247681780105 0.220830451456336757 0.115103727217732668)
(-0.128895438682147923 0.240229141581127958 0.122225691556629767)
(-0.112338150356723149 0.256825893610367006 0.129168790919307164)
(-0.0936077311583622951 0.270227706668378032 0.135785365111489087)
(-0.0726205913838690736 0.279815627354122909 0.142027255175438821)
(-0.0496744908877289962 0.283957320510331124 0.147326794679388556)
(-0.0270304119126381602 0.280668903240428758 0.150406464902494041)
(-0.00876265278181239185 0.270135489676235796 0.150347904751621797)
(0.00188951531256500299 0.2561151433599822 0.147724781321631082)
(0.00469353872776576489 0.243713249183098973 0.144361672803428459)
(0.00215691575538085566 0.235782251194150916 0.14131248675459579)
(-0.162785304448629375 0.14305945674592252 0.088792658104082392)
(-0.158508883504304893 0.156282406509781729 0.090804006396370443)
(-0.154128604231378669 0.17028994080379331 0.0937186178035847861)
(-0.149186688488905511 0.185699252894612088 0.0975180192278710944)
(-0.142607996458840536 0.202741948584133025 0.102131015167205991)
(-0.133210207161512079 0.220553212990173553 0.107451452030911845)
(-0.120582869643813526 0.23737660097938304 0.113111088144044095)
(-0.105372847344154058 0.251901596739846356 0.118668745006616311)
(-0.0882224548872923842 0.263550748993416406 0.1239473547801027)
(-0.0693711399784038979 0.271721281606885856 0.128785925629787246)
(-0.0493761186821491255 0.275297229424598389 0.132744662868675867)
(-0.0299574293800843362 0.273092696364000243 0.13501929714675881)
(-0.013979141728063877 0.265472320342902635 0.135092690264111082)
(-0.00373286778848340786 0.255158625475722767 0.133364979928243782)
(0.000534326216559998998 0.245871112345396409 0.131079302535545505)
(0.000647601377190583707 0.239560175246865015 0.128874471418017)
(-0.156288434915180352 0.148233528753373978 0.0859360357900870314)
(-0.151654738856427773 0.160942615062279221 0.0872405583296786691)
(-0.146795439018804791 0.174313982774112669 0.08938082828248059)
(-0.141269528752396456 0.188682735291110237 0.0922975541870569016)
(-0.134268959841694596 0.204051683559844682 0.0958965949964365461)
(-0.124977875135303174 0.219738789347765862 0.100057988888306054)
(-0.113145849176859131 0.234486991386740479 0.104502834392512983)
(-0.0991496097732194326 0.247267887444289347 0.108905139111244331)
(-0.0834793583751548829 0.257494419974814537 0.113076719863879765)
(-0.0665125772269146293 0.264623592309973066 0.116827452846940572)
(-0.0488716770524097802 0.267877468045567779 0.119814008141101047)
(-0.0319285325563717012 0.266573175237000082 0.121520882723941126)
(-0.0177244909809036837 0.261148745190066756 0.121660941213743726)
(-0.0078695974757348134 0.253616287064278079 0.120528913573826099)
(-0.0025787623053009287 0.246729896199322063 0.118986282447076708)
(-0.000493702791109410562 0.241675196497296518 0.117370661731097475)
(-0.150017963810061494 0.152469797341061392 0.0827114643628178575)
(-0.14510793145194556 0.164631139095709478 0.0833759654850818599)
(-0.139908381180577163 0.177313566492460523 0.0848189816743437908)
(-0.134006983834791871 0.190673833639572299 0.0869640908750955455)
(-0.126795666864549961 0.204602857760634277 0.0897050775115414839)
(-0.117714758347655074 0.218549364859101536 0.0929144778797710569)
(-0.106585634678554975 0.231588452246802162 0.0963707142893889951)
(-0.0936564387684970384 0.242913861382509977 0.0998295104338798311)
(-0.0793152857482215812 0.251982112613068021 0.103103900486940486)
(-0.0639736234361431566 0.258324802963069144 0.106011150635251128)
(-0.0482403459931384712 0.261398957376841046 0.108284158144376308)
(-0.0332201607086334214 0.260835658028769901 0.109585212199436066)
(-0.0203920628690582723 0.257080885231656397 0.109756687951189341)
(-0.0108913283918243842 0.251646922315115762 0.109022660459014681)
(-0.00488351703350099319 0.246608202812369393 0.107996393129176166)
(-0.00136739284877527255 0.242521070558507579 0.106787088397350294)
(-0.160727393689720971 0.123303585261780466 0.08340206870762569)
(-0.15454536460687196 0.13382509258888009 0.0812668177585367801)
(-0.149120708252546141 0.144670377847824633 0.0798326987365862578)
(-0.144030802225107113 0.155909879320805772 0.0791665003431477332)
(-0.138914372871565051 0.16750386268766726 0.0792770249522512377)
(-0.133480507265807624 0.179483416687153285 0.0801181190655968767)
(-0.1273569723054849 0.191892738848392724 0.0816059728960948499)
(-0.120082596331979569 0.204575153556058847 0.0836298598724444231)
(-0.111263152452794362 0.217076549742604819 0.0860620281180236174)
(-0.100768052208152881 0.228698818086630257 0.088721101932238311)
(-0.088776567953303992 0.23880903929067282 0.0914160630812053537)
(-0.0756081592504944805 0.246927278060776106 0.0939710410780274508)
(-0.0616584776087050757 0.252663909498218431 0.0962236567195171311)
(-0.0474898076028262422 0.255642164998885424 0.0979653173836631114)
(-0.0339901871295883867 0.25568312678998395 0.0989700923331842952)
(-0.0222470168936271286 0.253206238698202857 0.099152287454579921)
(-0.0130674802914759365 0.249365492493340696 0.0986845002581773767)
(-0.00656709067587505062 0.245741809500713643 0.0980138089412867786)
(-0.00197137102858021586 0.242404808095512181 0.0970954367639004917)
(-0.15538688831121017 0.126944628361986445 0.080860747616134751)
(-0.149123785884580334 0.137301333532913378 0.0783329520376401661)
(-0.143567292647452327 0.147818534235834548 0.0764949574459093257)
(-0.13832839880931419 0.158606437613945411 0.0753999061738853948)
(-0.133067122569328788 0.169643849560588783 0.0750467061987010464)
(-0.127482742113025682 0.180944321242144518 0.0753823453481205774)
(-0.121250116056518392 0.192483585239670435 0.0763204328112190855)
(-0.114011626608423011 0.204089782076249782 0.0777514561813535537)
(-0.10548097033549933 0.215385773439678047 0.0795523169147141079)
(-0.0955645079820676702 0.225834592188988631 0.0815699286641140969)
(-0.0844010613138447968 0.23493248847685208 0.083649020165887808)
(-0.0722600654846847767 0.242271748577873286 0.0856304129353069321)
(-0.0595017397890923241 0.247534130898777349 0.0873730557524401291)
(-0.0466276813658960745 0.250460721888854987 0.0887131853214800647)
(-0.0343504681848426571 0.250985174605407979 0.0894960810248544153)
(-0.0234800898395342225 0.249484932372980972 0.0896754554701640755)
(-0.0145968948835610464 0.246852153613543679 0.0893844065927017761)
(-0.00777494762004534053 0.244304158584734477 0.0889560527871321449)
(-0.00242032428451859679 0.241569910228813495 0.0882485187766218343)
(-0.165944074969148869 0.109591617763617519 0.0851891443711946805)
(-0.157342777441944165 0.120029895220950422 0.0813540055757289715)
(-0.150051267157652296 0.130242141086791691 0.0779239149093523403)
(-0.143777022582759345 0.140362845054027102 0.0750712114282472004)
(-0.138154493485362795 0.150532763013251941 0.0729027607800818017)
(-0.132825500003647484 0.160854689914306292 0.0714580021334471072)
(-0.127477054439515236 0.17133223440976833 0.0707236788493613849)
(-0.121817465400548816 0.181958443640577366 0.0706419168687278803)
(-0.115564288409216148 0.192671144934500993 0.0711266951869078817)
(-0.108433609422466187 0.203300022346349224 0.0720723546573584783)
(-0.100212869009193392 0.213532117502302471 0.0733627019412151499)
(-0.0908358240921752491 0.222951331621040222 0.0748657171622760798)
(-0.0804149691406983308 0.231158432548928039 0.0764500643592065793)
(-0.0691806895596874805 0.237818867613599716 0.0779777073643556778)
(-0.0574516755511786589 0.24267671967400789 0.079323470387817091)
(-0.045665167513296398 0.245562157829944339 0.0803585064635309321)
(-0.0343930304422346012 0.246478156700407319 0.0809741417692333154)
(-0.0242445494637338853 0.245754209565404919 0.0811454889273842545)
(-0.0156404408518414223 0.244078457985596964 0.0809741298900155948)
(-0.00861578430382541408 0.242383714898330715 0.080711287915907981)
(-0.00274182322286956612 0.24006351930132816 0.0801941544959906549)
(-0.162013250540665954 0.147413825604697235 0.0789391708667088188)
(-0.157245806163451241 0.160326976095535229 0.0833842211153908441)
(-0.152036786000604107 0.17484311617681611 0.0890126371646923764)
(-0.145006983505712228 0.191227285050158513 0.0960320567703438904)
(-0.134743566321989444 0.208180470374771304 0.104187894225957714)
(-0.121029384374667828 0.223688974561334519 0.112693294311776021)
(-0.104769657300406549 0.236636602032080312 0.120876865639886755)
(-0.0865120386356142551 0.246587664445164001 0.128492304511904409)
(-0.0664835697404820847 0.25272062715786292 0.135291848827395728)
(-0.0454200179330875517 0.253605762484905628 0.140500643789241986)
(-0.0256802328605458333 0.248351928088280161 0.142945704417735242)
(-0.010335454863117842 0.238262033828202102 0.14213693778922698)
(-0.00125112130111944622 0.226608179537103466 0.139089292603443965)
(0.001872741758158155 0.216890664282403667 0.135662877568617501)
(0.00105706921044089377 0.210891744850732255 0.132765804959320499)
(-0.160721331841906734 0.139916520057523003 0.0743663761583718275)
(-0.15556796105792034 0.151652300384357286 0.0771673894862078547)
(-0.150276083019960705 0.164092931994003544 0.0808316559150014657)
(-0.14438413185110105 0.177673936611705607 0.0854809582930931289)
(-0.136914196702279167 0.192420107215641734 0.0911680196179797259)
(-0.126876108359314621 0.207383243232068332 0.0976834621447324331)
(-0.114133843743505381 0.221127544904513196 0.104487622961286553)
(-0.0992062458685484538 0.232705763472290106 0.111067663184203011)
(-0.0825532681371993343 0.241580165138252645 0.11714312271355859)
(-0.064593068202570908 0.247090690031597282 0.12244309876355472)
(-0.046106746011863077 0.248315440440874752 0.126416840529393171)
(-0.028823390448342881 0.244773102174208307 0.128334569468903509)
(-0.0149348621382373106 0.237445742633608126 0.127937384356825612)
(-0.00583688703700573075 0.228725737779557792 0.125916245217148337)
(-0.00140732364384681292 0.221291415054103435 0.123561016688445935)
(-0.000119788987831567426 0.216379485850794612 0.121430475650080832)
(-0.154852768996064427 0.143803144317644405 0.0727543480946541699)
(-0.149413075618686469 0.155167997552045245 0.0748670861123693215)
(-0.143746095578373367 0.167087557940824277 0.0777738395975607621)
(-0.137421440593810895 0.17979473554900996 0.0815179864409369126)
(-0.129713190116726607 0.193186214278658702 0.0860734621220204804)
(-0.119955023372048594 0.206550150987668824 0.0912525011269913894)
(-0.108024295985105281 0.218810103744650736 0.0966666237333674433)
(-0.094251974206965683 0.229227399142913901 0.101929832137067994)
(-0.0790348875240326487 0.237230679138130507 0.106765306997265122)
(-0.0628282230634992639 0.242298998158573253 0.110919092193313293)
(-0.0463778970425267126 0.243827162922079899 0.113989702707287449)
(-0.0310045100817860041 0.241582882312284891 0.115516825437969942)
(-0.0182947842750926029 0.23634275146958561 0.115374642480689488)
(-0.00927622428188810098 0.229884791939035465 0.114047985567944071)
(-0.0039094108206730498 0.2242845451003741 0.112449502019557265)
(-0.00105380214387439412 0.22023260624632246 0.110861809768159458)
(-0.149224980420801789 0.147086452093514286 0.0706506874159779641)
(-0.143559335613731603 0.158055036178517488 0.0721360956859745106)
(-0.137627204184301077 0.169438300094665595 0.0743488315592583521)
(-0.13103821232315449 0.181335367568266875 0.0772867278821978421)
(-0.123246721679236199 0.19358337973926934 0.0808853997532924807)
(-0.11379161357254601 0.205627522143226743 0.0849742352397645784)
(-0.102564537044245507 0.216667331905794791 0.0892597906739743124)
(-0.089798900921399305 0.226087304462406935 0.0934521972840534065)
(-0.0758400532357850488 0.233375490221825632 0.0972909304484474852)
(-0.0611242913844624869 0.238115096999330145 0.100558030316725902)
(-0.0463219034563782106 0.239904206144227361 0.102955650906861595)
(-0.0324621981401827728 0.238659499373829465 0.104187653118322093)
(-0.020711662920877668 0.235011034995427054 0.104200876739127715)
(-0.0118239021278740211 0.230301109924584274 0.103344457794596445)
(-0.0057899292980982224 0.22615077616189655 0.102276733186483781)
(-0.00171549855195235034 0.222791604175883534 0.101077584913193019)
(-0.16249990515039997 0.119878852129129937 0.0694352790635522771)
(-0.155730977398624321 0.129588897359627392 0.0683741960377844682)
(-0.149616572742407361 0.139556223140652386 0.067922786742938529)
(-0.143798901966601056 0.149841158587482648 0.0681614426488304503)
(-0.1379701943970707 0.160399829155658091 0.0690906216374999049)
(-0.131863419470381799 0.171247871642449451 0.0706879508951772095)
(-0.125133358510890857 0.182396556037108304 0.0729247050890082377)
(-0.1173652230018008 0.193665372233696648 0.0757188654570962183)
(-0.108226630804704682 0.204611269347101526 0.0789162882504667734)
(-0.09762898121357097 0.214628177773717094 0.0822856174668640528)
(-0.0857501635338163981 0.223200177167773239 0.0856156584398689441)
(-0.072889388171943334 0.229896533923698493 0.0886523074477643808)
(-0.0594436970377042115 0.234381492160523203 0.0912276149757960675)
(-0.0459977516361390476 0.236388734853206411 0.0931140324604539243)
(-0.0333613485176679353 0.235920571613951302 0.0941171107630897619)
(-0.0224032591197614664 0.233494732061791332 0.0942212497273412636)
(-0.0136773875103883037 0.230139248570134153 0.0936823357184046052)
(-0.00717793808607291618 0.227125360827587275 0.0929834651330719159)
(-0.00221421145718396972 0.224324351088817542 0.0920689780059100182)
(-0.157549239739249836 0.122658970619719976 0.0678777229445295116)
(-0.15071508451328347 0.132315245905744783 0.0664472765304816443)
(-0.144497005007423907 0.142091275322348942 0.0655981371256580681)
(-0.138565272542436835 0.152072131723584053 0.0653957744750274517)
(-0.132631270615936075 0.162229451356892401 0.0658430627005994751)
(-0.126424184813466484 0.172564099096077922 0.0669071363937308455)
(-0.119645180464847636 0.183034710942941742 0.0685444274254571329)
(-0.111971566418258395 0.193463184625679019 0.0706669165274355637)
(-0.103156436493815173 0.203490446823848592 0.073137353941459482)
(-0.0931308074691496179 0.212645619145725273 0.0757703438078969893)
(-0.082036805543268046 0.220500289350816725 0.0783877471591707259)
(-0.0701343531076739635 0.226706117952324843 0.0807884095990513279)
(-0.0577744335837815162 0.230986358486345855 0.0828203657078515343)
(-0.0454578565866846362 0.233168784882273383 0.0843117775220939281)
(-0.0338258851061664506 0.233302565775551946 0.0851324152031823489)
(-0.0235329610801220356 0.231815907131864507 0.085284556659801336)
(-0.0149884090412895025 0.229506049540115886 0.0849577698680210464)
(-0.00818085743614322194 0.227376113846144978 0.0845127224875229094)
(-0.0025872509815885931 0.225048707380314905 0.0838073451915759549)
(-0.169079365283320571 0.105868255682416798 0.0706594430696375342)
(-0.160267463702730845 0.115633762850378685 0.068143179419911673)
(-0.152544435105944731 0.125251412537303791 0.0659310982175652094)
(-0.145706170198364598 0.134787257423716833 0.0641789799011845685)
(-0.139443514106295102 0.144347552421165176 0.0629875632424281018)
(-0.133451631096020346 0.154005174621044127 0.0624087018731545734)
(-0.127466051186432311 0.163756138548574903 0.0624436735246601746)
(-0.121225865746996883 0.173579551045401903 0.0630522007140189023)
(-0.114471458286824798 0.183407700218033792 0.0641828372139197634)
(-0.106945877754480168 0.193073784987321362 0.0657474652199618315)
(-0.0984621542900111918 0.202285422893493494 0.0676242153800496459)
(-0.0889682266205013006 0.210673887749351196 0.0696606586653568255)
(-0.0785787937836906203 0.217885754506234097 0.0717013698060125215)
(-0.0675211315008114321 0.223657971350336798 0.0735932938239088896)
(-0.0561014190950365754 0.22775144217578136 0.0751971679898092576)
(-0.0447414312127043592 0.230068863038723648 0.0763812522391480453)
(-0.0339522494218941345 0.230683484806169514 0.0770560744044529455)
(-0.0242310733858642664 0.229947731857712667 0.0772314005712419205)
(-0.015881194964519129 0.228478468340879787 0.0770477250742395842)
(-0.00887386078266316942 0.227060476152550844 0.0767769158089385007)
(-0.00284784212615675492 0.225022884057002603 0.0762569592063470358)
(-0.157510751750128852 0.146000734973942531 0.0664181035796190533)
(-0.151660458229381678 0.157299518148529965 0.0714680397345728302)
(-0.145136837672118185 0.169696566784801467 0.0777886764914505757)
(-0.136812959244934723 0.182978123007895038 0.0854931879963591046)
(-0.125835474236255018 0.196067230967756689 0.0941200935429629959)
(-0.112213610045535428 0.20763454836282752 0.102845274164806419)
(-0.0965089402848793715 0.216888575816917617 0.111108115176606376)
(-0.0791210886155191417 0.223272081931308181 0.118549235274566317)
(-0.0605527859643162081 0.225951635637948983 0.124699462020447516)
(-0.0419662319847169951 0.224211570549747885 0.128718242562700674)
(-0.025318866732870364 0.218222319904414319 0.129851891810431386)
(-0.0125473467960785807 0.209539238993447979 0.128229997184827693)
(-0.00453853580166543001 0.200496958941579345 0.125026642549077333)
(-0.000840420678290427006 0.193278547827667874 0.121816924051785819)
(2.89796660441371014e-05 0.18891356337489501 0.119326431824580345)
(-0.157910055355522216 0.138370460110699839 0.0619898066091604596)
(-0.151900965156780754 0.148687065829426451 0.0653187006584879243)
(-0.145672975041598873 0.159557068835827209 0.0695108829465118649)
(-0.138741219037420288 0.171173302648090053 0.0747214392952765261)
(-0.130318653811583918 0.18331183433514972 0.0809564199953448915)
(-0.119777764544115928 0.195162367479591314 0.0878789812045742968)
(-0.107076778169286554 0.205711303026966247 0.0948972978769426073)
(-0.0925938744353277249 0.214281025752873777 0.101576203924394495)
(-0.0767232833226436928 0.220316172778691199 0.107543328374917271)
(-0.0600041844538738711 0.223224135155301484 0.112418417518008046)
(-0.0433930848102180716 0.222539148339012283 0.115633399469345532)
(-0.0283510577639164985 0.218418387359530841 0.116714255607145045)
(-0.0163354531325250601 0.21199866197852027 0.115766008818829133)
(-0.00807477455649165468 0.205066462411284095 0.113601408820532754)
(-0.00330437683258861734 0.199417655574907426 0.111361939882998529)
(-0.000872013968237869697 0.195697905730163768 0.109473243000161646)
(-0.152763893521987187 0.141011917678691895 0.0610001515609964601)
(-0.146543288431579044 0.151068968031535855 0.06363750893898866)
(-0.140059793872723382 0.161525003291442676 0.0670398725689219238)
(-0.13288986518923912 0.172469136599147366 0.0712772053198000577)
(-0.124457456440147551 0.183669098734357744 0.076300136364263596)
(-0.114313467185996595 0.19450198729265547 0.0818456915957467002)
(-0.10239676173852999 0.204186330360770441 0.0874864169562291905)
(-0.0889803580221495971 0.212152140696111907 0.0928721843511372686)
(-0.074426009311210739 0.217885198373942657 0.0976640808606734079)
(-0.0592377671151450014 0.220956791556191134 0.101555679624388592)
(-0.0442211047754438938 0.221060357888314435 0.104150086957694302)
(-0.0304940916313574638 0.218351518704726827 0.105146837051262931)
(-0.0191573821411976479 0.213691291286025514 0.104637424441265683)
(-0.010787196099055589 0.208457064923476876 0.103194433625338783)
(-0.0052244506839785633 0.204118694642415388 0.101654595150471538)
(-0.00154508137999398139 0.200953310249808725 0.100214305255711233)
(-0.147760374861908239 0.143353631114486652 0.0595224679655411634)
(-0.141382728697877047 0.153142856030405311 0.0615366818395991569)
(-0.134733124558853001 0.163205636649662117 0.0642302956598980318)
(-0.127443841139428776 0.173554380752413168 0.0676227218876195024)
(-0.119080243917659021 0.183964051408706003 0.0716399424095803677)
(-0.10931396077688979 0.193946105639627664 0.0760692827551533723)
(-0.0980802703697405409 0.202887729098585157 0.0805927812623145473)
(-0.0855962006062738201 0.210332189897516231 0.0849204857386351153)
(-0.0721843008612655102 0.215795088483042685 0.0887722952504942237)
(-0.0582868823154330806 0.218981864484224548 0.0918925821765547157)
(-0.0445855600830473014 0.21968491504716775 0.0939994396397303422)
(-0.031949546867482935 0.218058350924078659 0.0948996508993130011)
(-0.0212156846163362445 0.214772201111729566 0.0946728542254799826)
(-0.0128313178738038679 0.210897438939303572 0.093729300437185803)
(-0.0066924267775871505 0.207631197830907277 0.0926879947288775097)
(-0.00206577355469943907 0.204937294186811947 0.0915847726503444121)
(-0.163361475168348674 0.117956610546577204 0.0569015426406376187)
(-0.156079097460734617 0.126929613109667994 0.0566020895449469361)
(-0.149347619040535562 0.13606615661957705 0.056835411376135736)
(-0.14287187849030078 0.145410750646359388 0.0576792593609933221)
(-0.136391556219129045 0.15492720963123488 0.0591424753056585956)
(-0.129648268736130889 0.164611114033789308 0.0612111196909455035)
(-0.122324822783080309 0.174422898219339567 0.0638774748418938776)
(-0.114087315210034873 0.184155430101478723 0.0670580701139531776)
(-0.10469026642555837 0.193419818585191694 0.0705775332781667097)
(-0.0940605227909020319 0.201735663940073362 0.0741904855240307221)
(-0.0823981496398614732 0.208689102870707716 0.0776561598829405841)
(-0.069986470514108029 0.213928107499603726 0.0807516194357359995)
(-0.0571867435656182588 0.2171941124051327 0.0832597188387802778)
(-0.0445877932101986091 0.218357664719740302 0.0849772417147341974)
(-0.0328689078850279426 0.217568959721660127 0.0857777938728809253)
(-0.0226705205278774045 0.215359941002739502 0.0857290888893849912)
(-0.0143366362570592903 0.212570228076173262 0.085129019327807226)
(-0.00778947274147615172 0.210171698526874812 0.084440028671306247)
(-0.0024594019706662318 0.207867771399885659 0.0835910996859631633)
(-0.158751439271027639 0.119933259651976917 0.0559569670708314204)
(-0.151434639159729795 0.128930124890777931 0.0553147346077440538)
(-0.144643829103800248 0.137980593700851084 0.0551649030204163504)
(-0.13810247791299296 0.147142844487130997 0.0555736714572253113)
(-0.131568125883426867 0.156394141082042915 0.0565580491095023091)
(-0.124789717812969755 0.165720261092605514 0.0580825825905789891)
(-0.117495580133172531 0.175050066132434151 0.0601306024405442174)
(-0.109421368134172997 0.184198535142521491 0.0626156054503704401)
(-0.100377111702567134 0.192852468612027539 0.0653906921915304029)
(-0.0903124185164402571 0.200634248248989289 0.068260879949475925)
(-0.0793776072724793613 0.207147274939136261 0.0710240791146346806)
(-0.0678223093042304714 0.212192488768357834 0.0735080811495875119)
(-0.0559725115183897504 0.215508372944947429 0.0755263264946938045)
(-0.0443080817610348038 0.21702562943012299 0.0769286330034418403)
(-0.0333685791608045387 0.216886671695705163 0.0776310437040808599)
(-0.0236477655981960008 0.215520435194137661 0.0776895718501951771)
(-0.015409146221875069 0.213590125415922538 0.077322701659246651)
(-0.00858869033562269929 0.211885768823741744 0.0768798649949848922)
(-0.00275530468496993849 0.209939893932517579 0.0762220849717961668)
(-0.17109769031490335 0.103614252029474718 0.0575436518084890547)
(-0.162118982300484243 0.112796089486545792 0.0559859171904123695)
(-0.154054048891985651 0.121855136594155949 0.0546629027085199642)
(-0.146752988230954895 0.130814491808719902 0.0537138296852708794)
(-0.139951303466116839 0.13975162811510336 0.0532285269124516541)
(-0.133389513916055108 0.148713564075212384 0.0532605363706704013)
(-0.126846619139923789 0.157695798151062438 0.0538250623758989855)
(-0.120086866159098415 0.166663697927412202 0.0548841379522981565)
(-0.112874679534132522 0.175535744570384289 0.0564083524111765738)
(-0.104995461083266822 0.184148742646816466 0.0583147559581915359)
(-0.0963003012990412272 0.192246750906914565 0.0604788688934632807)
(-0.0867579922788715707 0.19952586049315213 0.0627424601672675192)
(-0.0764789841014168609 0.205670724364273888 0.0649361874734922517)
(-0.0656808404355608694 0.210506620656199933 0.0669209237524275163)
(-0.0546589325324897263 0.213843897014038276 0.0685478436048378992)
(-0.0438002969186147006 0.21563744880080904 0.0696942126418579055)
(-0.0335356144169661058 0.216020274898138992 0.0703056723044575838)
(-0.0242475535846144313 0.215338342614418699 0.0704270316357260423)
(-0.0161369824327872793 0.214113038577635723 0.070218910736893958)
(-0.00913451750185047262 0.212977235708155938 0.069946753062679945)
(-0.00295684663471713384 0.211209230320733687 0.0694589346662616569)
(-0.159254573092872886 0.135854462440648416 0.0520278631132462671)
(-0.152577466787627208 0.144819062055715514 0.0563782790472717038)
(-0.145600816955090112 0.154198653325625767 0.061671242009577909)
(-0.137793720225649174 0.164044312995133112 0.0680860734234986359)
(-0.128426544543686072 0.173967794809504334 0.0755412279181664759)
(-0.117078182989844556 0.183223182520476147 0.0835510094654386276)
(-0.103787580401646817 0.191045208626436536 0.0914401766753592804)
(-0.0888779009902814776 0.196865281690520949 0.0987090047642964347)
(-0.0727589589795664127 0.200146634657816763 0.104891008854948342)
(-0.0561186302772887571 0.200400251986255717 0.109450598593380868)
(-0.0400971829290970513 0.197524728523426979 0.111813818205457924)
(-0.0260601451676880057 0.192089299575969319 0.111747251686991414)
(-0.015115961673912515 0.185321172846288629 0.109706220164298429)
(-0.00765052509338449808 0.178709165927084107 0.106717082779236208)
(-0.00326307430419966842 0.173592879209819279 0.103972847597005369)
(-0.0008921022665623452 0.170472209209652392 0.102032600540624921)
(-0.15473635361500615 0.137324872448612717 0.0515030622368585767)
(-0.14789590418694995 0.14617437572683914 0.0550610021673446567)
(-0.140742695538737139 0.155315205102307397 0.0594162400957971432)
(-0.132836082771696173 0.164750269082150735 0.064666995310617717)
(-0.123635466422026274 0.174163462315486933 0.07071297398228725)
(-0.112798348723679387 0.182963816611460772 0.0771927543275302275)
(-0.100316838238227221 0.190510642585770162 0.0836038956580299197)
(-0.0864649000129855683 0.196307968679768297 0.0895390464989050811)
(-0.0716347079269075426 0.199885790091977628 0.0945959331366234835)
(-0.0564194222635587134 0.200893124404606771 0.0983707914225769309)
(-0.0417278542328598442 0.199255467090152072 0.100462561672943151)
(-0.0286300111995647852 0.195393699542024679 0.100710972552988429)
(-0.0180186107714015512 0.190251430539530336 0.0994301003041499903)
(-0.0102434509434237674 0.185039824716913409 0.0973585796574837348)
(-0.00503424820757052919 0.1809348084135598 0.0954116427642091869)
(-0.00150882204392716111 0.178174272497942793 0.0939033914522817703)
(-0.150289348075294815 0.138892282479132434 0.0505320454552401072)
(-0.143332852275377343 0.147628007740896017 0.0533894245777724527)
(-0.136071910938539459 0.156553198185454656 0.0569346900947207621)
(-0.12813251822573038 0.165634713101875219 0.0612073913518643362)
(-0.119106875438543564 0.174600458496319666 0.0661026781801278829)
(-0.10872412010343796 0.182978351844106824 0.0713444971056300115)
(-0.0969554179115872661 0.190239953534240752 0.0765538415651903364)
(-0.0840353841501438881 0.195943101851185159 0.0813893128281972938)
(-0.0703198453443965588 0.199714844657673529 0.0855333915989047455)
(-0.0563102826980975968 0.201275287476060188 0.0886595825625439288)
(-0.0427514343373090744 0.200579799950230675 0.0904862593381843827)
(-0.0304880666856693662 0.197955542481596969 0.0909053245353703826)
(-0.0202315209547790711 0.194141229768118123 0.0901407779056256908)
(-0.0122801967156085413 0.190118883405810124 0.0887282821589055193)
(-0.00644527802806174437 0.18689952422736128 0.0873711869659460627)
(-0.00200353297981325281 0.184473339703601941 0.0861977738109705321)
(-0.145883653860676449 0.140442173797615671 0.0492322270501596923)
(-0.138853585064587476 0.149064406357940021 0.0514759983661127948)
(-0.131541915206751014 0.157784326979620332 0.0543206835662311815)
(-0.123626663243562196 0.166545617847006194 0.0577668903196957365)
(-0.114792740585589081 0.175112198678591402 0.0617146574514993024)
(-0.104826239077826899 0.183103162456584978 0.065947116014065249)
(-0.0936999782286276894 0.190084383393106987 0.07017274449845326)
(-0.081603446532267046 0.195658976890229153 0.0741013939810119676)
(-0.0688539170218143565 0.199553161358868109 0.0774988395620324344)
(-0.0558834377512688676 0.201524403819324849 0.0800858110253919453)
(-0.043298747468672856 0.201555185734672598 0.0816651606033615141)
(-0.0317739673757518881 0.199910179812203631 0.0821640582986436774)
(-0.0218734272737935234 0.197176322797800119 0.0817461082858742666)
(-0.0138428458178168276 0.194149094375218711 0.080802915952048332)
(-0.00754337502140754214 0.191686260054151181 0.0798768269384174251)
(-0.00239399982031227553 0.189559974008641663 0.0789616276609181184)
(-0.163559893255312949 0.116868005534360955 0.0456406710906262086)
(-0.155835119999535254 0.125152401630432092 0.0458494009563401791)