/*--------------------------------*- C++ -*----------------------------------*\
| =========                 |                                                 |
| \\      /  F ield         | OpenFOAM: The Open Source CFD Toolbox           |
|  \\    /   O peration     | Version:  2206                                  |
|   \\  /    A nd           | Website:  www.openfoam.com                      |
|    \\/     M anipulation  |                                                 |
\*---------------------------------------------------------------------------*/
FoamFile
{
    version     2.0;
    format      ascii;
    arch        "LSB;label=32;scalar=64";
    class       surfaceScalarField;
    location    "0.810000000000000497";
    object      alphaPhi0.water;
}
// * * * * * * * * * * * * * * * * * * * * * * * * * * * * * * * * * * * * * //

dimensions      [0 3 -1 0 0 0 0];

oriented        oriented;

internalField   nonuniform List<scalar> 
20856
(
4.48454081330637662e-06
-9.07314178605085561e-07
-2.26308324993855681e-07
3.13749613550347521e-06
-4.07169177540298221e-07
-3.17127755512194249e-07
-2.00079968470558002e-07
2.01766551542312019e-06
-2.70047288629856315e-07
-1.70935912139973188e-07
-2.482235552769539e-07
1.28320704638967835e-06
-2.21676035382005189e-07
-1.32729240671109892e-08
-2.77520240755131021e-07
7.96899796388244589e-07
-1.43420331245994282e-07
9.31670313857417122e-08
-2.52331828730391373e-07
4.9616634584771132e-07
-5.10347043353408782e-08
9.34664095977382065e-08
-1.82412009304613997e-07
4.47006998689435367e-07
4.38735602902578341e-08
7.1030368044514089e-08
-1.26824568908529095e-07
5.40097100014054805e-07
2.0854522086345408e-07
7.36001468457569161e-08
-1.28905741985248253e-07
7.28341851976977185e-07
6.83874860317614058e-07
6.43671362558633593e-10
-1.10821768092171164e-07
6.532973995713207e-07
2.04398697746580281e-06
-2.85672812774604139e-07
1.32662716080670866e-07
6.85385346108484437e-08
4.39637183230058431e-06
-1.16130923325414666e-06
8.74881855980631234e-07
-2.08017415875984241e-06
1.40811853457354123e-05
-1.15730626535408798e-05
8.57392924618504089e-06
-3.68706001151678213e-06
5.22318419481423171e-05
-3.90289191369736508e-05
3.18940234767713454e-05
-1.99440661183765386e-05
8.46137922302884219e-05
-2.6983712438662307e-05
1.8081352629628126e-05
-1.60443617063388825e-05
0.000313116169866502268
4.60346096842336749e-05
-4.34729581449199516e-05
0.000829229874631901855
8.29576319109520438e-05
-8.76275014435905821e-05
5.57940666889042512e-07
-1.3095140495445343e-07
-5.35042425445643529e-07
1.39326357322105306e-07
4.80867859448630266e-07
1.22433166622714842e-10
-2.66545432231646479e-07
-6.38948119823143859e-08
4.553120258790094e-07
1.93981249484618183e-09
-1.03546271105803014e-07
-1.48410534360896699e-07
3.86942555895763705e-07
-3.16115524031104721e-08
1.45441027862467566e-08
-1.47954886133683783e-07
2.78293016090892268e-07
-2.54821531550825694e-08
6.27407572355367523e-08
-9.62479626723637525e-08
1.96550541496860316e-07
1.48458654028437356e-08
4.14350577076462792e-08
-5.08472378249168621e-08
1.44980284819441924e-07
8.49329378096907123e-08
1.44640870821780406e-08
-3.11454855221134424e-08
1.48212512341194117e-07
2.44896986478292455e-07
-1.00085964920653155e-08
-3.57231983501595478e-08
1.95781852641330564e-07
7.82001486590587666e-07
-9.96343388779800231e-08
-3.1695328942038749e-08
-2.2228056596530173e-08
2.43699713822645099e-06
-3.8008149824268572e-07
1.93388911530542455e-07
-1.95953487746194533e-06
6.4944400180801879e-06
-1.94792101156616879e-06
1.72090428944749969e-06
-6.33958549434082948e-06
1.91151977634258094e-05
-1.41450470604209653e-05
1.18090091974503151e-05
-6.0576436996676437e-06
9.35185096901145987e-05
-7.0146634035048763e-05
3.12156157241828673e-05
-1.21141448431788679e-05
0.000103072684319323652
-3.42607203025121896e-05
1.38212248390598258e-05
-2.20807864451096834e-05
0.000202817543187157329
3.66316703730790513e-05
-3.60914606411650747e-05
0.000809545958015685393
7.99482310708646868e-05
-8.64966774184491144e-05
2.12758594026166478e-07
-4.49097145683874481e-08
-2.18526572016059087e-08
-2.27571115705937098e-07
2.56989093627177941e-07
7.46115228613728245e-08
3.33421629271550779e-08
-1.90207702759394375e-07
2.54264366690154144e-07
9.33219220387816302e-08
5.41696561521459217e-08
-1.45042900557345818e-07
1.86684664794071821e-07
4.07684322510189388e-08
3.25634560677354364e-08
-5.82520219938537551e-08
7.91173095388111198e-08
2.71103294792232877e-08
1.03576477136244879e-08
1.53378414795343528e-08
7.16394631994548425e-09
5.61715794801709901e-08
-4.02368616795690712e-08
4.41128743851145729e-08
-2.83781936694702012e-08
1.35637645880007962e-07
-8.33974797382869989e-08
4.41242173309435992e-08
-5.36768162448118305e-08
3.45838746493979698e-07
-1.33718912234497663e-07
3.08708132623774772e-08
-1.28974855201033693e-07
1.02432371795132667e-06
-2.34427169752291481e-07
4.04631244419516192e-08
-7.62143574871151537e-07
3.22658911416718636e-06
-5.96079977456559438e-07
4.23379015658229406e-07
-3.78023467108012923e-06
9.53540770525036484e-06
-3.13495930935903836e-06
3.44431993387009891e-06
-1.65845149533083028e-05
2.52481390931148602e-05
-1.68753218486790456e-05
1.49479872092928434e-05
-1.35641939808649209e-05
8.49658662271495771e-05
-7.7276012283033528e-05
3.64818555096685579e-05
-6.11555145338385534e-06
0.000101556139300196528
-3.43537146828852273e-05
9.95714235676876778e-06
-2.66995759400611656e-05
0.000212088147084578464
2.98199175511768837e-05
-3.18044913763870104e-05
0.000788636785663428849
7.90271357833053224e-05
-8.58458572610821917e-05
1.03724121752947755e-07
-1.37893481508889561e-09
1.45420315835128269e-08
-1.74786753339356993e-07
1.31530282249248581e-07
7.92486551966609495e-08
5.94228338497630785e-08
-5.03061306981194157e-08
6.10631915765399506e-08
8.49385006084732412e-08
9.46099642313855618e-09
4.57286438760583054e-08
-3.18745426328142771e-08
7.12044197704609618e-08
-6.63933663360249402e-08
9.49450765582983599e-08
-1.09962774753954063e-07
5.92279003018462e-08
-1.08216768199599517e-07
1.27784143039682505e-07
-1.54705090787401897e-07
8.00951713658886021e-08
-1.49837696390719547e-07
1.39132960374813396e-07
-1.90832337361238299e-07
2.01552442336378825e-07
-2.01912433293489767e-07
1.33576577807401553e-07
-2.53120760279164044e-07
5.19364828451459829e-07
-2.69711332378524266e-07
1.15740877125573039e-07
-5.00517221045991893e-07
1.45142366220166505e-06
-4.11762756143289514e-07
1.74212799271706688e-07
-1.67681496702194192e-06
4.38954126783923934e-06
-9.97572697011412228e-07
9.61784445226461727e-07
-4.91414573345668022e-06
1.27295715072265899e-05
-4.60486198679333668e-06
5.4835703321506616e-06
-1.53094675582889797e-05
3.13505017259449865e-05
-1.87068466728049999e-05
1.71288653981982037e-05
-1.28341818472750373e-05
6.21997051739562885e-05
-5.4005292895740724e-05
3.53592763921249038e-05
-6.61553070173226835e-06
8.20911382172110704e-05
-2.81158215967644898e-05
6.51779763962728221e-06
-3.20324554517840626e-05
0.000225434776611539017
3.88109519431439166e-05
-3.21333723348670453e-05
0.000755557774504450282
7.70148442787992754e-05
-8.4250454146639594e-05
-4.61940337668213908e-06
-3.68165047371283758e-06
-1.97973064063056356e-06
1.04277496410379311e-06
-2.47505915584132266e-06
-2.86498340476934947e-06
-1.95014869343334258e-06
4.37844489336299278e-07
-1.13784955041734509e-06
-1.17143375342743682e-06
-1.0646075911946154e-06
3.57281172453291849e-07
-4.91042860342292347e-07
-4.68474696266094871e-07
-3.37112498575646014e-07
4.00837672708034901e-07
-2.42252966564171484e-07
-2.29349247168910619e-07
-9.41909726810738122e-08
3.09093377837077708e-07
-1.61585847034837383e-07
-9.61844087092077105e-08
-1.07268753799330258e-07
2.30434299636854013e-07
-1.68238622555667941e-07
1.15175039855572859e-08
-1.5573887830402765e-07
1.90995151111649334e-07
-2.13941892367514179e-07
4.70614309934788278e-08
-1.93554489949880205e-07
2.08029994222561899e-07
-2.63926171838265457e-07
8.67269288933888335e-08
-2.31440519822196714e-07
2.29058817314103121e-07
-3.29844749534141639e-07
2.88069309678070355e-07
-2.99589447356990086e-07
2.40361632125399847e-07
-4.78445814292742324e-07
7.63668584694935536e-07
-4.0103203758268425e-07
2.52711870238241514e-07
-9.68068504527607067e-07
2.05022909331102314e-06
-6.32516815778463819e-07
4.61019794430347399e-07
-2.67905983403385516e-06
5.75185648393726456e-06
-1.59256870288864702e-06
1.86413349223154304e-06
-6.31228200947062841e-06
1.52854881705046306e-05
-6.42926289409072896e-06
7.60685154028502313e-06
-1.2979123194825703e-05
4.24934561418608835e-05
-2.17535182857392704e-05
1.74190111569316581e-05
-9.88576361576067552e-06
4.16846464063134748e-05
-3.36624113303853178e-05
2.2261276668273475e-05
-6.6135539759682062e-06
7.18873170030961072e-05
-1.21415790846459794e-05
5.40147659163858849e-06
-3.58428366062049872e-05
0.000202612200469573576
4.18665029606538945e-05
-2.73196617854455293e-05
0.000722325956487815174
7.61741552367709268e-05
-8.26759827122874441e-05
-6.40741787012582979e-06
-4.33406602610743505e-06
-2.19437431441504562e-06
1.8651054943172083e-06
-5.79097897899155868e-06
-4.492244023591451e-06
-2.650506564755882e-06
2.04322679171551337e-06
-3.56661018887621533e-06
-2.30976854182886241e-06
-2.18258978136737869e-06
1.69986275276071606e-06
-2.53843926716009849e-06
-1.78600185595971521e-06
-1.22256561714509002e-06
1.78127343987176578e-06
-1.65686296638242679e-06
-1.94283621838812547e-06
-4.71748700320607074e-07
1.63477815362194098e-06
-7.72589469728265631e-07
-1.61901871611921248e-06
-2.39621017522669417e-07
1.04299397462431174e-06
-3.10896414440447788e-07
-7.73676098338645477e-07
-2.40215199902190004e-07
5.8914805159689557e-07
-2.9131932575762415e-07
-7.25355291848754829e-08
-2.54709347688948432e-07
3.06308113446237317e-07
-3.41100430306995685e-07
6.88720475814080816e-08
-2.9782496618141674e-07
3.13044581870454305e-07
-4.71123411155081924e-07
3.9619098690861524e-07
-3.92234863980199415e-07
3.59848473575315262e-07
-7.81645787991656761e-07
1.10740960404532778e-06
-5.52029610543452437e-07
4.63954539904650004e-07
-1.64381266031602737e-06
2.86601394786846547e-06
-9.47593575794188496e-07
9.22878948375943038e-07
-4.14274696287917282e-06
7.55550181822912956e-06
-2.45994415551142211e-06
3.03498258242243934e-06
-8.72023250195452398e-06
1.84068811021544736e-05
-8.58130476902924735e-06
9.84504998274077861e-06
-1.26418576788677057e-05
5.59051801623124649e-05
-2.83189362085403715e-05
1.71393648359170751e-05
-9.72731885815922486e-06
5.14607242262395381e-05
-3.15107131716649337e-05
1.46431475749279793e-05
-6.61375930236633165e-06
6.45344241498906003e-05
-8.51830585870322973e-06
5.4835919923158036e-06
-3.92725969311549434e-05
0.000171746552455287075
3.30151143662143898e-05
-2.81042074220562602e-05
0.000685155158356146889
7.52924950972201352e-05
-8.18477668319482862e-05
-2.12511676278074862e-06
-2.31341796996933409e-07
5.14462253912736111e-07
1.31983601422047297e-06
-4.85636994031657815e-06
-1.19729284439657113e-06
9.85210146149363109e-07
-1.58014454094078056e-06
-6.46845922655635336e-06
-2.16406086911861849e-06
2.18178950059516817e-06
-4.31293487737262591e-06
-7.00670755314360507e-06
-2.86538356613222483e-06
3.09327450489054327e-06
-5.1642850284576978e-06
-7.34195546296204539e-06
-3.17169147000955901e-06
3.83821183781172989e-06
-2.48389145895734224e-06
-7.23267259292413403e-06
-2.3894888931766267e-06
4.25528866317098694e-06
-3.20353978489241974e-06
-6.65390104400030569e-06
-1.81241491814019974e-06
4.84722426577585018e-06
-5.38510521040217247e-06
-3.93377300669666686e-06
-1.47864762771274285e-06
5.14447494521680962e-06
-7.2877020578238241e-06
-1.3491437884320435e-06
-1.03938155845203308e-06
2.13939658799156367e-06
-4.3536787840124222e-06
-6.23090981106809705e-07
-7.49072779626623214e-07
9.42986653607868202e-07
-1.06978048557995981e-06
-5.48145432517830887e-07
-4.41132581140704851e-07
4.81918549528463585e-07
-1.20909182656328812e-07
-7.78359150673296726e-07
-5.212865880922666e-07
5.39437417487802005e-07
5.33396927283718472e-07
-1.47303413152389618e-06
-8.19440789989434102e-07
8.39729175212761694e-07
1.69159473543801036e-06
-3.17949635578128606e-06
-1.59117224889375934e-06
1.74986433019588331e-06
4.27373017005939248e-06
-7.46060086817664486e-06
-4.28824188970526302e-06
5.22305504131127517e-06
1.06772279306556047e-05
-1.87921097015813953e-05
-1.34961024075041373e-05
1.44700685704092845e-05
2.83801457437467586e-05
-2.5162230847279349e-05
-4.47110082627574616e-05
3.03375779186482305e-05
6.61696802396618226e-05
-1.71526737591485513e-05
-3.8923205182346604e-05
1.37003410577248723e-05
6.14653905997330677e-05
-1.28030870752560505e-05
-9.56091000997794571e-06
3.91483817924212848e-06
5.75210356911956658e-05
-4.10795302485534165e-05
3.3314389726423232e-05
-3.25209643944934698e-05
0.000193897656735430635
7.45501982677494637e-05
-8.10213830249370803e-05
0.000645129935356516127
1.13064869191359189e-06
-7.32060040022378549e-07
-7.99461152806223677e-07
6.73919643125668261e-07
-4.5790419351004529e-07
-5.1111107617967169e-07
3.8259975526518702e-07
-2.57754644158718092e-07
-1.86829601945043971e-07
2.41130193202202436e-07
-1.19473167028202807e-07
-1.45835250928450574e-08
1.88236688540959392e-07
-3.13739446722832034e-08
1.04227050428112392e-08
2.6983490078343397e-07
5.04445252233380542e-08
1.61336770432506425e-09
6.22194788519418489e-07
3.26872014072281095e-07
-8.89019905779126741e-08
9.98143158852722557e-07
1.16484165857872613e-06
-2.43125786994871107e-07
8.2039753881767508e-07
2.94245831287394675e-06
-4.28426182870795609e-07
2.12895527440565911e-08
6.41533305698165853e-06
-1.53186690203154637e-06
-4.64552925114246432e-06
1.95391638426783268e-05
-1.22120107484029265e-05
-7.47535146592102895e-06
0.00010008354082194018
-9.0784466121159835e-05
-5.06164514030890729e-05
0.000260151311995544224
-9.61022388738952692e-05
-2.20085182765230506e-05
0.000471215101519095736
1.12830553600625461e-05
0.000821757177512542642
6.8169638709068996e-05
-6.9225243671532122e-08
-9.88456275700118086e-07
-1.38311074196107221e-06
6.04556365725279774e-08
-3.36155350995182326e-07
-8.74236485256280968e-07
1.21528464293002716e-07
-1.57861380609745682e-07
-5.20884083743876012e-07
1.27403942474839572e-07
-5.90075724340446802e-08
-2.26071483609318304e-07
9.75701688349287473e-08
-1.71572232919195897e-08
-4.84457927202918332e-08
5.12045185686373574e-08
3.19203111520590508e-08
-9.3120143983544852e-09
4.10689935809740385e-08
1.21687281830726752e-07
-7.42235387123655034e-08
1.26124647197411156e-07
4.11611200130214934e-07
-1.99117946694150871e-07
2.89553555265810401e-07
1.2293011913384244e-06
-3.78574760520723394e-07
1.31849989013439732e-07
3.18527673742405775e-06
-5.83804823980114369e-07
-1.98622313375536756e-06
8.21464418723687146e-06
-1.77406306546643695e-06
-1.16294836993549801e-05
2.5862147657857828e-05
-1.32283459004922186e-05
-4.42659832918016911e-05
0.000151750610433012978
-0.000105237539055970484
-3.15882282650447341e-05
0.000264036982851922777
-0.000102875515184367179
-2.5812728876835379e-05
0.000388454988210871306
6.24998455626692694e-06
0.000823981244541954067
6.40442224317765824e-05
-2.60433215954800181e-07
-7.26865513645027155e-07
-9.24938015611438854e-07
-6.61777418357721593e-08
-1.35249974441519807e-08
-5.81662316393022936e-07
2.92021444160897932e-08
9.63311073194496833e-08
-4.09937801232577771e-07
3.68281106119786435e-08
1.51573978684805337e-07
-2.60133494342761579e-07
-1.36832513287465147e-08
1.43903117362511006e-07
-1.38922103111887052e-07
-7.02762241973766815e-08
1.48203966942323681e-07
-1.23807072805484407e-07
-1.20099284140413254e-07
2.36340781285538444e-07
-1.79910587703267831e-07
-1.2465489937421069e-07
5.40254311970944025e-07
-3.04086878900435274e-07
-1.00368721977135075e-07
1.39253346772800573e-06
-4.96335334452248226e-07
-4.49892779532738338e-07
3.58614345300835369e-06
-7.50089247159342339e-07
-3.82869357009078716e-06
1.04095898002805734e-05
-2.10515006463937763e-06
-1.43060883296441038e-05
3.34761466654943341e-05
-1.50560623357283111e-05
-5.25810594836158922e-05
0.000111263362211141623
-6.76462495608279584e-05
-3.17952814920350203e-05
0.000233180002779414923
-9.35829024468349657e-05
-3.58872549952778604e-05
0.00041808056221135368
8.04979770699852514e-06
0.000825746046799926488
6.10622883509022435e-05
-3.51366881092545355e-07
-8.64361131445252152e-07
-7.94504045734628323e-07
-1.83365682349057844e-07
9.21778405202476976e-08
-2.00525607780164602e-07
-1.22567398347098673e-07
2.01058544854992265e-07
-1.88281934309997797e-07
-8.31319083697226056e-08
2.26410781969940235e-07
-2.14372626798001416e-07
-1.01824524345703296e-07
2.20974360789481809e-07
-2.09011732862339653e-07
-1.53472933221214283e-07
2.24063881164661781e-07
-2.19175069684562354e-07
-2.1971810120014092e-07
3.27158803849026782e-07
-2.67542918832043981e-07
-2.70859681562899225e-07
6.64513684158974355e-07
-4.00999395161239425e-07
-3.76072346260359973e-07
1.61735725772768667e-06
-6.08990189889179189e-07
-1.15279249567944895e-06
4.24632056532055651e-06
-9.53867299550074155e-07
-5.12574201001033087e-06
1.26606983948029987e-05
-2.64485316238019921e-06
-1.41685309679371701e-05
3.7954074347600243e-05
-1.72668883319593605e-05
-3.54100928245526655e-05
9.6353291740114953e-05
-5.33787573215243965e-05
-5.71317555198052929e-05
0.000186612233302540164
-8.47667350125512242e-05
-4.42165104529644549e-05
0.000419005537308501745
1.53508287517296065e-05
0.000793104150896840258
6.07986810203208684e-05
-7.04636397336281011e-06
-9.01498032714396805e-06
-1.99877191361977771e-06
-6.11485013513726058e-06
-9.96317436974940589e-06
-2.75443532102014917e-06
-2.79683098606512584e-06
-5.90176626437386128e-06
-2.50901204310437541e-06
-7.7053539670252843e-07
-1.76716925506577101e-06
-1.21856856281931142e-06
-3.66947178386093202e-07
-1.94050964177860524e-08
-3.03632186816033303e-07
-2.42487786304578237e-07
1.65205293894233441e-07
-1.71402899127844741e-07
-1.67444518885174629e-07
2.03575007561000317e-07
-2.20563213266169218e-07
-1.59350647638451374e-07
2.27259036244889277e-07
-2.61809313466511531e-07
-1.94812328915025244e-07
2.46603123830232258e-07
-2.71066791285282084e-07
-2.79960377381159762e-07
4.01557066564517603e-07
-3.43394475273081609e-07
-4.07739519180325611e-07
8.02248922383858637e-07
-4.74938651045278325e-07
-7.2818304551282655e-07
1.95094490638948511e-06
-7.28952747622742155e-07
-2.11683372177151068e-06
5.16912933040435455e-06
-1.20847999355107509e-06
-7.16111508519676016e-06
1.54300733401318188e-05
-3.56722446513815281e-06
-1.79521486141054446e-05
4.60809523379688803e-05
-1.90829084371905653e-05
-2.34896637832441752e-05
0.000119518926989398751
-5.58749493856368587e-05
-4.88643257932190746e-05
0.000126368219331358109
-4.46380175686925693e-05
-4.81461696978170603e-05
0.00030884925769188588
1.82422331588703838e-05
0.000753636166093856136
6.24440717114642141e-05
-7.44806400752334215e-06
-9.44564430202608588e-06
-2.1963394635300649e-06
-8.00272789899414206e-06
-1.10712945603149819e-05
-3.04195868103516477e-06
-5.92613041034175989e-06
-8.74439528480693094e-06
-3.34674447759927491e-06
-1.8506186555178386e-06
-3.4157517965041426e-06
-2.22958697794586379e-06
-7.83118788122350347e-07
-5.63288283670404054e-07
-7.73253308004056018e-07
-4.64231196134202808e-07
-1.46767045049202434e-07
-2.07557326783739762e-07
-2.84500596321550096e-07
-8.08344257537441407e-08
-1.61648484903440843e-07
-2.29010811450861517e-07
7.60522333823981028e-08
-2.05794357874653548e-07
-2.46081175083365795e-07
1.85322342608368861e-07
-2.80542326048016673e-07
-3.60782324368772355e-07
4.67021464973767842e-07
-3.97635835988394949e-07
-6.24147953306265911e-07
9.99539162780668862e-07
-5.53693746649430815e-07
-1.3296928014275765e-06
2.46678838149357661e-06
-8.54723788647583948e-07
-3.82282899835585083e-06
6.70412539472275321e-06
-1.66906688299935316e-06
-1.1622645772443713e-05
1.99200907731798788e-05
-5.58851052695843409e-06
-2.96853351128210931e-05
5.98359121050571037e-05
-2.37018127770866031e-05
-3.10953021896093746e-05
0.000151188229338376296
-6.55505512300371958e-05
-2.51540873908518895e-05
0.000122537254000231122
-4.27491269427911924e-05
-5.16390286499491443e-05
0.000241385352954279295
1.78269813952770341e-05
0.000711991443976776059
5.9062358580319515e-05
-2.51645766081611339e-06
1.87121276758298537e-07
2.9520478758903412e-07
-5.25991676225155254e-06
-1.42452429594426388e-06
-4.81391915101233565e-06
-7.06740098246192333e-06
-2.19592755190463172e-06
-8.97886775838348131e-06
-8.45785197951086709e-06
-2.99004839661408827e-06
-1.13117686090287947e-05
-9.10432238971486026e-06
-3.65030997486718681e-06
-1.01198649824480225e-05
-5.77656442437926028e-06
-3.16191915416177396e-06
-5.81491652191570287e-06
-3.42960219955275103e-06
-1.85763855751108656e-06
-2.35490923654905707e-06
-2.32560168706215792e-06
-8.01949350016020334e-07
-1.70418203000956529e-06
-1.2127399876966657e-06
-5.4182613390609812e-07
-1.67081097325471768e-06
-5.08535300797286408e-07
-3.29586709122174763e-07
-1.12565657858353657e-06
-4.10409091885892455e-07
-3.21606172018862752e-07
-1.03062258730889017e-07
-6.18843288681459199e-07
-4.71692620168036181e-07
5.57542463918534958e-07
-1.24964198642179733e-06
-7.05432456219286613e-07
1.42380998992808887e-06
-2.94519029909682968e-06
-1.23442960251554449e-06
3.65346171773080624e-06
-8.18658150602341722e-06
-2.90514771794918398e-06
1.03209453162045358e-05
-2.36675610302589004e-05
-1.00423419451500294e-05
3.14874418213662954e-05
-5.7146916473787727e-05
-3.47578962861319211e-05
9.45175678368724966e-05
-4.80458427431984053e-05
-0.000109386299800017168
0.000201731800421344165
-2.62185403252816031e-05
-4.98559272103946547e-05
0.000127694753535874487
-5.49966725558295098e-05
1.99420793054053686e-05
0.000262513365396948564
5.82101459572335702e-05
0.000668532743377072466
8.92113626557929681e-07
-2.52164127252613401e-06
-1.0714892271282442e-06
9.27492753218952388e-07
-1.11479999441948532e-06
-6.44569250915712271e-07
5.93686822058594434e-07
-2.20743428222426694e-07
-4.07594586879817965e-07
4.24259688736233515e-07
2.48502432642979259e-08
-2.59200414281976432e-07
5.17669140817293415e-07
7.28423925030769058e-08
-1.19489568304685442e-07
8.61229896528795505e-07
2.35726165539142022e-07
-1.87526789953155096e-07
1.27911955841170795e-06
7.40660543739874995e-07
-2.88226727707133935e-07
1.5501796080193756e-06
1.80170641949587716e-06
-3.868271657054873e-07
1.6247595591637349e-06
3.74100408531887545e-06
-6.21140953485386809e-07
1.26086101144068201e-06
8.34365695431899321e-06
-1.64786173337565924e-06
-5.50888234380904172e-06
2.36373382138522061e-05
-1.12531150022838093e-05
-7.14202234639439135e-05
0.000145995077118718123
-9.4499124255033811e-05
-5.73794686119309915e-05
0.000401047193802182064
-0.000180251340778311364
-2.67952783511013711e-05
0.000642418542110288694
-5.80577043094794682e-05
0.00084655957671101107
3.88674715640283916e-05
-6.976263425435412e-07
-3.78944998091251169e-06
-2.03305173546121707e-06
-2.53592801763838039e-08
-2.22802335294645481e-06
-2.11357289752463889e-06
2.0889261149295349e-07
-7.49167988770161622e-07
-1.32360822948926975e-06
2.44184857949784605e-07
8.8298886954438034e-08
-6.64231300361492344e-07
2.44400818037804398e-07
2.89129153933690711e-07
-3.43818003990892255e-07
2.1458236879735475e-07
3.04770968330741021e-07
-2.39485956503459473e-07
2.82245272188945871e-07
3.59703100177752822e-07
-2.83366170655517533e-07
4.77872451451186526e-07
7.19704396714919873e-07
-4.23056752750718156e-07
6.79978287591476289e-07
1.63724436581098372e-06
-5.44170634027439849e-07
7.68675168955794486e-07
3.6160031553384374e-06
-7.59218393900760233e-07
2.30202453449707223e-07
8.42648222819161329e-06
-1.49467609252692263e-06
-1.07354005196599907e-05
2.80929784756208685e-05
-7.85862586371452558e-06
-7.78255828277809859e-05
0.000128437511396995894
-5.5830148014534073e-05
-8.0471968752030576e-05
0.000423147684681796793
-0.000167620821212611447
-3.48921795088299102e-05
0.000627552305555557064
-5.44069280970865292e-05
0.00086910025267126188
3.50614055274370517e-05
-1.63082535982799345e-06
-4.28920386609209005e-06
-2.43015541976596999e-06
-5.75972007645807317e-07
-1.90576257683423832e-06
-2.14477752809535685e-06
1.64296566972708469e-08
-3.94272591892565175e-07
-1.55253912723381044e-06
1.9129396091663103e-07
3.53459128436602289e-07
-8.32792120887324288e-07
2.07482531708382652e-07
5.82717206889224183e-07
-5.21114614897293812e-07
1.49082405910688583e-07
5.33765870401446655e-07
-3.47315003884458087e-07
1.01093228187993454e-07
5.13200946299235518e-07
-3.41390724780459805e-07
1.01442427943181566e-07
7.90067752504798898e-07
-4.53127339786653544e-07
1.40285396681262587e-07
1.61584468460481598e-06
-6.24914803973055735e-07
1.81153891737667346e-07
3.52487822605458949e-06
-8.84394683041759188e-07
-6.52076086449340539e-07
8.64937577814294841e-06
-1.73082656488947885e-06
-1.36622896375124219e-05
3.03727383905517999e-05
-6.04764045654751757e-06
-6.61097804713406455e-05
9.12093942717745443e-05
-3.47155623102903807e-05
-9.49653750977220578e-05
0.000370685496500713473
-0.000111699517955023234
-4.49080956287236602e-05
0.000627869526814285963
-4.60510449535744628e-05
0.000850797020452549626
3.32017335834116229e-05
-2.30428363791612198e-06
-5.64967048919836186e-06
-2.75559098083507647e-06
-9.57229553980587037e-07
-1.83857176867319207e-06
-1.49129548875066025e-06
-3.46153326978037505e-07
-2.46776170247158146e-07
-9.80458603835685294e-07
-9.69991882915026807e-09
3.54475058731901636e-07
-6.33401954690960603e-07
9.86581636849656648e-08
6.06211466625657284e-07
-4.24729984590629894e-07
8.48579278533834621e-08
6.24881412676100065e-07
-3.60690534421190906e-07
1.1089897209758621e-08
6.21775089486963873e-07
-3.67985836117670013e-07
-7.24356701329267547e-08
8.6958231636218379e-07
-4.88622679150050478e-07
-1.30918520495564661e-07
1.63182847341640864e-06
-6.74491021573084279e-07
-2.70411345543684779e-07
3.531494222379342e-06
-9.78822948782348085e-07
-2.09420157951482716e-06
9.13347807160821588e-06
-1.69626625913823542e-06
-1.75632773713972002e-05
3.27140337862100752e-05
-5.01972091822164338e-06
-6.69089540587376963e-05
0.000121571755670047755
-3.73348826488410931e-05
-0.000106972125555742796
0.000364390423593749404
-0.000115704053336761388
-4.91849353659086649e-05
0.000622441359323759385
-4.16002410051233304e-05
0.000822736382963114906
3.37503862663192979e-05
-8.60154514971454251e-06
-1.18437664852763431e-05
-1.72738815858978163e-06
-9.09282491823673001e-06
-1.60561718591492703e-05
-3.13322888794953176e-06
-7.81942503247272083e-06
-1.69737424290986762e-05
-3.76051920438120086e-06
-3.58274706748242738e-06
-9.56083553103511655e-06
-3.18135077954099995e-06
-1.28169607321378031e-06
-2.77482608005834177e-06
-1.41378393157244537e-06
-5.70634764960938224e-07
-3.92200464825120913e-07
-6.36371116547087779e-07
-2.12279429756329177e-07
2.05669192260488223e-07
-4.27537026906273995e-07
-5.00605091118664102e-08
5.05679183963744413e-07
-3.8409423257084493e-07
-2.41589674117328532e-08
6.11060969751816109e-07
-3.50605979875758335e-07
-7.60252693050168461e-08
6.80453202739979262e-07
-4.2341837695569367e-07
-1.85174553889369092e-07
9.12975590829465647e-07
-5.3034719928163087e-07
-3.76502919326307125e-07
1.70092996308588347e-06
-7.27645705514741199e-07
-9.46694683047615808e-07
3.78077903426191005e-06
-1.02393608721671697e-06
-4.63463402147918699e-06
1.0558673418239857e-05
-1.68716670880859444e-06
-2.26019614561008805e-05
3.60465056698206729e-05
-6.99821263829467733e-06
-6.58453329077782526e-05
0.000156480875648796005
-4.77841966103508995e-05
-0.000101216935063502445
0.00037199958989141775
-0.000127606656575239162
-5.28472780262041614e-05
0.000557147662079373338
-3.59413193623967441e-05
0.000789868755706707275
3.52582197708359429e-05
-8.74959379169591134e-06
-1.20402292567609276e-05
-2.17353707682976645e-06
-1.00425634789680207e-05
-1.70288015699302806e-05
-3.47512403869601728e-06
-1.01070242309655345e-05
-1.89011591731631153e-05
-4.54671190759444022e-06
-6.76408685036815748e-06
-1.44918733253995825e-05
-4.23874101766092943e-06
-2.1986465467921851e-06
-5.54353857777336651e-06
-1.97505605883421861e-06
-8.61983154383671885e-07
-1.12052220767240174e-06
-6.4312580618200583e-07
-3.94802618296538382e-07
-9.88814941267154961e-08
-3.17862455706569924e-07
-1.98446913860703085e-07
3.53310000251587822e-07
-2.9654288615486189e-07
-1.52593984644086015e-07
5.81228356414159078e-07
-3.61577736387645666e-07
-1.97177149613582836e-07
7.13115829304505624e-07
-4.60194366337477834e-07
-3.60500223958848278e-07
9.51343942550689842e-07
-5.43346863831558827e-07
-8.17986850212227589e-07
1.88793843019947374e-06
-7.31564426716596261e-07
-2.51728598470716028e-06
4.73188781281864951e-06
-1.11667541554100959e-06
-1.04932793649557421e-05
1.52188858483331326e-05
-2.49825491730581036e-06
-3.28641091622078468e-05
4.41634056815792082e-05
-1.07540625255163441e-05
-8.39135622302164655e-05
0.000232337312861894752
-6.21952834961583757e-05
-8.94188139571471701e-05
0.000417466693400342316
-0.000122130367314069187
-5.90495663960444219e-05
0.000451529917532119231
-2.83347740726398217e-05
0.000745996567907022045
3.75715611496427404e-05
-1.80598738106987282e-06
4.24323102439023007e-07
2.3253651032802707e-07
-5.37476484998091037e-06
-1.32117424512758837e-06
-5.12202551216189558e-06
-8.07125842398258762e-06
-2.32515683557622508e-06
-1.11325588853696153e-05
-1.01810414523078215e-05
-3.38028915541339549e-06
-1.70953142450955601e-05
-1.16977527449962655e-05
-4.71026371553592475e-06
-1.96801497935807931e-05
-1.07125000918397179e-05
-4.98108221575905588e-06
-1.71565320029126126e-05
-5.12190370572566607e-06
-3.1986084183503845e-06
-1.09144291133741532e-05
-2.46938562130143262e-06
-1.368340244403158e-06
-3.12517011401009321e-06
-8.60498198402768492e-07
-6.656611701148438e-07
-1.61329232592588651e-06
-4.3619427702017383e-07
-4.07180920194794469e-07
-7.62343397991295334e-08
-3.6219064555412853e-07
-3.28496198705939211e-07
4.40023951843665387e-07
-4.82622351485409192e-07
-4.5740743918010879e-07
7.20465181290830491e-07
-9.23573600537996458e-07
-5.98913096239717274e-07
1.1715792067546893e-06
-2.27782200872123948e-06
-8.7713057481438087e-07
2.77154864710011975e-06
-6.90463686707310312e-06
-1.63225839469635307e-06
7.88148349051390578e-06