/*--------------------------------*- C++ -*----------------------------------*\
| =========                 |                                                 |
| \\      /  F ield         | OpenFOAM: The Open Source CFD Toolbox           |
|  \\    /   O peration     | Version:  2206                                  |
|   \\  /    A nd           | Website:  www.openfoam.com                      |
|    \\/     M anipulation  |                                                 |
\*---------------------------------------------------------------------------*/
FoamFile
{
    version     2.0;
    format      ascii;
    arch        "LSB;label=32;scalar=64";
    class       surfaceVectorField;
    location    "0.810000000000000497";
    object      Uf;
}
// * * * * * * * * * * * * * * * * * * * * * * * * * * * * * * * * * * * * * //

dimensions      [0 1 -1 0 0 0 0];

internalField   nonuniform List<vector> 
20856
(
(1.71223449371445513 -0.301886191993080366 -0.0077198897360214189)
(1.20138678305531377 -0.199988433977872138 -0.144963434388394624)
(2.05842199843218676 -0.318948254721855784 0.070949932348841116)
(1.54422129631859062 -0.245394969063318952 0.00282408944138488882)
(1.16603151786234638 -0.126985860576359466 -0.0611719932848368633)
(1.18457632292950832 -0.301712794801538453 -0.175486495221194305)
(1.91744981254834279 -0.272402279166386596 0.0917859812714538065)
(1.42498739745651015 -0.213203175854570548 0.0598209019639915907)
(1.18366331961796178 -0.110928322876952631 0.0575651720396545552)
(1.06624729004107577 -0.251592874824974999 -0.14081072568149236)
(1.77592971929558185 -0.224000633804139732 0.150958772950980674)
(1.34705064117576767 -0.184882847145930285 0.149951268898760981)
(1.2230082662697892 -0.126736820190534061 0.177429209106733987)
(0.995542555853684896 -0.223376507878525588 -0.0110257784541874827)
(1.65641382460346831 -0.182633813300061759 0.235319387609905811)
(1.27027532629823536 -0.128640827126180607 0.222797288327456683)
(1.1926986134500468 -0.119722213250255588 0.245449097525848731)
(0.97071714818921162 -0.175556895759998 0.144004387210255824)
(1.52728027684333423 -0.124396194604024735 0.304783343752098035)
(1.17470678531818584 -0.0184836872232457539 0.250072733884841136)
(1.06144678311535312 -0.0581809379767707288 0.233431198626816355)
(0.909916976189877547 -0.0825059040039400476 0.209783198331014442)
(1.36656372701724282 -0.0387927417448179421 0.323946566131995239)
(1.07884850031459534 0.158674380048674069 0.249135543205920268)
(0.891029001940605081 0.0717407613791309073 0.203258176277011787)
(0.871359791529586869 0.0859117402911746819 0.227300108466945261)
(1.21794817562153379 0.0822072024914902444 0.312552751922279271)
(0.952209016363288474 0.421579108743491693 0.189225689990161622)
(0.724338985910168764 0.292811154765884318 0.185952107769214503)
(0.884772562489416714 0.319424005304364156 0.191655013449035766)
(1.0835065875269152 0.251306041861248164 0.30966573304052547)
(0.809307696394409137 0.826631530963108929 -0.0278012709594928908)
(0.562940247423498352 0.636355618726245686 0.0839177361675775835)
(0.849679591414118196 0.674842563585640098 0.0420181736373574227)
(0.886708761415703761 0.517469123925162644 0.223581153410006644)
(0.492870560595878582 1.34507588517249066 -0.464001669431460595)
(0.495447530184799811 1.16015667049587035 -0.242684288821097549)
(0.749691602795409584 1.18667598181660683 -0.227141727380786973)
(0.746254430727698481 0.946753022685092427 -0.11117624938082557)
(0.0552214116945791561 1.52993970414447911 -1.49729012384489701)
(0.0775805570497418995 1.70812303379459562 -0.924351766510029704)
(0.312416943702720384 1.69633633603277145 -0.737828402758504365)
(0.376233836509370645 1.46711589694556355 -0.710259458594929227)
(-0.177096477111428535 1.25367145388648171 -2.28376835771759623)
(-0.131274212858151745 1.43762622370715931 -2.25769913806398259)
(-0.0435098714376067688 1.46243393880006933 -2.16806952257485097)
(0.163579275887178105 1.47957237845852196 -2.27798807639652034)
(-0.448510122702222902 1.18492500389865363 -1.51621326135757206)
(-0.602946580208403971 1.07654392297684098 -2.19876681471870761)
(-0.631049884248533699 1.0581781529737182 -2.19469642854668123)
(-0.355188387469191458 1.08190664875489784 -2.35949822269512133)
(-0.320158315274133576 1.38938479397601444 -0.186185191204270933)
(-0.441771522855603782 1.26923939804119135 -0.668194598182690891)
(-0.537025389706421774 1.26813508749975146 -0.790336960294742097)
(-0.265557758409604217 1.34967105806030174 -0.761475145870334824)
(-0.0773081657618681639 1.63277257828299693 0.361647285407193653)
(-0.272020244280874124 1.42473773758594313 0.340895151287961107)
(-0.241088054518961703 1.4938255647531391 0.282715968490047653)
(-0.238175619296682073 1.4404969651376327 0.368963829112248454)
(0.156347419984631697 1.77465586822612309 0.370336238873175072)
(0.120237732512332884 1.78322084206180964 0.350157155293092159)
(0.191092412788375354 1.79291330126133475 0.377921692544755605)
(0.644618834483497216 -0.0521008281174950086 -0.198415537937210507)
(0.55803513305445307 -0.0388535256501308102 -0.0656882592688030897)
(0.248568436960088512 -0.209393050724253571 -0.433435124908500391)
(0.980897288118329103 -0.109128662436519266 -0.121310922327908216)
(0.799650017384184286 -0.0200672567985680818 -0.00643091068656634346)
(0.789895883280742117 0.0122131957165765963 0.140766503007070221)
(0.359560433185511563 -0.117972692207625574 -0.337993205313148859)
(1.0779845096896663 -0.0412050009322216734 0.0954372655982591855)
(0.987059296272592923 -0.0387890716731478374 0.175173479182399616)
(0.920160690248889024 0.0139532809458087232 0.27570824532984084)
(0.541377630580801017 -0.0945444132533847931 -0.186305080569928783)
(1.20666382701889496 -0.0131592212838030111 0.250870993767315364)
(1.0617653921875907 -0.0573539485979443556 0.272927037733821487)
(0.972251465186494412 -0.0315522199307612938 0.308502866186645242)
(0.697305626251470523 -0.0928604025725452836 0.0480994673310185111)
(1.23883639029928627 -0.0158881564450105428 0.313175572213975795)
(0.98518626197890613 -0.0340439253135124062 0.256083007825209319)
(0.8529331515021632 -0.0439324137622151972 0.220755587100214312)
(0.728780559936527128 -0.077984734606279818 0.21282738523557504)
(1.13268092978851254 -0.00277255927433491889 0.287814580602394343)
(0.807614895061433136 0.0581845205932951248 0.18661664101898745)
(0.515736850315210105 0.0375152739527477713 0.0540850140322054751)
(0.606862560081327107 -0.0124973705099679991 0.196852225289554705)
(0.936046046222864025 0.0517966952380674375 0.210662207471920881)
(0.579678714696033937 0.246138738833818427 0.140074740840306133)
(0.276587261869723822 0.212992981596730857 -0.0192405572903082758)
(0.403167643260423814 0.146459516976275711 0.111443950213657703)
(0.717823303736645379 0.16902397518132517 0.16600476609483289)
(0.392629309942647498 0.548894040990990373 0.0806441539466319079)
(0.145956566929648368 0.456736922073424922 -0.00464431224289744288)
(0.28957473522863858 0.413218699292543568 0.0306458092831062602)
(0.521348558806101425 0.373036608583455942 0.171444572742815521)
(0.278428602836672257 1.00136028843785119 -0.130965281694022911)
(0.0456279300252231956 0.807777658343986515 -0.0598761848637544281)
(0.274554766893743252 0.803102584561571353 -0.100247006101992678)
(0.331559271132722377 0.677595341614380398 0.128392636644385771)
(-0.00905353231395908398 1.54884296088678219 -0.703034385899665715)
(0.0118452833131243995 1.37569135440998025 -0.404853407980919622)
(0.267169938260446993 1.36163486000714506 -0.352417921482292673)
(0.217993741780669881 1.14223555706493252 -0.208834831229986362)
(-0.310100852982138797 1.63632307239058994 -1.68476078072912205)
(-0.299773140152407636 1.83143132699781974 -1.2742487007291412)
(-0.0818574116829152015 1.88514939920587277 -1.01428705028307609)
(-0.105026606537804379 1.69219820062404724 -1.06871927938133182)
(-0.42781750290804238 1.25884394919830145 -2.17269759506509219)
(-0.430429080039838874 1.37947620151308104 -2.20152567664005971)
(-0.350304104648599401 1.4429340459215525 -2.10442910246501347)
(-0.173416431425064577 1.48541589538036223 -2.33844627845401698)
(-0.583964579683867058 1.15586995428352224 -1.35074815154380712)
(-0.719656966701429424 1.03806924388101796 -1.95121473940663526)
(-0.739233072678563863 1.06657449443205543 -1.93921619708443371)
(-0.535760175653483772 1.10469717861013406 -2.17231269024899243)
(-0.354988063654804287 1.31854327701221541 -0.141114255690436674)
(-0.494647856317688928 1.20415172285782668 -0.58478819602927623)
(-0.588048804221908084 1.21091758417497308 -0.69916591154538732)
(-0.335982287817647052 1.29910357612124994 -0.600363875705113847)
(-0.123254866920341877 1.57646493230588702 0.349584104753942249)
(-0.330428576135008589 1.36429712890188126 0.329454703864211718)
(-0.301013701244779053 1.42825593973419873 0.260993873067821569)
(-0.29859082226328626 1.36073588935402512 0.371846342017859099)
(0.15030762470162673 1.73087932105574471 0.361309285049909945)
(0.109280593081720639 1.75105489249030422 0.336025777507642398)
(0.185002055468252991 1.75640416810465871 0.371727921196228439)
(0.696373507583691209 0.0378154275462104644 0.273493781675475611)
(0.34128038430379376 -0.0264145908958414305 0.245428972584036537)
(0.0715107651561086022 -0.133505719277131452 -0.131520270396263045)
(0.713928364658801273 0.00239854461720660599 0.365381358113131383)
(0.895237357225533548 0.0790857408188531119 0.422905659023479208)
(0.644953124430416191 0.125108058464652228 0.379751290066126401)
(0.359670286606142142 -0.000424586154980380326 0.0465411972578247124)
(0.939781747698646419 0.0423191588040529379 0.471198586246649231)
(0.902964279019822347 0.0468434508569139513 0.409037632334088852)
(0.702736168095044578 0.150836928101468037 0.356837204796654262)
(0.472236114668239004 0.0420302984698846943 0.0871546486974458523)
(0.9344199034374705 0.0436262581289353704 0.368648122539151302)
(0.758191991679860733 -0.00359492844024872013 0.256331415553036124)
(0.4822780048190074 0.0928837108551489876 0.124065164938396977)
(0.509950630366194479 0.033932657657384617 0.0735074716859113603)
(0.786982953569085431 0.00202622437988222125 0.177591582935541448)
(0.380012362565244399 0.0294474593638318072 0.0187575933072113288)
(0.109927842129429715 0.0850443792798124404 -0.140388602789163763)
(0.358577612945449486 0.0318530255648289684 0.0484757101979358257)
(0.524320100914156706 -0.0108035399145861386 -0.071776940771807754)
(0.0179029897316186348 0.17623632020326141 -0.151772184277090827)
(-0.269610736702562692 0.166979068147589227 -0.346861666219556275)
(-0.0246793208944129094 0.121595063052430397 -0.131611841742530405)
(0.141523224002179093 0.0916177775731174815 -0.234798960179968763)
(-0.134578789345648209 0.397057108797197245 -0.163959610373513309)
(-0.403982421166754924 0.321342888938009219 -0.379784713837589771)
(-0.213935441462328152 0.289395899379428501 -0.251268095525114921)
(-0.0296787826592289708 0.286328148351230161 -0.187040797592320202)
(-0.142891663975450334 0.703405535119803305 -0.1451646510532828)
(-0.375342856526141411 0.573089525578884595 -0.290320851820115522)
(-0.220909554313241496 0.53479783818294091 -0.284672585740619766)
(-0.0563652987348602502 0.517748402936703767 -0.0602899903351584027)
(-0.173046108692620576 1.18310887215657146 -0.333764311150643977)
(-0.355079270607939645 0.972605196322356091 -0.287100983380690566)
(-0.164188764911714385 0.922464538047407689 -0.330628624437044549)
(-0.131730190912011019 0.832834707054253442 -0.0311373470541091747)
(-0.393243735348997037 1.66491337151588059 -0.976067722810400662)
(-0.377609945051155804 1.54329790604062378 -0.665584018660152932)
(-0.145403502016813679 1.51572557591653467 -0.551426763130419939)
(-0.243067478814155524 1.36545078613869042 -0.436412110726216829)
(-0.551082270490932391 1.57726960697053675 -1.79101359664008664)
(-0.521318961425519256 1.8159447097870216 -1.52870753622828115)
(-0.353130412942297689 1.8768529643927061 -1.2811912845536102)
(-0.438996077951627373 1.7762651277621675 -1.47000243142613041)
(-0.598643854946365517 1.15649337616679948 -1.98004282098160078)
(-0.61751991961239594 1.26053729262170577 -2.05311002447855895)
(-0.565031788923159195 1.34374908762770784 -1.97070675456413036)
(-0.463491182118262124 1.36174697925207111 -2.25614662156618317)
(-0.673469495301071253 1.08585939740020687 -1.18525478389207439)
(-0.778087934243695711 0.944145670058530562 -1.67925637556585361)
(-0.796545328315308554 1.01256184546017525 -1.6708593757357324)
(-0.650049636879075798 1.05978878172754065 -1.93353260970059893)
(-0.382098604525439534 1.24880002079655572 -0.114219236474615293)
(-0.524502312482976851 1.11632558964566386 -0.530668166056540103)
(-0.611339377447549848 1.12578379369995751 -0.619030538096547511)
(-0.371788820660930996 1.23129480354502618 -0.503311400246078344)
(-0.159753973514721592 1.51955362849545761 0.341179884160179747)
(-0.376296959322723834 1.3195833847522207 0.327678807867510136)
(-0.354701400043665627 1.37179536052831041 0.24330593019788227)
(-0.344914854838943352 1.28534162191977064 0.376222063421674358)
(0.148377545988907539 1.67150371221698157 0.353726678479769074)
(0.103808532051627378 1.70343176332525381 0.324492157757064414)
(0.183065474497471292 1.70506380641453448 0.36549495501551349)
(0.319405796405888731 0.0464407889158488588 0.351686480974685134)
(-0.293567526490474962 -0.0218082195744657252 0.0759268611207223887)
(-0.219370632756873685 -0.126639440318551233 0.0151691306869651682)
(0.108406953568505632 -0.0687381077249065442 0.392575692466009929)
(0.415199225914592018 0.126060631463214251 0.31368283583930201)
(-0.111639881240425454 0.0751348022142079713 0.0912373545545431264)
(0.0652941728229976537 0.0942040174316188389 0.110356779615398803)
(0.142531536375864715 -0.00957518827109515858 0.106201748357093548)
(0.255296697798429562 0.137624861104241797 0.0718647374009584311)
(-0.0683283150440759934 0.134966582531118956 -0.0391043317793120515)
(0.0912681501392059585 0.172482532133811761 0.0268531165848212849)
(0.120641437839242444 0.033752377203137382 -0.164796680286584812)
(-0.160713808582032269 0.135534723779766636 -0.272654853403802133)
(-0.273563686334280298 0.158979440425519924 -0.339696103241517666)
(-0.0569353079599079839 0.19303424218946158 -0.188982152614827148)
(-0.159086537227509428 0.0407552381988474516 -0.472822943701215193)
(-0.545338788467935487 0.170445698588688965 -0.506007862315929646)
(-0.604520891290309725 0.146906818105479675 -0.595817389393146879)
(-0.331240758840953387 0.212035000899730319 -0.383572821040325862)
(-0.563060826478416376 0.0918527000431523383 -0.644493066016408322)
(-0.672091878378374918 0.278744913914242942 -0.57487419578005361)
(-0.7903179687117039 0.172699100294704672 -0.730914051490327732)
(-0.536150811530003213 0.245700897468660362 -0.542064650876255882)
(-0.698779547292291081 0.179826124040005475 -0.657375365092890074)
(-0.639228143131733706 0.49429094054473488 -0.50614595528419315)
(-0.81021145684665119 0.351038797189713092 -0.709344024090776681)
(-0.611548728599682234 0.371855221639401434 -0.613088811701910097)
(-0.631279808329467618 0.361912549079888457 -0.520838341916285197)
(-0.533337442432798015 0.844816296976596104 -0.432257184147523288)
(-0.725910162883009358 0.659698072319909401 -0.583667206198728028)
(-0.560224026905660977 0.618400694527009853 -0.593622516350767349)
(-0.517935749375195598 0.622974530054673625 -0.314523467780860599)
(-0.517126378077265469 1.34033777807482202 -0.618920690890199299)
(-0.655571810111957753 1.11721603051551344 -0.56626586200568152)
(-0.481958771217020854 1.0400629959122718 -0.582029721065486005)
(-0.505663632459082746 1.01072777326026353 -0.276597903356025077)
(-0.634239670360391083 1.69283905822541936 -1.21822383207804052)
(-0.643664298758523823 1.60387539087057807 -0.958197173040817418)
(-0.454397275720984428 1.60617544764226361 -0.800078161335263993)
(-0.586448396812437656 1.54606979859810734 -0.79603716170924721)
(-0.638336932113022781 1.47742656429825914 -1.79080396406676168)
(-0.617296183188318914 1.67664531528708238 -1.64576282429997245)
(-0.490482016483824446 1.77858076550027433 -1.43430764872107153)
(-0.605766139671360837 1.72696022034156349 -1.71700504824658107)
(-0.679884717464548372 1.04655068565735498 -1.75232357906281377)
(-0.690609528561934027 1.1381693872223988 -1.87360301929016337)
(-0.649446539050430927 1.23635613706722136 -1.80836573406543111)
(-0.611940843955448011 1.23051940933808668 -2.09465050447238932)
(-0.716496530915088137 0.98607712018972038 -1.02466975773030433)
(-0.798308527933409451 0.83894805009998985 -1.42480738462089285)
(-0.824081687498534721 0.937036176497870965 -1.42303884114786228)
(-0.706380108054239675 0.946641328212168176 -1.67004744147576645)
(-0.411301748346483975 1.17737596490822494 -0.0887701217144186844)
(-0.536279948728390021 1.00770324328690442 -0.472867536387770682)
(-0.625446988511546009 1.03395168746206356 -0.52068153749946422)
(-0.388628363214189976 1.14238778816280329 -0.432731631610518752)
(-0.175710272077208296 1.46351676059057723 0.340225602187100074)
(-0.408141731083652481 1.25789395596987807 0.33303356562232922)
(-0.39153763365205918 1.31970816508240762 0.261509557883788657)
(-0.377288731731669102 1.2300461172064221 0.373721762884006825)
(0.149100527505491964 1.6047551760071892 0.34767643072589266)
(0.10205293500988509 1.64275599195035538 0.316577854162826855)
(0.183372256112854126 1.64172188021153276 0.358791238518154643)
(-1.34973315345499789 -0.470836930241743334 -0.473200348921934244)
(-1.47625569631375719 -0.531500106835361086 -0.537869633048323137)
(-1.46703786432277528 -0.738168289367653996 -0.491495844644750324)
(-1.24401799296594739 -0.143842693090864976 -0.494752705361027723)
(-1.12526897011253624 -0.324635573531207089 -0.363829595156158092)
(-1.37092753229649289 -0.469689240339910441 -0.501039948436708071)
(-1.35748155310119589 -0.709861587420544171 -0.473050605054884166)
(-1.07342092348835805 -0.159347615885857274 -0.311662678049101971)
(-0.853079657550037451 -0.136755261315581522 -0.240516277472579088)
(-1.20060832665550365 -0.28198654899388248 -0.419038671205469337)
(-1.14799903483808063 -0.487956563488485817 -0.390402987327016948)
(-0.947292516596954348 -0.149512369257945588 -0.288718905395874914)
(-0.690908191397312854 -0.00121026920557606305 -0.18452226529941998)
(-1.0513670774046826 -0.157233335785389311 -0.355675484113750884)
(-0.89065563970326278 -0.185502050185785805 -0.241355915821080125)
(-0.870852737285556899 -0.148721891805057183 -0.350037201627355465)
(-0.638986160598253194 0.0867165288790909261 -0.261549813064071213)
(-0.971235136482875516 -0.0963163228935453725 -0.369134714980100531)
(-0.66304624153639391 0.0617035579645918361 -0.166219957611791175)
(-0.840722422808034775 -0.121554888357927368 -0.457206852437650302)
(-0.629862372345545096 0.142740491479883352 -0.450665172421796434)
(-0.920351888717936273 -0.0443976790644519115 -0.475311417945303682)
(-0.596718359404008192 0.174565779236972113 -0.27673858096167725)
(-0.83127527937654444 -0.0495854282862220608 -0.626357605606943313)
(-0.701221786123170765 0.159643136771706939 -0.662858639230860747)
(-0.85059264797337486 0.0327094619272154177 -0.653670799337917274)
(-0.561152458927547171 0.229115413602815093 -0.481766703520978723)
(-0.841318003345680077 0.027388837499737112 -0.805680491612142724)
(-0.855448847595433826 0.170247253640226054 -0.820723578567545964)
(-0.861096725710158051 0.0977540625670539481 -0.848612300471047298)
(-0.613998126691751134 0.24597118637209664 -0.669779563107744669)
(-0.938536892184237304 0.0826319733417347213 -0.92231099067520983)
(-0.92334071620694691 0.281483771790481563 -0.865383879801050471)
(-0.948271569397752145 0.143724797666077792 -0.95670115138777656)
(-0.705025070142534904 0.255210664343408666 -0.804813134005391673)
(-1.0110876109931044 0.156671739828820711 -0.930658786749738232)
(-0.894243315912004677 0.547946652487944608 -0.786865275005311227)
(-0.9833787335902896 0.371900796857798754 -0.934559595331756809)
(-0.7692700674005577 0.398443279411901108 -0.857241571829594595)
(-0.948310311720899524 0.387937856561685668 -0.786428361777538276)
(-0.794367892646960727 0.951131557082699142 -0.717675884056886093)
(-0.936301079370611689 0.729513802911430753 -0.826730053671270393)
(-0.759476378613715086 0.685995317236601676 -0.821551049344503626)
(-0.825940023407287005 0.724710910063498082 -0.582039513815685083)
(-0.748986066671017858 1.38715247456802926 -0.905542344156300971)
(-0.880552644245526484 1.19070057158308362 -0.83948919015372736)
(-0.712760782581380314 1.13168842409280734 -0.806598535581775078)
(-0.79522768396339083 1.16368094898895658 -0.614241820352714019)
(-0.76049977436294991 1.58773553069833073 -1.38573616526276133)
(-0.814146000553610083 1.54253587236111578 -1.19516838692448868)
(-0.662034178207135282 1.56080074312684647 -1.02702487354849326)
(-0.796588919761860637 1.56123080447938678 -1.16121826798181793)
(-0.667898851450020925 1.33611529229054193 -1.72856187952337481)
(-0.659772256182046601 1.46761751236708715 -1.65332384761246565)
(-0.563936146883660006 1.5979618186723632 -1.48940990291403419)
(-0.670738426666788956 1.56701107716775567 -1.81486648858745658)
(-0.709121033844173576 0.936957475882492008 -1.54608682484824622)
(-0.71758837559929034 1.02327963863922156 -1.70527215909362662)
(-0.687277856363771034 1.13363444447308748 -1.6451427957219209)
(-0.668487904965364921 1.09862719673646803 -1.91614539870044909)
(-0.720803356139694151 0.870039650330485248 -0.873005163278350871)
(-0.800842906875404603 0.748473798391261713 -1.23274566069411606)
(-0.835184906723760778 0.86354285069778336 -1.23720078900975494)
(-0.731625067222851921 0.798784894529459333 -1.42983275900377249)
(-0.423701069178943068 1.09058442937835753 -0.0510638490510236451)
(-0.528135621437599845 0.891237412158488729 -0.411488934022122832)
(-0.627837782632247543 0.937391863113343216 -0.423301795118400881)
(-0.390455162496067598 1.03043482550792587 -0.359131261495082343)
(-0.190648360545411483 1.3995263513176075 0.340484394161121917)
(-0.427726617184912616 1.19280235914473076 0.338288958340045909)
(-0.416649673429227374 1.25891524800411903 0.274507142897846057)
(-0.401848653359627661 1.18251774329668113 0.377377059616139432)
(0.151764815204398856 1.53013051602348837 0.343681311914101395)
(0.102781958345561059 1.57366586579984102 0.312117130615529592)
(0.185473351546735277 1.56962086424541991 0.353516255450929684)
(-1.51194564265410336 -0.521544750965094783 -0.565709232563096798)
(-1.48836201015115432 -0.542424515555580578 -0.567012222252177067)
(-1.50976033467662596 -0.777406409412645494 -0.515092386172123828)
(-1.50246951323938349 -0.194253804723297119 -0.541431050227088595)
(-1.4449518620263897 -0.404484805499570665 -0.55624902448601854)
(-1.51032051537348844 -0.524800557438682147 -0.607731919317468283)
(-1.50043563767214128 -0.761615256315107958 -0.54802789205524971)
(-1.44879376469283039 -0.251360819574927397 -0.591254264993214984)
(-1.36696022637058312 -0.256046057670844207 -0.5341978778466413)
(-1.45493425569187118 -0.374806456777068919 -0.608192896913883341)
(-1.43458513247862274 -0.569813228249143044 -0.527836858417210286)
(-1.37603996094196579 -0.277363476628133099 -0.635486174885057764)
(-1.32253200581945229 -0.188240768123115354 -0.540287933794431074)
(-1.40973550835127059 -0.291279595366073174 -0.624127529674831205)
(-1.348067491080986 -0.315670146842535637 -0.467288405094307135)
(-1.3360083871837154 -0.319196321176309084 -0.690957001057191267)
(-1.2739149011120201 -0.173317157685596551 -0.582896319861331502)
(-1.35794719411290332 -0.303251857089549104 -0.652104312196599256)
(-1.23949529117417945 -0.100952485578511705 -0.383392372955117133)
(-1.29481775969900137 -0.346040240698827939 -0.748650698348393817)
(-1.15753774977974411 -0.123760563844959329 -0.678317044861429186)
(-1.28727233345178416 -0.297170434715565757 -0.694107670977807456)
(-1.12230808980122698 -0.0191902813939182799 -0.418863563912185155)
(-1.24376865533321723 -0.302506879464469081 -0.808039322848942199)
(-0.984784350315606627 -0.0112783457674567392 -0.839424460578104492)
(-1.17444052903882334 -0.215304593562484214 -0.785464546896000315)
(-0.955215852349726613 0.0399718474212313116 -0.595086751306708295)
(-1.1524789831034401 -0.176675016196810336 -0.918364376902752855)
(-0.967678853876763556 0.0876458034578285194 -0.984589873291277673)
(-1.08056240455968711 -0.033741256543025025 -0.953807563227810684)
(-0.797793465206005359 0.138785143022434221 -0.821565049584249474)
(-1.08508773221439192 0.00919603578643130026 -1.06744805329307213)
(-1.00366291645679695 0.238123385781441682 -1.02587686691848323)
(-1.08624804220437166 0.0936498192078681763 -1.0772972766782698)
(-0.799470498013621467 0.184492832203124763 -0.946703802491489776)
(-1.12665195927125161 0.0963071289588633001 -1.08284289195449013)
(-1.01784261150606148 0.546010455504639336 -0.974424373997716087)
(-1.08904869388012071 0.389130979816319389 -1.06870855048204927)
(-0.855089391890236472 0.387356651211280767 -0.991723227474661573)
(-1.08947714924244599 0.367298143324367887 -0.971450357112455531)
(-0.97619581115439813 0.963240185251223457 -0.948543359768112215)
(-1.09565265136660628 0.777742870634012484 -1.01095692507059409)
(-0.893413946283651561 0.694208734562196561 -0.970180256927674511)
(-1.03520410070791424 0.761584449605198777 -0.832068227879458999)
(-0.917516157355016349 1.3490689902759041 -1.12911523292191474)
(-1.05432935093627833 1.1817028825207605 -1.07008839859378702)
(-0.891817547599646265 1.12217213848192321 -0.980954325652545145)
(-1.01047122797727962 1.2091725538801894 -0.94026847930287849)
(-0.840665412046672778 1.43088169179159985 -1.46275606927420054)
(-0.938498762755650473 1.3924316381759605 -1.33496341738334934)
(-0.807833818234928946 1.46183184936289612 -1.17564988465602238)
(-0.932060128843664515 1.4878242492536331 -1.39901038257852628)
(-0.693480704204983867 1.15871513921545399 -1.63003412718271656)
(-0.731257147906055005 1.22213647322823893 -1.58355936044223178)
(-0.637387294295359785 1.36898314371806729 -1.44891364582667048)
(-0.698339563333901792 1.35621748469820447 -1.7926906196044019)
(-0.725025861957457662 0.821489020772283918 -1.39193099493950112)
(-0.75990179342404951 0.904622760657180947 -1.54459094416235643)
(-0.732351711424523821 1.0167736062099979 -1.48524544182312357)
(-0.692911274939914223 0.952870865019280644 -1.7541043290687941)
(-0.701701760183495504 0.757337082298076281 -0.771229431437878032)
(-0.782491859179016425 0.674544991790306137 -1.09445337009084676)
(-0.831296078469183963 0.796738311090342322 -1.11340792372460795)
(-0.733002439769908753 0.676317987634818207 -1.23794227112401733)
(-0.415658075968748209 0.99938688649209062 -0.0221361266310441326)
(-0.50977683397633955 0.780364794878310231 -0.324691014369095421)
(-0.617980749684779895 0.826486795039843569 -0.36893472107196984)
(-0.392730737582600187 0.90611793909862326 -0.30463618895340977)
(-0.20213850157512353 1.3292923879023304 0.341485876093024887)
(-0.442683640539881018 1.13801711549896134 0.348320232158435883)
(-0.43689020352539909 1.19145314135835334 0.278456322347777008)
(-0.420131309295367517 1.13396208879175941 0.382405452787364764)
(0.155524607018023064 1.44919140443904482 0.340275164030189758)
(0.104669949190708628 1.49606888603659249 0.309495436832932402)
(0.18904513703560466 1.49137041513803403 0.349755636451612173)
(-1.27135914142201734 0.0925828215325386616 -0.349392998979811409)
(-1.33635547527071963 0.295970049022471926 -0.128763884199055018)
(-1.3007911875417193 0.854919044962156871 -0.455982230469942629)
(-1.26703461819218721 0.595836255585919017 -0.236054734417201262)
(-1.39238380419900842 -0.448789961181026764 -0.515354729489787999)
(-1.28651045573759482 -0.494133429098730481 -0.42607446922938419)
(-1.41515580166615562 0.107296564320040658 -0.50382291438022786)
(-1.17431813246025429 -0.264986831025760705 -0.466078607586267346)
(-1.49136575251374248 -0.585140132667290924 -0.609034909006548664)
(-1.42278522823216291 -0.794063900880107143 -0.526201891757229645)
(-1.50644348181593268 -0.25464708830964522 -0.61613167000786051)
(-1.32627441559236803 -0.537899257721264235 -0.563544379344109947)
(-1.52610325808143155 -0.528479558529937998 -0.659675791745333084)
(-1.51752564158433945 -0.826574725259026977 -0.586157688816031808)
(-1.52853813883230716 -0.3891808293445288 -0.697183176556598894)
(-1.46706221662545766 -0.56294535201776541 -0.621843585218452954)
(-1.49334609471951985 -0.431723402089694785 -0.698122548742073468)
(-1.51074601034610168 -0.673542343361734464 -0.616618977327703988)
(-1.47625587440494677 -0.438650632017261233 -0.765404786279132554)
(-1.48187722764313068 -0.465577692663116049 -0.665797884989625999)
(-1.43759669300664372 -0.411850579120867588 -0.735943908077000941)
(-1.47916533855345866 -0.471323652247765179 -0.628421801308936656)
(-1.43405246866331604 -0.502860467299597991 -0.83027297749679696)
(-1.46055867516128024 -0.420079159396318902 -0.716985832666615863)
(-1.37774543082960266 -0.421895918513449208 -0.76331566331307632)
(-1.43487323503872521 -0.30601143579589285 -0.600769531557225012)
(-1.37335786247912051 -0.548850084639023406 -0.874724270205942789)
(-1.40165842924531825 -0.470154662821913372 -0.752678069782966364)
(-1.32043040284470692 -0.376142212010735666 -0.801255173012380917)
(-1.34910326536568936 -0.284678905952565231 -0.606285220707577954)
(-1.29919691642198587 -0.50445985915698266 -0.908452020677136929)
(-1.32247848777703481 -0.476910967071940806 -0.772920559135639507)
(-1.23445560397800613 -0.22798652791277782 -0.89984764954570895)
(-1.25984866017635855 -0.252425017909306382 -0.672982896121301355)
(-1.2512375471175734 -0.374168381493685864 -0.965429180623297412)
(-1.26068018356003986 -0.404512327748253464 -0.819023732038230867)
(-1.21621722775715169 -0.0443655785444320716 -1.04651496661480237)
(-1.1463777116696221 -0.10443107451946225 -0.846000565947412797)
(-1.24837827073891572 -0.101922804585804064 -1.09693385065772864)
(-1.21358758195757055 -0.168325306980291634 -0.944139716618300762)