/*--------------------------------*- C++ -*----------------------------------*\
| =========                 |                                                 |
| \\      /  F ield         | OpenFOAM: The Open Source CFD Toolbox           |
|  \\    /   O peration     | Version:  2206                                  |
|   \\  /    A nd           | Website:  www.openfoam.com                      |
|    \\/     M anipulation  |                                                 |
\*---------------------------------------------------------------------------*/
FoamFile
{
    version     2.0;
    format      ascii;
    arch        "LSB;label=32;scalar=64";
    class       surfaceScalarField;
    location    "0.179999999999999993";
    object      phi;
}
// * * * * * * * * * * * * * * * * * * * * * * * * * * * * * * * * * * * * * //

dimensions      [0 3 -1 0 0 0 0];

oriented        oriented;

internalField   nonuniform List<scalar> 
20856
(
-3.47242079898254103e-05
0.000118925645026608112
-4.6772604784492789e-05
-2.83634810694522074e-05
0.000129752367154073136
4.28505145133859687e-05
-4.75506155221866025e-05
-2.11948439140538262e-05
0.000138539250753164295
4.39453199771440921e-05
-4.79561889358370543e-05
-1.34178753035586892e-05
0.000144818905509033053
4.45592230234062865e-05
-4.79003213608998241e-05
-5.27234759429864854e-06
0.000148053350368360667
4.45735018283466538e-05
-4.7286184942995259e-05
2.77758420246569233e-06
0.000147580773649578936
4.38502091155368122e-05
-4.60356303091194756e-05
9.89372441880818218e-06
0.000142830120837278592
4.22037172797416605e-05
-4.40196206643192627e-05
1.51888213243345281e-05
0.000134073699592232685
3.95714042377137687e-05
-4.11852292261835392e-05
1.81741438610504382e-05
0.000122669524565288316
3.61499557702284259e-05
-3.7651205167787696e-05
1.88947212779097698e-05
0.000110441468073979297
3.23246856459579623e-05
-3.37085921734363479e-05
1.77702974832019896e-05
9.89459200642025686e-05
2.8524574229033396e-05
-2.97526652461816743e-05
1.53321548753240166e-05
8.91177743798341897e-05
2.50916217781477484e-05
-2.61438337549962536e-05
1.20440545489030213e-05
8.13314928400786003e-05
2.22372158270866415e-05
-2.31251873169103447e-05
8.24552010073907748e-06
7.56296001448796104e-05
2.00653982225593779e-05
-2.08221411792459382e-05
4.16647884446128966e-06
7.19221809297143465e-05
1.86157482843843833e-05
-1.92836734004145436e-05
6.99109308440491116e-05
1.78218057377564539e-05
-1.8441516771299789e-05
-3.20087779864764794e-05
0.000118613280624289781
3.89221195461105369e-05
-4.36673124274062596e-05
-2.61105061331865254e-05
0.000127987520246438898
3.98590927265924963e-05
-4.39911179997817456e-05
-1.95628514325971493e-05
0.000135515716795961216
4.0489446647040064e-05
-4.40122760584395811e-05
-1.25613511582740039e-05
0.000140755080857006966
4.07106239732206622e-05
-4.36473783297438393e-05
-5.35701428038201339e-06
0.000143247959156870159
4.04217254043120832e-05
-4.28201817809200692e-05
1.64070594597297498e-06
0.000142535235942418221
3.95245814778593689e-05
-4.14766453231723751e-05
7.79163287262277408e-06
0.000138309217834543243
3.79110154773114932e-05
-3.95412057970223946e-05
1.24374774528973779e-05
0.000130859492441210979
3.5560057420498774e-05
-3.69920699002299194e-05
1.51977792169126166e-05
0.000121215238804990848
3.26236429542172405e-05
-3.39301739241713927e-05
1.60684954768556325e-05
0.00011076050077848883
2.93836018154716395e-05
-3.05739371193015311e-05
1.53334840030895063e-05
0.000100737905606158959
2.6160532723669831e-05
-2.72180985708955553e-05
1.3390703908633854e-05
9.19761009382002098e-05
2.32246093139503114e-05
-2.41406985515866375e-05
1.0618146716754191e-05
8.48886593071994703e-05
2.07581144135438011e-05
-2.15431832277358439e-05
7.31734833557544529e-06
7.96095122676789219e-05
1.88635204195768366e-05
-1.95430012318634838e-05
3.71131612570466565e-06
7.61351335613790267e-05
1.75895906654116864e-05
-1.8196800509750921e-05
7.4189863691966461e-05
1.68855577928812691e-05
-1.74533749502451995e-05
-2.96283815809538612e-05
0.000118049261878243152
3.64949576306491629e-05
-4.07139063855828549e-05
-2.41725330344736307e-05
0.000126194624509919681
3.70069831155474371e-05
-4.06683041196237213e-05
-1.81995844850752882e-05
0.00013266131807679473
3.72688858822125266e-05
-4.03859967258073248e-05
-1.18934326388019059e-05
0.000137051398286695982
3.71913879563178179e-05
-3.97927911510342533e-05
-5.49791245874244089e-06
0.000138988689513521466
3.6691455751346579e-05
-3.88270652957993726e-05
6.32444413191515987e-07
0.000138156547080585813
3.56973719394328869e-05
-3.74487870351163706e-05
5.99932913984455138e-06
0.00013440871213206697
3.41470057894475992e-05
-3.56134564168272919e-05
1.01046742481796614e-05
0.000128029541771118978
3.20416685888925222e-05
-3.33173887448252095e-05
1.26501629217926705e-05
0.000119815367461104029
2.94999239437742283e-05
-3.0646045793802904e-05
1.36063106486224991e-05
0.000110837377661287371
2.67332177565042444e-05
-2.77668439278186104e-05
1.31659039192478054e-05
0.000102095934921484242
2.39840287685055622e-05
-2.49022687624637814e-05
1.16286903800933485e-05
9.43146778327404764e-05
2.1466242396345523e-05
-2.22681713390477142e-05
9.30207587792963804e-06
8.79106532178013052e-05
1.93345697346665099e-05
-2.0030420600981767e-05
6.4502597887027749e-06
8.30711635126832565e-05
1.76847091058344644e-05
-1.82949104463961352e-05
3.28360062421248492e-06
7.98527176403586041e-05
1.656853498266843e-05
-1.71197389829011811e-05
7.79919400362352738e-05
1.59467812215356119e-05
-1.64654471110249979e-05
-2.75592773757897679e-05
0.000117295568473912266
3.41197011131614002e-05
-3.78761564934360632e-05
-2.25133231731271644e-05
0.000124398969939167568
3.42957244672805348e-05
-3.75442552852408955e-05
-1.70615469452841427e-05
0.000129972837321023289
3.4272401222277407e-05
-3.70341594469360941e-05
-1.1371975888510613e-05
0.000133670761639028606
3.39737334310184208e-05
-3.62814898653536513e-05
-5.67081846486458436e-06
0.000135191640329623526
3.33318273748791223e-05
-3.5235164544618447e-05
-2.6210210173659287e-07
0.000134318462848584841
3.22934037410243884e-05
-3.38636572387223327e-05
4.4606847506222146e-06
0.000131003289887817262
3.0823645286632965e-05
-3.21409810507565291e-05
8.11399853465557695e-06
0.000125514136860903759
2.89347971259183065e-05
-3.00729634536541807e-05
1.04608865712958607e-05
0.00011847882315429764
2.67201703003666855e-05
-2.77309773036840626e-05
1.14604823237883312e-05
0.000110741426478595741
2.43414582746402678e-05
-2.52456797891061466e-05
1.12445440900868812e-05
0.000103114103408071794
2.19843685586382169e-05
-2.27871976190366207e-05
1.00406241958803864e-05
9.62235666690582249e-05
1.98189358081552971e-05
-2.05244500172768527e-05
8.09902929303302766e-06
9.04702356239659556e-05
1.79752443178991941e-05
-1.85936777221643513e-05
5.64950145921788585e-06
8.60686958267558233e-05
1.65398138618609122e-05
-1.70881539389934525e-05
2.8869237819896441e-06
8.31149974380791161e-05
1.55638484636897687e-05
-1.60637964659186136e-05
8.13519534707642707e-05
1.50160660742227566e-05
-1.54893189548647715e-05
-3.72180915535134363e-05
9.31016587660681732e-05
3.19521252471379732e-05
-3.67230633022894295e-05
-3.38030695658658189e-05
0.000101276480747767127
3.18485856825145486e-05
-3.6135878078134277e-05
-3.00010445575992074e-05
0.00010914250537756096
3.18279059128423938e-05
-3.5639996223301839e-05
-2.5752796462223661e-05
0.000116387694776671425
3.18170261889136514e-05
-3.51555009426332251e-05
-2.10841499687257788e-05
0.000122609961164601744
3.17320489630422461e-05
-3.46098364274027425e-05
-1.61021355696414802e-05
0.000127436344187658305
3.14926388880517387e-05
-3.3936555482269579e-05
-1.09574688116063555e-05
0.000130572615790187284
3.10343789472625003e-05
-3.30796416143040988e-05
-5.85369037065678e-06
0.0001317828204289197
3.03018080513084858e-05
-3.19959030988911284e-05
-1.05154558506944621e-06
0.000130921218951082432
2.92547548020462421e-05
-3.06591883020302243e-05
3.13527240026750498e-06
0.000127997153492103713
2.78741826828004372e-05
-2.90547634865392355e-05
6.40778675594040499e-06
0.000123257249364658523
2.6176961223862592e-05
-2.71927936186524096e-05
8.57386525045582668e-06
0.000117207045972090288
2.42371785616874141e-05
-2.51319058164908867e-05
9.58971206417455358e-06
0.000110520590779223277
2.21800628548700864e-05
-2.29756200449802638e-05
9.54602780860451284e-06
0.000103863206404651256
2.01496347985867494e-05
-2.08556214938080125e-05
8.61718658002782617e-06
9.77753619662371804e-05
1.82817660382752695e-05
-1.89052315445421925e-05
7.00776020759693993e-06
9.26303437015204634e-05
1.66852481100096157e-05
-1.72363391503481784e-05
4.91686591108996083e-06
8.86524980259244868e-05
1.54366765673888705e-05
-1.59298827382512118e-05
2.52302785140986711e-06
8.59618908679345292e-05
1.45843969731491646e-05
-1.50376621851941293e-05
8.4306143335508219e-05
1.41029462831687988e-05
-1.45342434391356678e-05
-3.51396836767273765e-05
9.4270379352588422e-05
3.0440208030539433e-05
-3.47582951339459026e-05
-3.18026799896932268e-05
0.000101786296497161422
3.01007161641487833e-05
-3.39462168682767309e-05
-2.81620174181034576e-05
0.000108898556474741571
2.98431159404913642e-05
-3.32380788034545481e-05
-2.4168374615414657e-05
0.000115355344028352677
2.96069071155659348e-05
-3.25662431409891128e-05
-1.9846403125218092e-05
0.000120833832501251068
2.93228331470289413e-05
-3.18668257217545852e-05
-1.52861937889875076e-05
0.000125036904755052996
2.89231198778060028e-05
-3.10822753398246147e-05
-1.06223003346463764e-05
0.000127720114537730161
2.83533626195722626e-05
-3.01634692282800535e-05
-6.03461703869846842e-06
0.000128701305811371452
2.75679878915484983e-05
-2.9073251691885081e-05
-1.74550565005291713e-06
0.000127885800972342976
2.6536057857433181e-05
-2.77892387591134672e-05
1.99194063234087268e-06
0.000125315622214538006
2.52473585760696451e-05
-2.6303130846995811e-05
4.94064195192505739e-06
0.0001212149878995899
2.37199900704171075e-05
-2.46265979229687166e-05
6.94370322862075356e-06
0.000115997729578354525
2.20132009171324601e-05
-2.28073350491281041e-05
7.95845418133057984e-06
0.000110208519181776793
2.02248593681896516e-05
-2.09280452885339299e-05
8.04782691410864665e-06
0.000104397193563631781
1.84680310410485361e-05
-1.90919155465343384e-05
7.34694719653430289e-06
9.90289632170376531e-05
1.68518898723111686e-05
-1.74050774868079859e-05
6.02397269638583484e-06
9.44453214790538483e-05
1.54671686759258264e-05
-1.59595371333216101e-05
4.25122734372805005e-06
9.0869108104800448e-05
1.43807204593868933e-05
-1.48248432706565746e-05
2.18977123707545194e-06
8.84340937260520395e-05
1.36368669884187129e-05
-1.40477884250112277e-05
8.68886406460826234e-05
1.32143270835926553e-05
-1.36071623754739644e-05
-3.93855026597719364e-05
3.02924508496619799e-05
-3.51956782259105097e-05
8.035418277389576e-05
-3.62951920764070568e-05
2.95174062512803463e-05
-3.38898740013978731e-05
8.78160948584615677e-05
-3.32031504254159254e-05
2.8870118948340733e-05
-3.27537819316727071e-05
9.50627614408631398e-05
-2.99705979217495261e-05
2.83417004791428553e-05
-3.17729487251233644e-05
0.000101986315974909576
-2.65002054605094495e-05
2.78985311460397579e-05
-3.09084246375420713e-05
0.000108439717843275663
-2.27528843095473095e-05
2.74892156543177208e-05
-3.01027638180509709e-05
0.000114223312882549141
-1.87511308278974933e-05
2.70562011472490847e-05
-2.92976597126783059e-05
0.000119075192596552321
-1.45721923875224089e-05
2.65410442066681948e-05
-2.84429368330947763e-05
0.000122761312105176839
-1.03351396737817434e-05
2.58977432861932446e-05
-2.74950795413569166e-05
0.000125081563145271006
-6.19702074932319464e-06
2.50883001406963145e-05
-2.64214603770750073e-05
0.000125897172992827614
-2.34707822919687296e-06
2.40882416440471729e-05
-2.52024272495803128e-05
0.000125150515789964646
1.00856256978712233e-06
2.28918204976290626e-05
-2.3832840749245561e-05
0.000122901139250982891
3.67891132623245998e-06
2.15168002300123054e-05
-2.2324492197588742e-05
0.000119352190868202582
5.53496896328511268e-06
2.00107373717177213e-05
-2.07159628702041796e-05
0.000114846564728221615
6.53744573017219412e-06
1.84502290197371121e-05
-1.90732473091208362e-05
0.000109828631729590466
6.73013758710459525e-06
1.69250658263848582e-05
-1.74780846472010368e-05
0.000104757083588897075
6.21888723861659801e-06
1.55233642000903166e-05
-1.60155516316190947e-05
0.000100032020965184999
5.14283362826472885e-06
1.43207184048555323e-05
-1.47614523056990691e-05
9.59618190000949679e-05
3.65189109285334124e-06
1.33749596001276926e-05
-1.37752154073039946e-05
9.27601081371200533e-05
1.89642823102671561e-06
1.27259878632071287e-05
-1.30984755297170342e-05
9.05619145482365145e-05
1.23562806232200163e-05
-1.27138539828508705e-05
8.91425632419630469e-05
-2.72059776359527168e-05
0.000118152466868306388
3.84191719088326002e-05
-2.05118689640080194e-05
0.000124979285024949847
3.98094491732996946e-05
-1.33438124852542051e-05
0.00012960177635305733
4.0699186110381356e-05
-5.95880439267347025e-06
0.000131546595412381661
4.09506209463683925e-05
1.17069253083585156e-06
0.000130289708746228873
4.03901817142466614e-05
7.31757982151472287e-06
0.000125570841710314328
3.88523136363550802e-05
1.18221503166283018e-05
0.000117888014592098939
3.63500766179459788e-05
1.43882629595222466e-05
0.000108435799454789316
3.31408620998674029e-05
1.51127752796722174e-05
9.85941334349077882e-05
2.96184611922036217e-05
1.43377872120625296e-05
8.94486470907094271e-05
2.61670142516716053e-05
1.2468131885328933e-05
8.16334985101199934e-05
2.30724213424150208e-05
9.85954445262151307e-06
7.54105061910674535e-05
2.05066990289993709e-05
6.7843424498065538e-06
7.08224087078584714e-05
1.8555030878793579e-05
3.44033643021045309e-06
6.78199426322953491e-05
1.72509945994244051e-05
6.61666390091875133e-05
1.65402734996272672e-05
-3.10231817319560262e-05
0.000109118712729602233
3.4463908962348381e-05
-2.5424025710586281e-05
0.000116722310187224564
3.56920214524887686e-05
-1.92877272155970262e-05
0.000122720093812635439
3.66139258988392512e-05
-1.28026238140870735e-05
0.000126716113208173085
3.71122523599066667e-05
-6.22316295727071022e-06
0.000128318112634123044
3.70713320618194523e-05
5.45137540256191355e-08
0.00012716623077158772
3.63705722522795379e-05
5.47607997294038419e-06
0.000123145158884219435
3.49150161989442316e-05
9.53536082411319027e-06
0.000116660330442709285
3.27281243257136398e-05
1.19838525233225633e-05
0.000108612814337847314
2.99976590025165318e-05
1.28587262910115357e-05
0.000100086675415019463
2.70156428883717914e-05
1.23989218996997923e-05
9.19915462022879147e-05
2.40768951200791645e-05
1.0917970048868142e-05
8.49230268987812573e-05
2.14155396211843836e-05
8.7144492943281586e-06
7.91860801515557861e-05
1.91856444721555942e-05
6.03472755240481907e-06
7.48914321055608036e-05
1.74738808029350271e-05
3.07096820256784916e-06
7.20507411378418287e-05
1.63222741819675156e-05
7.04340056583289048e-05
1.56889676775687305e-05
-2.90833354186053383e-05
0.000108649148350852134
3.2311867024154921e-05
-2.38748557055294774e-05
0.000115406176506625626
3.31168576646774233e-05
-1.82443273093742418e-05
0.000120692852829074832
3.36673758962644746e-05
-1.23647893115513156e-05
0.000124164575750205662
3.38646428471650599e-05
-6.47204817906587672e-06
0.000125502981910780866
3.36146034429362861e-05
-9.02708713725977968e-07
0.000124462877120793384
3.28317148126417268e-05
3.91329016541753651e-06
0.000121013800453932929
3.14623422092091964e-05
7.58468575114884071e-06
0.000115495690345947865
2.95346242451177408e-05
9.90095662584531627e-06
0.000108606731689853681
2.71892721863733344e-05
1.08667396888157228e-05
0.000101207429872598667
2.46461326954056694e-05
1.06496452099459389e-05
9.40589069539402126e-05
2.21332114552545443e-05
9.49290740518081174e-06
8.77042089140011964e-05
1.98413029713741158e-05
7.64566156613494001e-06
8.24623799645407448e-05
1.79051070946707768e-05
5.3275556935873205e-06
7.84862923204755313e-05
1.64076341010163987e-05
2.72064360906769821e-06
7.58316298770547834e-05
1.53943036704930639e-05
7.42685736133986431e-05
1.48326853510760307e-05
-2.7364212678271442e-05
0.000108135545830097233
3.02252907994083634e-05
-2.25148928222590784e-05
0.000114162177027722853
3.06927233238692693e-05
-1.73408003914350347e-05
0.000118841364942697897
3.09516754473056129e-05
-1.19971063908077395e-05
0.000121875894349223783
3.0920095899902984e-05
-6.6965112897522914e-06
0.00012301262616109458
3.05224685623647609e-05
-1.72374181170483841e-06
0.000122086655891573621
2.96972893671596186e-05
2.58199447965901365e-06
0.000119116823001684749
2.84149405203525098e-05
5.91360253818079421e-06
0.000114393994844421822
2.67046451543207004e-05
8.09399948930345387e-06
0.000108471971865124563
2.46741002439362983e-05
9.11022959912558274e-06
0.000102041151467585349
2.24909817353884855e-05
9.08043588635908211e-06
9.57393983128535246e-05
2.0333143350408624e-05
8.19413931953777872e-06
9.00531728281976217e-05
1.83558018969285825e-05
6.65883409759460443e-06
8.52976404910639604e-05
1.66749145044973061e-05
4.66860560564293144e-06
8.16489830456985428e-05
1.53670685819476944e-05
2.39311003248941011e-06
7.9193027663760848e-05
1.44777300648663395e-05
7.76967153482680846e-05
1.39808926357709058e-05
-3.73050132213699991e-05
8.71333567205927558e-05
2.7454407976272179e-05
-3.38117801892770802e-05
9.43464112159759512e-05
2.76609239950773464e-05
-3.00020452181334928e-05
0.000101242322795222481
2.79372548301713082e-05
-2.58268713977989125e-05
0.000107562098635323878
2.82178299200342976e-05
-2.1310183351088077e-05
0.000112961809182212587
2.8418063007778314e-05
-1.65485417339815212e-05
0.000117123966650426706
2.84503095665598154e-05
-1.16798631207979726e-05
0.000119795927610061694
2.82471006731465997e-05
-6.89284823584214562e-06
0.000120780418816544006
2.77479486843972279e-05
-2.42791629492394788e-06
0.000119969003766729336
2.69079710226984683e-05
1.44369336482077186e-06
0.000117408190662145548
2.57113098416597533e-05
4.47741233705200599e-06
0.000113350791096510827
2.41862460561284059e-05
6.52467426670761642e-06
0.000108244933217034142
2.2416556828282695e-05
7.5640028002161534e-06
0.000102649948774321056
2.05314475094580423e-05
7.67912447123535682e-06
9.71024751022762526e-05
1.86709478498184283e-05
7.01867281758633336e-06
9.20336192867413316e-05
1.69613471047353376e-05
5.75566808219441424e-06
8.77440940615895775e-05
1.55014682330255397e-05
4.06083772193753765e-06
8.44200031990289678e-05
1.43602457865799465e-05
2.09084077473607698e-06
8.21661151359198943e-05
1.35811296318064447e-05
8.07476779681113162e-05
1.31427119067539696e-05
-3.54670831378708869e-05
8.80780071556682353e-05
2.62326155474757318e-05
-3.20522188457675414e-05
9.48242864494247935e-05
2.62101846182062357e-05
-2.8392842499041372e-05
0.000101177587785897805
2.62508830034639614e-05
-2.44462061652895007e-05
0.000106924268344433854
2.63006139007117858e-05
-2.02378309467460859e-05
0.000111787230190902193
2.62913015173863415e-05
-1.58486340832661194e-05
0.000115510542119691108
2.61492291147684171e-05
-1.14014942311283449e-05
0.000117884038355913848
2.58195446818877664e-05
-7.06168304153972291e-06
0.000118756126636073589
2.52534357848621285e-05
-3.0323525086942613e-06
0.000118058655058316374
2.44176005030307139e-05
4.67413804474150048e-07
0.000115852394469554963
2.33035271811317128e-05
3.24001496458919778e-06
0.000112360122398628913
2.19378971940852744e-05
5.16057916710670128e-06
0.000107950393841019945
2.03868235692508256e-05
6.20476294710490993e-06
0.000103080008150694782
1.87501786530532022e-05
6.4322738829820061e-06
9.82030275407665099e-05
1.71395343497204023e-05
5.96071362403621556e-06
9.36989201129051209e-05
1.56577794018480396e-05
4.93487135614847199e-06
8.98482340731467544e-05
1.43885894729608391e-05
3.50451024351344518e-06
8.68379323899559153e-05
1.3392954531253233e-05
1.81182580329582738e-06
8.47843902476646074e-05
1.27111367125139842e-05
8.34486545430529009e-05
1.23250901676898698e-05
-4.01406957892451677e-05
2.56679476099679348e-05
7.53055553501081021e-05
-3.6929152163859839e-05
2.5266573303025731e-05
8.21424105820241094e-05
-3.37230485339603273e-05
2.49638627687005492e-05
8.8779694597452687e-05
-3.04087822442867483e-05
2.47526917820489181e-05
9.51009674624511285e-05
-2.69073484509761437e-05
2.46031111511323805e-05
0.00010097364552532911
-2.31832329407286379e-05
2.44697292495246812e-05
0.000106221681292985635
-1.92618073649282227e-05
2.42974056659420321e-05
0.000110626448221031885
-1.52116773358898505e-05
2.40237719124921236e-05
0.000113979231925130469
-1.11415015334560454e-05
2.36036590317821197e-05
0.000116109132617959917
-7.19469419390823396e-06
2.29973121297447803e-05
0.000116901112526346488
-3.54294829476492544e-06
2.21794454003530155e-05
0.000116316148151327878
-3.65766054507985833e-07
2.1145569191282755e-05
0.000114421593733193532
2.17593504816109876e-06
1.99195723866588292e-05
0.000111415542477837651
3.97762605237165931e-06
1.85543184545979703e-05
0.000107604868841694074
5.01413132193580496e-06
1.71276714810555363e-05
0.000103365748127871865
5.32860645104635632e-06
1.57288274890618497e-05
9.90844877896510399e-05
5.01497452973133977e-06
1.44418951733877606e-05
9.50937697506879057e-05
4.19500141210941559e-06
1.33374512861492899e-05
9.16512897744496685e-05
3.00069021783592782e-06
1.24688457688712081e-05
8.89382327153288811e-05
1.56644087729710093e-06
1.18726665005723544e-05
8.70718751401223368e-05
1.15339907080901275e-05
8.58373370594941239e-05
-2.57350749584665952e-05
0.000107302552024321433
3.38545892611094351e-05
-1.9553361839283424e-05
0.000112203581560718768
3.51887291158227601e-05
-1.30434444210170233e-05
0.00011522164315161027
3.60231995574044321e-05
-6.48854159281940941e-06
0.000115956088406874255
3.62048316255281065e-05
-3.37060269296457612e-07
0.000114095604171154794
3.55800089957659799e-05
4.85679665959849451e-06
0.000109686771541462385
3.40699162809182408e-05
8.65638013420690471e-06
0.000103284956130242806
3.17629058564382325e-05
1.08991741444514584e-05
9.57910040350161819e-05
2.8913921589785367e-05
1.16792627928083505e-05
8.81498293175200245e-05
2.58582713092431131e-05
1.12474616881592263e-05
8.1078528487042877e-05
2.28987603819669891e-05
9.89822054523899864e-06
7.5006728693302469e-05
2.02563724377803507e-05
7.90035886759728758e-06
7.01305385670560451e-05
1.80658879461204373e-05
5.47284160222291394e-06
6.65028609801843315e-05
1.63968788786833484e-05
2.78736954509372054e-06
6.41101557501252614e-05
1.52789924634991074e-05
6.27662300755653179e-05
1.46761893716387042e-05
-2.97624233997772515e-05
0.000100560547568280336
3.00240040287913344e-05
-2.44598597155083586e-05
0.000106430234977445917
3.1263912939847948e-05
-1.87531444132905147e-05
0.000110909942963573929
3.2202517258770214e-05
-1.281665712930387e-05
0.000113676001531372835
3.27225165493389024e-05
-6.90531279517191097e-06
0.000114413378411777747
3.27033388532743736e-05
-1.38525794151265812e-06
0.00011290857086089707
3.20378263305148695e-05
3.3117397699069035e-06
0.000109224559274159031
3.06802328650566554e-05
6.83408726186972812e-06
0.000103791815990910064
2.86987293615167582e-05
9.0257635468744486e-06
9.73155517668959256e-05
2.62811320149980624e-05
9.93399379765312459e-06
9.05738914978814998e-05
2.36829943187895542e-05
9.74183270717378724e-06
8.42015161162489029e-05
2.1145706390258104e-05
8.68573523906842856e-06
7.86212169999399269e-05
1.88568104264069629e-05
6.9973714925980447e-06
7.40638664098011208e-05
1.69403782690184173e-05
4.87750193663585125e-06
7.06283990275612529e-05
1.54679441647667243e-05
2.49245738324210018e-06
6.83416154804145743e-05
1.44756133680375771e-05
6.7011502874212892e-05
1.39359739043948345e-05
-2.82625803488486708e-05
0.000100322488793136045
2.80171965533483276e-05
-2.33013820127345417e-05
0.000105699680944384516
2.8888620963184215e-05
-1.80267158221299371e-05
0.000109795347322717016
2.95091556728433344e-05
-1.25987645076374775e-05
0.000112332386996675843
2.97815890432002756e-05
-7.24288784050345317e-06
0.000113061416039026411
2.96114761976260549e-05
-2.26277088943126886e-06
0.000111837653122472114
2.89228967237450652e-05
1.99960255750817757e-06
0.000108734302349387137
2.76902909388558122e-05
5.25963862733196073e-06
0.000104097582951733208
2.59686610570464536e-05
7.37512375876049404e-06
9.84899451695235784e-05
2.38990953769368572e-05
8.36459766745301062e-06
9.25524765392672389e-05
2.16777133440721555e-05
8.36157120733155831e-06
8.68402507963533864e-05
1.94971386906143043e-05
7.55548938164212492e-06
8.17535569417306097e-05
1.7514711953677533e-05
6.14445096493275585e-06
7.75382515855297955e-05
1.58414725195309692e-05
4.31003205562292174e-06
7.43233795479999895e-05
1.45468253794578104e-05
2.21010920097713355e-06
7.21659847373860733e-05
1.36696361091029704e-05
7.08653671299908165e-05
1.31887725541002989e-05
-2.68883209502260457e-05
0.000100110933357150142
2.61296075085819127e-05
-2.22416517639621664e-05
0.000105045240705668649
2.67029501020163888e-05
-1.73594061074983082e-05
0.000108798105580851093
2.7068591499423913e-05
-1.23839236838184496e-05
0.000111131133892397986
2.7147237548929003e-05
-7.51286753643163917e-06
0.000111848665183095539
2.68650353937248512e-05
-2.99986456971146826e-06
0.000110854979449596195
2.61674086725814378e-05
8.80991759770597519e-07
0.000108228095961308935
2.50404020662433166e-05
3.89753309593926196e-06
0.000104255170658142413
2.35303846225470143e-05
5.92344313232383264e-06
9.93926045600415138e-05
2.17452519791299268e-05
6.960555775533846e-06
9.41702788910818878e-05
1.98357249354674487e-05
7.10631577104986459e-06
8.90708470312397978e-05
1.79564458332640603e-05
6.5126642987277218e-06
8.44642775703402168e-05
1.62384295468560408e-05
5.34835366742575271e-06
8.05980457532860236e-05
1.47791782603870003e-05
3.77613958220074888e-06
7.76188941910905313e-05
1.36435592005031854e-05
1.94364377464096644e-06
7.56054095301702248e-05
1.28706192694339134e-05
7.4346161105019417e-05
1.2443615055371057e-05
-3.70882599025821301e-05
8.22754556124103288e-05
2.31397464130730797e-05
-3.35277889225060036e-05
8.85638329563493337e-05
2.3512686855845015e-05
-2.97170932959637553e-05
9.45035802841780084e-05
2.39369438767244154e-05
-2.56216963503342887e-05
9.98830504082937016e-05
2.43530368568638392e-05
-2.1268206149156702e-05
0.000104425595794662755
2.4686647958809106e-05
-1.67428531790426158e-05
0.000107876039118840649
2.48489507176205519e-05
-1.21713721380305343e-05
0.000110030736408525849
2.47774221613002685e-05
-7.72621201601977504e-06
0.000110738692735408393
2.44136760316462697e-05
-3.62020669779360182e-06
0.000109939533194064264
2.3717900827785613e-05
-7.52202807111947147e-08
0.00010771172000116741
2.26828455648516345e-05
2.71791222343248807e-06
0.000104300066738281257
2.1348116842299253e-05
4.64864188636851138e-06
0.000100080558712757107
1.97976251757925843e-05
5.70957202793823701e-06
9.54927192347545715e-05
1.81477694696990997e-05
5.97208616265247494e-06
9.09557697696669257e-05
1.65232080152181123e-05
5.55852854514312815e-06
8.68063127105261835e-05
1.50326075433607918e-05
4.61256426057996097e-06
8.3284799278750374e-05
1.37604682376190308e-05
3.27936617978459532e-06
8.05462916412238636e-05
1.27658787525438172e-05
1.69600057600703156e-06
7.86833910862565921e-05
1.20863716090938528e-05
7.74766711610340995e-05
1.17081049774734494e-05
-3.54806738995837456e-05
8.30481779598865952e-05
2.21045467262033355e-05
-3.20050470486733639e-05
8.90316914168627643e-05
2.22694276513779328e-05
-2.83402896451166576e-05
9.46138556570653674e-05
2.24785543497683806e-05
-2.44528950151981468e-05
9.96172544109929831e-05
2.26817062458795528e-05
-2.03730202869651616e-05
0.000103814613581200448
2.2824753416569794e-05
-1.61721430235750935e-05
0.000107000475460094431
2.28258034350819453e-05
-1.19622126783501965e-05
0.000109002310727113308
2.26394402653668113e-05
-7.89269394536269379e-06
0.000109705383269372356
2.22181577499050743e-05
-4.14222042553312995e-06
0.00010907473272778122
2.15324444041446923e-05
-8.94405996345072336e-07
0.000107188415975333407
2.05791991761844844e-05
1.69464700526454193e-06
0.0001042571425926494
1.93917108091924551e-05
3.5304446579314599e-06
0.000100595244413884214
1.80361410208079747e-05
4.59854682734468802e-06
9.65708549479932791e-05
1.66036853292336739e-05
4.95247208938237893e-06
9.25464429610880888e-05
1.51946855565659655e-05
4.69140052623292738e-06
8.88257168782769055e-05
1.38992348727249849e-05
3.93786621443669511e-06
8.56368618140437041e-05
1.27898962165914915e-05
2.82090987691858076e-06
8.31365637225311776e-05
1.19195121838931003e-05
1.46552359759323237e-06
8.14267273661374976e-05
1.13230821267689439e-05
8.02785560059544591e-05
1.09886590203803783e-05
-4.05275048964659176e-05
2.12816875330379635e-05
7.14141661105236424e-05
-3.72213541285775922e-05
2.11279757509368967e-05
7.76428903219200022e-05
-3.39274175168774781e-05
2.10503809259353838e-05
8.36698295280477482e-05
-3.05537015034730851e-05
2.10410004526580567e-05
8.93719860724054597e-05
-2.70393364949567865e-05
2.1073388053663953e-05
9.46315012309545102e-05
-2.33552168196164017e-05
2.1106412178607442e-05
9.92986082925323763e-05
-1.95310434773411357e-05
2.10923406122136327e-05
0.000103197389928372517
-1.56280644496924296e-05
2.09705674851055896e-05
0.000106152233384145542
-1.17445708237821001e-05
2.06983894882999266e-05
0.000108025236635320439
-8.00956379569337651e-06
2.02390446167181778e-05
0.000108729422649013507
-4.57368345641575263e-06
1.95703640138574384e-05
0.000108248385333891529
-1.58987493918842974e-06
1.86915729212808018e-05
0.000106658794174598095
8.13463220336055994e-07
1.76300921014266192e-05
0.000104143291909552922
2.55539829995561918e-06
1.6439074667055426e-05
0.000100968454747899479
3.61831441651317865e-06
1.51905986023745763e-05
9.74448725883331028e-05
4.04300814978556027e-06
1.39651082001894555e-05
9.38853323626804816e-05
3.9103881573890363e-06
1.28375146822659489e-05
9.05626056887966349e-05
3.3253356679550458e-06
1.18697277800642623e-05
8.76895541938596469e-05
2.4031287402292558e-06
1.11084101442534523e-05
8.54191433896187718e-05
1.26342755896261278e-06
1.05855997580668149e-05
8.38534417396358896e-05
1.02915802983413333e-05
8.27843634764457856e-05
-2.96918900888577868e-05
9.22583592715628544e-05