/*--------------------------------*- C++ -*----------------------------------*\
| =========                 |                                                 |
| \\      /  F ield         | OpenFOAM: The Open Source CFD Toolbox           |
|  \\    /   O peration     | Version:  2206                                  |
|   \\  /    A nd           | Website:  www.openfoam.com                      |
|    \\/     M anipulation  |                                                 |
\*---------------------------------------------------------------------------*/
FoamFile
{
    version     2.0;
    format      ascii;
    arch        "LSB;label=32;scalar=64";
    class       volScalarField;
    location    "0.270000000000000018";
    object      alpha.water;
}
// * * * * * * * * * * * * * * * * * * * * * * * * * * * * * * * * * * * * * //

dimensions      [0 0 0 0 0 0 0];

internalField   nonuniform List<scalar> 
7248
(
0.0332745609223559224
0.756256924793075491
0.0055515400796365957
0.622041632773775666
0.000915513328605915551
0.000749109146354347884
0.00129738310486718724
0.00176311984752001039
0.255829844188027344
0.00116229064739876769
0.0006739655499384818
0.000782703134008992316
0.00227283112097645314
0.00727798500003083281
0.00101749414585404095
4.6953301802336983e-05
0.00058283480099898075
0.00277158797910686313
0.000639828478747676431
4.16030637162775066e-06
1.17924013536558899e-05
0.00014475254958565666
0.000263492398634068508
0.000339340390654044636
1.71178810418582199e-06
8.85489264081223779e-06
4.0667623082448452e-05
6.15992111482851671e-05
9.8100804005199141e-05
9.33015465144797304e-07
4.57864077709030101e-06
1.53479314361702927e-05
4.23333571951335679e-05
0.000723898975246212184
5.37052350208644183e-07
2.02375890490101479e-06
1.38149151092058673e-05
5.90421062041422771e-05
0.000146200593987806698
1.12419838859136894e-07
7.41209971898509527e-07
6.11681523494970057e-06
4.58142328471903328e-05
9.20423639348574808e-05
2.47079795560452952e-08
2.71721655163209401e-07
2.22319056954638934e-06
6.92003079263133402e-06
2.94544829429879919e-05
8.94305183155654932e-09
8.28503403584049649e-08
4.9409677772900496e-07
3.454944943623829e-06
3.81587614687230468e-05
4.67222421998933418e-14
4.239834704349271e-11
5.92100148729559249e-10
6.17892390032120002e-09
6.03750061320087e-08
6.42180480936102053e-07
3.69174919711282246e-06
-2.64181759742675983e-15
3.14351110626636073e-14
4.98582473504866981e-12
7.42921662610178304e-11
9.11676745546733376e-10
1.66986586074732392e-08
1.77342127783783526e-07
-1.12850444124111338e-18
-6.51377526656822999e-18
7.20848677164541314e-19
7.01704093942437215e-17
5.47314756673780284e-15
3.3810404593105031e-13
1.83398229024678604e-11
-3.75283015766060573e-19
-7.86895585333689563e-26
-4.08806073858105279e-24
-9.42131079589359888e-23
-4.99536048132678718e-21
-5.7362308015522531e-19
-1.37422758635752868e-16
0.0459306757285141698
0.808160091113780954
0.00777280464102747017
0.629733496687665095
0.000698185025668867027
0.000444974952201277352
0.000950656519727400033
0.00179034658500818963
0.215551241767516777
0.000988230490364139149
0.000185357406922007057
0.00041069172264132257
0.00180713258606890253
0.00985480511440958024
0.00098821703352644486
4.03478578161073299e-05
8.49669289321525802e-05
0.00105491088930177745
0.00149746317069811611
7.78411835267426132e-06
1.19936094953713673e-05
6.73563913699937015e-05
0.000177711656627079254
0.000112077936275026263
9.79661757274665461e-07
8.02477644824184562e-06
2.8231441282674201e-05
7.70185729033878702e-05
6.53644480633774091e-05
3.60749015927136931e-07
4.18428163677884403e-06
1.7478715581159629e-05
6.88263954766739052e-05
7.24277787899895586e-05
2.11555103786419422e-07
1.77608920785132545e-06
1.24779886177523604e-05
5.45745140349285918e-05
5.76504435944186764e-05
7.73884582083258855e-08
6.36051097464861095e-07
5.61295681051334698e-06
2.73447875736286154e-05
8.9513991752748713e-05
2.69107144590015393e-08
2.68763054000194758e-07
1.72194389965190375e-06
6.96679821170227535e-06
3.62656609414259716e-05
7.35514727712236486e-09
6.89774297905066971e-08
4.35938941301234027e-07
3.15996832724073927e-06
3.15411965354253599e-05
8.46719102283025078e-10
9.53939487355321146e-09
8.80700944666601405e-08
7.36109192650045826e-07
3.89259418101980678e-06
6.62740941611682541e-12
1.19026703842198973e-10
1.84120010518196253e-09
2.97439919404358381e-08
2.67316119844971154e-07
2.54796690740942742e-19
2.67166345401407597e-17
2.30010733242813389e-15
1.73757007026025315e-13
1.09950898558101361e-11
-1.41232035538576362e-24
-8.11286470870408971e-23
-6.82904031416915641e-22
-9.14665908586350568e-20
-4.10658002429655095e-17
0.0544661765611619136
0.849008412633962539
0.00893283268907469827
0.627994656459316181
0.000517154797155697059
0.000279076123802730392
0.000957582080658232922
0.00137497763298305496
0.316241500870290626
0.000395715150420779932
0.00015093681672711715
0.000467756101863783303
0.000503432860914709043
0.0108273333161128128
0.00051423972202217132
2.95439698416332229e-05
4.69208874223074368e-05
0.000359638365943481153
0.00446572716570165732
4.99542693923309421e-06
1.36172427480938312e-05
2.74309451762568481e-05
8.38414868628952132e-05
6.91983378403443201e-05
1.4005437150521849e-06
6.57082989856670028e-06
1.72148175881478502e-05
2.7475775597481107e-05
3.67213550676635269e-05
3.29592063463285565e-07
3.17282165415683696e-06
1.46423756988412997e-05
6.23342585715741217e-05
4.8937287573622307e-05
2.45458102140310451e-07
1.37528792066209728e-06
8.53560469903400865e-06
4.23440672469594791e-05
4.69422016587260936e-05
7.39163409108739669e-08
6.20132542936385068e-07
4.48809542451176437e-06
1.62628645663941449e-05
8.84128716891835421e-05
2.54783591373345871e-08
2.47268859724938766e-07
1.49576923377559147e-06
6.77656926624051728e-06
3.36048717989824908e-05
6.52194013255971194e-09
6.02813623822320069e-08
3.73702000388008078e-07
2.96262874461017405e-06
2.79527440045379498e-05
1.05240158530439578e-09
1.03936950186489861e-08
1.00737824516008258e-07
8.03315866459838472e-07
4.03038369154862304e-06
6.54176762529593209e-12
1.37208942047088013e-10
2.38046432594257562e-09
3.53481695964861312e-08
3.85565098465279046e-07
3.46324060805630886e-20
3.8611525324374928e-18
3.63074488798330728e-16
2.983844630326237e-14
2.41666034770900508e-12
-1.3423544465699191e-26
-1.05567742143916497e-24
-4.45768742457002204e-22
-8.03627097977709787e-21
-4.01401635944038952e-18
0.0646904800037125527
0.845534178530879421
0.0107617079316113164
0.678326342450495723
0.000264929905877187238
0.00114215195351149122
0.00079946458919307481
0.00217735192943949857
0.407170437516154671
0.000261791129284593598
0.000510498928127458857
0.000903412632495039338
0.000849373740414088928
0.0127357346299834459
4.82619833296361765e-06
0.000202478038808635337
0.000463094685756072365
0.000792667425484580015
0.00471491754045423681
2.25445994705765229e-06
4.11494418558521238e-06
3.64421674760391007e-05
0.000630097801232345697
0.000103551559610667578
1.28790409049386404e-06
2.85760277588074695e-06
7.24128065329106724e-06
8.53337062338268965e-06
1.67997907145414536e-05
6.63194130776686912e-07
1.86467884125870157e-06
8.3410421049442483e-06
8.2049140223351966e-06
1.90872186548715106e-05
2.14975145924412452e-07
1.30304277647901154e-06
1.01445529780485339e-05
5.44562417100192094e-05
4.13343102961782861e-05
6.63402314698842496e-08
6.77481989301178729e-07
4.43730305443770864e-06
2.10051183247670712e-05
6.37703400523980453e-05
3.10766629857907338e-08
2.83875622036094799e-07
1.50538351248650812e-06
5.44435033999903754e-06
2.86056861554387701e-05
9.68059045345609967e-09
7.14105046635142238e-08
4.4248176765370311e-07
3.55287263298524643e-06
3.70116052085351038e-05
1.04897649029646578e-09
1.08867763280997522e-08
1.09868529800182087e-07
9.26636689793407236e-07
4.91594438331302397e-06
3.21771544119621926e-11
3.55421887914638738e-10
3.94220363607511606e-09
4.07946166339508499e-08
4.77794380588432464e-07
1.03839784818046418e-21
1.14657226698089706e-19
1.02985245986295525e-17
7.64196392539388448e-16
5.04997429959866117e-14
-1.039142230546231e-32
-6.07735236597017011e-26
-3.04714244413848041e-24
-3.10239281560683661e-22
-3.87878422177504131e-20
0.109715199183046425
0.849905415135785436
0.0151702958181706895
0.754858467440634784
0.000160886148653378348
0.000334766465227906017
0.000458465041683586184
0.00370167181235649947
0.465168244112314277
0.000142424281846084954
0.000481405429159543043
0.00039148115628727029
0.00116399045011512763
0.039356839829305823
2.45988921309368101e-05
0.00050389389608322861
0.000805883750232063182
0.000629404000845089264
0.00646489506426392319
3.71163591400643725e-06
7.6308651497923618e-06
0.000378909633364864109
0.000644820827395665812
0.000594730998659413757
2.37368499861647591e-06
1.28533017624988021e-05
8.53335505958182104e-06
1.55557527770969907e-05
3.79987000832931467e-05
1.1748269158315518e-06
2.32811010811788838e-06
9.08561410113133765e-06
1.2611536805769027e-05
2.73713043242058426e-05
1.24303035676282665e-07
1.30021005800919297e-06
1.17047618575655615e-05
7.90105287439165607e-05
8.8502671943554279e-05
9.49963596432594694e-08
1.05683855032178195e-06
6.14037328996387489e-06
2.71481830772187885e-05
5.72490597129550195e-05
4.29819897824208047e-08
3.42228557023083998e-07
1.79556537463511058e-06
4.83141386543869173e-06
2.02153255349180142e-05
1.27894004536709869e-08
8.99919785557799825e-08
5.36572098623590401e-07
3.03750004129725327e-06
4.98483253179075013e-05
1.20420307086598993e-09
1.30069413229278433e-08
1.30409938773534179e-07
1.18666375851032087e-06
7.48729788947855979e-06
5.56369394254946034e-11
7.47591275164439673e-10
9.60314443739958974e-09
9.91761548253883473e-08
5.89047119152141228e-07
-1.32125436503350326e-29
1.72616221678945182e-21
1.47317429257315192e-19
9.65568718508110842e-18
3.37574630150295195e-16
-6.49843040397540766e-19
-1.22168588897209027e-31
-2.34555677673060526e-28
-1.27875812762417254e-24
-1.63926637623840027e-22
0.200540269339110067
0.844690311933158577
0.0172420032118175554
0.759863265514217456
0.000277943490986254859
0.000129947038756235954
0.000253767762907081054
0.0038757751507623628
0.497895712255409406
0.000179503037153755352
8.16887996235234092e-05
0.000129529270254647843
0.00102215226497361935
0.0782062381664593992
9.07500563013106122e-06
0.000173261177127434187
0.000198592887522300158
0.000336383757290766006
0.00724099481062651356
9.09831318179437847e-07
0.000323924537241639479
0.000916411758072153667
0.000177393919187183454
0.000453949453584216777
1.34815190840909584e-06
5.51378938650669498e-05
0.00041634505572806001
3.92270630020614221e-05
0.000100077580528006699
2.08775482629891028e-06
5.84671584992017071e-07
1.12452306525841505e-06
0.000107918196319985366
6.56999365133067461e-05
8.73930295776142857e-08
3.6810791430279642e-07
2.96709857091862591e-06
5.06614560557012549e-05
5.25669103533481563e-05
5.13106402321817891e-08
1.38835410958079142e-06
1.03174500452819619e-05
2.56973490443486219e-05
3.20261170078448275e-05
6.6445815278826943e-08
4.24435259060368953e-07
2.06335390315199178e-06
7.9620618905930137e-06
6.76604224717668114e-05
1.51844685314567201e-08
1.00553438729804078e-07
5.49129033772672382e-07
2.92688422254242511e-06
5.20812300795992986e-05
1.91211042562329471e-09
1.70940258607999744e-08
1.53681984237999854e-07
1.45697591826551611e-06
9.09250159214780517e-06
8.55212039549217871e-11
1.23579716662675769e-09
1.72573685140410471e-08
1.8523899699393638e-07
1.08125456604973509e-06
-3.1093934272857267e-27
4.98730699222953758e-24
-4.06865873605890343e-25
-4.77366955140362523e-20
-4.92346766203077241e-17
-2.25246187895465361e-21
5.94277699582374844e-40
-8.7790364340083019e-22
-4.65785276831945471e-19
-3.96042185878353155e-16
0.24004231455276559
0.854900227811178359
0.0204098392008756936
0.729599902034207881
9.70429708438410801e-05
9.88010499376171432e-05
7.32606525887898236e-05
0.00435318274799533465
0.524617541631491768
7.80187709869624484e-05
7.60024173018438321e-05
8.08165560596883325e-05
0.00113346397976422627
0.113006168271210211
1.23013401092663063e-05
8.92759688294328998e-05
7.31424917664339966e-05
0.000325152828288514267
0.00979853027897832976
2.50936161829494064e-06
0.000198191168156760503
0.000457885331590110131
0.00010343214383428092
0.00041846785919508894
3.872211645047531e-06
8.34730001372766971e-05
0.000248297530287597604
6.376520144454675e-05
8.90921000443789703e-05
2.36278431899146957e-06
5.76235533204604752e-07
1.21313139304776052e-06
4.98336919534743183e-05
6.37702290338576695e-05
1.99419548724634665e-08
3.49822491065543067e-07
3.99259468270840974e-06
5.91731586345056076e-05
4.74128158297037057e-05
5.59463612897533741e-09
1.29119840588869474e-06
9.85289925240262565e-06
2.13181582708252463e-05
2.41718074077257707e-05
6.25881652954248102e-08
4.45345954560385657e-07
2.1028795586543342e-06
1.15345904065693474e-05
7.98837528055473041e-05
1.73602587753107939e-08
1.10738387155141413e-07
6.51185645743725343e-07
2.98235407823549897e-06
5.33866247659783592e-05
2.62285525731060645e-09
2.25993551104118333e-08
1.89524577888920472e-07
1.68026223292078329e-06
1.13739436193213368e-05
9.10907875909403638e-11
1.54234700452646779e-09
2.18843083454034276e-08
2.56079716330933737e-07
1.46069463796953442e-06
-1.03719431818459005e-28
-5.06901682613910577e-26
-2.25248748400942653e-25
-4.72687765595579571e-23
-3.79511723824403309e-18
-5.36886842249027919e-24
-9.17545753543931435e-24
-1.92868856865689018e-22
-5.04728788912947897e-20
-1.24348732072102489e-16
0.233687937734698259
0.860170460793383551
0.0192480345109459806
0.764799049690173649
0.000265890582873273698
7.04990183726122055e-05
0.000235775972442647645
0.00391511912068686751
0.529779105921708071
0.000171293944074196139
3.08294195340867166e-05
6.94093579146065615e-05
0.000696565779841745985
0.120656267500614534
1.73925437254505199e-05
2.50510558924090426e-05
3.27440962005433913e-05
7.87084765555151622e-05
0.0104557813014954596
3.35572802014261696e-06
2.24643163859372689e-05
7.48231059664751356e-05
6.80924247355989303e-05
0.000804278655671429219
2.82707825049945773e-06
2.54921904844683468e-05
7.26265327850188674e-05
5.76227696088911606e-05
6.77758437222437981e-05
1.51373478294969818e-06
3.89508024795402021e-06
1.07359895718428729e-05
4.78569157300345091e-05
5.28345546388359739e-05
2.00960399147886512e-07
1.00922745722157109e-06
6.16700013022689116e-06
3.78427306579381728e-05
3.45007788896440238e-05
4.51729572618429705e-08
8.21700644312318742e-07
5.52407742761681928e-06
1.53649023381031668e-05
1.74114304295529719e-05
4.67837360427110135e-08
3.60031133968170209e-07
2.08826289048348878e-06
1.32781369264094069e-05
7.08250356099136049e-05
1.507647262916984e-08
1.07200180111149673e-07
6.90667925997651095e-07
3.74624683718594934e-06
3.24249295330258545e-05
2.65038799717273241e-09
2.3129057049582913e-08
1.82232920010826314e-07
1.42525227417676225e-06
1.10106706252866071e-05
8.78026961949637453e-11
1.42633193582004371e-09
2.21972254234191235e-08
2.42684869602472175e-07
1.49349109849402887e-06
-3.56568196952307229e-28
-1.75598574098887228e-27
-4.53976940498886741e-26
-3.0516843205422641e-24
-1.64842023012878392e-21
-4.08246033022146826e-26
-8.17021981275174187e-26
-1.37927425869319859e-23
-2.08056908087251112e-22
-6.1343015579176729e-18
0.00145166116619706602
0.00268726853162718719
0.0009401786066234758
0.00147058306572595303
0.000259852362089728296
0.000249077040904671415
0.000334030670150381286
0.000731071719918760477
0.00178894896380823358
0.000127453209736132109
0.00016864271930634443
0.000248618189576725775
0.000635052989676991066
0.00175985085907674754
9.0727842026820733e-05
0.00025191401977607249
0.000287836692963271482
0.000507340945506591754
0.00122435316964965399
0.000397803601269602588
0.00102216050306263521
0.00101493701713387921
0.000768227389886487477
0.000558098445314441824
0.00043574815960363756
0.000776786154728962511
0.00105347997275957988
0.000875861036952256056
0.000245249805598709225
9.12770567817335581e-07
3.53212122276093982e-06
3.79266210558223862e-05
4.3802147436267227e-05
8.7498494084424844e-05
1.1785496786584296e-07
5.44224322588227476e-07
2.17795107047230251e-06
7.68299452062285762e-06
2.34420430487442062e-05
1.4202352132850201e-08
7.50578005719935261e-08
3.49696105936652653e-07
1.33085701204481837e-06
4.94173197554961437e-06
8.89908366676405627e-10
5.85369101432837851e-09
1.93809741428382413e-08
1.2193258673455951e-07
6.79187329721828859e-07
2.33732992168308415e-11
-3.56739192291974231e-10
-6.77769503783172646e-10
7.07486203014898583e-09
4.29305298848976571e-08
-1.99100671770257335e-15
-2.41483021845461071e-14
-4.54011838901400116e-12
-2.58461800861751512e-11
-4.36277766550097643e-11
-1.16832616243743821e-10
6.35988351229250655e-10
-4.54383972285619209e-17
-2.06439232223864563e-15
-2.17273684095806618e-14
-2.33441144886283595e-13
-2.29237867598444915e-12
-1.34283020271452158e-11
-5.06818906184052846e-11
-2.20980920000105674e-19
-1.82067930441231456e-18
-2.94872368270814679e-17
-5.74604528035699449e-16
-1.04755204715776305e-14
-1.60457112184685459e-13
-1.33139452528301273e-12
-2.79024238524375692e-25
-1.08927539977818271e-23
-8.88767017416096409e-22
-4.53006230847175604e-20
-2.54425750756725913e-18
-8.26545612091306342e-17
-2.80644950553620115e-15
0.000883076051318547068
0.00153499460530374986
0.000636122212052540382
0.000921019360254959679
0.000425051330298484927
0.000268460981650532442
0.000363886088745501025
0.00059613816251734644
0.000909534174905012385
0.000161592803664725704
0.000153184439422767869
0.000266561478449075888
0.000654746616200314402
0.00139464941979476967
4.6602311662481215e-05
6.9642877841542128e-05
0.000190856580113966728
0.000578606117825887674
0.00130161857709333931
1.05462607373083856e-05
0.000237896716998764262
0.000507388743944039294
0.000411917158082564976
0.000729748294642748683
7.63592896068153546e-06
0.000139167722658933959
0.000232171140932983366
0.00023334643535878743
0.000296168336530431425
1.67074291291235631e-06
7.4006774821075846e-06
3.00358878791285157e-05
5.36664899742847959e-05
0.000141739522661948815
3.31534417315431033e-07
1.55991236323926621e-06
6.02594598223168164e-06
1.91478860345420393e-05
5.35658348966195445e-05
4.94781263938777206e-08
2.9381006894713058e-07
1.38914767469564222e-06
5.70946175574458812e-06
1.97044323940185053e-05
3.91073729739059677e-09
2.7805620256764352e-08
1.67148510313062589e-07
8.3694402780015944e-07
3.60925056313959085e-06
3.62223353513208114e-11
8.49274095455376831e-10
7.64632615442409115e-09
5.21839124480657493e-08
2.99792164054983213e-07
-5.28999911024519112e-14
-9.21269038185685493e-13
-8.28897125164072919e-12
-3.88212628151071357e-11
-1.2710064838590552e-10
4.7832198230109341e-10
7.73221199900048203e-09
-6.17660538126170733e-16
-1.53244270500516492e-14
-1.63311876506240168e-13
-1.93138321207047034e-12
-1.35240317171937486e-11
-7.85700220458993665e-11
-3.30868281618522959e-10
-1.56845150697785774e-18
-1.28374838898616484e-17
-3.30825518260086575e-16
-7.15294374380528667e-15
-1.21847435072594105e-13
-1.43668098520443169e-12
-1.20567676048454188e-11
-1.28640791591825841e-24
-1.40608127192483713e-22
-9.30592403601990681e-21
-5.94747024776181886e-19
-2.8751015914201413e-17
-1.03470079818842933e-15
-2.96400524274185052e-14
0.00054998768271902242
0.000914515356382366836
0.000451154729889874069
0.000682178050840393608
0.000184570221854794413
0.000229951917424498669
0.000291230699222863273
0.00036804994529095322
0.000603579731088369452
0.000109375507840441373
0.00016737918054448317
0.00026654936168354047
0.000563186465619937597
0.000857075038587172631
4.73770941915412623e-05
8.31436954816712769e-05
0.000225480159028949205
0.000626710756827728141
0.00120875349464648037
2.21353740018384922e-05
6.59479205341048045e-05
0.000181938488106920014
0.000514999310717647284
0.00123934600474308407
8.51632400793019426e-06
3.17601856520570897e-05
8.81865197550892542e-05
0.000236185133797569354
0.000665637371185908789
1.9363521613880349e-06
6.96895977900461506e-06
2.72761847845100347e-05
7.79839316214626206e-05
0.00016799121133482205
4.87235267949343725e-07
1.9397506674822865e-06
7.54040321142678237e-06
2.58498206405798903e-05
6.22969000122229529e-05
9.24172566431701446e-08
5.49025872638798997e-07
2.55128439644625399e-06
1.01314836228451318e-05
3.60335011115160507e-05
1.18353362113019981e-08
9.32297661684578661e-08
5.85057718818826598e-07
3.10867274350873551e-06
1.41272493330631261e-05
3.56783834796275398e-10
4.54957584693889473e-09
3.78759821121347036e-08
2.55483448883590382e-07
1.42737406735664188e-06
-2.84274351005987431e-13
-1.98250907056565727e-12
-8.75534162093290384e-12
6.8811542221044442e-12
6.19429960449882368e-10
6.89159710227639977e-09
5.72559909473163444e-08
-1.15553909308037325e-15
-2.5740417605545061e-14
-3.8273299437850251e-13
-3.68127358445455623e-12
-2.7021404058355825e-11
-1.18460129881094242e-10
-2.56182697047543692e-10
-1.28448124418078408e-18
-4.62311897244823999e-17
-1.51118536227558017e-15
-3.55212394506008902e-14
-5.12814747508489211e-13
-6.14189043844379495e-12
-6.18613120282358375e-11
-6.95622427508995428e-24
-8.25828912431807008e-22
-6.72796292016616691e-20
-3.99062928804296058e-18
-1.77767076937808623e-16
-6.26492531850504693e-15
-1.80579991582630205e-13
0.000405225437063800947
0.00174329517202304355
0.000374786176710751066
0.000449198445175013109
0.000267652701957523309
0.000202342981821169987
0.000229877100366227368
0.000311930988044716603
0.000373372843857840554
0.000180356018950717005
0.000156417028187860469
0.000256572689537630278
0.000419862089666174455
0.00054520201922135731
3.70752942217447663e-05
0.000106951061514765869
0.000344346258696538569
0.00107313986029036789
0.000900308642140753386
2.10195916268626364e-05
6.31120047751794938e-05
0.000352125636228174644
0.000758410427940299676
0.00113670663375682428
7.63094478934492687e-06
3.46438922483920664e-05
8.82762732619554692e-05
0.000197434545880728824
0.00107526804551378186
1.6929048755184222e-06
8.75723468593012108e-06
2.618801873386221e-05
8.36182174284068878e-05
0.000589196621032043013
4.15435022269442624e-07
2.16208284832911937e-06
9.08086252782456187e-06
2.96168836341940636e-05
0.000159983360274384967
1.08100374924134163e-07
6.14247024417045872e-07
3.19343033054060894e-06
1.3190646338219715e-05
4.58451662438368989e-05
2.45130255834302463e-08
1.73321205595485573e-07
1.04715111262928366e-06
5.51581505928930186e-06
2.56474170873393435e-05
1.24814194061805772e-09
1.42299904718821666e-08
1.19085678368137124e-07
8.27685789610525936e-07
4.83659224523577853e-06
-2.99930721377663289e-13
-5.77343260612042876e-12
5.78569720820278287e-12
2.88352583812751109e-10
3.50688169495561266e-09
3.33880678827260744e-08
2.58194219857163371e-07
-9.99287949932388396e-15
-5.26626744676681834e-14
-3.06952697767606198e-13
-1.77740466348026329e-12
7.35015428226045684e-12
2.4919701417543128e-10
4.02664501464213372e-09
-2.75717404617296963e-18
-5.83596067592668304e-17
-2.26094258297713812e-15
-4.69344288806224423e-14
-8.24745167100889971e-13
-1.02673672244508346e-11
-1.34832285051787615e-10
-2.8690938479262899e-24
-1.37946388146104774e-21
-1.42898819225813131e-19
-1.02133507235161357e-17
-4.63864606102041709e-16
-1.90509866766468242e-14
-6.99541234208001778e-13
0.00047939246773860564
0.00216280464431516887
0.000434187160713737669
0.000430977329422826017
0.000145808453746177252
0.00019651247449695432
0.000201496552439034307
0.000294712793486695112
0.000474635467105814909
0.000123469669017083181
0.000196479601057136056
0.000587473938302866209
0.000556038560450050536
0.000620849969650513886
2.63407590612428587e-05
0.000208146591668654049
0.00124840358773550776
0.00129687628588540755
0.000865717439150524111
1.44933823951728928e-05
5.69217960242803927e-05
0.000321210345409107562
0.000859050256996574937
0.0010351370691948972
5.7891806703938491e-06
2.59675956829249875e-05
4.95712117977994426e-05
0.000275289643230697506
0.000755520848269178183
1.51571469229006038e-06
6.64294271273848938e-06
1.96105397537168535e-05
6.27441308528349365e-05
0.000656995958694742794
3.12743472306658989e-07
2.16685799169630781e-06
8.33901758737039021e-06
2.49090710990930927e-05
0.000378491596606499018
1.13635872882549857e-07
7.91973173564581115e-07
4.09615232097632797e-06
1.82345525356751235e-05
0.000132854935363840024
2.6692592649349915e-08
2.1534948137771767e-07
1.38491471488080593e-06
7.58936265530509648e-06
3.30373713028360953e-05
2.676067783269521e-09
2.77843177912383321e-08
2.43269868118524293e-07
1.80996603726119804e-06
1.11845329055744133e-05
-6.36158192145244827e-13
2.8493685810499796e-13
5.39627917869770909e-11
8.03437824855222815e-10
9.43620747356209255e-09
9.25756740835632578e-08
7.50675790210893228e-07
-2.27560992228236149e-15
-2.33701642934196579e-14
1.3479698087276403e-13
4.22883834581343964e-12
8.40186330102399955e-11
1.29969673158068226e-09
1.6528633639193175e-08
-4.32600349088531232e-19
-2.35821370984561448e-17
-4.98022942565783818e-16
-7.29738891304342482e-15
-2.48981490518351324e-13
-4.48829144554124657e-12
-4.60756955846321611e-11
-8.77874477969072788e-26
-3.01872420406940455e-22
-2.96491057767012094e-20
-4.20704523088471379e-18
-3.27151893909761693e-16
-1.69845658616319944e-14
-1.00257906902016012e-12
0.000744390899734285604
0.00513438641713074694
0.000517790261675366448
0.00601031478026841249
0.000155877347994155151
0.000197479063234935162
0.000284748106909929184
0.000480894001481400337
0.0100307683857610349
0.000145048665926609047
0.000188486263868919794
0.000904937730663628098
0.000620769699054081296
0.000754147253457749947
2.24298935943237517e-05
0.000457919164538754737
0.00176905260505926128
0.00134038295991577511
0.000916231063669403507
1.30159578417521282e-05
0.000431820909150277274
0.000917087081079025462
0.000678096116360024474
0.000879769465688112718
5.32857244754207886e-06
1.32199023058659595e-05
4.08354222852882172e-05
0.000316022135521816429
0.0010859884915683756
1.06016273184331558e-06
3.9414917772674316e-06
1.32466736242093897e-05
0.000171577338260434325
0.000778852901310129629
3.07256339242213274e-07
1.63321114518260672e-06
7.28436834919017874e-06
2.9484155452202398e-05
0.000404145002549229993
1.2187340845176581e-07
8.84601168303433852e-07
4.39588373441607973e-06
1.32759792954709711e-05
0.000274967347632311594
3.60375823248660806e-08
2.75218434346761719e-07
1.73611579335221112e-06
9.73659504067959475e-06
4.93997872858765118e-05
4.36470203038604041e-09
4.3533320656533748e-08
3.42172245191893822e-07
2.30437034902622819e-06
1.38333512504291615e-05
2.89494318007158469e-13
8.20885688157587911e-12
9.08452680345232589e-11
1.36831754435357573e-09
1.73765360760548452e-08
1.8466963868567588e-07
1.60752821266335483e-06
3.35757130504356623e-16
1.13773336960240384e-14
3.2540757773481535e-13
7.81649155936491807e-12
1.57671164540539043e-10
2.61263016754421826e-09
3.50321499600618411e-08
-1.93069884461014819e-21
-7.69717815846591065e-20
-3.64962862258558903e-18
2.41100597276295913e-16
1.98378056141228423e-14
9.03449607356223335e-13
3.75214589256579363e-11
-3.49594980784239427e-22
-7.16802626699224794e-21
-9.28400147944457499e-23
-2.28505218641080176e-21
-1.15303693277318313e-17
-1.94429723831514512e-15
-1.18944761509926344e-13
0.00151525042809593337
0.205315279059746197
0.000769518754173504748
0.156658760236665806
0.000279696136775706714
0.000521921067976247304
0.000786375761035739166
0.00150648967895889796
0.112577527583682169
0.000269829552677226597
0.00131576261258848411
0.000879305338678171592
0.000754058003326479333
0.0103072444250717921
0.000437509666348882202
0.00176905260505926128
0.00184112133014041244
0.00165348002974132022
0.00114332597135436689
1.03547332741116808e-05
0.000578904036697409094
0.00139119620400874082
0.00124557803753367496
0.00109714182048049414
4.20569749097177996e-06
8.51466220898516549e-06
2.87691391228948334e-05
0.000294694528327785622
0.00419896380671527097
6.46903847838092708e-07
2.35485894015998358e-06
8.5225914197346061e-06
0.000130159645900411089
0.0013014264993819278
2.59327169479642393e-07
8.93946998972027743e-07
6.55129076816371943e-06
5.81793492125024073e-05
0.000354311157997039337
1.30286967008080476e-07
8.92840488727019353e-07
5.22469479737722083e-06
1.95433238285764713e-05
0.00015830008050739399
4.07487406831365582e-08
3.15343692946739487e-07
1.9201874645136735e-06
9.60959099035547855e-06
5.81401402623839581e-05
5.67215128230278151e-09
5.24396964090669791e-08
4.11013759466720398e-07
2.84146527965278094e-06
1.71791519994209125e-05
5.00116949154398109e-13
2.04458236946696489e-11
2.41485568030665742e-10
2.53161734501682491e-09
2.89202297854792222e-08
2.6820100701230631e-07
2.40081404415608622e-06
-6.89958673106280445e-16
2.24669598874969958e-14
1.13198019801434355e-12
1.26189945062321002e-11
2.76692340066106294e-10
5.0091933442279651e-09
7.27846977127455207e-08
-1.72358180052523652e-19
4.42104757847982097e-21
1.68179449073353191e-18
1.88054303528178164e-16
1.73942119760177587e-14
1.01271876243504435e-12
4.63374016151032559e-11
-1.95893779014194917e-26
-1.613963670099087e-24
-2.30839704102465414e-22
-6.66525960307406928e-21
-3.74176620779870523e-21
-9.85549012811720935e-18
-1.00004299524104054e-14
0.00782624216520782373
0.661577827077205471
0.00151537377632673291
0.510238976377393794
0.000559919846969289601
0.00150999270185751388
0.00190034366495792344
0.00160230589667667523
0.312686000962021926
0.000761945933678755496
0.0016815416685223173
0.00130446544514190152
0.0014442979698335006
0.00930932781599642413
0.000827518533572411041
0.00146052083166603452
0.00112172425861675881
0.00313381977952979264
0.00116155339215942024
5.48995296093721357e-06
5.24323706716146542e-05
0.000748282110250935188
0.00123063294005082489
0.000639828480630182518
1.45115528853498515e-06
9.15819820969245156e-06
1.87295638737689085e-05
6.24589989300446162e-05
0.00332853831421069113
3.8945750283488071e-07
2.71843237874748754e-06
1.2720178087985043e-05
3.26868448443115665e-05
0.00138790081274662745
2.32372967911247175e-07
1.36538829098269201e-06
1.1114306358145328e-05
6.06063474566967511e-05
0.000327361461822041626
8.73014845463181233e-08
8.55006407901883857e-07
5.09331389460470848e-06
3.14132225928871484e-05
0.000231803075944371603