/*--------------------------------*- C++ -*----------------------------------*\
| =========                 |                                                 |
| \\      /  F ield         | OpenFOAM: The Open Source CFD Toolbox           |
|  \\    /   O peration     | Version:  2206                                  |
|   \\  /    A nd           | Website:  www.openfoam.com                      |
|    \\/     M anipulation  |                                                 |
\*---------------------------------------------------------------------------*/
FoamFile
{
    version     2.0;
    format      ascii;
    arch        "LSB;label=32;scalar=64";
    class       volVectorField;
    location    "0.270000000000000018";
    object      faceForces;
}
// * * * * * * * * * * * * * * * * * * * * * * * * * * * * * * * * * * * * * //

dimensions      [1 1 -2 0 0 0 0];

internalField   uniform (0 0 0);

boundaryField
{
    inlet
    {
        type            calculated;
        value           nonuniform List<vector> 0();
    }
    outlet
    {
        type            calculated;
        value           nonuniform List<vector> 0();
    }
    top
    {
        type            calculated;
        value           uniform (0 0 0);
    }
    bottom
    {
        type            calculated;
        value           nonuniform List<vector> 0();
    }
    left
    {
        type            calculated;
        value           uniform (0 0 0);
    }
    symmetry
    {
        type            symmetryPlane;
    }
    interface
    {
        type            calculated;
        value           nonuniform List<vector> 
67
(
(8.94775236068310189e-07 1.90804568794880016e-06 -0.00181133074993259095)
(-5.45398218675485781e-08 -1.75199977294342807e-08 -0.00119776315493144627)
(-5.00781009953535239e-08 -1.46581819412818511e-08 -0.00123444138908881062)
(-4.16339619252608984e-08 -1.33789772351042196e-08 -0.00131014485417184443)
(-3.88570633478187657e-08 -1.17510135583691908e-08 -0.00127888267566452331)
(-3.73029720723045101e-08 -1.05261931428095991e-08 -0.00123619340119957683)
(-3.62116843303556331e-08 -1.07056299617766634e-08 -0.00116649039660917807)
(-3.5132128740704406e-08 -6.20304291329784549e-09 -0.00124835966967284636)
(-3.39187401727527045e-08 -6.8281198466908029e-09 -0.00116886141906903229)
(-3.15259077623957813e-08 -5.01359937798099881e-09 -0.00111167897885942847)
(-2.93986314488059614e-08 -4.77448282836524526e-09 -0.00107003969609435648)
(0.000706362842518501888 4.05863591285927855e-09 -1.3286697325821746e-08)
(0.000741127495570891568 5.1941501152409483e-09 -1.19062443297137017e-08)
(0.000780590099548510771 7.3827456970537562e-09 -1.00926028297256838e-08)
(0.000665846858586417126 6.36024362746606929e-09 -6.84923593885262679e-09)
(0.000709459057499522245 7.78260917897536387e-09 -5.99489080435694393e-09)
(0.000760143774851496242 9.97198829023900355e-09 -4.87730859899089792e-09)
(0.000644845483992984589 7.85339575724757174e-09 -4.88779624628788065e-09)
(0.0006922280921749295 9.13377127658667508e-09 -4.23355365337248489e-09)
(0.000747077142479141403 1.14354828279681159e-08 -3.60595022209033555e-09)
(0.00063628975952773276 8.73836774661190874e-09 -2.93476974621346216e-09)
(0.000685495184358565464 1.00532684272599409e-08 -2.55906245116943652e-09)
(0.000742349559884367821 1.2293564514177286e-08 -2.18720733886601652e-09)
(0.000630060267620224587 9.35502342142276281e-09 -2.01751781776818987e-09)
(0.000680524043505519884 1.07072483139655576e-08 -1.7558806582593419e-09)
(0.000738893694879490226 1.2936941470691161e-08 -1.49296567602704496e-09)
(0.000626638979403019731 9.76394344484386225e-09 -1.25376687801678243e-09)
(0.00067804865155259486 1.11493447928583081e-08 -1.08208261512564668e-09)
(0.000737638364715243128 1.3358504060744463e-08 -9.11012732876002871e-10)
(0.000624632158487483519 1.00265770699288963e-08 -7.11444061209219942e-10)
(0.000676722042712214018 1.14273424849300815e-08 -6.15934394109041794e-10)
(0.000737165564398371809 1.36598132753640281e-08 -5.33823626931084098e-10)
(0.000623871623595171937 1.00957571682648736e-08 -2.38562668804120488e-10)
(0.000676418278300007633 1.15272975376375402e-08 -2.1040746519776219e-10)
(0.000737447197422273857 1.36840317173427883e-08 -2.00671698608620187e-10)
(7.37873918462839979e-07 -0.00796059067542804165 -2.16066096562327869e-06)
(2.0751157205747793e-06 -0.0120738202700739934 -3.2231016564353027e-06)
(1.80573827659915983e-06 -0.0123831420377322841 -1.90314364674808888e-06)
(1.57340932659524816e-06 -0.0133718141640403361 -2.11897358889921343e-06)
(2.31303985400706517e-06 -0.0138877294789510539 -1.0893572002824648e-06)
(3.1051983138706179e-07 -0.0154863099933403182 -8.36213364297819771e-07)
(2.52511703047059829e-06 -0.0152002076510473379 -4.51841851469350901e-07)
(6.51778004522756008e-07 -0.0153580003044145579 -3.83943476480199275e-07)
(-7.70785567772383876e-08 0.00231792266734795081 8.25967321515297736e-10)
(-7.63562668415462891e-08 0.00223528658892529607 1.6435622017047439e-09)
(-7.38862836552012646e-08 0.00221094368256516448 2.78253155164307598e-09)
(-7.34448412483709043e-08 0.00222893769722170556 3.77191181206775182e-09)
(-7.5936649657907296e-08 0.00226737513171337271 3.46928667922353654e-09)
(-7.26182776228529271e-08 0.00225722594275051857 3.65745720123481919e-09)
(-7.84101350706852026e-08 0.00235001381546726161 2.39528854846629492e-09)
(-7.26574422090207607e-08 0.00230874782941047031 5.53076014157618649e-10)
(-3.51240785915552198e-08 0.00204652643222185239 8.04670772146934904e-09)
(-3.22006675979755034e-08 0.00207393533262112753 1.91294996188441662e-09)
(-3.10736556653872711e-08 0.0020853602042592281 9.96747439537477067e-10)
(-3.16709426959105839e-08 0.00210708375187126148 1.80653978325970238e-09)
(-3.1946293491005542e-08 0.00213186402871283704 1.92646055384345145e-09)
(-3.29490754107880634e-08 0.00215545242400945643 1.61276945604243716e-09)
(-3.33213308357528676e-08 0.00218496475505136839 3.33003106330958437e-10)
(-3.35653749972828575e-08 0.0021818541438910358 1.50050713527498227e-10)
(-3.88297589749976953e-08 0.00191849409738143839 2.86737733409002956e-10)
(-3.88444216559811113e-08 0.00195788952620076697 3.71846286176791764e-10)
(-3.82532428768184203e-08 0.00197452810299372523 -2.99482231687828272e-10)
(-3.85439997448225144e-08 0.00199537307231944855 2.92475857713865231e-10)
(-3.90890446462394867e-08 0.00201371192369332848 4.74114804126997749e-10)
(-3.95051196146580446e-08 0.00203567471940797147 5.351932911102089e-10)
(-4.01855327082894101e-08 0.0020491014422073209 9.12427165946613481e-11)
(-3.97323305501734829e-08 0.00205621807006547367 1.95310054827293556e-11)
)
;
    }
    procBoundary1to0
    {
        type            processor;
        value           uniform (0 0 0);
    }
    procBoundary1to2
    {
        type            processor;
        value           uniform (0 0 0);
    }
    procBoundary1to3
    {
        type            processor;
        value           uniform (0 0 0);
    }
}


// ************************************************************************* //
