/*--------------------------------*- C++ -*----------------------------------*\
| =========                 |                                                 |
| \\      /  F ield         | OpenFOAM: The Open Source CFD Toolbox           |
|  \\    /   O peration     | Version:  2206                                  |
|   \\  /    A nd           | Website:  www.openfoam.com                      |
|    \\/     M anipulation  |                                                 |
\*---------------------------------------------------------------------------*/
FoamFile
{
    version     2.0;
    format      ascii;
    arch        "LSB;label=32;scalar=64";
    class       surfaceScalarField;
    location    "0.270000000000000018";
    object      phi;
}
// * * * * * * * * * * * * * * * * * * * * * * * * * * * * * * * * * * * * * //

dimensions      [0 3 -1 0 0 0 0];

oriented        oriented;

internalField   nonuniform List<scalar> 
20536
(
0.000579562055558858775
0.00043085527764180208
-0.000317846881840816941
0.000248703168182214758
0.00107674222156256463
-0.00079933960542238685
0.000998046222680676028
0.000401645069227469197
0.000483491627049349032
0.000219776004821935038
-0.000197318782589261173
9.59184256063554011e-05
0.000958297228744838924
-0.000655308247947265104
0.000809558795780040107
0.000447686035447203857
-0.000346027181659960402
-0.000291847661899195094
1.65224215706876896e-05
2.7634070848635674e-05
-0.00035604749816271628
-4.87543192219544471e-05
-0.000325022937945544047
0.000272441700609173218
-0.000128921978940188238
-9.59528719926756087e-05
-0.000418689276618034877
0.000421895321493844823
0.00016746916316383309
-8.95616282319037734e-05
-0.000218170539788773121
0.000231116083187189194
0.000560184417212114712
-0.000523355498761460063
0.000624349007475246938
0.000464588327240047225
-0.000374958825560867712
-0.000235715334096931329
0.000106815208451318625
-3.84945171544364361e-05
-0.000354884165386885691
-3.59564606659767928e-05
-8.2699457348101111e-05
4.9827226277011135e-05
-0.000238948880760361348
-0.000183910897687808602
-0.000256738601214608812
0.000228761141802002067
2.4385650388097143e-05
-0.000340922280165742398
-0.000376733071860635307
0.000364759204308858387
0.000140605959061250446
-0.000412611675549285684
0.000447418003963386359
0.000409157384200920481
-0.000340112710230033258
-0.000318712332100124169
0.000184404104525847171
-0.000106735497411826599
-0.000278967972756761834
-0.000107305831815712627
0.000100148155771441065
-8.99443510047450226e-05
-0.000195414579671259435
-0.000223166894203663925
-1.55955288638048297e-05
-2.87017333769326501e-05
-7.46737615849547495e-05
-0.000385470414722075428
-0.000167201437943223421
9.10086458236326434e-05
-0.000200406745964993937
-0.000277136600188026107
0.000217852326476271108
0.000325623573982415995
-0.000309452260302630407
-0.000373100179694813299
0.000286533010297145951
-0.000271129056356060117
-0.000139716388855968708
-0.000323073105898231266
0.00026120582374887665
-0.000215172187513649132
-1.06430206944662276e-05
-0.000318803447145067002
0.000179018898417351608
-0.000212453646977555114
3.34733906142635666e-05
-0.000328291955660984678
3.57939261619843861e-05
-0.000137089644906716532
-0.000301951959497873904
-0.00014692242914824045
-1.3975235024870985e-05
0.000295916143055068026
-0.000173827054123906326
-0.000394417321467312447
0.000269563514393202194
-0.000298258121104164975
-7.29298035768888335e-05
-0.000388211057256319979
0.000269542735922178504
-0.000305300256768089478
2.31152887463198448e-05
-0.000358362604156750326
0.000246624037530574327
-0.00030311207691800107
3.5650416830424119e-05
-0.000277919574001859451
0.000131915784069642735
-0.000194826588767642355
-0.0002865701741684391
-0.000122147363838993325
-2.43389569065553465e-05
0.000166754084665349245
-0.000122825922482678939
-0.000376514092647812864
0.000203812028395051711
-0.000244535870335908421
-7.44863706323548356e-05
-0.000379784055195968382
0.0002283074539898166
-0.000285074241534265043
-1.90248743811771153e-05
-0.00035334391611743359
0.000231996813670521361
-0.000292479495033853756
4.47211313282444567e-06
-0.00026725918648167141
0.000150397066111784318
-0.000184554190941761854
-0.000282182982447535613
-0.000147281458071555271
0.000100647858478694749
4.67208729833645114e-05
-8.09656715245156492e-05
-0.000360393710017161415
0.00015414536852895904
-0.000182251941383834004
-5.50086859729501205e-05
-0.000364316326309326727
0.000182301423496798287
-0.000223724469112347778
3.23561600556915058e-07
-0.000362427288635128837
0.000197179127038072543
-0.000243427952872556357
0.00010203714703101353
-0.000335815288845936694
0.000166143387668996322
-0.000199299093197045598
-0.000294230565343814223
-6.76705847044910226e-06
-4.979467945264251e-05
0.000170649669740953708
-7.42092005929405807e-05
-0.000337964927390323395
0.00012069336878298583
-0.000139981995056190047
-6.64644233627295232e-05
-0.000343465033686912193
0.000150644842921765986
-0.000179238845870977287
-3.40872304423877069e-05
-0.000358347362439554785
0.000175289604262274083
-0.000211746858153621015
4.80153429391489957e-05
-0.000369023485252555051
0.000164505499222732473
-0.000213401046543242973
-0.000312656480736875516
3.83515993882051451e-05
-8.32026599338314254e-05
0.000111291385759708535
-7.82568920241189219e-05
-0.00031549915872110452
9.49863473245381233e-05
-0.000109756568713945794
-8.35596522962804165e-05
-0.0003182392511131903
0.000119904402296534989
-0.00013982689554898573
-8.54047293657730162e-05
-0.000329935692277845243
0.000142434856923661762
-0.000169003561215525584
-8.3478637590521669e-05
-0.000340517104835142445
0.000141601525365275225
-0.000172034157246649024
-0.000322420817204682145
7.8551548129511195e-05
-0.000100646190488360381
-5.16171138457001237e-05
-7.58615436255577209e-05
-0.000297723300131840342
7.53706932004369172e-05
-8.44080138173723991e-05
-8.6809643609983683e-05
-0.000294746568420262926
9.39935165125514857e-05
-0.0001065376316364806
-0.000102815640444509272
-0.0002969589128258808
0.000114134130946229339
-0.000131103669004340459
-0.000116313790265802771
-0.000305389687323060215
0.000129044608633139445
-0.000150669502349911157
-0.000315189575258967205
0.00011345406639579239
-0.000138759637241460382
-9.82340781815730811e-05
-5.10311254508967612e-05
-0.000296720214034642052
-3.57813237239706122e-05
-5.92790491497481408e-05
-0.000289881605774881454
-4.83419071748895671e-05
-6.90660787206752208e-05
-0.000282214110920136064
5.66661693567920206e-05
-6.23870483139941332e-05
-8.18533805526726435e-05
-0.000274074497589716466
7.02146083163020506e-05
-7.8098945954915402e-05
-0.000101390139116114058
-0.000266588837501113005
8.54255440601008205e-05
-9.62579319172161493e-05
-0.000128872062903039882
-0.000262824693375535634
0.000100573637508589119
-0.000115657028459353154
-0.00026187532981468794
9.94198908468825406e-05
-0.000120044805438228419
-0.000161562156245099537
-4.00082313206867813e-05
-0.000289890269139339509
-2.57349500712074713e-05
-4.65413776365274773e-05
-0.00028091637418002852
-3.38101472777511958e-05
-5.50072703003738706e-05
-0.000270403551793029515
3.96577885419935254e-05
-4.30030717550128488e-05
-6.64068020087962081e-05
-0.000258169831043252485
4.87667982937629963e-05
-5.32735344263319676e-05
-8.30603465621366892e-05
-0.000243994084584810546
5.85215340680535865e-05
-6.44646912650953747e-05
-0.000110259077544088625
-0.000227794143880353915
6.85080764006112898e-05
-7.63394837767043946e-05
-0.000210789209506136632
7.76191033894521544e-05
-8.81672134706124684e-05
-0.00015079595753006279
-2.60283557062986161e-05
-0.000285175188702153166
-1.55878844912238217e-05
-3.03950114628962581e-05
-0.000275195243638265701
-2.01223687194821502e-05
-3.57906808015242604e-05
-0.000263253497450201008
2.35828897622252785e-05
-2.5338662352085563e-05
-4.2776781517675219e-05
-0.000248947341673645065
2.9026909335198594e-05
-3.12614142368558131e-05
-5.22473492331341477e-05
-0.000231742711168245609
3.51750229695875708e-05
-3.79532045231045618e-05
-6.59493355719736933e-05
-0.000210719865464160705
4.21287933042567857e-05
-4.55009885185086682e-05
-0.000184389895597700926
4.98004864125890442e-05
-5.35496139262016019e-05
-8.86027078211967318e-05
-9.36065015221955902e-06
-5.28747007604200613e-06
-1.10924354040207938e-05
-6.76284375028869462e-06
-1.31014126785682186e-05
7.92894520134515362e-06
-8.47941753986925133e-06
-1.54599505505861855e-05
9.78588329712732732e-06
-1.04522776232890454e-05
-1.82274652125361642e-05
1.19624787313518069e-05
-1.2735694311411559e-05
-2.12810243236583439e-05
1.47781574223920773e-05
-1.55049659495795931e-05
1.90430832170487512e-05
-1.93429371877215613e-05
-2.37285353789166422e-05
0.000549085039907506491
0.000491363994281116727
-0.000320319773349555192
0.00114986059821171253
-0.000631363228048555103
0.000412949767016694211
0.000440694602146379788
0.000278425896722224854
-0.000229712297850159005
0.00103928331112874256
-0.000545234527651259617
0.000441198160920579013
-0.000254149315376921473
-0.000361716868160489452
0.000107372382920813847
-0.000349014966349241596
-0.000240716958167665467
-0.000222606977080215025
-0.000133646633512127916
-0.000196302693754259259
-0.000359060485497489346
0.000186294725353256668
-6.10321866975388792e-05
-0.000198654379185226064
0.000710110255245992869
-0.000460887572166913072
0.000452999662960559758
-0.000312464208304185568
-0.000293831466556258294
0.000184250411281501321
-0.000372226558606584895
-0.000241585459477838751
-2.20676407105887683e-05
-0.000246042682197323724
-0.000354271717808659812
-0.00022495399152931529
-3.82831724823982228e-06
-0.000364013990966048911
-0.000315966482833676459
0.000251532574794468753
-0.00037026741513881018
0.000412405375015708394
-0.000353135045049394417
-0.000316550855878324562
0.000226192783975835969
-0.000353274981741168929
-0.000225831629879919341
8.45393121970663334e-05
-0.000289935240828519299
-0.000326479050012958201
-0.000106725362133327305
-0.000125773847951665972
-0.000396643474072235912
-0.00029873218206032939
-0.000171966047762949479
-0.000309893465937307287
0.000330481819791813083
-0.000334212645410209507
-0.000354860355557417521
0.000240203172684601811
-0.000170940063780122717
-0.000330599210386839837
0.000202698602168139614
-5.33398635706179135e-05
-0.000334667044628602706
6.96054680572659684e-05
7.21004071072047631e-05
-0.00034704742245044828
-0.000139244393602050377
-0.000322272016805778307
-0.000262804497945718404
0.000338283417996909641
-0.000188411077526298975
-0.000387881439986873888
0.00018801231583613203
-6.22696511117866349e-05
-0.00039294224277671764
0.000205742852817603615
5.9498108414446249e-05
-0.000372464146207826367
0.00016265180850785413
0.000142209110994736453
-0.000325918097844666741
2.80744350002030838e-05
-0.000301753218470472435
-0.000249647076410961411
0.000249192812691662741
-0.000120563231121043274
-0.000382360967075596407
0.000113778131965268581
-4.77773981428464709e-05
-0.000396808405696276066
0.000159387822754473204
2.99705068334942269e-05
-0.00038308488795370146
0.000164870273003003977
9.74535301584731966e-05
-0.000328949483022330125
8.59522969713659077e-05
-0.0002830069143998425
-0.000202137174500652907
0.000133568995414731252
-6.3247026977152079e-05
-0.000370157457864822852
9.70739305410308782e-05
-3.13647575327392553e-05
-0.000379477697514770686
0.000133091204090689908
1.59265717049587337e-05
-0.000381107834125341655
0.000147910585932256177
0.000115565814113806028
-0.000369997439403007362
0.000107554011602332993
-0.000314871018438075273
-5.99210473568313921e-05
0.000200583698290824361
-4.60017386227917158e-05
-0.000347801749971737557
9.38495722242907942e-05
-3.91791740870911498e-05
-0.000355564366187703369
0.000119908520816856498
-9.51741594957908495e-06
-0.000373043813973860956
0.000137560404449249622
5.66848919516723944e-05
-0.000388634228963470043
0.000116939133849111942
-0.000334666625373421136
9.44777652828633014e-06
0.000105383982285440315
-5.57112430901213923e-05
-0.000323349267703011462
8.16555111147966893e-05
-6.235602808435446e-05
-0.000328744399257275958
9.97279299697465579e-05
-6.51803914697818526e-05
-0.000343661385528858825
0.00011587687865134473
-6.82837459017035856e-05
-0.000356072449369678812
0.000112147654074281575
-0.000333959614478895059
5.27972593964316715e-05
-4.32313968175331714e-05
-6.17925610069475152e-05
-0.000305650475842602384
6.54969716018139348e-05
-7.10495222035634894e-05
-0.00030524577745698686
7.97528190697844409e-05
-8.57474779260404085e-05
-0.000310044931643855095
9.52201080900355249e-05
-9.83665650890136407e-05
-0.000320844346976414431
0.00010643766420313822
-0.000327317250641914813
8.99074567478257912e-05
-8.14642717650438503e-05
-5.8226616853138218e-05
-0.000290017926043226095
5.00210503898769238e-05
-7.04612284286796058e-05
-0.000283749825807763938
6.09530655238033333e-05
-8.9590790384062413e-05
-0.000278354954900834428
7.28659783286142888e-05
-0.000117087239572661743
-0.000277081616546035348
8.4304044589401288e-05
-0.000278137606199730574
8.19983038712004833e-05
-0.000148845491338430217
-4.77509038849483768e-05
-0.000277783032717144349
3.5242146716194985e-05
-5.85470121225017739e-05
-0.000267209856361436484
4.30239995713522889e-05
-7.49535460684895246e-05
-0.000254769205384376132
5.13424194731247711e-05
-0.000102953556235774781
-0.000240408066044855626
5.98330448066449475e-05
-0.00022572109832684725
6.67720675730412689e-05
-0.000144521509460641257
-3.14613833618653061e-05
-0.000270424138313694602
2.11255422416550688e-05
-3.78359054696528489e-05
-0.000257766086308882823
2.59594703172311409e-05
-4.64963735740716303e-05
-0.000242401621570131247
3.14650411221079884e-05
-5.9239831682850545e-05
-0.000223335367040546193
3.77976889446779901e-05
-0.000199239535318857989
4.52033171247425637e-05
-8.11225628838710514e-05
-1.16391404657949301e-05
7.13100343782050183e-06
-1.37104279919969752e-05
8.82823492485916212e-06
-1.60157047245321938e-05
1.08729440148650886e-05
-1.81160960535089449e-05
1.37535366621392191e-05
1.86071362625903427e-05
-1.86437002885502022e-05
0.000509323183940250512
0.000509742457237605186
-0.000267966511658324232
0.00121885130213455128
-0.000496202453354023325
0.000398512621865398974
0.000434301903677751337
0.000291941649675065687
-0.000198227311007363727
0.0011244456332025535
-0.000441479607271490194
0.000424952698901298088
-0.000163370782148149581
-0.000449582626643476712
0.000125314841071074047
-0.00026075467790195395
-0.000358441673154932978
-9.59365046954347746e-05
-4.99255766929189849e-05
-0.000229110115943967731
-0.000286938350250139529
0.000223939016217800796
-2.17191292963876291e-06
-0.00017840445866286334
0.000823628293075692047
-0.00038714243718857011
0.000451011206703856961
-0.000312724794595896631
-0.000382760375705791999
0.000182865203003281142
-0.000282837515054323114
-0.000395995908004094174
-1.44026887874975805e-05
-9.7402050398163697e-05
-0.00040574517724382438
-0.000233755671763066384
0.000109043404849438336
-0.000262480493271756606
-0.000262101622491959661
0.000456766360472664302
-0.00032130299303072794
0.000426941172445943935
-0.000369568071823451615
-0.000375341664233346396
0.0001908093812188821
-0.000310229786584559776
-0.000377837770085174781
7.04630590545903121e-06
-0.00019800365755553851
-0.000414220018393405968
-0.000210473805003798405
-7.3582604834749113e-05
-0.000349139846093183626
-0.000336493035872323007
-1.6993646867908066e-05
-0.000277254441502524697
0.0003675381212606358
-0.000295404750917264384
-0.00038149384782995544
0.000139282838694691644
-0.000142891920709963156
-0.000392636274082725292
6.49851138581039367e-05
1.26041919978138505e-06
-0.000398456157008274432
-9.03086179560913169e-05
0.000129657984480682016
-0.000402141011996521029
-0.000214641889510259185
-0.000279163504655722075
-0.000227001414042086129
0.000356024632030119137
-0.000154718639992568522
-0.000403368347951910588
0.00011026151654631548
-3.96020113373092632e-05
-0.000416386867593015856
0.00011437696679248555
0.000103264388030407291
-0.000423143012676147848
4.44715494812367512e-05
0.000237122706109607346
-0.000418940452034743374
-8.89847832429376711e-05
-0.000325137593699801263
-0.000263638217273291005
0.000297087487357320865
-7.26759686787831736e-05
-0.000396946591117107808
6.45927609704486359e-05
-1.98090300501236574e-05
-0.00040854780191903659
9.86841755312852051e-05
4.35483903782376267e-05
-0.000415144907668386193
9.35148001009598233e-05
0.000102446759846068472
-0.000389565472389280607
-2.32035522707173454e-06
-0.00030210352028595507
-0.000263360048793584
0.000140640457879751078
-3.11819452384163459e-05
-0.000378108158110642735
6.69195757419244869e-05
-1.12090456159231284e-05
-0.000386079220794654371
9.06496224021359937e-05
2.18163668315989468e-05
-0.000394634538709794048
9.43701443961037092e-05
9.74297826922106906e-05
-0.000390621243759048658
3.29925044132185899e-05
-0.000328137195779324114
-0.000110672828237357482
0.0001742129018124262
-3.18937443769568238e-05
-0.000355561198168702916
7.14572860479063127e-05
-2.39481062121242381e-05
-0.000363055034476105062
8.89358525596007586e-05
-6.17733537522076413e-07
-0.000381694508820574943
0.000101288282346383683
4.11983564960515588e-05
-0.00039846349842786289
8.29663097499499104e-05
-0.000351971203664315957
-9.80525387356723406e-06
8.42833339885716549e-05
-4.36830507096480506e-05
-0.00033176905050701452
6.53579641023102381e-05
-4.81253211905296216e-05
-0.000337242687041401277
7.83590205080948423e-05
-5.35630122618230558e-05
-0.000351578001983595919
9.12023633013443155e-05
-6.35375052446017697e-05
-0.000366062802547139916
8.9724297133663035e-05
-0.000346977352936399665
2.9459957133149715e-05
-4.51978890387031915e-05
-5.05885258498181681e-05
-0.000313002473955070824
5.34253315586447338e-05
-5.90938226217282075e-05
-0.000313629526355740517
6.46476305249800936e-05
-7.26382057542394703e-05
-0.000319040562609816301
7.62298827829082341e-05
-8.51471200288689137e-05
-0.000330274290448651
8.31560245235699844e-05
-0.000340774604399688515
6.66408885791906411e-05
-6.80863268595929653e-05
-4.97288931479646264e-05
-0.00029668412686256919
4.21745363731633254e-05
-6.14133858672810966e-05
-0.000291839080414531976
5.08496947774894135e-05
-7.97485854459347284e-05
-0.000287901471038621432
6.006169427843923e-05
-0.000106256244466923397
-0.00028772623999830983
6.82609914911720423e-05
-0.000288497884786687356
6.48735346417346254e-05
-0.000141409299769500944
-4.15446825171653642e-05
-0.000284196242886143558
3.00408523807168654e-05
-5.19085759933784324e-05
-0.000274956947307662463
3.65057427424076884e-05
-6.80281245947359837e-05
-0.000263895705785694421
4.34546296301986537e-05
-9.58774489872947077e-05
-0.000250930543189030551
5.08828154814420765e-05
-0.000237815612966082025
5.65406366469206042e-05
-0.000136328850587392201
-2.76463806528996216e-05
-0.000276769194194186237
1.81590203069521615e-05
-3.34104139533599259e-05
-0.000265561326119857723
2.23272274502281582e-05
-4.11476902337413423e-05
-0.000251810821766034333
2.71167821887324373e-05
-5.2515798701786547e-05
-0.000234434976735310117
3.26707254821377135e-05
-0.00021241381862871641
3.91366313002899363e-05
-7.18524745433670473e-05
-1.03001904084229354e-05
6.1617562040576321e-06
-1.20583501477349223e-05
7.66178282366943313e-06
-1.37977938479283622e-05
9.5442608085721254e-06
-1.46179152908486563e-05
1.247746257192845e-05
1.78190046581873829e-05
-1.22227085114761011e-05
0.000513267531805315907
0.000538824966682233857
-0.000219261183976050486
0.00125194761278848098
-0.000371794645660530464
0.000404620588650436621
0.000449360398210687725
0.00037747893346775041
-0.000170425443829765646
0.00117136248778042045
-0.000340078266048012999
0.000428544226183479602
-6.25799015374921188e-06
-0.000571385922108019815
5.15151774719042283e-05
2.33373034174921509e-06
-0.000499162010083399653
-0.000106133887579183878
5.93434063754317903e-05
-4.95791007123697598e-05
-0.000192980288725146587
0.000268068328167971742
0.000150502136957377219
-0.000160151030963066155
0.00090245160925176305
-0.000307164794801722228
0.000457001643538143087
-0.000140851761299303814
-0.000483821161043394604
5.44415461843611963e-05
-6.58309911981557372e-05
-0.000457414879086103995
-0.000131169661403862008
7.43987305166546293e-05
-0.000209839493059858643
-0.000213724740470128127
0.000222240482491333196
-6.40695854843971696e-05
-0.000195371412088711526
0.000632552057439499755
-0.000266410412664273106
0.000437247330289972438
-0.000248573571555755558
-0.000405744549092543173
4.45193880710425031e-05
-0.000156986220274465624
-0.000438494625393754951
-0.000103460187598166916
-7.03227343761502182e-05
-0.000297278833784892524
-0.000209699303670627367
2.87336680165851607e-06
-0.0001711334634508966
-0.00030262732835473205
0.000211457758930749318
-0.000240415366531628732
0.000387128031429272851
-0.000208797245735048914
-0.000380677229593236785
2.59687585554729476e-05
-0.000139993481172244287
-0.000397810309778780333
-4.4501428396643151e-05
-7.09269017011265445e-05
-0.00034071389449570643
-0.000115941419091702904
3.03798999478161131e-05
-0.000281573851315057534
-0.000205508101674235788
-0.000113026664127602628
-0.000206208101371242064
0.000334073268331297121
-5.58649815115746043e-05
-0.000376910671396194549
3.43380861135463564e-05
2.28045136603953873e-05
-0.000404053856694593495
4.19541332684694192e-05
0.000145711340011603319
-0.000409597464574023174
-9.5513471681390315e-06
0.000269337426260790418
-0.000353032799568314313
-0.000141146110973393974
-0.000230845052006901989
-0.00020638725450161492
0.000329910692749256496
-8.20995397098399379e-06
-0.000381637347252614134
3.83756957667078563e-05
2.46945765649077262e-05
-0.000398317274854258576
6.00420858641623976e-05
8.41920239985890416e-05
-0.000414705947883662479
3.91249866715435947e-05
0.000165378525912592895
-0.000369223569071675862
-6.73134427011407716e-05
-0.000234277017106765569
-0.000259198833102767417
0.000164652236927592503
-2.32311048739894518e-06
-0.00037464182214035454
5.08431778108260141e-05
7.70082829620979584e-06
-0.000381211714859799021
6.35185442293115975e-05
1.85641232269456225e-05
-0.000393810427506456802
6.26118165091110702e-05
6.53045927821049068e-05
-0.000376412470190978343
-6.55762227531010906e-06
-0.000281254082521518848
-0.000128551668830681237
0.00013015300262513897
-2.24086494182791418e-05
-0.000356557186953609571
5.75065750824962259e-05
-1.73342300787754392e-05
-0.000365146635730326078
6.77965478241131258e-05
2.23463783715337405e-07
-0.000384307945709926675
7.42341401562659413e-05
4.61288140262779058e-05
-0.000398555246013869468
5.92049222833429561e-05
-0.000331634909000536439
-5.78973085085124833e-06
9.24885791494238388e-05
-3.68133062154072125e-05
-0.000336107069527003986
5.01558024960743702e-05
-4.06885279933849828e-05
-0.000343245887028674034
6.03385641331764561e-05
-4.77046310869646647e-05
-0.000357630184933129631
7.15453150951051798e-05
-6.28288731749991315e-05
-0.000366499478131654659
7.27917797111025288e-05
-0.000330882158096157592
1.66593827884028945e-05
-5.07856768735041007e-05
-4.19838419165959701e-05
-0.000318568937862347709
4.24337877138711259e-05
-5.14934022455392824e-05
-0.000319822010991342048
5.07383642497140442e-05
-6.64082122632282668e-05
-0.000326348008464298611
5.98611582758286226e-05
-7.69823578851846926e-05
-0.000336969234810791964
6.41939934745982556e-05
-0.000340236456198314639
4.3344477730249996e-05
-4.4335017878418528e-05
-4.30130147379595266e-05
-0.00030213004569779457
3.37258942133519381e-05
-5.44109952183894792e-05
-0.000298266838321079703
4.06947252139339564e-05
-7.32170182694756816e-05
-0.000295441222380178907
4.7958596760211651e-05
-0.000100373866414212086
-0.000296054814326994855
5.45003702411702586e-05
-0.000294472670343580174
5.3419331124952271e-05
-0.000134682957651337118
-3.64175469601261647e-05
-0.00028958480004658097
2.43849998571008978e-05
-4.64262680523653035e-05
-0.000281388675132449061
2.96364152881683445e-05
-6.2248438543292139e-05
-0.000271378004720098244
3.52108316766202011e-05
-8.91571965429483935e-05
-0.000259724655285809415
4.14568591305621877e-05
-0.000247519052214202986
4.71135018409884438e-05
-0.000126681016391984601
-2.43875593075849219e-05
-0.000282183374017517022
1.48522477842437824e-05
-2.95730979711925528e-05
-0.00027218940850845698
1.83119618505556965e-05
-3.63554523386082205e-05
-0.000259786367600022439
2.23060322161622631e-05
-4.6340626385138318e-05
-0.000243815770333737617
2.67475636140462826e-05
-0.000223579272330589403
3.14781172510135714e-05
-6.26254643682809607e-05
-9.1132182405268269e-06
5.06483568013584971e-06
-1.05307776159653675e-05
6.33939151397783331e-06
-1.15936780814007813e-05
8.02923821952285562e-06
-1.07805746794886617e-05
1.09323544238762015e-05
1.63110014333101731e-05
-4.44598922333787112e-06
0.000495779894899945825
0.000616241978959752358
-0.000171167336687710761
0.00127917768383462873
-0.000266964851344324316
0.000406916565890725777
0.00044881083475397255
0.000516267012359896576
-0.00013544964272226351
0.00121776014251194606
-0.000248340315627266291
0.000418490602888243763
9.42102983936660664e-05
-0.000544203306553694369
-2.56590184636692255e-05
0.000124149818968668319
-0.000221130562503214735
-0.000146362541932858485
0.000166972938023279968
0.000208032911154974173
-0.000157225638031221538
0.000302019346979062395
0.000348429018930318773
-0.00012735799151066286
0.00098801381215617959
-0.000226521425094103996
0.000451122277410815383
-6.52791551966224902e-05
-0.000441928449961158463
-2.12399793503008998e-05
-6.87594021559688825e-05
-0.000243945851519974401
-0.000104866086640941609
7.4257223593357795e-05
2.682504559536669e-05
-0.000175528285111016926
0.00025101903191079248
0.000122802185826598556
-0.000146506403544022386
0.000741827428000244211
-0.000205154786338407184
0.000435948757673164898
-0.000131879134494252434
-0.000368251315995639264
-2.28896595102793119e-05
-7.30163961930199268e-05
-0.000330730252541489998
-7.55366682026711086e-05
3.48382504984434476e-05
-0.000170297364253754844
-0.000120434123211257595
7.35198375357249898e-05
-1.71435420205365588e-05
-0.000201365543178081623
0.000356404724708630236
-0.000181125631360281084
0.00039965269382292827
-8.64803280567530533e-05
-0.000365254260376121729
6.23138780608895898e-06
-0.000120877470547395456
-0.000338882367188944166
-1.95272765337521463e-06
-7.52877771190361674e-05
-0.000277308940794790252
-5.45220218710054313e-05
5.05606478650156196e-05
-0.000117711599244289984
-0.000230786305460545607
2.90520892379533228e-05
-0.000177264365715434772
0.000348973130982763516
2.85959360263266584e-07
-0.000381677313725864214
2.28068112023579499e-05
5.18715788028577054e-05
-0.000380271799496216415
3.17558610239015472e-05
0.000105187053638309202
-0.000334163564472334928
-6.00587421555900079e-06
0.000206190756066589113
-0.000177475290609234015
-0.000182375275914251978
-0.000118693646488407468
-0.000190889202824101096
0.000338449191729425086
-5.73433451337614238e-06
-0.000388592041463513716
3.13487045112265298e-05
2.51396806052675327e-05
-0.000388125144786449826
3.70245427989629797e-05
0.000108072284376871733
-0.000384145178830591248
6.17799350947475777e-06
0.00023442385218067172
-0.000295339273892776121
-7.58034942707520322e-05
-0.000150349471232962299
-0.000203913269758376102
0.000210790697816253328
-1.15961094522517515e-05
-0.000375619121460230975
3.83043418918694545e-05
-3.87685265015241434e-07
-0.000381194525005163431
4.53807716343390761e-05
2.15066383186106357e-05
-0.000384751213170328032
4.13260226796478906e-05
7.00014373405835437e-05
-0.000342872735396219214
-7.51977984683266593e-06
-0.000225166259486867383
-0.00011226629252558344
0.000128530832184150465
-1.85649561314046483e-05
-0.000357507549806814948
4.22247204086314523e-05
-1.39326605393811891e-05
-0.000367715670685307325
4.96912612895323444e-05
3.16128788771893226e-06
-0.000382442861576339117
5.48379746057989681e-05
6.7781115749299001e-05
-0.000389936309193506751
4.16545518670901371e-05
-0.00028689790961972301
-5.19782477931309537e-06
0.000128920582121462828
-3.00255930860529369e-05
-0.000339785124353645762
3.68589714862371641e-05
-3.53704399613572308e-05
-0.00034730546062583501
4.52797455109387942e-05
-4.04045307935180134e-05
-0.000361604974267569794
5.57413622752896828e-05
-4.73236641704929503e-05
-0.000368306901299777644
5.80819861879113106e-05
-0.000298327343566293828
1.95306499772564496e-05
-3.87753414015784559e-05
-3.59534777048999693e-05
-0.000322346906163097731
3.20095179716772867e-05
-4.65889974046136484e-05
-0.000324525046423541593
3.85954098352426597e-05
-6.22447167880973377e-05
-0.000332346238497411076
4.62524388564230073e-05
-7.60212434491811797e-05
-0.000340192732269093139
4.98526982835073069e-05
-0.000334663239788392177
3.77478860561554383e-05
-3.40924452057191855e-05
-3.77099293170987801e-05
-0.000306287417151534537
2.54547959710483543e-05
-4.95657087818439777e-05
-0.00030307787008602787
3.1104862827828505e-05
-7.03376673799268492e-05
-0.000301150717054074024
3.7533431130876545e-05
-9.84169044151997016e-05
-0.000302096751238173085
4.44844234393808858e-05
-0.000301593668349142534
4.41522236595478525e-05
-0.000122213463024986927
-3.2270476283373988e-05
-0.000293856033305965841
1.85667924989805748e-05
-4.19904813080628457e-05
-0.000286488812385067039
2.27658706435394646e-05
-5.82009273845803148e-05
-0.000277276346141494339
2.75445612369849012e-05
-8.5037820831627609e-05
-0.000266879436807787238
3.30746147304439121e-05
-0.000255431243249108222
3.63976832085805138e-05
-0.000120482678103244186
-2.16796824491061276e-05
-0.000286569705108139546
1.13408809427075315e-05
-2.63599535940166807e-05
-0.000277569504040856225
1.40720132290721381e-05
-3.23139294202607924e-05
-0.000266222405660056639
1.7205432614736327e-05
-4.16707100642735865e-05
-0.000251335486376259192
2.05599909006614583e-05
-0.000232940287853687801
2.32806812167648049e-05
-5.597039440970888e-05
-8.09936750943363819e-06
3.88746432981322716e-06
-9.18660506333481148e-06
4.91656992150253715e-06
-9.48888256370456059e-06
6.37134197341229074e-06
-6.38611737014346012e-06
8.7497428136062914e-06
1.34867813199237943e-05
4.21419801301543603e-06
0.000489264913444938717
0.000628278526264703383
-0.000122706255916307935
0.00130361177931062632