/*--------------------------------*- C++ -*----------------------------------*\
| =========                 |                                                 |
| \\      /  F ield         | OpenFOAM: The Open Source CFD Toolbox           |
|  \\    /   O peration     | Version:  2206                                  |
|   \\  /    A nd           | Website:  www.openfoam.com                      |
|    \\/     M anipulation  |                                                 |
\*---------------------------------------------------------------------------*/
FoamFile
{
    version     2.0;
    format      ascii;
    arch        "LSB;label=32;scalar=64";
    class       volScalarField;
    location    "0.270000000000000018";
    object      rAU;
}
// * * * * * * * * * * * * * * * * * * * * * * * * * * * * * * * * * * * * * //

dimensions      [-1 3 1 0 0 0 0];

internalField   nonuniform List<scalar> 
7248
(
0.000135379448234693129
1.39362532345641251e-05
0.000440801826987484674
2.01911690831388817e-05
0.00560742193491839055
0.00804238427683949021
0.00624745207756885121
0.00203410065156729974
4.81201524571115376e-05
0.00730282911736102134
0.0112272061381773706
0.00879503817271615022
0.00511021306528199829
0.000306369400256421452
0.00762933769134750694
0.0168621899750876353
0.0126382234819233993
0.00455609083172870463
0.00126689315449918455
0.0138774668382494262
0.0163532369038623497
0.0159856707145970868
0.0117382923273004793
0.0109333839997408314
0.0150045719590703279
0.0157853267371970557
0.0161585454010709437
0.0168950857620258424
0.0126408053831866644
0.0161860326362217796
0.0161651973909507744
0.0166894896710438993
0.0187977198494876478
0.00837223169998070095
0.0174968895221075671
0.0172425928059675194
0.0174531052581802237
0.0172909240724668199
0.0131493136162939943
0.0183780313093020523
0.0178990160780194626
0.0176113821323027712
0.0171104193791621999
0.017051322393469643
0.019023969073809828
0.0185049005449517967
0.0179137958646603222
0.0175946591102663849
0.0185827190817547082
0.0196695129752806862
0.0192306206970538074
0.0186268932601363242
0.0179993917334614097
0.0175945834395017375
0.0208319211240141668
0.0206023074985063857
0.0203421561621726678
0.0200227368708625376
0.0195634478713797924
0.0189169813628659519
0.018222000406878415
0.0213008798306639387
0.0212020460885298315
0.0210779206236583264
0.0209160701309023811
0.0206860764961477213
0.0203108552080451775
0.0197286972500810148
0.0218086349471897645
0.0218256928177214676
0.0218466816641401593
0.0218676920374321036
0.0218806859870436347
0.0218684151357455003
0.0217762626066870246
0.0159496879350799689
0.0161853005927772749
0.0164773735704018057
0.016842272642317066
0.01730274213457305
0.0178908491279838322
0.0186540444220120762
0.000104552476699105263
1.31230293544531837e-05
0.000325616770273747761
2.00511826750287139e-05
0.00548579138286423799
0.0082362543863593058
0.00666176559166177084
0.00153781915819838685
5.35114344462647736e-05
0.00742312287641429865
0.0123733365050249303
0.00961535642781895412
0.00608944481131921261
0.000252524823066143625
0.0074170934878251436
0.0145259878896149691
0.0125735957474706339
0.0053078533283853228
0.000764693670451070955
0.0137640284354757208
0.0154699913955526416
0.0165152893134421289
0.0139041985104461051
0.010113129364465687
0.015210765997910481
0.0162284897768361323
0.0168978582849021834
0.0164968334431794296
0.0145752553093768979
0.0165814619607671174
0.0168738834591515771
0.0172522938707361483
0.0172503740073936263
0.0157421850088937977
0.0179379215003431861
0.0178382476319293125
0.0178016443384170914
0.0171169767645492424
0.016043394837462633
0.0188786613521356589
0.0184565136585824116
0.0181940818552167628
0.0176666782747359856
0.0175887619395035943
0.0194407289561534351
0.018916201461006428
0.0183426281959717108
0.0180009470016425088
0.0188197978844256812
0.0198976894879111244
0.0194874779759397453
0.0189137966375459467
0.0183217332196330511
0.0181173013605810881
0.0204828027877300249
0.0201724280403923831
0.0197248737325454657
0.0190955801014486455
0.0184665952075545071
0.0211341064090518338
0.0209736242450794773
0.0207421172655320972
0.0203538426350436327
0.019758422794492754
0.0218278990600279561
0.0218392180696505185
0.021844002080371093
0.0218247140701461721
0.0217148028820945103
0.0163020761602119812
0.0166156516181624921
0.0170108372473980786
0.0175126296941017986
0.0181524862347383666
9.18978095884551583e-05
1.277415524692949e-05
0.000277640350921790546
1.9250211575395523e-05
0.00515784435077417964
0.0101915802699626308
0.00793681848488634462
0.00129095407208644226
4.4149418804343507e-05
0.00931888066946018855
0.0130396836092679155
0.0103778944138821425
0.00728695458468432526
0.000191715895879182488
0.0094351694924475378
0.0145076139212577376
0.0130437233009162885
0.00780540751378937681
0.000500536745771498043
0.0143268739335763746
0.0159361883816581465
0.0175280649506337725
0.0145191601084421543
0.00552109995361347358
0.0161430331031640339
0.0169325657830515473
0.0175307245022909043
0.0164334273030446905
0.0140863791257979099
0.0179818088048842514
0.0178758465860591048
0.0177279282642244899
0.0175197995101364773
0.0157192841948688225
0.0189902762258686124
0.0186460109495603515
0.0183125239435695947
0.0177741298489159372
0.0166296298781065562
0.0193427121751409588
0.0189745013361314885
0.0186960422398384021
0.0183431197903542002
0.0179982886963305881
0.01969076148434468
0.0192802926024459899
0.0187501329092097761
0.0183441438920363131
0.0190392356464741432
0.020109903344821347
0.0197527311642265863
0.0192405480510785196
0.0186820054506831104
0.0184964534751371097
0.020621862582405618
0.020335535378532707
0.019922329298943043
0.0193342045061702418
0.0186832170021860727
0.0212082093958785405
0.0210544462756088492
0.0208280485177725315
0.0204422986001926016
0.019873910668639104
0.0218283729846755516
0.0218362464744428636
0.0218413468449279655
0.0218293313216209352
0.0217362811229986248
0.0161519103511454307
0.016422362216092664
0.0167629476006181041
0.0171924785145607315
0.0177258963006386994
8.1393460924923959e-05
1.27259986597349172e-05
0.000233566632327366567
1.81838469785901095e-05
0.00399435615031254986
0.00587615289506093069
0.00799403040638653126
0.000883619769539186264
3.64886014599906654e-05
0.00926915817406369531
0.00948601470208604997
0.00990113222459928013
0.00413500123580469968
0.000159957592249512223
0.014429158079713001
0.0131315204544959693
0.0120971553226634464
0.0107079177381584293
0.000357162231395706693
0.0162868720010267004
0.0170568889890859547
0.0175303687458111986
0.0106233036054024475
0.00157273271388275399
0.0184699899664491629
0.018737398268785406
0.0190226323961517098
0.0168801958910389932
0.0139261965636975227
0.0197175789109791492
0.019072543387000894
0.0184210732333742813
0.0183936980758873624
0.0159059458372261056
0.0198903858580458844
0.0194388355366131131
0.0189040351012436068
0.0188961272834958158
0.0154008569264673673
0.0197958125638068513
0.0194769064051564626
0.0191581008334707655
0.0187106406126245663
0.0187465852829967437
0.0199758621638504962
0.0196113651150943459
0.0190850255871032014
0.0186599022496288826
0.0196057139477312861
0.0203489100965813519
0.0200053668137023417
0.0195002712669374405
0.0190179283591524889
0.019022480474637761
0.020774052705572147
0.0205090436212944233
0.0201062670267329983
0.0195274979348225679
0.0189100400789312742
0.0212959336037782179
0.0211516813095955387
0.0209325139209591699
0.0205479046377315989
0.0200127182981927228
0.0218454405613571871
0.021854686103857171
0.021866964428121069
0.0218700204071467404
0.0218187012822168881
0.0160282230470402687
0.0162638499907336483
0.0165604003035296453
0.0169317085742858274
0.0173854953396684747
6.56805152232210423e-05
1.24599233685463718e-05
0.000185333725141836425
1.68271348011131294e-05
0.00696000281116756353
0.0128096826398900084
0.0042939733975217902
0.000584908455193429693
3.19211101102960588e-05
0.0118298308255860209
0.0136220071299400173
0.0118343087706921108
0.00255815242398950904
0.000129675911406109404
0.0173299520574736014
0.013083097455185896
0.0122642122782123143
0.00832078245162329658
0.00028940901081509385
0.0192847862320503285
0.0188020234852274495
0.0146022212534505126
0.00994071258180369115
0.00098889670263774352
0.0202502969399423402
0.0198334426569152303
0.0202773188726213076
0.0184306932493517074
0.00874728059748829112
0.0200383821557680621
0.0197587695043351108
0.0195243275563376228
0.0187052202285632602
0.01633591605901644
0.0199847355878671647
0.0198380192405284081
0.0195645405483092748
0.0193535080336217288
0.0153686505098233617
0.0200529692706566363
0.0197949904736198952
0.0195410795395270093
0.0189670371361913559
0.0190511791451605725
0.0202610724236625198
0.0198991181927499483
0.0193998228874872648
0.0190608341518955643
0.0206453481931001444
0.0205645114559924701
0.0202283862634508246
0.0197187004226300235
0.0192674762103422874
0.0194312060691709705
0.0209375881994608298
0.0206799655268365412
0.0202575119330920296
0.0196860728461834
0.0191376522942828982
0.0213955282617567244
0.021262011519136946
0.0210422241943089353
0.020644484302398753
0.0201173610591153344
0.021878018474144844
0.0218923796973462606
0.0219161968110376248
0.0219298709582933134
0.0219103908754647442
0.0159319062807994939
0.0161401757666511936
0.0164028479810024441
0.0167351016353983473
0.0170576946486111596
5.37826419378145652e-05
1.26121921173568374e-05
0.000171069640383656352
1.67390108124639005e-05
0.0057938554784731271
0.0127997656490436099
0.00375079037497092491
0.000524303314317011056
2.94129278184276398e-05
0.011809018469518066
0.0181874605169791183
0.0123704612932262047
0.00222662514786478105
0.000108357739632142431
0.0177868327242177958
0.0176037008039720937
0.0166559410319419045
0.00655533147441908232
0.000263595971970933195
0.0197178683363273578
0.0157680283792720234
0.0107806132940664896
0.0118528624747467146
0.000785008630571071828
0.0199683901390496563
0.0189219986615317415
0.0152087991822214986
0.0175152838723925987
0.00400871299207253805
0.0199078934499163952
0.0202963746073867787
0.0205313875710362928
0.018434855354388175
0.0165417066628317233
0.0200765466869012935
0.0201296625828906277
0.0200849474130984432
0.0196346558246252405
0.0185075990636268915
0.0203292065294112499
0.0200981716255300841
0.0197480244998027889
0.0193167547272118066
0.0191136816991263718
0.0205351702189044832
0.0202067309117603955
0.0197331963933909636
0.0195213861922035603
0.0204901456572670719
0.0207740375414840785
0.0204541328478620582
0.0199617464963935363
0.0195495246729512351
0.0197064803977840992
0.0211045641447558351
0.0208602167136136274
0.0204401336798136386
0.0198951204425201582
0.0194951036415557909
0.0215044339277422163
0.0213849545991438919
0.0211724249432385762
0.0207919885826377375
0.0202880847929545263
0.0219238575171604895
0.0219459615548654834
0.0219783415490225446
0.0219842960668963396
0.0219484229505122995
0.0158628887299938175
0.0160513778415739203
0.0162906299617505759
0.0165982291074646161
0.0168080555519184854
4.95009214567979463e-05
1.35317212694201016e-05
0.000156648582385291368
1.69071263197494325e-05
0.0114871559215535338
0.015770376648149384
0.00289997454512751695
0.00045459494935928417
2.74297073402480003e-05
0.0141455186118681336
0.0197503241903353617
0.00926922766251349686
0.00165178496336319098
8.96648354677385577e-05
0.0179972927345595606
0.0207754475845814621
0.0180121277315093246
0.00499577841292813459
0.000239978243016568036
0.0191146332571628594
0.0178351848964649513
0.0160413086813712309
0.012559682548163989
0.000640966508510498224
0.0195691566603098735
0.0191675471060462101
0.0177590301229579722
0.0183251731693421932
0.0031764902089718495
0.019892557746324091
0.0208270843827971959
0.020909818339911037
0.0191100107463054412
0.0175504206232344716
0.0202104999013786799
0.0203855117810660749
0.0201528291235893546
0.0193863767688038091
0.019596936221229995
0.0206069013956984674
0.0204590889841450227
0.0200057133444027785
0.0194823446271759626
0.018805283174227215
0.0208090284005350637
0.0205249307464357884
0.020150234688580862
0.0199073004615881802
0.0197734153545635824
0.0209904057645063299
0.0207029266481012532
0.020239339804919626
0.0198122336463162386
0.0197546427274690496
0.0212740450047864647
0.0210565979733922382
0.020662269608421175
0.0201400660141385288
0.0198499082340013802
0.0216203521445270316
0.0215220828415265165
0.0213341931583603019
0.0209803426275463299
0.0205018635257809417
0.0219812706274430392
0.0220158514049760487
0.0220613091823554132
0.0220676922685026401
0.0220225522226003972
0.0158210919595475376
0.0159971909078065536
0.0162219194205239538
0.0164825705228170485
0.016622083014015486
4.90419858204224464e-05
1.38429536466196047e-05
0.000160362956340726005
1.73275350476907353e-05
0.00626442092429729726
0.0118254383981315474
0.00343484512234294498
0.000486708040222221525
2.71055539632445648e-05
0.0108583059334429501
0.0149628618057975216
0.0120072483400298288
0.00188729507740891759
8.16054804195292068e-05
0.0163242650882667491
0.0188545958428867309
0.02282010985107066
0.00856019112800329371
0.000227464064472084439
0.0197718042291495366
0.019634359068152054
0.0226258706697803867
0.0206077868771339795
0.000589604164953700196
0.0198377707084842654
0.0205578949088586552
0.0206787862235357327
0.0204425484843228783
0.00306457121144273993
0.0200591311193218276
0.0208457598725578126
0.0203730648340650355
0.0188335394754253725
0.0188690192228596378
0.0204275532696779061
0.0206316595078091317
0.0201089587585896248
0.019339070729190954
0.0199786672830497732
0.0208317172804725094
0.0207404472293217304
0.0202766316657573796
0.0197642084793221914
0.0184299275586852288
0.0210484151344505765
0.020840711668707157
0.0205609697768023778
0.020084077840011684
0.0194130042003717966
0.021185586825620991
0.0209553990850070739
0.0205522224933434895
0.0201060412675757097
0.0200416750172909067
0.0214199589437474996
0.021247804357648694
0.0209158410201099598
0.0204463926467353466
0.0200643773296834103
0.0217201701632293472
0.0216502424341838522
0.0215063040000352292
0.0212077249112462667
0.0207341404179896167
0.02202896748905692
0.0220811622892720764
0.0221509751328178295
0.0221911806345114829
0.0221844491546139728
0.0157965839067838974
0.0159679956892144932
0.0161874723889169798
0.0164257246018569524
0.0165306580151180459
0.00153387086425205263
0.00427229699495409142
0.00754918738056413723
0.00452472058211903991
0.00632268412675318376
0.0100479667435373187
0.00930213744061726515
0.00641074944586233347
0.00319973745330789493
0.0105116955809768375
0.0129793435683643599
0.0123033682906181305
0.00670226325953613301
0.00355703731137562871
0.0140284944033679457
0.014838900283051697
0.0144095834037500665
0.00890058492100663165
0.005108533260890738
0.0140392473264365995
0.0108904209531294916
0.0109243660297770658
0.0113902042759355688
0.00821998162798180491
0.0126854104340726748
0.0109422475399805364
0.011665319604724788
0.0128412951324784873
0.0123176692573088026
0.0165535140368978338
0.016069083953166613
0.0156383525249146685
0.0167135658383507635
0.0141140071662018713
0.0172108851662733965
0.0167819091061674301
0.0169867385939438537
0.017141386772471439
0.016067662694545487
0.0183752720350354136
0.018245382925148889
0.0182790503846097172
0.0181170323318674796
0.0175100290166866797
0.0191789849818720659
0.0190316649214926879
0.0190076478589404421
0.0188729615343364854
0.018539435955155413
0.0200764126144433105
0.019986983166895074
0.0199330429883176827
0.0198764740448708101
0.0198508117873996449
0.0209052685855820597
0.0208844235351772177
0.0208847797458157278
0.0209057564884052478
0.0209454259160133834
0.0210353552838244383
0.0212821460893041006
0.0216482309964795422
0.0217514942707427474
0.0218724540706922224
0.0220086394748090497
0.0221707866590452676
0.0224043165772097527
0.0228388166677977039
0.0222709254563969172
0.0224717780763036869
0.0227245759623322489
0.023032425648826689
0.0233986011415531284
0.0238536911344170849
0.0244953449827869478
0.016764814148452805
0.0172738488859451624
0.0179187582881670908
0.0187389270481021428
0.0197885517744286407
0.0211594437420570894
0.0230177250313909759
0.00236217987547424069
0.00533360417485197885
0.00965155068781688684
0.0089284931542635039
0.00604289050434827536
0.00899791254776184483
0.00898291960059443596
0.00760745764766648357
0.00495995343848207836
0.00940053344826295365
0.0113300555198585194
0.00965436672738158135
0.00581704442407278768
0.00404417879313031907
0.0141262480297094598
0.0151102257424100845
0.00977246481045508132
0.00622750425965883786
0.00465723221606958483
0.0165854638422888237
0.0149330180069068771
0.0102062537867532565
0.00818709068788007338
0.00677110642316623105
0.0151060716108855578
0.0145524944062413279
0.0133455059535335027
0.0112153090308920421
0.0103474928925875748
0.0156097818469916362
0.0156415640094374163
0.0161785985268096677
0.0149123491887171323
0.0137545509645359606
0.016562923579895833
0.0162265079477951595
0.0161624236722620329
0.0159207738992591247
0.0149755101826338863
0.017620616516364724
0.0172255576093745914
0.0168653189188923934
0.0163346606733799048
0.0154329529566365736
0.0187417034643394438
0.0184079990863847409
0.0180244179313193698
0.0175148418967331493
0.016839702964008444
0.0196899583483457832
0.0194834319997219986
0.0192271743305403205
0.0189169864557260231
0.0185976673439640292
0.0207902499306363217
0.0207289410666495304
0.0206597844472921656
0.0205790479812869298
0.0204857455460466659
0.0204002456223752217
0.0204011614324854894
0.0214924513781883063
0.0215451521237135894
0.0216150017759729786
0.0216994690758681268
0.021802380359463993
0.0219509492886724965
0.0222361012385024204
0.0221719373086765002
0.022345099382335195
0.0225638021628224543
0.0228339212902169929
0.0231620222411737207
0.0235697940678858409
0.0241231263906664696
0.0167018138434496012
0.0171934692388292822
0.0178175096705587739
0.0186141308858440921
0.0196408199713387355
0.0209827410905661094
0.0227663852223139555
0.00305702339443294797
0.00620728124737419257
0.0114057794862589736
0.0108855653639902336
0.00876069478218061311
0.0103814041453807304
0.0121909314732207494
0.0146874749006551449
0.0106475623838014205
0.0111557456459020245
0.0125022930047836468
0.0109402574473027973
0.00848621991635468281
0.0067682593427217403
0.0145639122673050427
0.0130293743784514107
0.00913304609353765215
0.00686143924671886538
0.0059711936559851261
0.0148833212000279817
0.0131064022571083013
0.00990394447568264912
0.00775702950768412253
0.00654119282963226082
0.0152764115275771384
0.014698382054439043
0.0124449954242811002
0.0107292786483264499
0.00948648740814822013
0.0159115454641030885
0.0157522383401879421
0.0148990682227324762
0.014332966189430427
0.0142777918502327156
0.0165431760233822368
0.0161246138088144524
0.0158345544431555754
0.0155181105391113284
0.0148080709111305577
0.0175730142924492676
0.0170688026990475188
0.0165030904112722678
0.015782930159733706
0.014880225725716012
0.0185703069473692507
0.0181526583026669908
0.0176107566136744602
0.016850447979346185
0.0158541514023273246
0.0195057358292386324
0.0192158796981943235
0.0188374585777994
0.0183094521986959698
0.0176486994989531361
0.0206909865518056894
0.0205949478773273832
0.020478787968524672
0.0203337575330682363
0.0201503726271335774
0.0199226022741503597
0.0196748453332356299
0.0213986692855720022
0.0214228990098559238
0.0214546972190748295
0.0214884581997195727
0.0215223131540376346
0.0215746076301141301
0.0217140407310509667
0.0220924919734155692
0.022241149965772377
0.0224280963852982115
0.0226572502103319882
0.0229340707020110474
0.0232773636250264912
0.0237465516410037131
0.0166311455623066734
0.0170993918949387778
0.0176922442140924722
0.0184477470868078114
0.0194208432134983962
0.0206956662117964742
0.0224015715489446279
0.00381973692451207649
0.00401245454253987364
0.0141376699793312743
0.00663906336454965322
0.00763758372906213692
0.0138540112870679123
0.0169306760567014165
0.0172479336131117766
0.00740828619895615281
0.0107555334869475095
0.0149462794922435721
0.0155176173914398901
0.0152305184203856258
0.00992554978932365037
0.0137977901673732757
0.0142966153422211736
0.0109293477207240419
0.00861684021336407875
0.00829808444846800129
0.0140469610763901253
0.0137484487823667963
0.0102924535044205054
0.00853352440225712758
0.00782741714764800985
0.0140403874245075104
0.0138197598363306619
0.0125588011887663477
0.0117227351173629125
0.00917822346004014411
0.0149583991684246499
0.0146693916960076286
0.0146134343632518711
0.0146013676750855227
0.012084912252208764
0.0162815662089307589
0.015792142879230444
0.0154128705778445122
0.0152334468195037924
0.0142913954644216506
0.0174221202854117144
0.0168609220822209457
0.0162290132254712394
0.0155974154775082689
0.0150720795429381185
0.018384278441444156
0.0178963542327745147
0.0172467650974889516
0.0164054292496282096
0.0154124922642293986
0.0193315286449918557
0.0189679925077083263
0.0184719087534607196
0.0177469371088730503
0.0167911856691998727
0.0206017705935708818
0.0204681581218018188
0.0203034668511183833
0.0200936242546944886
0.0198153890062931944
0.0194276959556489506
0.0189031590795470696
0.0213143733401921671
0.0213065813166472065
0.0212951299164828821
0.0212710783053048982
0.0212255890056317863
0.0211615755947467017
0.0211004326080609129
0.0220129731306458569
0.022133938700223163
0.022284930033235742
0.0224669019144484172
0.0226817157653869499
0.0229413477121587599
0.0232904301910790354
0.0165362334196033842
0.0169722355025326913
0.0175222910441870869
0.018221222296016918
0.0191198266234309765
0.0202980004841061129
0.0218838578023556676
0.0034678485442544058
0.000896395699537859414
0.012883181934389986
0.00130910629600422069
0.0111162482562107926
0.0163833600433935418
0.0157410886323320967
0.0142007453925570518
0.00188020253239401069
0.0122719837285929761
0.0173007233443976047
0.0134186675982091042
0.0134788348207239526
0.00875964159892512854
0.0144092119602311219
0.0152081495669157407
0.00885295784693885396
0.00973924512592275714
0.0102441130551637494
0.0137328363711172637
0.0138050384293116595
0.0109197721609078108
0.00977993490890673688
0.00901845145527109364
0.0132605890355140688
0.0129474752031703121
0.0129565741089641209
0.012781150138278019
0.0102601439692249548
0.0145089458835347459
0.0141024523796324328
0.0141947693916839486
0.0148599953641906594
0.0119589963156736968
0.0161878989892901316
0.0155816215043010509
0.0152191571744653784
0.0153422538338093342
0.0130501610260374563
0.0173417160908496751
0.016724731647530848
0.0161140108810374459
0.0157355257881334025
0.0149524230161089382
0.0182905073918299584
0.0177419508977873057
0.0170502240923242412
0.0163044131575870339
0.0155555935108002245
0.0192309338603092114
0.0188047299871544719
0.0182059998200695024
0.0173654499464275178
0.0163091385571860828
0.0205574847663522915
0.0203905702954017415
0.0201847590324913777
0.0199215814660651108
0.0195609454717535491
0.019022323502832849
0.0182520144522465844
0.0212538090344453305
0.0212174723260662133
0.021167980285259607
0.021093194783817007
0.0209782061906831074
0.020803057962678919
0.0205259744041397935
0.021942555640988886
0.0220366580834016404
0.0221526930186424255
0.0222888621381742737
0.0224422234790912813
0.0226157859625485229
0.0228294171726198883
0.0164249430065352385
0.0168228619943308344
0.0173225976115724406
0.0179551526183378309
0.0187657311549685873
0.0198265103675790214
0.0212546917900408444
0.00224072733492278187
0.00016423146122139111
0.00955715454095148326
0.000238514557278581246
0.00670159317829342217
0.0132854972090033566
0.0127630496366359317
0.0112280171892631744
0.000390778018748506428
0.0119621140931737858
0.0163786031730726797
0.010578498365363986
0.0122399843011275922
0.00172526378030311389
0.0156051974187366663
0.0135629910487175456
0.00729404246501567065
0.00988098189625861989
0.010096571911817797
0.0138683421837425651
0.0107902023112232282
0.0081167731902682342
0.0114641976501151915
0.0100132137872396502
0.0132619511186543304
0.0127847876838281787
0.0127705200477282368
0.0129416102940599128
0.00880057970860710463
0.0145907862413621088
0.0141440272199563517
0.0143845762097254953
0.0144479790822386357
0.0115814398414622929
0.0163257879368247476
0.0156953719937356212
0.0154814801296665298
0.015926726189703793
0.013970292390365173
0.0174153203261791546
0.0167844848234587722
0.0162188075328725187
0.0160474910359852847
0.0140942215006823884
0.0183279366778595736
0.0177641079956310441
0.0170981920639598529
0.0165417890978526716
0.0160538130471891381
0.0192221776860515489
0.0187626358632315138
0.0181243261767969968
0.0172972693139728448
0.0162755662704237615
0.0205571634750956328
0.0203679904061045795
0.0201351009618316243
0.0198353177217475904
0.0194133694546276478
0.0187721785124036304
0.01789218389722496
0.0212230559210995276
0.0211630994193484114
0.0210830904529594187
0.0209698071474317023
0.0208041941656112277
0.0205453730975606909
0.0201032197740944364
0.0218855572155357038
0.0219551303906292614
0.0220395423110653146
0.0221349497420511125
0.0222343145233270569
0.0223323221322705191
0.0224226518239690475
0.0163044347374977153
0.0166608650739123523
0.0171063873250460081
0.0176678416946766358
0.0183840799732739139
0.0193167193317675956
0.0205650039980271142
0.000997789839215301212
4.13308201188152517e-05
0.00732560509860683343
6.02435298049515909e-05
0.00625867994901575884
0.00971789982193404546
0.0107696297025052234
0.009013849265995506
0.000106736971506026467
0.00950284922072761051
0.00826003461163868878
0.011672044708397198
0.011456944863448091
0.00053489582644737708
0.0109839932264843218
0.00661470696332100167
0.0075115610620570877
0.00956209449459584186
0.00861743508647224397
0.0135321345230377046
0.00911217001788808094
0.00788822115979822235
0.00995849796858645948
0.00864916430771076918
0.0137744561219190868
0.0135064767183923472
0.0135187058705458392
0.0125600946105177535
0.00418089012959002495
0.0150039113526968821
0.0146448322398470832
0.0150693240840960013
0.0157301461518506019
0.00800291713817043518
0.0166610805086276278
0.0161195254287884934
0.0161462480685272344
0.0168127146825888529
0.0128497834586074854
0.0176346971120137606
0.0170359058922750356
0.016584765695699652
0.0166272792140849876
0.0162098025733730042
0.018479837335918875
0.0179208592879388784
0.0172899775586377209
0.0168885085675014729
0.0168009854439462869
0.0193060758979944243
0.0188422300896238376
0.0182181686929996332
0.0174977073738026116
0.0167712730827271651
0.0206075216226686599
0.0204017461944102398
0.0201524369718670132
0.019834500757234412
0.0193813762705157336
0.0187118023925447012
0.0178582574566473543
0.0212245952714190007
0.021145407091159734
0.0210428575383621967
0.0209030142471194891
0.0207033202976549639
0.0203910227549605541
0.0198717179151687851
0.0218445681673582609
0.0218926589107954657
0.0219503267146090204
0.0220127749165393571
0.0220707234699847668
0.0221127673447885191
0.0221132226728993457
0.0161814065369854376
0.0164955224256025934
0.0168864933467049727
0.0173771631175776743
0.0180000951450770344
0.0188058129201348311
0.0198735817102096597
0.000296371028674717357
1.68672910058318852e-05
0.00135058702343264416
2.46363201907211313e-05
0.00491732568028809425
0.00691820483486013833
0.00704940650364167028
0.00534316007221930303
4.64891836691626984e-05
0.00772020964957636537
0.00736606117046292603
0.0092809501770116723
0.00693548979683666477
0.000366170883580793464
0.00871577333391634207
0.00777862829101011628
0.0108666352842939507
0.00573935482272826258
0.00329410280137145068
0.0135094517693989738
0.0136437422332267161
0.0111605468207239544
0.00751081190906466214
0.00586607801446989863
0.0144491293314869523
0.0149007313322084972
0.0151003836784676625
0.0144810563812553736
0.00404416965182063676
0.0156131665563348562
0.0153973767849214342
0.0158656316549317458
0.0178632972131249901
0.00710851576855825451
0.0170668516808240092
0.0166652357451724693
0.0168537306229072439
0.0170044730207237309
0.0118932798334321459
0.0179709409956380906
0.0174268754675515163
0.0170760642571428402
0.0171268470675033889
0.0157227097368745419
0.0187211787043020904
0.0181790102707549452
0.0175715173493287101
0.0172343745463401712
0.0175231064293721837
0.0194636273759132249
0.0190123646539222431
0.0184071521390619143
0.0177434866690534265
0.017236137516916359
0.0207045303456245139
0.0204835630585957044
0.0202254671271576876
0.0199024245088670684
0.0194413293785031978
0.0187753055258059881
0.0179818502299039958
0.021252908902466592
0.0211608587015733596
0.0210438488396202696
0.0208884294874795463
0.0206682038764750553
0.0203183857498413119
0.0197478742691488372
0.021819516498782679
0.0218500109051699108
0.0218864815486135705
0.021924372990133497
0.0219545154715301109
0.0219621777451460137
0.0219042125122687059
0.0160616355559313924
0.016334930401359981
0.0166740433221144388
0.0170983270750565165
0.0176349267377303477
0.0183243896409973697
0.0192287864115183588
0.000352521617767008076
0.000267964094892143932
0.000573119162383315208
0.0003847583443466969
0.00135944203713977648
0.000906397644177746927
0.000548621930517421475
0.00197090576047023259
0.00221854240416384952
0.0013820194651702688
0.00076827363315652914
0.000188755282874361255
0.000154210406899151474
0.000287133313202260043
0.000206445080104163895
0.000747462133321256982
0.000429119952201891224
0.000264670081387311548
0.00258093754885194149
0.00140520185286015513
0.000614457194220524648
0.000321991966907714039
9.84227717897397027e-05
6.76339084279040348e-05
0.000135225427873197804
8.28843577239823953e-05
0.000325416804066683924
0.000176558406358530564
9.79649434177152454e-05
0.00118450424947443142
0.000476439182049638653
0.000213065536081303772
0.000106427944743771633
3.32770109301740226e-05
2.75280122090145184e-05
4.05572664352792125e-05
3.28263613532874148e-05
0.00010677770086556331
5.00518157156003849e-05
3.82583899515435885e-05
0.000370824514522576196
0.000130763041035336636
5.77643179076088592e-05
4.38610470132870612e-05
1.8054525507227059e-05
2.19461033559619823e-05
2.12608249494885588e-05
2.68114541541313496e-05
2.72178278265958136e-05
2.50895720739773076e-05
3.23236270093102648e-05
8.12362225585896736e-05
3.25016252051388123e-05