/*--------------------------------*- C++ -*----------------------------------*\
| =========                 |                                                 |
| \\      /  F ield         | OpenFOAM: The Open Source CFD Toolbox           |
|  \\    /   O peration     | Version:  2206                                  |
|   \\  /    A nd           | Website:  www.openfoam.com                      |
|    \\/     M anipulation  |                                                 |
\*---------------------------------------------------------------------------*/
FoamFile
{
    version     2.0;
    format      ascii;
    arch        "LSB;label=32;scalar=64";
    class       volVectorField;
    location    "0.270000000000000018";
    object      U;
}
// * * * * * * * * * * * * * * * * * * * * * * * * * * * * * * * * * * * * * //

dimensions      [0 1 -1 0 0 0 0];

internalField   nonuniform List<vector> 
7248
(
(0.657836352105966249 0.791732252384182544 -0.281796693539893561)
(0.475974875141703613 1.63523974718573983 -0.871560738411838343)
(0.483800296839310084 0.611081537785881035 -0.141390367225291802)
(0.504431065362842324 1.57166001106327147 -0.680783790882498407)
(-0.265050870974148256 -0.485410821649422008 -0.0223099173139979651)
(-0.464668117003577019 -0.0248651732870778415 -0.34608029420793196)
(-0.288700545746303716 0.00249927524106248466 -0.428214443971137726)
(-0.0484975296527925676 0.0867261731899572619 -0.194828516329408369)
(0.495354235545619082 1.24572826330770159 -0.524382674359266332)
(-0.351074754052677462 -0.335808839970875683 0.0673237611672065639)
(-0.44403571484135651 -0.148963796113587593 -0.0963242680126611267)
(-0.260934460083562025 -0.341597725277342168 -0.251432600240269144)
(-0.317814075370246418 -0.413372968584767242 -0.339941562584879231)
(0.379817419737890904 0.443319948714135659 -0.399259632026670086)
(-0.375240773128464378 -0.325086583444994137 0.147174430869327771)
(-0.339402503313048387 0.0433838068723498213 0.101086414118840673)
(-0.24111334685722785 -0.199723408307609096 0.048911990496593491)
(-0.230962866483325757 -0.467123794732692887 -0.0757225915378636066)
(0.119420596215437158 -0.21094069329005774 -0.238475585493288345)
(-0.367485285678982976 -0.545528288343631096 0.266306130627753879)
(-0.24261272411489046 -0.376697233059501868 0.231346797918336317)
(-0.0810892053071185503 -0.421947033818387773 0.218498289071973634)
(0.0865734557102942059 -0.556180387974163248 0.141386415773317092)
(0.0281025267933136397 -0.404215061401201114 -0.0451748545388809195)
(-0.220074125323569514 -0.578196661911168031 0.27163298765931454)
(-0.137879911237762803 -0.54501656589582359 0.273480397265540021)
(-0.0530163535369358591 -0.501669811833173163 0.26906397178226038)
(0.152197806288078941 -0.436533133906038762 0.167560751250109136)
(-0.105697356580098434 -0.43809557478176997 -0.0145117722047394017)
(-0.147032908311415383 -0.548571464546593224 0.215475119519636688)
(-0.115173130476287536 -0.552904024902602598 0.244644628624723998)
(-0.0597359004367734106 -0.504045858811961955 0.250127265988453917)
(0.0963462660506847479 -0.37141790393013141 0.158407126980612545)
(-0.142189562950541803 -0.348147241779396155 -0.1315688379712871)
(-0.095277010780470156 -0.523120241050568757 0.1601558630842424)
(-0.0767107969067549744 -0.529307415411880755 0.19263150743405752)
(-0.0353218533151129013 -0.51383967356998328 0.209721716277680381)
(0.0720973391570296773 -0.441303245107615871 0.176919958007417305)
(0.17889068556814311 -0.43635564767035856 0.0249987621790610307)
(-0.0793359747654864 -0.498376502551215794 0.122234295506926521)
(-0.0753979609234510517 -0.506076391257311076 0.156440775165302082)
(-0.0565008574180552239 -0.521796247411771552 0.185060333580128467)
(-0.0155272737178973608 -0.516410832403060183 0.184092874429432618)
(0.172868474593558363 -0.441322333549764301 0.0654088014350613089)
(-0.078629543161536225 -0.461588873769167851 0.0963816096547728263)
(-0.0842073521383765455 -0.469833689148065559 0.123664705209888384)
(-0.0904239249617409535 -0.492909532250974669 0.148470026730125132)
(-0.0865306558690703553 -0.510578471561508263 0.149055301394439871)
(-0.0534758708554962242 -0.455024337767534592 0.0853718251784065241)
(-0.07466306418228362 -0.435144013209262159 0.075933401674807513)
(-0.0843500244351298445 -0.433556764977372722 0.0955563969785188094)
(-0.0976508339050771723 -0.442683403012893939 0.116954974575330148)
(-0.112624137719888065 -0.460977259658095551 0.13343265093586637)
(-0.120082453808653011 -0.473655107231327865 0.120047286277075504)
(-0.0505161554816979247 -0.427608183964191424 0.0326217525270249761)
(-0.0579614997056858289 -0.419634189641760524 0.043960594243466225)
(-0.0673014573727428456 -0.410675016988660269 0.056654685972140989)
(-0.0786203098468184619 -0.402060405452006497 0.0706648982483025073)
(-0.0934848723841558843 -0.397183422297850919 0.0866295480403900531)
(-0.117304659489972651 -0.401339466509448073 0.103147731748522126)
(-0.153307189511117159 -0.40576138909501136 0.104636353708149429)
(-0.0396246787408044976 -0.415624461274489765 0.0236845767047290309)
(-0.0455811018157574396 -0.40399829559915118 0.0310296862731372844)
(-0.053292337616397234 -0.390590632400727278 0.0393393926670227573)
(-0.0634911147197319004 -0.375488087139179361 0.0485651338565910029)
(-0.0775162670758588745 -0.358733876355146308 0.0585477998743686862)
(-0.0986018126819379337 -0.342232261478966404 0.0690002862897327873)
(-0.133988894956666327 -0.332000302516145651 0.0789466398818995385)
(-0.0256213447277313516 -0.407124021153681126 0.0143146881026197399)
(-0.0298120525930348976 -0.393379897313577032 0.0184781081823436055)
(-0.0348679914512352238 -0.377042825926531211 0.0232417481402631479)
(-0.0412593034990848262 -0.357723717158168253 0.0286468036277357646)
(-0.0497469882597621205 -0.334873778391865773 0.0347517630080486015)
(-0.0615910390577459887 -0.307147078799668516 0.041633600575579105)
(-0.0797564561065397387 -0.273124738428308311 0.0490714924878204589)
(-0.00911289573054030466 -0.403375117722487686 0.00485654426360580642)
(-0.0108010843820778666 -0.388787580601823002 0.00621462103907053504)
(-0.0127497106091971346 -0.371328035819074753 0.00779036918338349687)
(-0.0150052726959607873 -0.35041210115610838 0.00960783995780485622)
(-0.0176220722969989592 -0.325309103518332365 0.0117232973525462619)
(-0.0204280769472168083 -0.295172474286369557 0.0143684914045040506)
(-0.0235783348269017062 -0.259012500084129571 0.0182160816513085612)
(0.620672701856487818 0.882187448570804555 -0.321555917748865938)
(0.458473315165141726 1.7670683573633188 -0.638430277684854164)
(0.45287982484557282 0.687025554831957264 -0.224721591949227251)
(0.481358305404825326 1.67983814613695737 -0.556828133280038551)
(-0.117088439298522223 -0.564733281169483736 0.0594422483812106009)
(-0.45788436567636337 -0.228793015282538176 -0.285502469540393766)
(-0.296642997897818117 -0.0723822219290391478 -0.380615315737004245)
(-0.00120377574840738188 0.16902465941877734 -0.211960014835450822)
(0.472139065954606252 1.35455160948479603 -0.467992371205780688)
(-0.245638442499920062 -0.449731100950105156 0.143264146118352392)
(-0.443863203346707924 -0.432334358198144808 -0.0335454904036873655)
(-0.288311017351334742 -0.531809924203422324 -0.227783113061061193)
(-0.341976108084779851 -0.407630489609812352 -0.360222533681425483)
(0.386544719676571669 0.688037323861786287 -0.377963181159797768)
(-0.347695131079990616 -0.377663939630654033 0.204979410012905289)
(-0.408034287196269219 -0.266553808050903229 0.111558583562703761)
(-0.316361553252939409 -0.485071371848550759 -0.0518256020622186037)
(-0.350786300786049388 -0.526666885898798509 -0.242102804054253995)
(0.128195079978717458 -0.0819870264495876633 -0.294629260698462181)
(-0.4131206845013215 -0.494338704595682077 0.264817398462952547)
(-0.26585851040893782 -0.389680441120392407 0.245341432812048593)
(-0.11027450096086952 -0.459770661104510037 0.141707630387431338)
(0.0527176250514399536 -0.568459797475511897 -0.0553691687802680826)
(0.113485843063905245 -0.433116059354843985 -0.250756541067784167)
(-0.248118753697576161 -0.561665216028856773 0.232667262301465172)
(-0.137863319195919376 -0.542712298385628955 0.236281124173489399)
(-0.032392969294951772 -0.496521235934872462 0.203633948232297135)
(0.203099139697803382 -0.464542987934766449 0.0820413744154292468)
(0.0292675518425904307 -0.467311261167627334 -0.204551185845324834)
(-0.159233984480172536 -0.554361853034346486 0.161866151056786145)
(-0.0935127715518798974 -0.57740722313510362 0.187585149305819099)
(-0.0282686660063263054 -0.548725710911398434 0.189661781984234418)
(0.137124406073955873 -0.464688234575825143 0.116293236900155667)
(0.00532530543624856745 -0.391069000990540205 -0.153185713132940382)
(-0.0816291649701079841 -0.536324265066494332 0.122793394604027745)
(-0.051255168827787842 -0.554073409745327927 0.152152242395971804)
(-0.0103836012510355458 -0.547355048423858292 0.165201741938630742)
(0.0677601510384609751 -0.509888597936975496 0.132315177553128216)
(0.216345163031992138 -0.447226117491115682 -0.0315221521950130174)
(-0.0472128378291159501 -0.511354453062664804 0.102363370112702537)
(-0.0461214620409391568 -0.523535159912073333 0.129150530503883865)
(-0.0278822758005589505 -0.543101405386079761 0.149455003039851542)
(0.00129482380801081154 -0.551549473261818801 0.134079490410384916)
(0.169259359789661112 -0.460387881874624039 0.0228260577925303437)
(-0.0526207874216873539 -0.475959704796103167 0.0839540879030538645)
(-0.0617709136596897648 -0.485377483130206788 0.104588201459773669)
(-0.0680667506831531821 -0.513043243942488458 0.122993677666555751)
(-0.067449629036916342 -0.53261554991121185 0.121206721303522724)
(-0.0371184577910416841 -0.476920563169624057 0.0650632248092614385)
(-0.0605649854741686505 -0.445772055631585395 0.0672102431918183141)
(-0.0682056732114981468 -0.4487952688923591 0.0829016098309042354)
(-0.0802206920713019189 -0.462004506084300326 0.0998800065292940742)
(-0.0941034700036704475 -0.483486369257823456 0.112290962312837653)
(-0.10050714141536557 -0.48727875075204119 0.0970715782598237514)
(-0.0560050816598297793 -0.422074137913151182 0.0508487410214769481)
(-0.0666725338760535552 -0.416233452428769357 0.0624541401582988445)
(-0.0809419794759263789 -0.414495963411072643 0.0753838235143124008)
(-0.104753737512733092 -0.422166674015686583 0.0879615732143441964)
(-0.140113524488537172 -0.426231777382564847 0.0861795396384835155)
(-0.045882555793817878 -0.401132619611854258 0.0356444055588984732)
(-0.0553274591608653027 -0.388514383668491503 0.0436747110035164143)
(-0.0687600183141720556 -0.3743102861078626 0.0522573105481785871)
(-0.089888550327511918 -0.360687295160082799 0.0609943425011110138)
(-0.126154262214283164 -0.353881222861344769 0.0686591846050456228)
(-0.0305070221692931715 -0.387213200013082071 0.0212372186239523641)
(-0.0363132720059352737 -0.370178535501497485 0.0261189551023463251)
(-0.0440507059039700749 -0.349762480710043011 0.0316560219620806993)
(-0.0547954027152699474 -0.324443740072840658 0.0379893839979390802)
(-0.0719199220955951402 -0.292994188869000083 0.0451855525956229298)
(-0.0113100184119760347 -0.381390349073464474 0.00714771660019314532)
(-0.013308921803541901 -0.362803625226279569 0.00883321239852709501)
(-0.0155133596065778045 -0.340397318091924805 0.0108333444822746108)
(-0.0176042957775212824 -0.313466505643183013 0.0135266777802120486)
(-0.0193799942754668206 -0.281414824114982032 0.0178458327001161238)
(0.59831534380867224 0.892297232210622071 -0.28366207095369772)
(0.409433965996753302 1.88092173368512849 -0.553805333374675746)
(0.476241002189267015 0.698914526910513478 -0.214218464985676815)
(0.455426611905920375 1.77214088762804134 -0.478958547568535675)
(-0.078080144415413541 -0.686930134502618972 0.140173120491376701)
(-0.329024848626167654 -0.368934208665010033 -0.155567276031346013)
(-0.212777280567652077 -0.0575961831749999542 -0.313220960090171252)
(0.0873441692857352819 0.197700697314260709 -0.182170691246103106)
(0.470252748444588031 1.48851511718195439 -0.408357975891109781)
(-0.305521347048255565 -0.568384785369472012 0.200252208565446482)
(-0.393716985152761878 -0.577622679603366551 -0.0105082524672093329)
(-0.121331826806373888 -0.580942234561402482 -0.228577406316186005)
(-0.16678305139648178 -0.279574146882740904 -0.280603025769937786)
(0.422509794973704111 0.909761659118940247 -0.330410265373250578)
(-0.407269022067004105 -0.52194273085057874 0.236574029641070993)
(-0.386174395018899164 -0.54131693735031261 0.0581847832067258972)
(-0.257372375667319409 -0.583651054917810774 -0.177549764929304521)
(-0.28448892243901458 -0.368284481181062329 -0.323109563663875443)
(0.223125545125464259 0.272891875872903367 -0.280244295134675636)
(-0.379706787493679643 -0.53792848266394222 0.210551338650024011)
(-0.229250228141818085 -0.536863560993945166 0.155292003982677951)
(-0.0820173453110786821 -0.585050612705289352 -0.00199636329471464258)
(0.122954850364107637 -0.5912403809731962 -0.185899566908255154)
(0.149331373651727994 -0.33358171832530642 -0.226625610872865313)
(-0.206891602687359205 -0.573570903654136988 0.141659557734692604)
(-0.110864126624054954 -0.584412445592580432 0.157881769925864751)
(0.00172406026531182408 -0.581574109251963511 0.103792937204894548)
(0.274797437793104948 -0.619916186388501433 -0.0235098667789393513)
(0.127701570990579633 -0.495064481725602135 -0.262113681127433384)
(-0.0919942170850941016 -0.580825495514478374 0.0719981142910301186)
(-0.0569563449228003768 -0.599812387521521773 0.120446110928670455)
(-0.00148914177846837248 -0.606639745114705087 0.124770210263702774)
(0.134089001132591479 -0.5589570964524051 0.0461996986154400088)
(0.00313666599665555351 -0.404793986657699112 -0.225580354685317619)
(-0.0368618549784428678 -0.552765522367776874 0.0731399939653096937)
(-0.025253239514770022 -0.564644437133373867 0.104840296417364115)
(0.0086879491355912955 -0.574035138133532796 0.115890188979772046)
(0.0581171925370869077 -0.565668620122069643 0.0678563276973627866)
(0.183999085717260813 -0.46653301526693608 -0.0795617348374361294)
(-0.0339501815652680713 -0.520699900991901776 0.0814577397874530346)
(-0.0292447228232516621 -0.533121261894581755 0.100029655661902805)
(-0.0128603673884249287 -0.556579512905661433 0.113080175766222299)
(0.00318443763356459492 -0.557651312699796176 0.0928820495454368844)
(0.144184686549879926 -0.479208641024251536 -0.00286117711228119596)
(-0.0417573090427623556 -0.485833306290420319 0.0711652307971967074)
(-0.0472724956488358439 -0.496490360515057572 0.0847313671885513292)
(-0.0538457860842427374 -0.523875076016437013 0.0980802660599318227)
(-0.0569830793939147331 -0.553223101982633469 0.0963652313379406295)
(-0.0335566583915554717 -0.496983031645040596 0.0421032429864524813)
(-0.0489391406949289884 -0.457253798849161675 0.0568119455580231164)
(-0.0560916823601147335 -0.460876178735560638 0.0687525682463897281)
(-0.0666907803916619857 -0.473485779592723754 0.0814671744284855004)
(-0.0802339059575512548 -0.493860687020724443 0.0906018187418543008)
(-0.087120367165333612 -0.513138723381506456 0.0745521489051799713)
(-0.0472605791612242879 -0.431717526227266057 0.0440080928396389057)
(-0.0572780751832275489 -0.427933452653802671 0.0532179412925434317)
(-0.0708277204376765446 -0.428371523802144993 0.0632048627168869948)
(-0.0938460334291967846 -0.436829031239993115 0.0724012289777149903)
(-0.129384593660225811 -0.436249563154944398 0.0695856590559660038)
(-0.0395068976574084046 -0.410377554054299432 0.0310666292824363331)
(-0.0483875325387802813 -0.399529814152905893 0.0378338208751471464)
(-0.0614114495246865927 -0.387120056994621153 0.0450797303145284503)
(-0.0824974147257345608 -0.375440390075783614 0.0526371500790495522)
(-0.117615434643291161 -0.370678344235907398 0.0588652906115256294)
(-0.0266713126810397688 -0.396130266964079103 0.0186661416321975762)
(-0.0319349242059145735 -0.381053460503450125 0.0229309208930653513)
(-0.0388963155133957711 -0.362695788392625784 0.0278168458645690758)
(-0.0482626112632988519 -0.33936918327800103 0.03348483412283184)
(-0.0632851285790969054 -0.30982392600907982 0.0401662958468849418)
(-0.00999908164777126886 -0.390362182195774454 0.00630677208462923806)
(-0.0117366688372327367 -0.373869527256012746 0.00782182649070361016)
(-0.0134520791932658534 -0.353923572070760251 0.00967979761704954554)
(-0.014640890402797483 -0.330031601837051325 0.0124339034825308604)
(-0.0145898032824176207 -0.302246575411882545 0.0172651953667493085)
(0.614649835764015329 0.917076658424748059 -0.229192944075242377)
(0.404202648822208244 1.92561796240169381 -0.391579781669952387)
(0.517138049225091545 0.756441293476582288 -0.166415853557901033)
(0.457185817772673475 1.82595655290257941 -0.358345802366937694)
(-0.0707736331748149844 -0.839456081652488084 0.115432057522235329)
(0.0177600110231355378 -0.681027046654911317 0.00630141230419464272)
(-0.0656152497375141475 0.138185979464720832 -0.197490445755242078)
(0.194482723045482114 0.385753931597256294 -0.157032844247780801)
(0.474929413001141276 1.57029097995377054 -0.324215096884899689)
(-0.219912700160361851 -0.75363275412826547 0.150598594746365028)
(-0.109738755617036596 -0.666463160895556572 -0.0251729297881273621)
(0.0472378863219773404 -0.259263398716454929 -0.172703829359058397)
(0.0410233180099241618 0.010970656078131219 -0.196946717414126754)
(0.437501734302119305 1.07519913843740578 -0.278126266213231998)
(-0.322890424148915445 -0.613086353592644517 0.110770043473444074)
(-0.203282952386010435 -0.622613913321046764 -0.067936373376778561)
(-0.0719047319163534787 -0.332883755733130171 -0.224931107149137749)
(-0.197292639582690499 -0.157470750176307572 -0.336668915794901713)
(0.283604767913360034 0.591544264863424707 -0.254689723142816626)
(-0.262586766701671026 -0.566290808303150262 0.0475073838008688784)
(-0.16990943254668997 -0.609791006749943132 -0.0381251992236024267)
(-0.107032122468631877 -0.459962228438525689 -0.157130553508947057)
(-0.0368032349236903505 -0.254501359109502667 -0.212193143165706644)
(0.113185163315831117 0.00250821628286620937 -0.210829143301547256)
(-0.0863667176833660399 -0.526964097105849349 0.0496071894849769157)
(-0.0133035946090813845 -0.576166057955166622 0.0564628505998394578)
(0.0578892662150094287 -0.582142189354326933 -0.00553092915930565587)
(0.3074226288432238 -0.555636802012414055 -0.133230607526691414)
(0.18336292400716786 -0.349402515999131136 -0.22559458669734872)
(-0.0168366773657884286 -0.544746009434018075 0.0394104134296356726)
(0.010515490139176617 -0.579179770859839183 0.0667985630795689123)
(0.0288033760254966693 -0.588878149958146357 0.0588858462146863437)
(0.199244596452125833 -0.507592793459177738 -0.0485606894177666587)
(0.0294093709264754213 -0.303907125404398959 -0.269980372313768757)
(-0.00724883906743898146 -0.54036501098673384 0.0525266913882393438)
(0.00652010904420701962 -0.551878440845308127 0.0700474772157893416)
(0.0147108710937123438 -0.574851287407224132 0.0708832227255489777)
(0.0560531005850988043 -0.535779648444648426 0.0073813668275591604)
(0.0918890707701428555 -0.352782398221341775 -0.122513985882204357)
(-0.0224994502349463582 -0.525258673596439962 0.0588476528355861769)
(-0.0199514857954708538 -0.532767234996531003 0.07219565819047008)
(-0.0076185465425609375 -0.556144105778150766 0.0808357665569584827)
(0.000272078416473676976 -0.558389203136650525 0.0653733221066062908)
(0.154305131861843164 -0.4588155842349671 -0.0122931997082463274)
(-0.0358096287063594879 -0.48809483844009538 0.0551785820336318164)
(-0.0382678680952606223 -0.504254245925542022 0.0654327521196442358)
(-0.046782914219433272 -0.530824489583726522 0.0764484225281776425)
(-0.0546498385062466757 -0.547640939155846329 0.0754884976000861352)
(-0.0306231246392166673 -0.467883558298948121 0.0178134302820223307)
(-0.0396027669019335879 -0.465244765607032151 0.0456852737262394976)
(-0.0472781428372191712 -0.469263393364690085 0.0546818912677073735)
(-0.0593539968082734543 -0.48361374863415707 0.0641141744485717036)
(-0.0743285403610773887 -0.501017525741402125 0.0689170160110592067)
(-0.073307152927272301 -0.50097968329574305 0.0508740060261566665)
(-0.0403846132773736377 -0.439144625679335876 0.0361978156332451173)
(-0.0498191541740461846 -0.43683228653580003 0.0435085204917768781)
(-0.0634957987232092763 -0.438844368795128836 0.0510667909626570521)
(-0.087283082794077621 -0.448283772025907024 0.0577461248328201907)
(-0.122456889615982528 -0.442942704145626032 0.0558857226655052747)
(-0.0342409778200255602 -0.417982457773828364 0.0259141664766432481)
(-0.0426818260977329944 -0.408474448426775438 0.0314508735200116352)
(-0.0551989484423067167 -0.397458439997643076 0.0373457796177176782)
(-0.0761875646457399053 -0.387382478947918274 0.0438834790496124491)
(-0.11036175107466667 -0.38184182496919028 0.0492704097905493285)
(-0.0233925185150351128 -0.403670260413873661 0.0156912104901091101)
(-0.0281740471836428516 -0.390194607492876488 0.0193067500166424696)
(-0.0343775227220952384 -0.37347008687193356 0.0234744535860387966)
(-0.0423771072420328493 -0.351843778654526984 0.0282537879677676219)
(-0.055187866932130264 -0.32467471124894598 0.033616938546933102)
(-0.00884689237385416147 -0.398056216892957171 0.00532499376831559353)
(-0.0103175486576803505 -0.38338021090622576 0.00663895987983357215)
(-0.011459862986123984 -0.365621616904638569 0.00833163767660302472)
(-0.0115923899812302479 -0.344536536292406992 0.011108011623798663)
(-0.00901335395472604647 -0.32083239687359344 0.0162262127773179117)
(0.610330133356046911 1.00433792942436306 -0.180212253277280327)
(0.381167534894082616 1.95527809390376328 -0.307538312599398012)
(0.535149202812276847 0.898856211853896414 -0.147522091981440145)
(0.441385057367595368 1.88279835596678646 -0.283373215997853367)
(0.0355806338391368229 -0.776335055806667063 -0.0332014286507641282)
(0.115813512604432955 -0.178088568798066005 -0.195084236114109827)
(0.0882246748776299994 0.394336539782998707 -0.175331460564108255)
(0.277086292288738489 0.623984992990662235 -0.139182555262713448)
(0.462457422178192801 1.65062543428178499 -0.256117175876809877)
(-0.0607407410022130639 -0.716716666660993207 -0.043183664091029958)
(-0.0941734417834976939 -0.243202839222901868 -0.177561846080353969)
(0.00966599903494137422 0.221586307751482414 -0.209625609366467264)
(0.105129992454575119 0.353150003036169835 -0.162579132252874625)
(0.433027309550949091 1.22716955166791153 -0.226749205400995663)
(-0.131387209555369366 -0.524145316504748049 -0.0348872273326228527)
(-0.121117702271301281 -0.386356510350072402 -0.115580542128040947)
(0.0325442169987954916 -0.1353788639184966 -0.150593187269697726)
(-0.0789731163561055022 0.016555065006541414 -0.224128858005560677)
(0.318541839985268249 0.775063568638493017 -0.199608408076992011)
(-0.0807816543673140347 -0.515029302040287518 0.00186205202256011643)
(-0.0767143024192140643 -0.470697993354386501 -0.0443438262429752816)
(-0.145100494185314705 -0.278750288268480861 -0.107970404479655169)
(-0.041409271511579096 -0.0617476739217379875 -0.236372842004320044)
(0.164377807582441166 0.215242790332714456 -0.18743557923311846)
(-0.0171828363308640861 -0.536604574482694163 0.0308482077516102765)
(0.0325332260921543104 -0.550445857031043317 0.0310674852222559972)
(0.0771199870620418587 -0.501247213258503299 -0.0199675394275301843)
(0.211681073378231721 -0.219751537387827323 -0.148485955806824499)
(0.174520927231345491 -0.138143425834710426 -0.185548891655406362)
(-0.0129751682226471945 -0.559491781637001639 0.0408633862199938233)
(0.00533624345722182036 -0.548642545685481764 0.0486739944058174889)
(0.035353716721825787 -0.520701119523733991 0.0166956079119124565)
(0.256119155122187248 -0.370140772774250393 -0.0813612093600425967)
(0.0991073722514527189 -0.199194374079929737 -0.219002619750263638)
(-0.0111815321368017376 -0.547246568848706816 0.043267240270826228)
(-0.00935819454725187599 -0.551585837386562305 0.0490463761642347118)
(0.00568999248321983703 -0.551698884293327363 0.0430364439777683253)
(0.0792538373256945483 -0.466914234870245692 -0.018705662714459774)
(0.0598019607032307041 -0.229894146364785862 -0.127073010880955545)
(-0.0187242563385064953 -0.520795536013233362 0.0475719269547320786)
(-0.0157386872995039229 -0.534457969598419291 0.0549023911006528004)
(-0.0044245429235246353 -0.550659954630928428 0.0593563842731793662)
(0.01209463472043356 -0.536773669794734953 0.0454119616896101752)
(0.170403234224420275 -0.405326822559221533 -0.0105244924673257526)
(-0.0285089978941876557 -0.494608852453956971 0.0409698339309848628)
(-0.0314066394868122017 -0.508914495830677605 0.0497518481341609406)
(-0.0407800724653966731 -0.532462333555280165 0.0597318335695940991)
(-0.0495029444494242687 -0.548529469774589606 0.0604353526987703171)
(0.00636889292045428324 -0.406695735252134094 0.0118924325547074671)
(-0.0329633644497193401 -0.469977109882308786 0.0354424100186630855)
(-0.0407723914802282372 -0.47643069565296331 0.0423263323836206851)
(-0.0554223728068240634 -0.493317462146572128 0.0499432631472981753)
(-0.0728898930801939043 -0.502360732684860589 0.052611888151019609)
(-0.0586548179919365031 -0.47102649548381692 0.0362213478424097887)
(-0.0347422346925253811 -0.44481319931158303 0.0281765942155331774)
(-0.0441070588981307202 -0.443126772387854695 0.0341047637631023415)
(-0.0591616851259978496 -0.446228390131107322 0.0403438625090279043)
(-0.0844153035722358114 -0.456212524763783822 0.0464941572062418929)
(-0.1190100964283657 -0.458850986293850072 0.0458115378548642621)
(-0.0299939143615045069 -0.423876630600767468 0.020449995718462767)
(-0.0380775293926973457 -0.415484268770827891 0.0249273574414362285)
(-0.0500112323608420256 -0.405717481389282431 0.0297852695191417847)
(-0.0714884799740894694 -0.396923322118179545 0.0352380500417033143)
(-0.109475554438072942 -0.386217084507159636 0.0392730665454368022)
(-0.0206804934163724967 -0.409720285909050741 0.0124520846962033124)
(-0.0250540204244940543 -0.397518749413525496 0.0153890951681600052)
(-0.0305702170090176618 -0.38197713273979883 0.0187694638421126922)
(-0.0375559455468166062 -0.361863080976418616 0.022419199095235303)
(-0.049655203382486697 -0.338517563540531252 0.0258726775272794182)
(-0.00787193836267691995 -0.404334713426503567 0.00424661527411270782)
(-0.00907673286823544589 -0.391189353891695457 0.0053381188117506799)
(-0.00964414781888603412 -0.375312193117153636 0.00683342905328928642)
(-0.00865210370634948538 -0.356703400263571058 0.00936883766398815404)
(-0.00199412599500739876 -0.336399633863021574 0.0142339794804230875)
(0.597704464506128574 1.0331865351041134 -0.143617174640105705)
(0.371077014533507776 2.00141271292008316 -0.2045244391888284)
(0.535892562888778956 0.91314164353448013 -0.113281238829208181)
(0.43420776460984134 1.91141232543032258 -0.189120792839249013)
(0.232868622518003943 -0.94807935866644244 -0.00490533156246170717)
(0.188047999408611 -0.355738519826028998 -0.0968616142216504328)
(0.137455402604321625 0.421276147049104543 -0.119737120459691232)
(0.298556644186898756 0.66719732403578258 -0.104118246592326671)
(0.458327732710979929 1.68382390973183727 -0.174902257460309296)
(0.166375760045980314 -0.914299087557162715 -0.000146746927626863893)
(-0.0695423897964657228 -0.282947741271455167 -0.0533941451822327953)
(0.0391415783288658198 0.341307041565498404 -0.133888822112483208)
(0.130358715232389621 0.472127317468902519 -0.116610568132883785)
(0.43526462536684335 1.28487947537925784 -0.162290937718907569)
(-0.0152151855792659416 -0.610827699106047728 0.00489025954912171434)
(-0.156079743812425842 -0.336935178530480994 0.0159770277253114927)
(0.0823308253317905081 -0.0505385689361461665 -0.00653484209180810703)
(-0.0106188613926575699 0.204642425720993754 -0.124205703403357209)
(0.33913052681513095 0.850666785553348959 -0.143176250054371151)
(-0.0711376928296267586 -0.534118098694213561 0.0189065185319825801)
(-0.0694827219549966763 -0.493941387273882038 0.0434675265984545006)
(0.053986752367311118 -0.289209328707948077 0.0376724373102479693)
(0.0718042525236709944 0.0810421591365735605 -0.168643018525132471)
(0.223268620860718192 0.382859761684581801 -0.142541913733555514)
(-0.0425850040900242824 -0.549195629840744992 0.0106525415445693425)
(-0.0155797391592943438 -0.521190743498247011 0.0130428274491800854)
(-0.017022585463133573 -0.44754513842878596 -0.00773178362084929634)
(0.139227704346874009 0.0860343366890755357 -0.206932407687097947)
(0.188725720594472401 0.0475445096895942346 -0.176877262652530592)
(-0.0363032162727620622 -0.554144214932268508 0.0199480263468631361)
(-0.0104385457972759055 -0.527875280722598039 0.0135757809190052686)
(0.0326518252696925484 -0.491879034710073382 -0.0183779788891141431)
(0.205360861559501673 -0.297661573801942136 -0.0616522615693888276)
(0.133323883074273897 -0.142885583178138403 -0.173336899387199483)
(-0.0228981462569081036 -0.542572143918892524 0.0319121491585913977)
(-0.0175991867322354348 -0.549708186253161646 0.0357317675583529379)
(0.00588279213623291858 -0.539069322112494809 0.032990036685408862)
(0.115995195312879773 -0.443098665607162379 -0.00131889911873681563)
(0.0431821946365862977 -0.219828572195773259 -0.0911426211504634681)
(-0.0152651955127666231 -0.52194466730335809 0.0344531141448542882)
(-0.0131060381704326892 -0.535040657058705404 0.0404644091002495446)
(-0.00204579519628006468 -0.556348687820623633 0.0454690993822931266)
(0.0234086884852985899 -0.516066208493020762 0.0336765290599397374)
(0.161888458327551304 -0.360474675188871163 -0.000719355896543282837)
(-0.0219738715126864687 -0.498393859773915704 0.0291601538266546695)
(-0.0238435162359604963 -0.512007708481912127 0.0365679959580329367)
(-0.0316000918757698354 -0.532381657176470124 0.0455145764423826732)
(-0.0395674480398859746 -0.541729385875129643 0.0497304414738934178)
(0.0417202393040633501 -0.392164113603256259 0.0246381187816780041)
(-0.0277839769220500424 -0.473769027651544439 0.025597276042406459)