/*--------------------------------*- C++ -*----------------------------------*\
| =========                 |                                                 |
| \\      /  F ield         | OpenFOAM: The Open Source CFD Toolbox           |
|  \\    /   O peration     | Version:  2206                                  |
|   \\  /    A nd           | Website:  www.openfoam.com                      |
|    \\/     M anipulation  |                                                 |
\*---------------------------------------------------------------------------*/
FoamFile
{
    version     2.0;
    format      ascii;
    arch        "LSB;label=32;scalar=64";
    class       volScalarField;
    location    "0.0599999999999999978";
    object      alpha.water;
}
// * * * * * * * * * * * * * * * * * * * * * * * * * * * * * * * * * * * * * //

dimensions      [0 0 0 0 0 0 0];

internalField   nonuniform List<scalar> 
29184
(
0.99999999999998801
0.99999999999998801
0.999999999999984013
0.999999999999975908
0.999999999999956479
0.999999999999905853
0.999999999999767075
0.999999999999331868
0.999999999997896571
0.999999999992189359
0.999999999962274844
0.93393286293897293
0.745066599737235324
0.144602197036045516
0.102063025292396026
0.0887618609464488617
0.99999999999997824
0.999999999999974243
0.999999999999970912
0.999999999999962919
0.999999999999924949
0.999999999999960698
0.99999999999955369
0.999999999997901456
0.999999999992189359
0.999999999962275066
0.999999999825429753
0.866193021287906983
0.567090525036052728
0.117437667424957135
0.0873008469044384006
0.0734159997899946626
0.999999999999574785
0.999999999999484857
0.999999999999355293
0.999999999999336975
0.999999999998810507
0.999999999997549738
0.999999999993351651
0.99999999997422262
0.9999999999036151
0.99999999957105401
0.999999998208631169
0.816669752178723618
0.416930224918673764
0.0967786724781937446
0.073977066497108418
0.0611156423979469995
0.999999999996374678
0.999999999995620614
0.999999999994600652
0.999999999992367883
0.999999999985861532
0.99999999997237965
0.999999999915209492
0.999999999764383474
0.999999999216064195
0.999999996920471923
0.999999988168841059
0.805899870884813518
0.305979883531503238
0.080975896981652945
0.0625054004502575283
0.0497988728767944505
0.999999999982086329
0.999999999976111553
0.999999999966728614
0.999999999936216133
0.99999999988153776
0.99999999976450471
0.999999999436681497
0.999999998449187633
0.999999995465897573
0.999999984294407285
0.999999944506910765
0.779477614387017015
0.229130453666713862
0.0675129446529895844
0.0516693049674015817
0.0391214303672094352
0.999999999895130998
0.999999999858228072
0.99999999978748555
0.999999999587615207
0.999999999255781757
0.999999998544230939
0.999999996747872322
0.999999992557392692
0.999999979074917222
0.999999935857812106
0.999999791092940016
0.750633417430661809
0.160438825525757583
0.0550247346793872258
0.0418333298124645842
0.0318244312824927794
0.999999999429580066
0.999999999221367286
0.999999998841040405
0.999999997784355665
0.999999996170203964
0.999999992784149971
0.999999984637306216
0.999999968530858596
0.999999920690464505
0.999999776232530113
0.999999325105505155
0.713309646108782225
0.109878423292747357
0.043260326512322575
0.0336790786531516173
0.026741390447043694
0.999999997239498839
0.999999996288775339
0.999999994531926228
0.999999989706320869
0.999999983011146121
0.99999996933630686
0.999999937901809077
0.999999883879383433
0.999999731774771972
0.999999312859633172
0.999998059012435991
0.674376126368106066
0.0733092686921377745
0.0337441666788586975
0.0260133329595750168
0.0212389647547624599
0.999999988105493509
0.999999984227763927
0.999999977015614716
0.999999957423615027
0.999999933004760644
0.999999884233251923
0.999999777048461214
0.999999617430047838
0.999999178700262226
0.999998074456566743
0.999994911338538905
0.633407295249618363
0.0474603991830781849
0.025881381038447053
0.0196130603494030914
0.0162141079194601245
0.999999953433251321
0.99999993902134432
0.999999912182095829
0.999999839964059944
0.999999760088283063
0.999999602657783759
0.999999271413634316
0.99999884985794929
0.999997681995772103
0.99999499589079166
0.999987529211395554
0.595984507847810985
0.0334743021636533869
0.0194727176137524521
0.0145025176910186706
0.0164549560549717075
0.99999983188135122
0.999999782371138624
0.999999690318748247
0.999999444711836993
0.999999207141868518
0.999998738955991118
0.999997794635685944
0.999996793665270056
0.999993879450582268
0.999987776411763618
0.999971129260057268
0.552225816266233571
0.0245186051064810451
0.0144117762264181354
0.0108156141701033562
0.0149797824358325303
0.999999433421683737
0.999999274225045198
0.999998979445732905
0.99999819893565034
0.999997551237601812
0.999996252017182119
0.999993738538057952
0.999991610541528408
0.999984700309636043
0.999971633731425613
0.999936095238307621
0.488996624185270123
0.0167773265876694014
0.0106827367535469019
0.00798796519018570017
0.0114261890930770771
0.999998199192823956
0.999997715356924166
0.999996825551732638
0.99999448611712749
0.999992862976369579
0.999989465315639148
0.999983159845235781
0.999979207948470616
0.999963437132824318
0.999936924166747509
0.999863896075514735
0.476537757354073443
0.0122334662613634518
0.00786607448804518654
0.00605844060646416535
0.00722841463428097221
0.999994557847911136
0.999993158105044744
0.999990606902320556
0.999983944420862247
0.999980216647687215
0.999971775874535451
0.999956754321635666
0.999950820913434013
0.9999158197168041
0.999864686893266796
0.999719004128497124
0.427241943473556873
0.00901390719889929616
0.00589878195612643895
0.00493897670004463021
0.0048075524284043672
0.999984262384357336
0.999980385391371573
0.999973394649451786
0.999955265381443859
0.999947524708213242
0.999927499095596972
0.999893369777570484
0.999888447549422854
0.999812189461664946
0.999718554653873603
0.999433923889672338
0.41413404077477195
0.00748220029831485074
0.00471718768927252737
0.00416911201281490278
0.00550346714643238158
0.99995621184839778
0.999945865857841953
0.999927433562542878
0.999880034189695177
0.99986595088768615
0.999820254626000438
0.999745827531248743
0.9997557933944905
0.999591410791962787
0.999429704541267228
0.998881119894992064
0.367254022914777933
0.00574313871167544
0.00253767928854841361
0.0024346983890670389
0.00470172886118704059
0.99999999999998801
0.99999999999998801
0.999999999999983125
0.999999999999974687
0.999999999999961808
0.999999999999922506
0.999999999999811928
0.999999999999522715
0.999999999998474554
0.99999999999381739
0.999999999966948439
0.928682863935264225
0.783442610106038551
0.142075056460353372
0.0982546368761031824
0.085258910543299371
0.999999999999978351
0.9999999999999728
0.999999999999964917
0.999999999999964584
0.999999999999937383
0.999999999999960698
0.999999999999677591
0.999999999998479661
0.99999999999381739
0.999999999966948661
0.999999999843885878
0.867114130628376056
0.575626801751310868
0.113020281057025801
0.0820332528809297745
0.0672203649767602746
0.999999999999624634
0.999999999999479749
0.999999999999267586
0.999999999999183542
0.99999999999902589
0.999999999998055111
0.999999999995464517
0.999999999980953125
0.999999999921798555
0.999999999615671875
0.999999998377583799
0.815396965308612498
0.413834284811534003
0.0938750162867574289
0.0691186098066343402
0.0548150357792209428
0.999999999996699973
0.99999999999555822
0.999999999994002575
0.999999999993479216
0.999999999988466337
0.999999999978268495
0.999999999943506968
0.999999999824367602
0.999999999359342029
0.999999997220816006
0.999999989185945237
0.807797344386357419
0.299158214517385446
0.0791035657163079442
0.0588256353533602033
0.0455131962752023528
0.999999999982987831
0.999999999974119036
0.999999999964836794
0.999999999951473928
0.999999999902547954
0.999999999815126106
0.999999999630466485
0.999999998831981873
0.999999996264653523
0.999999985715697481
0.999999948919524706
0.784985295030067309
0.234182437128202914
0.0671107218100215619
0.05005418351698529
0.0376612651089892059
0.999999999907127179
0.999999999845251564
0.999999999781830073
0.999999999691878916
0.999999999382992222
0.999999998859133821
0.999999997898216364
0.999999994336039588
0.999999982632980622
0.999999941180803598
0.999999806590835316
0.767280738699706699
0.18166638201809085
0.0568651184851503427
0.0419712963608889628
0.0271339344868226293
0.999999999501139047
0.999999999145370855
0.999999998816114344
0.999999998375686538
0.999999996797720447
0.999999994370074807
0.999999990243341852
0.999999975668794283
0.999999933715422618
0.999999792976982604
0.99999937225558222
0.747379976873229213
0.143952195164171737
0.0480794510527655233
0.0340029554803732287
0.025074091063117563
0.99999999758554714
0.999999995905136219
0.999999994432178019
0.999999992604181043
0.999999985656891077
0.999999976220793618
0.999999961341858645
0.999999908490473377
0.999999774300362354
0.999999358329048293
0.999998187569529851
0.707957930313390937
0.10853403501573855
0.0391560308802390844
0.0291949161873334279
0.0200826882826369013
0.999999989596679795
0.999999982501388107
0.999999976681358982
0.999999970030871044
0.999999942807753506
0.999999910899041167
0.999999864186952303
0.999999691721416117
0.999999304960594415
0.99999818448116895
0.999995217170989936
0.642271894064864846
0.0685643597993466636
0.0320872029394181912
0.0236145127786999767
0.0173800325893193192
0.999999959272400374
0.99999993199648074
0.999999911228056093
0.999999889676711273
0.99999979254965532
0.999999696998826293
0.999999566422843822
0.99999904861864497
0.999998030425224393
0.99999523458531081
0.999988241154618374
0.591322474048791902
0.0425149462068584866
0.0248702291445972515
0.0186733433325593154
0.0210615503872646735
0.999999852950876233
0.999999756074139157
0.999999688214173843
0.999999625192009578
0.999999304351833818
0.999999049021345954
0.999998719751038045
0.999997264991050128
0.999994790717766646
0.999988236778979078
0.999972714833358589
0.561210019757083955
0.0325885515578071272
0.0190375601372369668
0.0141854557537440563
0.0141672367789101167
0.999999504437143916
0.999999182480615367
0.999998977090027941
0.999998809940224387
0.999997816047118571
0.99999721032609945
0.99999645809331339
0.999992584700520881
0.999986996714027021
0.999972391432904839
0.999939664773377479
0.51440725582950142
0.0247826431540486662
0.0146453552999302218
0.0104069968254269819
0.00821490612994490652
0.999998425370402289
0.999997414152963837
0.999996833905320903
0.999996433456784795
0.999993518826629124
0.999992277244860284
0.999990726562930865
0.999980856264688911
0.999969099405221495
0.999937836027240623
0.999871731785859752
0.451063734486811474
0.019864568025720182
0.0109777407409012255
0.00691190888043213911
0.00269333711060939108
0.999995244629629854
0.99999222013702771
0.999990683834054206
0.999989831749444225
0.999981680150134222
0.999979667467171818
0.999976835729641911
0.999952575099382734
0.999929611488681758
0.999864761280600756
0.999735818455827929
0.352653707210417666
0.0145206234346265117
0.00839907172126413623
0.00525883463532506035
0.00344332603128906338
0.999986267692612341
0.99997759515925555
0.999973783679965145
0.999972250025140674
0.999950395069964415
0.999948799494289831
0.999944472845712529
0.999886657732231621
0.999845583052556774
0.99971408686763874
0.999470469048480803
0.381842259556197272
0.0122133557589796486
0.00662859071406229211
0.00474516769832633752
0.00572216803213596546
0.999961890677707133
0.999937886869027959
0.999929063900760084
0.999927066374817208
0.999870566507719882
0.99987587205292261
0.999871361714711693
0.999736833155783433
0.999671927248812819
0.999409301626331237
0.998962515692395359
0.369481802546758276
0.00896106018342931673
0.00455719751887793869
0.0028485421652924281
0.00586111955562350698
0.99999999999998801
0.999999999999983125
0.999999999999975131
0.999999999999967137
0.999999999999952593
0.999999999999915401
0.99999999999980127
0.999999999999449551
0.999999999998278821
0.999999999993445243
0.999999999967119635
0.927963496237790175
0.793521506574204061
0.145935458030628656
0.095277928756301894
0.0823767850644563648
0.999999999999956257
0.999999999999954925
0.99999999999996203
0.999999999999951372
0.999999999999930722
0.999999999999962474
0.999999999999633182
0.999999999998285594
0.999999999993445354
0.999999999967119857
0.999999999848348309
0.868482621658133613
0.596409685722290361
0.112987395367478316
0.0791123140066284369
0.0630741477948676965
0.999999999999226619
0.99999999999920508
0.999999999999235722
0.999999999998974487
0.999999999998973932
0.999999999997937872
0.999999999994581223
0.999999999978928078
0.999999999918449456
0.999999999623194635
0.999999998437884341
0.822793888366152415
0.419857040512285729
0.0931367505150394182
0.0652130665141290311
0.0473802988995356694
0.999999999993942401
0.999999999993863686
0.999999999993791633
0.999999999992414956
0.999999999987958077
0.999999999976775023
0.999999999931580619
0.999999999806966633
0.999999999335062784
0.999999997289055753
0.999999989635256714
0.813746656234204058
0.317436708181858596
0.0774456711336070219
0.0536196431651115302
0.0304670707517955552
0.99999999996772504
0.99999999996952682
0.999999999957155605
0.999999999940845985
0.999999999900035519
0.999999999801426953
0.999999999546539398
0.999999998729544815
0.999999996142097669
0.999999986138931485
0.999999951255902131
0.794996636487147468
0.255699976683019969
0.0645093816459827996
0.0419874934304559494
0.0301465309353651095
0.999999999804515038
0.999999999823958485
0.999999999723783173
0.999999999625405644
0.99999999937640216
0.999999998768972498
0.999999997388674622
0.999999993894564065
0.999999982153186195
0.999999943227317889
0.999999816131137642
0.770358560520515878
0.187568431382207024
0.052334548436234779
0.0374253856297125723
0.0224717307610784525
0.999999998905514387
0.999999999045133148
0.999999998492584696
0.999999998032052972
0.999999996808290659
0.999999993889075789
0.999999987712749894
0.999999974129650582
0.999999932157182414
0.999999801337961514
0.999999404592733621
0.734285869116337198
0.129267102656197785
0.0438256503317498852
0.0302224538227452363
0.0202307401565516333
0.999999994695108252
0.999999995507037998
0.999999992862568132
0.999999991067634486
0.999999985903083255
0.999999973992321101
0.999999950591728859
0.999999904292469544
0.999999769839879593
0.999999387899760506
0.999998282074375799
0.697381043612923968
0.0873018146129444783
0.0346948546119860285
0.0247115349580300028
0.0180151987277712353
0.999999977111410421
0.999999981148642303
0.999999969879235895
0.99999996393693813
0.9999999445658313
0.999999901632092625
0.999999823677401256
0.999999683716986887
0.999999293083568164
0.999998279316536398
0.9999954654978922
0.655168563373283552
0.0567070747350695709
0.0274680128755294128
0.0210441369495069572
0.0182099414792522112
0.999999910280204962
0.999999928053297737
0.999999884388992788
0.999999867822391808
0.999999801708985059
0.99999966167967469
0.99999942773219419
0.999999045432325762
0.999997999031466023
0.999995515606060481
0.999988853077705131
0.596124446857531742
0.0366339325185908865
0.0216168237139195037
0.0163953921544606647
0.0197968450359787655
0.999999675695992352
0.999999746508750675
0.999999590260596483
0.999999553244791839
0.999999344232392895
0.999998923853228971
0.999998280992302035
0.999997325334830434
0.99999470273172486
0.99998901831455389
0.999974126885579517
0.533566350946525048
0.0279359388209406284
0.0164190395350629834
0.0126444987237853412
0.0194787188969119118
0.999998905505145474
0.999999165331750373
0.999998642374955837
0.999998589943178695
0.999997969175538848
0.999996793793777261
0.999995159591488658
0.999992956904505181
0.99998672912041231
0.999974461877181975
0.999942685266308029
0.510297697716956988
0.0217088992986735063
0.0124467375725156107
0.0100552744734524
0.0122199480043705538
0.999996515789061569
0.999997405763490166
0.99999575301760113
0.999995803322123011
0.999994052281183765
0.999990965753427496
0.999987096528260455
0.999982403091247973
0.999968243413404512
0.999943119449996143
0.999877888298368545
0.499662207900228084
0.0163426516188221564
0.00983354043019456746
0.00463565982328803528
0.000240430469544481449
0.999989454662275845
0.999992329484158837
0.999987358899165901
0.999988129750582377
0.99998339586990026
0.999975737513208118
0.999967172101340007
0.999957961242943338
0.999926858320580036
0.999877842416518892
0.999748009599644272
0.378436836326521309
0.0116089134506018911
0.0074128975076354145
0.00452084066415443884
0.00136862274149432916
0.999969457614557911
0.999978291025415578
0.999963973850515053
0.999967897199903533
0.999955542258454289
0.999937534104424208
0.999919811149454274
0.99990344640127482
0.999836928040838124
0.999745666412321876
0.999493974315205702
0.384505720379518801
0.00860801134272870874
0.00562493973404184708
0.00423064601254960048
0.00302560455767757804
0.999914861734163329
0.999940874522664114
0.999901122024485556
0.9999165033835411
0.99988508684915145
0.999844821787535087
0.999810570062615978
0.999785337297453891
0.999645692996723456
0.999484060138871699
0.999005641716657289
0.358070955379209577
0.00695064093293930318
0.00430523790899974348
0.00298273866976857607
0.00458606302684755503
0.999999999999986677
0.999999999999985345
0.999999999999978906
0.999999999999971356
0.999999999999960698
0.999999999999927836
0.999999999999826805
0.999999999999513611
0.999999999998348654
0.99999999999305611
0.999999999961635688
0.92843901941798157
0.771502920047104412
0.137904435535726788
0.0922531216852673364
0.0809934696473382787
0.999999999999975353
0.999999999999964695
0.999999999999957589
0.999999999999965472
0.999999999999940936
0.999999999999955813
0.99999999999968725
0.999999999998355316
0.999999999993056221
0.99999999996163591
0.999999999820463725
0.858418962794678553
0.575385337362230187
0.110357349078685274
0.0771491754853680378
0.0627355853105852346
0.999999999999616973
0.999999999999386047
0.999999999999178324
0.999999999999239053
0.99999999999925282
0.999999999999452882
0.999999999994707123
0.999999999979077625
0.999999999911429627
0.999999999550262642
0.99999999814688878
0.806529965092145917
0.419620450354054264
0.0918000338065269456
0.0646366744857894276
0.0437729779472115221
0.999999999996669997
0.999999999994899191
0.99999999999353506
0.999999999993115951
0.999999999989831689
0.999999999981378229
0.999999999954300001
0.999999999802613448
0.999999999270765882
0.999999996735510432
0.999999987685113112
0.804138342795747474
0.305180960592393746
0.0771941391647170821
0.0518925327597601904
0.0354431408638484352
0.999999999982937204
0.999999999969759967
0.999999999966114328
0.999999999948709029
0.999999999915613946
0.999999999826323038
0.999999999611008494
0.999999998814932622
0.999999995718851453
0.999999983157550454
0.999999941883399357
0.780700482348210434
0.233310681955438942
0.0634169730740305748
0.0432932850242849637
0.0257145091036272283
0.999999999905950343
0.999999999817319241
0.999999999796051586
0.999999999671509654
0.999999999473933698
0.999999998918665867
0.999999997695939724
0.999999993846357071
0.999999980551227075
0.999999930400750303
0.999999779665097677
0.745470206993990137
0.160746730461004628
0.0537190373439814794
0.0354729942770726364
0.0239786705101370928
0.999999999492276581
0.999999998986869421
0.999999998906251797
0.999999998251161148
0.999999997314499511
0.999999994609339415
0.999999989142368539
0.999999973370242046
0.999999924203026747
0.999999755875818352
0.999999283122303573
0.686156071825449354
0.0983156717473338132
0.0443188469946784319
0.0303079581415203608
0.0199438500804010876
0.999999997539526619
0.999999995125110619
0.999999994919078761
0.999999991946948885
0.999999988187109334
0.999999976962003823
0.999999956315566152
0.999999900027039867
0.999999740521434921
0.99999923934838586
0.999997924552644135
0.627743568941125929
0.0557768974592587341
0.0357707012143151093
0.0251220907270057678
0.0187596991542584197
0.999999989384070087
0.999999979089203128
0.99999997899280535
0.999999966959079778
0.999999953814798781
0.999999912459368812
0.999999844119543457
0.999999664339488392
0.999999198200814066
0.999997844001985658
0.999994519590407638
0.615386226205158371
0.0449280089743422234
0.0283352377050629205
0.021437586180950409
0.0180141996570033769
0.999999958384442555
0.999999918420588108
0.99999992109696545
0.999999876693640322
0.99999983602926501
0.999999697326188985
0.999999494474607342
0.999998969193781506
0.999997719354280168
0.999994336725504418
0.999986585171425135
0.61251746532546647
0.0349325664254909116
0.0219771292859220271
0.0165835809582480752
0.0205391841477377823
0.999999849545680553
0.99999970626377177
0.999999726679624779
0.999999574848306372
0.999999462856298704
0.999999031303438257
0.999998483754752865
0.999997056144853347
0.999993941971162092
0.999986021075171871
0.999969193814285284
0.527449208688794746
0.0253368127327172309
0.0168408234369468515
0.0121219519384679376
0.020169805760155507
0.999999492258199396
0.999999011764366674
0.999999115869840693
0.999998628470165407
0.999998355747840018
0.999997092872804583
0.999995740466676497
0.999992083348887784
0.999984799274827418
0.999967218256641366
0.999932799170434206
0.422246088742124992
0.0190503433991046078
0.0126021321105904416
0.00933157916495996886
0.0170218734643066902
0.999998384400780704
0.999996861879374199
0.999997302374090458
0.999995819210072967
0.999995250909241573
0.99999173753194559
0.99998868376703931
0.999979753779028924
0.999963637710102216
0.999926303607494793
0.999858914782197239
0.426015925374065463
0.0146155970688293876
0.00959203004914744445
0.00422358311523326167
0.000493046807825637569
0.999995114343930513
0.99999052078699413
0.999992175558981122
0.999987863552012746
0.999986958345064236
0.999977581755014278
0.999971351217846749
0.999950359829461899
0.999916461588237437
0.999840046914331815
0.999712987815601029
0.404340791862334847
0.0117092985352059368
0.00731548527557216235
0.00324475251018258113
9.52755686715047275e-05
0.999985874430276533
0.99997258790320398
0.999978294261818945
0.999966245182219438
0.999965756095016367
0.99994157772526282
0.999930514125023873
0.999882644165848933
0.999814741156041853
0.99966298757587202
0.999431937701532602
0.398879022243067649
0.00886017748607938541
0.00545372994721724652
0.00365256827094434999
0.00138126768877402765
0.999960763718943157
0.99992366556052481
0.999942098360940612
0.999909499780266664
0.999913489322141191
0.999852748315376183
0.999837487182507312
0.99973037210242377
0.999600982240288483
0.999307071555516124
0.99890026065681492
0.365207100569449272
0.0066289449894934788
0.0038707751253301715
0.00244637145828900541
0.00394142052530361761
0.999999999999987454
0.999999999999982125
0.999999999999976796
0.999999999999970246
0.999999999999955147
0.999999999999919731
0.999999999999826694
0.999999999999549583
0.999999999998532618
0.999999999993613775
0.999999999966068032
0.927058869325497192
0.791289753226098513
0.145254843629147756
0.0925145349663316352
0.0799287451322715503
0.999999999999953371
0.999999999999959255
0.999999999999965805
0.999999999999944933
0.999999999999933276
0.999999999999956923
0.99999999999970357
0.999999999998542721
0.999999999993613886
0.999999999966068254
0.999999999840086917
0.860909152353490637
0.597779890799190139
0.112150039225823062
0.0770759909320453268
0.0590968943813913739
0.999999999999204414
0.99999999999932343
0.999999999999335865
0.999999999998959721
0.999999999999051425
0.999999999998284483
0.999999999995746958
0.999999999981810439
0.999999999917665638
0.999999999608035983
0.999999998350735386
0.810457624429022028
0.426219645868260499
0.0924842897268574743
0.0630366652251292542
0.0411475539848201941
0.999999999993818278
0.999999999994711231
0.999999999994351629
0.999999999992596922
0.999999999988893773
0.999999999981038723
0.999999999945394014
0.99999999983341592
0.9999999993219435
0.999999997174876976
0.999999989075245121
0.805321278556266007
0.307045876876687496
0.0763241116352860599
0.0503026894508408207
0.03649569149288244
0.999999999966791897
0.999999999975402343
0.999999999958878449
0.999999999948170348
0.999999999907535075
0.999999999840622933
0.999999999639400894
0.999999998890598985
0.999999996029308225
0.999999985547872394
0.999999948647243064
0.77989977242884978
0.230787012999372765
0.0624394084293538737
0.042904776620287105
0.0277750451718628694
0.999999999798335537
0.99999999987004895
0.999999999735127543
0.999999999678479079
0.999999999418701435
0.999999999025936948
0.999999997921170447
0.999999994638699929
0.999999981400836457
0.999999940898596118
0.999999806406705272
0.745953034286950034
0.155460039839995123
0.0540151215987743766
0.0352857292590811472
0.0224378292161772561
0.999999998869750772
0.999999999313818666
0.999999998537673407
0.999999998324706985
0.999999997003736429
0.999999995237019768
0.999999990206004163
0.999999977091559522
0.99999992844249852
0.999999793882983656
0.999999374550033293
0.693332052412767519
0.0987081735621006956
0.0437421332312058694
0.0291251462180248596
0.0206696753963598115
0.999999994515669233
0.999999996822861448
0.99999999299755693
0.99999999247081317
0.99999998666317258
0.999999980073237094
0.99999996054511997
0.999999914479065777
0.999999754219096482
0.999999368120031207
0.999998214917143358
0.642311609386904125
0.0573143469266581343
0.0350700882792490953
0.0243538628969002038
0.0192504744702909486
0.999999976311321426
0.999999986887822545
0.999999970111851377
0.999999969966181346
0.999999947097877984
0.99999992606697341
0.999999858754293536
0.999999714688484698
0.999999235503529094
0.999998235567983063
0.999995360398108657
0.616921386324624121
0.0432997152778543531
0.0273095045789918632
0.0204852821442686114
0.0201382311933073627
0.999999907053028991
0.999999950796523152
0.999999883940337342
0.999999891426578635
0.999999808903248244
0.999999751158677785
0.999999539263655146
0.99999913033270027
0.999997807863517885
0.999995439563414856
0.999988714127941547
0.612515054752666765
0.0325429827682188338
0.0213365246337188855
0.0160204518652857994
0.0211445203354711855
0.99999966365411519
0.999999829611317947
0.999999583854838003
0.999999638789752177
0.999999361138312781
0.999999227475714791
0.9999986058374708
0.999997537366468681
0.999994120490611427
0.999988946250350175
0.999973984906334934
0.568897791165014599
0.0239796282356098643
0.0162149076415085136
0.011738566150956347
0.0201705898571790561
0.999998863685374717
0.999999448711609285
0.999998604974141614
0.99999888034777018
0.999997997763770963
0.999997759941122277
0.999996035064048883
0.999993443201431687
0.999985074438926702
0.999974615784981591
0.99994269855065343
0.450470180093780592
0.0173453297431045532
0.0118787766745078946
0.00805344213797974662
0.0165978547376627178
0.999996379164127314
0.999998316575520185
0.999995584466038423
0.999996735049931806
0.999994060842805621
0.999993877788671992
0.999989295321260352
0.999983433767483554
0.999963804437927761
0.999944294293344638
0.999878583933765386
0.432311809974105676
0.0126363779404852494
0.00843500365088199928
0.00586849368567112992
0.0119566547286964614
0.999989031840468279
0.999995109316736741
0.999986703309212244
0.999990974751123085
0.999983190723861437
0.999984106488310376
0.999972338183812592
0.999959987811979145
0.999915525135696148
0.999882367297886487
0.99975120997238609
0.389212424451624628
0.00935308344892433509
0.00593236632266497255
0.00395838362602869611
0.00473705715036945238
0.999968212740313334
0.999986396475166517
0.999963651660813913
0.999976208475019446
0.999954326410561922
0.999960593721071378
0.999931187149703415
0.999907161878240469
0.999809225072196384
0.999759730623038911
0.999505254035859325
0.397898834116709843
0.00647244378295811287
0.0039433054382854698
0.00174341667692410728
0.000107371702391183911
0.99991272272947529
0.99996357481424758
0.999905953570920047
0.999939847687831285
0.999880115830162786
0.999906129831680479
0.999833983170525853
0.999791669128169969
0.999580598804968856
0.999523120155384803
0.999040385318375579
0.34812314961841162
0.00372878927643919894
0.0021658134418906733
0.00126345835902631353
1.16599833182649934e-05
0.999999999999987454
0.999999999999987454
0.999999999999979794
0.999999999999969913
0.999999999999953815
0.999999999999914069
0.999999999999808376
0.99999999999950373
0.999999999998349764
0.999999999993437028
0.999999999964786057
0.927641502181713595
0.79266887447823775
0.15065432249100344
0.0952849017552340055
0.0828515403741737766
0.999999999999978018
0.999999999999962808
0.999999999999952038
0.999999999999959144
0.999999999999928724
0.999999999999956701
0.999999999999670486
0.999999999998362421
0.999999999993437361
0.999999999964786279
0.999999999833858011
0.862981801739754806
0.608598847588331604
0.115351579578365254
0.08016539913569945
0.0615791595377846515
0.999999999999687139
0.999999999999392486
0.999999999999191869
0.999999999999360512
0.99999999999901934
0.9999999999980419
0.999999999995247579
0.999999999979342413
0.999999999918166349
0.999999999590682309
0.999999998285711733
0.812968106363475718
0.431673630609781311
0.0955429891635364847
0.0648678478075620651
0.0442407933527462285
0.999999999997162936
0.999999999995013544
0.999999999993802735
0.999999999992460253
0.999999999988554267
0.999999999978153031
0.999999999940583972
0.999999999809111584
0.999999999334158618
0.999999997046326472
0.999999988636824488
0.806029283159509724
0.311862864868036493
0.0789085723079558932
0.0530704517703999429
0.0256509835067452834
0.999999999984684584
0.999999999970577313
0.999999999969313436
0.999999999942141837
0.999999999905053283
0.999999999814037754
0.999999999609856971
0.99999999873213663
0.999999996146221704
0.999999984850798329
0.999999946595348188
0.781014812447964002
0.235072115478385968
0.0658142679845933609
0.0410946071155317283
0.0301515849008211836
0.999999999922075
0.999999999822317687
0.999999999816366447
0.999999999624587854
0.999999999408874407
0.999999998850547911
0.999999997773154625
0.999999993852272562
0.999999982241284946
0.999999937750778001
0.999999798851159083
0.748361322037977339
0.162443507584872165
0.0536709134987744529