/*--------------------------------*- C++ -*----------------------------------*\
| =========                 |                                                 |
| \\      /  F ield         | OpenFOAM: The Open Source CFD Toolbox           |
|  \\    /   O peration     | Version:  2206                                  |
|   \\  /    A nd           | Website:  www.openfoam.com                      |
|    \\/     M anipulation  |                                                 |
\*---------------------------------------------------------------------------*/
FoamFile
{
    version     2.0;
    format      ascii;
    arch        "LSB;label=32;scalar=64";
    class       volVectorField;
    location    "0.0599999999999999978";
    object      faceTraction;
}
// * * * * * * * * * * * * * * * * * * * * * * * * * * * * * * * * * * * * * //

dimensions      [1 -1 -2 0 0 0 0];

internalField   uniform (0 0 0);

boundaryField
{
    inlet
    {
        type            calculated;
        value           uniform (0 0 0);
    }
    outlet
    {
        type            calculated;
        value           uniform (0 0 0);
    }
    top
    {
        type            calculated;
        value           uniform (0 0 0);
    }
    bottom
    {
        type            calculated;
        value           uniform (0 0 0);
    }
    left
    {
        type            calculated;
        value           uniform (0 0 0);
    }
    symmetry
    {
        type            symmetryPlane;
    }
    interface
    {
        type            calculated;
        value           nonuniform List<vector> 
352
(
(34.2434909926261213 -0.00142100904149904963 -0.000270715910166228341)
(27.4656789754707518 0.000583404274333209076 -0.000448778727621560434)
(20.9795435542344748 0.000740718704321483424 -0.000376820054397609505)
(16.3802651688751766 0.000623431331913472755 -0.000294640846991771571)
(13.425619843397655 0.000558727695017452518 -0.000264496529314274835)
(11.4415567831276004 0.000408513799906432267 -0.000201221784299849177)
(10.0792021684307951 0.000269020189728476334 -0.00013898557421549755)
(9.19366498530306764 0.000213549593916607055 -0.00011781854198339759)
(8.5899412416666685 0.00019826005472935236 -0.00011259660111725751)
(8.13883528012005542 0.000191826528903706587 -0.000111727045214466729)
(7.76202909981012112 0.000203910371260698499 -0.000119573063562028486)
(7.40109070566381355 0.000198203643727813526 -0.000121180244142116722)
(6.87589804667229565 0.000158077583642348682 -0.000102950446142217688)
(6.0098937231478935 0.00023538046339612235 -0.000137127479241477466)
(4.39972855827598153 0.000106885209942662908 -3.46234376210905296e-06)
(2.53400802746624221 4.65811178713565488e-05 1.31765583465459971e-05)
(43.6888026115481125 -0.00050452334434130774 -0.000328306075907966921)
(35.8162875917672991 0.000850558147316350156 -0.000473667348200448987)
(28.2068477257032768 0.00092146454396931424 -0.000380213066747138917)
(22.2759732095597691 0.000861567645740304909 -0.00032283083437870103)
(17.9306203410784768 0.000702533039477674904 -0.00027338611793828227)
(14.9917246926090719 0.000327087668906175506 -0.000133224813866479998)
(12.9827957250189758 0.000446547612756823626 -0.000199665548185873478)
(11.5390852876669392 0.000274428775834399934 -0.000131543401186836109)
(10.7017005293129301 0.000182304916175999915 -8.97809736708535087e-05)
(10.0119945944936202 0.000119722156084426108 -5.90210963519610467e-05)
(9.25574406192774646 0.000295066386109304655 -0.000142315806183825137)
(8.58250237739962962 0.000374967432735956582 -0.000179807288624770983)
(7.98247827359313078 0.000312040277287595636 -0.00014785425825801187)
(7.34194967257342412 0.00023801333746965316 -0.000106772523299552454)
(6.49727257172660089 0.000224652410300522416 -0.000108386620449895673)
(5.35707638889050752 0.000159101245268191912 -0.000144450152955668084)
(46.5963498779234513 -0.000591880800642236027 -0.000130116467513149747)
(38.4910696747187089 0.000720639043432632297 -0.000310169774462726593)
(30.1390413337673522 0.000700391261319216235 -0.000266586165138767053)
(23.5708154219516359 0.00066300643786648412 -0.000237159347339704576)
(18.8322810477350266 0.000646864275377256838 -0.000236897366663381696)
(15.4091849212930434 0.000429686025483760263 -0.00015201489368337528)
(13.2757992979482413 5.65407286724486306e-05 -1.90655200038893351e-05)
(11.832724798715887 0.000290486124795125199 -9.48717369665216153e-05)
(10.608215052566063 0.000298936187464347023 -9.46069026219253993e-05)
(9.837822156685883 0.000223484147658225955 -6.44108951442220941e-05)
(9.19580701074289131 0.000276914846048192562 -6.42195090455487583e-05)
(8.49270094688160881 0.000255028836179112305 -5.10677909920750661e-05)
(7.80912829108877737 0.000254624840957760521 -4.17675888089726367e-05)
(7.10365880313699716 0.000240613706896318237 -1.52654524709719792e-05)
(6.32810326346127017 0.000188724283740428482 -1.20935519049706986e-05)
(5.44005907951965995 0.000133082408891271561 -5.88816723713183926e-06)
(45.4390926741375196 -0.000517151261694788218 -7.52825199114110036e-05)
(37.4828628592086588 0.000634354617670656977 -0.000143345498952582773)
(29.1386392443792595 0.000825973604167830702 -0.000165317507675712344)
(22.4924552970273197 0.000829601028025633478 -0.000151556898196335217)
(17.896663748838737 0.000615962607037720501 -0.000101319132210729747)
(14.827082535976194 0.000303547102123284912 -4.34899133442835962e-05)
(12.8114601713140921 0.000138429405672677714 -1.71750948252425177e-05)
(11.3982854023588995 0.00012273220815206079 -1.56745618114156834e-05)
(10.3722837438028925 0.000194041750212295628 -2.530949889010585e-05)
(9.69420797564420056 0.000199100185420367551 -2.05807128576147643e-05)
(9.11182693975340818 0.000214060030947622822 -1.33872504373538491e-05)
(8.45737169677971146 0.000227384912836301709 -8.8296086760206217e-06)
(7.77348697863867244 0.000256968657754046376 -1.82689142488606873e-06)
(7.11068629399436425 0.000270745788289418953 1.34374044263848766e-05)
(6.43804796375673583 0.000223090182669186208 2.07596958348093777e-05)
(5.64390659605747214 0.000132418814367637241 1.58464928868133139e-05)
(46.1615565171462094 -0.000495988312418695781 -0.000112734336376201546)
(38.0413850837275049 0.000703404017031099868 -0.000135989445517137222)
(29.4420203173424433 0.000924866020830155625 -0.000111213439580126009)
(22.6084835407090416 0.000862680656292582997 -7.73985534119226993e-05)
(18.1190431453156329 0.000537020662005536576 -3.76341319315243864e-05)
(15.2324331930858268 0.000301161697683077366 -2.29324136198981924e-05)
(13.2791650723496932 9.15078551652085743e-05 -7.84418567855371744e-06)
(11.9294428826223093 6.8227794890619929e-05 -7.15378802531037753e-06)
(10.8635836119154927 0.00016690778223581515 -1.74345349158799751e-05)
(9.9016595530037872 0.000179758043900325726 -1.4300291138852088e-05)
(9.19672707151536528 0.000205596729816185107 -8.18837606223193796e-06)
(8.5832903132359526 0.000240615854920356932 2.59150073339612978e-07)
(8.00289751726358567 0.00029451796239022811 1.27390770677522394e-05)
(7.49697193276526441 0.000256346238309005465 2.08263302030589539e-05)
(6.89974122284098446 0.000177234002629790311 2.5737927294328364e-05)
(6.03881840139713688 0.000142073837624400064 3.30269803878245917e-05)
(48.9425011278325144 -0.000619490910940005603 -0.000323128812392110723)
(41.1438042076802617 0.000728404747544665263 -0.000298028079565092457)
(32.7683092140988137 0.000944647706622398354 -0.00023655413876522602)
(25.659242057773767 0.00101267174704587387 -0.000187880401873093041)
(20.4060274808133535 0.000863512398932234125 -0.000119421776060815309)
(16.7825011164065288 0.000500074816582289617 -4.34044372284565988e-05)
(14.4250115657121682 5.14520055343711059e-05 -1.0470212390850499e-06)
(12.6685992712342674 1.22444202955136023e-05 5.80840039588254642e-08)
(11.0704201125795105 6.76129271373164124e-05 -4.93988051785939335e-07)
(9.59339573332696993 0.000127253627431562458 8.55108433972578887e-06)
(8.44600999012791398 0.000146815824078564403 1.87405963506191687e-05)
(7.79538235928225909 0.000237365951915069652 4.35985951617565531e-05)
(7.38989650083707161 0.000328050110189940537 8.62669423903040887e-05)
(7.21828180155571708 0.000238882581032326576 7.18489954373689071e-05)
(7.01100125498883475 0.000204946670337368959 5.85083827341709921e-05)
(6.10609253071770564 0.000172969029490777933 6.91203541161704575e-05)
(52.0456681531823335 -0.00073320615476936868 -0.000163694679413404939)
(44.054867101254267 0.00060097878865173393 -9.69284530667141142e-05)
(35.2975000706780975 0.000793730361861537891 -4.79090937799596804e-05)
(27.9399251424573229 0.000899776648323570203 -1.99927362819627104e-05)
(22.4334504653325268 0.000686657605102315607 -1.61198838169903808e-05)
(18.4781698283895608 0.000298916092830017906 -2.5276680702683688e-06)
(15.6696654097426666 0.000257189155152254875 1.98045183382351974e-06)
(13.1634883376936287 0.000231375041670426847 1.14904408593601671e-05)
(10.9176998050533651 0.000285427517911498779 4.00677984256510007e-05)
(9.30560808155929386 0.000297308739807334405 6.34566920163153419e-05)
(8.23598275857420425 0.00037258733228615309 0.000103270777971823185)
(7.74257228466914249 0.000355546174631135494 0.000120340353919405694)
(7.71781819618216414 0.000361469919850854887 0.000166547432606464231)
(7.73869253359934373 0.00024569061553821064 0.000151195477238500554)
(7.87591377313321228 0.000207688538995975925 8.94051495496602552e-05)
(6.47341154266430241 0.000174167455770773662 9.78555373901293755e-05)
(51.7560087361963426 -0.000680707879568723641 1.91245079143044483e-05)
(44.1557563836812577 0.000776550011231590077 3.64763184196698845e-05)
(36.4583669856368999 0.000261860202618817547 1.40035466961071783e-05)
(29.985665422486246 0.000805115142064341755 5.47393555492058326e-05)
(25.2332678650904931 0.000401361825830882772 3.42905305264547632e-05)
(22.3331545368862727 4.94411342046240947e-05 5.17411754234706798e-06)
(20.3269417427133803 5.1114297856060087e-05 6.41446197181135885e-06)
(18.6084092503719951 0.000515455063846644176 9.61523014269035487e-05)
(16.7277258303527461 0.000769334719475484063 0.000170044835300223819)
(15.3723140132007909 0.000636168791755085971 0.000168222983926761481)
(14.8991966297254503 0.000612690208553392374 0.000188144915619005399)
(14.3335177116777075 0.000421817264773678463 0.000154448590135651943)
(13.1133317907567033 0.000311945683340621714 0.000151501652983071679)
(12.2829911590681249 0.000217933226630239601 0.000146179902482841033)
(12.3250406455758963 0.000253662197117600005 0.000126405851900495439)
(11.1833045250165366 0.00011187277668135759 0.000169343293022470757)
(0.00181874232469054326 0.000293472845404654293 1.46056406763995095)
(0.00122432441419599038 0.000160634686436549008 0.898546865124928984)
(0.000663500678066374886 0.000126361493952939524 1.58030943449326777)
(0.000413576072215715367 0.000126649076035011268 2.17701177183183825)
(0.000288242977612235924 0.000112845157784142327 2.60500573456156825)
(0.000235707988439429628 9.08708296442791282e-05 2.94986127678271526)
(0.000185099728975953533 6.1382732367260142e-05 3.20547890246972766)
(0.000141459758830334291 4.21440469449850782e-05 3.30361924591990119)
(0.000115853909530971836 3.7051310148433257e-05 3.27592806217195909)
(0.000109377744767288782 3.93817865109023535e-05 3.17052111786095425)
(0.000103208488098680307 3.68568828721559311e-05 3.00810704620003877)
(9.46321462983609697e-05 3.54548998691865203e-05 2.79185211376914744)
(9.37556218272449818e-05 3.12071896281934454e-05 2.54186118349363266)
(3.98378757240883292e-05 2.99297200902492163e-05 2.20076432420100998)
(-6.42581651426141632e-05 -4.03765636989167404e-06 1.69189369208060914)
(-5.0108031983879238e-05 -4.31094193250188963e-06 1.15678291756209117)
(0.00100839833408487736 0.000128303158118855596 4.0609688182392798)
(0.000623200589058971275 3.74189596397397835e-05 3.53939584152596298)
(0.0003059933044648025 -7.20982719788022654e-07 3.42399692905836428)
(0.000190874451333635398 1.80311640229450308e-05 3.34910861604008492)
(0.000136277416121985715 1.68926627472845799e-05 3.28635608779858535)
(9.67822982971313766e-05 8.66863035413896687e-06 3.21787909830134744)
(7.61412749788752021e-05 3.48125159193576078e-06 3.13579071023584754)
(6.81569144492627884e-05 6.6693369950574393e-06 3.01134514340693871)
(6.65063611050476818e-05 1.31852328497886161e-05 2.84722148585736701)
(6.49428558273726228e-05 1.90969848153503404e-05 2.65394381819158331)
(6.49838308747602674e-05 2.2886558739204837e-05 2.43686572437747717)
(6.67346175341257657e-05 2.6666212739819276e-05 2.1980223583052676)
(6.64485779545386364e-05 3.08453123392790271e-05 1.92921873939734967)
(4.92112103137275407e-05 3.94182188082173752e-05 1.62129146469811136)
(-1.49873777122471357e-05 2.5418188398131493e-05 1.28203354004919357)
(-3.10260782179564961e-05 4.96174351752105873e-06 0.955044362887255471)
(0.000556963877514713508 5.22256436935596789e-05 4.96742158110398968)
(0.000308875612977405338 4.34176057846995042e-06 4.37650030921126021)
(0.000158486838037653975 -5.36394219894039417e-06 3.94948033307488267)
(9.7586225889048498e-05 5.68453897936314971e-06 3.59784695296340118)
(6.71369437487329054e-05 7.74031455819984462e-06 3.31375295076833032)
(5.06792113907617749e-05 5.28247452251920954e-06 3.08281004087419541)
(4.57934284468783514e-05 4.95743937006962235e-06 2.87692496326980462)
(4.49585063274654951e-05 8.01800578103871856e-06 2.67585733762105837)
(4.56911422283070331e-05 1.29669260627035542e-05 2.47364112747971499)
(4.44708270718904662e-05 1.74993384518663014e-05 2.26089856976869452)
(4.43553168973378977e-05 1.97026955818920614e-05 2.03951743613135772)
(4.46899330014670517e-05 2.18143494262843939e-05 1.81180757723177299)
(4.39436252013317142e-05 2.44134925789797394e-05 1.56682651839240283)
(3.80158088605994315e-05 2.98622875358376382e-05 1.29966001740360038)
(1.3823780081786325e-05 2.86898718556788415e-05 1.01081545816458807)
(-2.99308784162841504e-06 1.86546264654627653e-05 0.732927610568419041)
(0.00029705838130018522 1.16743581649990312e-05 4.02389856668365553)
(0.00017664984704195201 2.81761569239703493e-06 3.62823938102155275)
(0.000101295726366378027 2.57585300667773115e-06 3.29939604197154157)
(6.81188708103922202e-05 1.08205621502269535e-05 3.01617190161931203)
(5.30474624188875734e-05 1.02866510804169373e-05 2.78611435487031889)
(4.43349512941912469e-05 6.81311480229417216e-06 2.59318253756739336)
(4.22228585681691659e-05 6.690729715606255e-06 2.41291932530733666)
(4.14469356616005828e-05 8.81414548752945104e-06 2.23483851434580183)
(3.99919681887554902e-05 1.1969181507005208e-05 2.05302538122869027)
(3.91795278991243355e-05 1.47435488951115792e-05 1.86174582537234956)
(3.77852314545028194e-05 1.68426622482825752e-05 1.6644681151224141)
(3.59978665707605985e-05 1.80901799933095242e-05 1.45750808028005929)
(3.33299222138415865e-05 1.98350258576593558e-05 1.23348771382509259)
(2.98839737855252229e-05 2.37707348300263271e-05 1.00014000717174034)
(2.07137216777839046e-05 2.50432794568443983e-05 0.757109639822457492)
(1.34370504898703703e-05 2.10609107812792679e-05 0.513978135750755682)
(-2.26858212027688744 1.08098176228318228e-05 1.07791554455391476e-05)
(-2.15463407360192027 -2.69271203683143749e-06 1.68973693733442562e-05)
(-2.03073860322132393 4.43162039208948566e-07 1.56063100553496668e-05)
(-1.90148598104370636 1.53570817050168974e-06 1.44193783134008058e-05)
(-1.77144165915577578 1.71960942933984552e-06 1.44051174212784535e-05)
(-1.63540504149866983 2.45182323905364566e-06 1.49550860898937604e-05)
(-1.49344339693228467 3.66827039983152799e-06 1.61445447510936704e-05)
(-1.34806341283310216 4.62149899012184703e-06 1.68717986885128432e-05)
(-1.19891014632012816 5.66179950969243796e-06 1.70549194447545105e-05)
(-1.04529726418665803 6.65484030350009883e-06 1.68470754395117608e-05)
(-0.887647488432771192 7.42619515114281487e-06 1.6391497707258727e-05)
(-0.727101517880134551 8.12788701065420572e-06 1.56484071330892319e-05)
(-0.56468105707385241 8.48474957890274094e-06 1.46604436976830498e-05)
(-0.402084110028262887 8.43410165840836659e-06 1.35866815023150284e-05)
(-0.240560142739758231 8.18246487148223804e-06 1.2581335450569776e-05)
(-0.0816464562177188213 9.77235627298750024e-06 1.11168008113347251e-05)
(-2.14776591760026303 -1.37365203638926284e-08 1.38166891793108755e-05)
(-2.0236099482523886 3.40423896490441048e-07 1.39981608669837544e-05)
(-1.8949711395976474 1.17348223990715928e-06 1.47535151511519957e-05)
(-1.7611194774497545 2.03714907474097625e-06 1.54111323737117729e-05)
(-1.62287449822779073 2.61668890517275254e-06 1.56480351500232559e-05)
(-1.48100065176441076 3.09974696501559234e-06 1.5858596878004873e-05)
(-1.33633788348928539 3.7773382733690269e-06 1.56975472206877076e-05)
(-1.18916348891206902 4.53014004398571144e-06 1.5476319077199428e-05)
(-1.0394237279912304 5.26459056421330284e-06 1.51413107169385249e-05)
(-0.887158311273258726 5.92796629004918397e-06 1.4650290532868219e-05)
(-0.732804713028226251 6.45231014823398354e-06 1.40273777849987184e-05)
(-0.577114956912005428 6.81209023877276756e-06 1.32730452610665128e-05)
(-0.421118089700946385 6.92352943619213791e-06 1.25784872409858466e-05)
(-0.266205547556382927 6.72133364052944173e-06 1.19510217962762991e-05)
(-0.114237735340390181 6.15802065340001259e-06 1.12244541138692275e-05)
(0.0316160253182665579 7.90469442099969071e-06 1.04875418060459069e-05)
(-2.01285397180562953 5.89288255223645895e-07 1.19477503608959285e-05)
(-1.88644849999823938 1.09950445399525098e-06 1.22976955662914007e-05)
(-1.75690611591176205 1.79091991922330374e-06 1.23396306796329602e-05)
(-1.62350793501828372 2.59319980185750315e-06 1.23128166860722814e-05)
(-1.48631722284669321 3.1455992105077216e-06 1.22446570193723251e-05)
(-1.34565829464570363 3.67419628925575641e-06 1.21572599897965532e-05)
(-1.20185119391915363 4.23009841508623243e-06 1.20995868464290485e-05)
(-1.05538254710171264 4.76870289841982077e-06 1.20229174702666271e-05)
(-0.906732109262675001 5.26036560581678468e-06 1.18952922579790537e-05)
(-0.756302901793902027 5.67577238037397363e-06 1.169821499175262e-05)
(-0.604563757739473684 5.9726702865012381e-06 1.14398008407561317e-05)
(-0.452162063515085755 6.11211785901479257e-06 1.11318247356355207e-05)
(-0.300075094309293799 6.06222348092287861e-06 1.07891986738585464e-05)
(-0.149668706871438906 5.6977701916274734e-06 1.04208773379381727e-05)
(-0.00288536767607707606 5.20913313507716581e-06 1.00365788903894192e-05)
(0.135769715367833443 7.12511051885207874e-06 9.97639312431028674e-06)
(-1.88727881770179917 9.03969225148909142e-07 1.05244658468737727e-05)
(-1.76126164340231228 1.08663852768056725e-06 1.05867975086593312e-05)
(-1.63199992187202758 1.70844640780805473e-06 1.05038020311765399e-05)
(-1.49952699378887289 2.34690919456507816e-06 1.03304355100299922e-05)
(-1.36390847441913565 2.92239608796444363e-06 1.01525293965454885e-05)
(-1.22520233008661372 3.46637005430664961e-06 1.00385348494652636e-05)
(-1.08367939692545989 3.98826930343445053e-06 9.91995418373197731e-06)
(-0.939660469694063694 4.47237503099011206e-06 9.7817944979117606e-06)
(-0.793490720751744982 4.90308097031802012e-06 9.62851561601102341e-06)
(-0.645531200247046355 5.25917287561870288e-06 9.4651600927604036e-06)
(-0.496216975143642214 5.51850094422136847e-06 9.30065538888581362e-06)
(-0.346119258395930607 5.64291002016435418e-06 9.15056270429796282e-06)
(-0.196014162546145093 5.55507326047649961e-06 9.02499249524884682e-06)
(-0.0472943472047155852 5.26878126992297282e-06 8.9650827165118759e-06)
(0.0981000069214888332 5.09394964883702541e-06 9.03831495289359981e-06)
(0.235097042242119192 7.22331088648929688e-06 9.64685366163961094e-06)
(-1.79324826174105834 9.41030529789764695e-07 7.90889161259673329e-06)
(-1.66753892797802283 9.29534044517068078e-07 7.94522527275835278e-06)
(-1.5387271401675926 1.53348897592826567e-06 7.88344502532062139e-06)
(-1.4068866988002926 2.12467470876282211e-06 7.81022079149721673e-06)
(-1.27214288480329119 2.67838227039334125e-06 7.7074019756417657e-06)
(-1.13464415890908477 3.20929677769804957e-06 7.60008927702177917e-06)
(-0.994518955581799591 3.71153258661222588e-06 7.48756412685597316e-06)
(-0.851919381170434753 4.1836548566885463e-06 7.37544629610652705e-06)
(-0.707050737191377232 4.61736381096000327e-06 7.27111197263641943e-06)
(-0.560147337552375668 5.00183355569626021e-06 7.18486516938611974e-06)
(-0.411492671073290461 5.32408719071669564e-06 7.12704132697402171e-06)
(-0.261459840800308929 5.54933803951748375e-06 7.11412034567236522e-06)
(-0.110843605216566776 5.72493893260916175e-06 7.18757917573067176e-06)
(0.038980997197233247 5.79437138367941022e-06 7.37647666488978404e-06)
(0.186839430382231914 5.87467142890603553e-06 7.80428035115791781e-06)
(0.328630488941554 8.28669476075914846e-06 9.04449971542568265e-06)
(-1.72604053423871684 8.75472703572158052e-07 5.40683279434462108e-06)
(-1.60051159758477679 8.55349350470087686e-07 5.44987754338707677e-06)
(-1.47206125779934838 1.4235299482163642e-06 5.39822326320968517e-06)
(-1.3407398886635189 1.98484731992216207e-06 5.34528585328228275e-06)
(-1.20661250718654456 2.52527121222268449e-06 5.28554103162171363e-06)
(-1.06976903114437505 3.04789252813259885e-06 5.22332140677097232e-06)
(-0.930300882634469195 3.5530619116178321e-06 5.16104844909996439e-06)
(-0.788305895153724512 4.04116368656885392e-06 5.10275957803530962e-06)
(-0.64389084861965229 4.51214246446121987e-06 5.05539765043172895e-06)
(-0.49714966927026083 4.95318064880970798e-06 5.02405069159356242e-06)
(-0.348258645398615951 5.39161701527009061e-06 5.02284228811286173e-06)
(-0.197580891109808726 5.82885630648295776e-06 5.06360495685426055e-06)
(-0.0457576364649307579 6.24528311058153479e-06 5.15740293270317626e-06)
(0.106374343530705975 6.6410022348760996e-06 5.33338649098320234e-06)
(0.2586098942901352 6.88877565696852268e-06 5.71967138415362469e-06)
(0.409906292848434106 9.25300201935611042e-06 7.32427517171713552e-06)
(-1.68219203929410166 8.13654685938004482e-07 3.15369755105566159e-06)
(-1.55675821676873438 8.19051459922618161e-07 3.17813638057510652e-06)
(-1.42850325738537798 1.36537182888917576e-06 3.15190703792508688e-06)
(-1.29747329098802311 1.90551907661582934e-06 3.12637686946073181e-06)
(-1.16371069779416647 2.43591454751516097e-06 3.09697611136535158e-06)
(-1.02726772454727322 2.9558621831135889e-06 3.06532862927694006e-06)
(-0.888196231227375899 3.46591536639966464e-06 3.03359085001358906e-06)
(-0.746547234861103304 3.96842181141956635e-06 3.00411593030704536e-06)
(-0.602356543085951102 4.45356158641780938e-06 2.97779306574213748e-06)
(-0.455748084419473232 4.95302893028886149e-06 2.95376875117769209e-06)
(-0.306965904909200282 5.46861773872556526e-06 2.92169771544941005e-06)
(-0.156236765376189995 5.98421967185948615e-06 2.88036445309124673e-06)
(-0.0040002131342333205 6.45008428412958973e-06 2.75827743995427486e-06)
(0.14900878519444577 6.72587215613038172e-06 2.50625194150718097e-06)
(0.303692387726615387 6.402809225652327e-06 1.98527311053164737e-06)
(0.464828100289684687 9.10322540256774582e-06 2.69934097379198556e-06)
(-1.66053870298477046 7.84232197008090916e-07 1.04167209205834183e-06)
(-1.53515226740158983 7.97709547812211964e-07 1.04873665014482101e-06)
(-1.40699966816283428 1.33106393863846686e-06 1.04146139399595821e-06)
(-1.27611910751273538 1.8616672876126436e-06 1.034040825038325e-06)
(-1.14254261034319926 2.38428272778615659e-06 1.02525036214838735e-06)
(-1.00630706245856061 2.89943500362566317e-06 1.01552738315898001e-06)
(-0.867450841925537675 3.4060788029035066e-06 1.00540912190002194e-06)
(-0.726008225696103571 3.89871684788873011e-06 9.95455905912182132e-07)
(-0.582070832149855666 4.37942857281670476e-06 9.83926339247449616e-07)
(-0.435906203150240756 4.84964085825310265e-06 9.66247537565888444e-07)
(-0.287963279712907583 5.29769381673941119e-06 9.34411890539757704e-07)
(-0.138716685128257244 5.596796779463215e-06 8.80199077028897052e-07)
(0.0107061599857684493 5.45550432579308206e-06 7.49193304262338195e-07)
(0.157585917768483269 3.93026621265091446e-06 6.2743178358977751e-07)
(0.300057458848033143 5.38411176328472699e-07 1.1150124577547253e-06)
(0.440587549791220223 5.45968791144461806e-06 6.55841927872220868e-06)
(2.87665490932718636e-05 -1.35805612491604566 -1.50830102900316436e-05)
(4.3541939992175008e-05 -1.67396008905775373 -2.20636696067037762e-05)
(6.62386818736011873e-05 -1.91086116088421809 -9.23349009715877183e-06)
(7.30093781483169319e-05 -1.96866622258554069 1.02380127410877285e-05)
(5.20207818231872856e-05 -1.87324694533062575 1.87673320768435641e-05)
(1.63157651047055286e-05 -1.65578338319999174 6.21849583968572197e-06)
(-3.0967905430708826e-05 -1.79800580440710811 -1.06289450825916456e-05)
(-0.000151042711912260556 -4.917725359734054 0.000117641704477187219)
(1.32467611137512342e-05 -0.818859316113449975 -9.43726027314011157e-06)
(3.74077706260781239e-05 -0.975821984738873494 -1.06632746900681374e-05)
(5.14699177117564321e-05 -1.05091278614750139 9.84305255485892348e-07)
(5.13777185800627892e-05 -1.00764814933525182 1.08355317299836018e-05)
(4.48500089107494772e-05 -0.796275553185085361 1.59790175091960489e-05)
(1.76947323396990765e-05 -0.459858734523705737 8.09536646082144696e-06)
(-2.43379282032193784e-05 -0.417429388976029991 3.19348646250595334e-06)
(-5.44495934068944571e-05 -2.08445017914162101 8.8665120808857715e-05)
(1.50439906955692884e-05 -0.42318932002644094 -2.33973644594952455e-06)
(3.0858113927911662e-05 -0.467693773157042081 -1.82086370642934709e-06)
(3.58412626263316362e-05 -0.443772308250692138 5.10425074888053061e-06)
(3.50322016094834813e-05 -0.350971149030485541 1.1039444515264887e-05)
(2.85039956415304043e-05 -0.161399110336831547 1.40303103904581592e-05)
(1.09700690145779389e-05 0.108955034061588615 1.01194926991997907e-05)
(-1.53687148662874756e-05 0.2223763895168899 9.22596370323645602e-07)
(-5.05868783899371754e-05 -0.680422205652842171 5.49074592087571282e-05)
(1.38551278093575463e-05 -0.146439098504177134 1.10709099974173618e-06)
(2.02778129260427613e-05 -0.111703489196163464 2.63016408202687485e-06)
(2.24250519258281151e-05 -0.0462512775392710865 5.86354488403574186e-06)
(2.14643446291495179e-05 0.0556557643986987025 9.65123742800734193e-06)
(1.73664728576890119e-05 0.209961338693362198 1.20404438572595793e-05)
(9.16590765073340284e-06 0.413039300869701531 1.02606825276853603e-05)
(-3.72115076801815803e-06 0.567393562695786335 3.33015217278910356e-06)
(-2.09547827284698717e-05 0.272476509973502035 2.87783328430510177e-05)
)
;
    }
}


// ************************************************************************* //
