/*--------------------------------*- C++ -*----------------------------------*\
| =========                 |                                                 |
| \\      /  F ield         | OpenFOAM: The Open Source CFD Toolbox           |
|  \\    /   O peration     | Version:  2206                                  |
|   \\  /    A nd           | Website:  www.openfoam.com                      |
|    \\/     M anipulation  |                                                 |
\*---------------------------------------------------------------------------*/
FoamFile
{
    version     2.0;
    format      ascii;
    arch        "LSB;label=32;scalar=64";
    class       volScalarField;
    location    "0.0599999999999999978";
    object      p;
}
// * * * * * * * * * * * * * * * * * * * * * * * * * * * * * * * * * * * * * //

dimensions      [1 -1 -2 0 0 0 0];

internalField   nonuniform List<scalar> 
29184
(
2394.91887827173059
2376.21222311833935
2337.04184950969784
2277.35717208070673
2195.63373733101116
2089.5040060055444
1955.90086343020926
1791.18220965826936
1587.64495607431763
1345.48255684411424
1040.11765694773271
670.268741338352243
385.119366769882731
222.753476532334645
186.873377337559702
199.21098601199202
2275.41549314338272
2256.66712682065872
2217.69968565557065
2158.21996253922271
2076.74286183423646
1970.9832824835662
1837.87456920334921
1673.65621170015106
1470.93083669843054
1228.53889774106528
920.941526661230228
555.11624842427932
297.864783040861312
189.798768878959521
161.829530565420896
173.844739306641543
2158.98507402547011
2140.20835585013219
2101.57646740621476
2042.51171584140798
1961.56714677459058
1856.53372312854617
1724.34795212750123
1561.23498487217125
1359.72745048555498
1118.34788899665932
809.262149216979651
451.914408844601667
229.582598423224397
158.643491875244706
136.933389089325715
139.626206472490509
2045.57678001825116
2026.87482916776389
1988.67920727825936
1930.22446079212386
1850.0911449035882
1746.14130234699473
1615.33364169643664
1453.93839150404438
1254.25802736858191
1015.4460380752497
706.983643947894848
360.474622368173186
176.975885172344078
129.077360384720976
112.103700188287064
108.87104497789295
1935.18190772247272
1916.6612524750426
1878.99420177617412
1821.33527347184599
1742.28672820939846
1639.78078151474961
1510.8231000071637
1351.78253259942426
1154.60270629787328
920.259758092026232
614.285153672655611
280.913683930525906
134.07039031557099
102.188817325008273
89.4754770985428678
84.7749350182420045
1827.78401377434238
1809.52679110902091
1772.49394255610764
1715.81326106500615
1638.11634716260551
1537.41054739567926
1410.7850673579037
1254.75921842248499
1061.63591941253026
832.420114101006106
529.916035030501348
214.756527406982968
99.1922386821217543
78.9171737541626754
69.8078180784877702
65.4502130398834652
1723.35511472363396
1705.43096547147456
1669.14224855512202
1613.61782391273846
1537.53121915788802
1438.97362459818737
1315.15445439793848
1162.80600248089172
974.486801662805533
751.966063488560508
455.709564383194447
160.151719116297727
71.9055340729511272
59.7743371422003946
53.4800738483530012
50.142232615784593
1621.85836835552664
1604.32905948662028
1568.89388765068702
1514.69808068084876
1440.47058479615225
1344.39881469080046
1223.84175540392243
1075.7835149315838
893.148437240135877
678.618274790790906
391.502114202697612
116.576580260560831
51.6162662717135277
44.2503078496808371
39.8931510244159568
37.7160211725212378
1523.24914418569847
1506.17033943356478
1471.69456292073846
1418.99188599044828
1346.86001874106842
1253.59397547132016
1136.73112389361108
993.532642568365873
817.379856300782876
611.890537856707624
336.110464317764126
82.8800255599880984
37.4025944571354501
32.0986983345787991
28.744423577205005
27.4275217918488821
1427.47496001762897
1410.89557321909774
1377.47926027605558
1326.42349546905552
1256.60923886498131
1166.44537003175355
1053.67326723374936
915.848055401143711
746.897558717383845
551.340174636938173
288.30825743138189
59.2652420569424976
27.399456181232047
23.0730330082433142
19.9806654957969663
19.0216032829109061
1334.47379138385463
1318.43517000853581
1286.1718095734052
1236.90242227286967
1169.61202720053257
1082.81882812480762
974.494183604582304
842.486303357720544
681.358301537221905
496.352082057394909
247.118990756958055
44.4200003232987228
20.3868434245067434
16.1839711907584132
13.595540828875091
12.2434751594922702
1244.17852902954996
1228.71560636088952
1197.69320440631623
1150.33147083228528
1085.75643341973637
1002.57143557912354
899.009314842149024
773.195613209016756
620.395969795082692
446.276559415744259
211.070528587566969
30.1407131016864014
15.3971044136780186
11.0588942839066071
8.91541277780197383
7.40609954363458201
1156.54623751915483
1141.66750907108599
1111.96289646872879
1066.6054807199489
1004.92595276343718
925.541268203952768
827.011193069817182
707.692238064713138
563.642719261595857
400.588714274304493
179.86408583407956
16.0048850305626047
11.2139686581642124
7.71741469091439924
5.66174943809738274
4.489302080482382
1071.55521493483843
1057.18754235933852
1028.85349831920348
985.559716106897895
926.945766617137451
851.495689344772472
758.210560230205147
645.604304475342815
510.633482600124353
358.882851398572711
153.370465235831716
6.99532524851883863
7.52597098170115686
5.4349882242361538
3.85576204086188845
2.71511519317228256
988.95516000628686
975.08268019551474
948.194834599986734
906.939101375725159
851.589277541238744
780.134255517391921
692.236270367903444
586.398196605966632
460.797270927168938
320.741158207406443
130.68175482692277
0.913305394464941855
4.83006659692703622
4.02553051090180603
2.70772363667315119
2.34793742167474839
908.136289567946733
895.416672710569173
870.143061036438667
830.933016065498123
779.069478331936352
711.693713967867097
629.337602758596404
530.511781029405711
414.214428060886803
285.744792407513387
110.389274957667794
-4.87302736972094408
3.03470476509980891
3.05591674224194598
2.01780073303383833
2.32211905559996978
2395.3510288443822
2376.67057611151085
2337.55854728991108
2277.97211077449265
2196.40330413077209
2090.51809611066892
1957.28772811059889
1793.15227422141152
1590.52524717885103
1349.70105000341528
1046.34072544514811
680.352443856465698
402.955579836077789
249.856221413265075
226.708538097448326
264.935070899603318
2275.84668808244578
2257.12425915766607
2218.21439357143936
2158.83189949141251
2077.50818786286118
1971.99183479719568
1839.2554119660399
1675.62615905953271
1473.83081039289186
1232.88488105936722
927.291052326942122
565.625359384336207
313.538288409741995
216.83740551324999
199.540905064450868
234.324773801149092
2159.41478694466605
2140.66355589830573
2102.08775178516635
2043.11804695783121
1962.32420321033396
1857.5310863619834
1725.7172619695441
1563.20329079919929
1362.66272548440793
1122.84204528022383
815.896041068868499
463.902103576359195
246.067038891381287
183.895392156665764
171.08162550348851
193.793501740485056
2046.00429913868948
2027.326991452529
1989.18527764967052
1930.82233989796759
1850.83581986549166
1747.1219185823411
1616.68507921906621
1455.8994341465027
1257.22771842779002
1020.08627744613432
714.082757846532331
375.073659885982579
195.213735093170101
152.958883014911208
142.464133777552973
155.807778744128512
1935.6063202202256
1917.10891190036546
1879.49296195972784
1821.92177986405432
1743.01498869345596
1640.73739057661646
1512.14894537164537
1353.7227721381164
1157.59768237024969
924.962317060118266
622.034168447443562
298.886766026667885
153.973288335505885
124.769284924519965
115.923616031992935
123.964583102994951
1828.20421649023501
1809.96827124892934
1772.98317335364391
1716.38565601001528
1638.82478438238468
1538.33759548015064
1412.07649992774077
1256.66247143963483
1064.62805769227748
837.134307159824743
538.2460440776224
236.454997593564713
119.981298056273033
99.6782155921440847
92.4344334429131749
97.4602133705303402
1723.76976922959557
1705.86431311391698
1669.61954921012853
1614.1735242512118
1538.21720246910627
1439.87137873325946
1316.40388093993943
1164.65572111471283
977.417719062689343
756.604452215525498
464.285520277902833
185.468464456180186
91.8769210678813124
77.8399397675383824
71.8908654109150405
75.3182874866341905
1622.26577185693941
1604.75195798315826
1569.35657816208504
1515.23475728799986
1441.13182680741807
1345.26421557887079
1225.04375134524025
1077.56736426570251
895.995371572816111
682.953645365969805
399.526415167603318
144.312372098002015
69.558628981309738
59.0794584591629928
54.3210507087714163
56.8367462708169171
1523.64695704954011
1506.58005651600206
1472.13960429160375
1419.50794844570896
1347.4951483982627
1254.42597198684211
1137.87695519249928
995.240788979197305
820.082723607938306
615.890557825585347
342.702571482020858
109.703796003888328
53.0138246612749953
43.888139467569232
39.3715837250063956
41.5315101880061093
1427.85955926116822
1411.28887158152611
1377.90291431476021
1326.91904560529133
1257.21849740516859
1167.24784603812759
1054.76606035086206
917.47815112444664
749.417709712209898
554.957072295860598
293.731699781924362
84.6969915930387742
40.7677372125457325
32.221623890425434
27.3086024931109534
29.1328891647982005
1334.83885327834355
1318.8077107922411
1286.56836923061587
1237.38081004094101
1170.19796337054845
1083.60374174102867
975.545662137133604
844.052304800673937
683.662066387820914
499.54443475862422
251.790533471918479
68.7948893336460969
31.6077686350546045
22.7413669246354395
18.2455205049798188
19.6462064047629568
1244.51283456299484
1229.06062102113765
1198.05175146150486
1150.80107505327214
1086.32321958258399
1003.36252197450472
900.043383026126321
774.73281961308885
622.461993427294374
449.05708508208977
214.752321786563925
50.9091307330727432
23.8840967137287663
15.5692271407728633
11.9617498856423268
13.0130294266962245
1156.83095766873407
1141.97719477643591
1112.26394432313577
1067.08455954288956
1005.47483579120149
926.383362096850988
828.078171697766948
709.278853854092404
565.473197710237173
403.045469643728893
182.811042275534192
34.7040930257331866
17.3209261999731012
10.6097444345850818
7.90567770942606884
8.75824322416377754
1071.75544688105242
1057.45577133790835
1029.0681714318041
986.083213240869782
927.470185240759974
852.450096152418155
759.386443869212826
647.338297812319524
512.264771164247577
361.092634475328168
155.945572570733702
27.0390643616809712
12.3849949850698238
7.17361442156694018
5.26930425432939664
5.91635110515580553
989.025586290528054
975.299383122793643
948.239663750110822
907.6010270622794
852.096167645115429
781.363781238965203
693.716220850944183
588.548841236823364
462.281608353759793
322.735440115746997
133.814908271009244
21.9364005217726117
8.10849207450910114
4.57674803901343275
3.58472264982835043
3.92620896485651194
908.127230589040437
895.513394897518765
869.972422591946952
831.836498397005698
779.591916970716966
713.319372263194055
631.28526062358219
532.925881763938605
415.831346690004239
287.308358686155316
114.745587191954428
15.6471250262133026
4.75528736266490881
2.7738508086421465
2.45052720737821605
2.76231601562806439
2395.75206895992233
2377.09726877497724
2338.04251208314736
2278.5521967985801
2197.1323300277204
2091.47226550740197
1958.58330551005133
1794.96592854263486
1593.12263212825656
1353.50664660338566
1051.86491786127044
687.987444377324664
414.569038202286379
265.852382259353533
248.667289674963428
292.825809443121443
2276.2466287373777
2257.54967257708813
2218.69637628294231
2159.40900080099027
2078.23267845931514
1972.93927674902898
1840.54317312822309
1677.43154174376696
1476.42317574915432
1236.730996298935
933.197346248502072
573.526165060137146
323.332529084586781
231.567969745059713
220.453143376198369
262.837493494460432
2159.81281562683853
2141.08665729479208
2102.56600345998868
2043.68914855619073
1963.03940350139965
1858.46497064524874
1726.98936307289068
1564.99069560653243
1365.24385437538331
1126.76937536368632
822.368450234888769
471.396024335413586
253.747285032734169
196.201297038040195
190.02576205804084
222.253839168559523
2046.39960397814275
2027.74659279039838
1989.65793766553884
1931.38440554483418
1851.53710787643649
1748.03540027449003
1617.93381240982922
1457.65674997469591
1259.77778978162814
1024.10205463555803
721.120888423708493
381.617240237760768
199.710836710609527
161.941977631010786
159.052514090709792
183.300581079195069
1935.99800977343284
1917.52372078007602
1879.95818190646401
1822.47203828764395
1743.69841335538149
1641.6255523428963
1513.36439068202276
1355.43829288873258
1160.10515373607313
929.028266263206547
629.362912740069874
304.225262170614712
154.481877645459235
130.552480786016133
129.863966360286781
149.193844931283849
1828.59127208274595
1810.37689669139627
1773.4391317207801
1716.92159599860179
1639.48705504803183
1539.19805063658509
1413.24956778476576
1258.32299509142058
1067.04687811045324
841.104630501640258
545.254493681169151
239.788248351317748
117.551222951226066
102.812500848333968
103.286108013290288
118.362148954859222
1724.1509682192609
1706.26510380637455
1670.06438421624443
1614.69282330540636
1538.85535881175724
1440.69783834308987
1317.52750120331871
1166.24972147268954
979.720218714148928
760.395905819902964
470.576154741491337
186.045932002625477
88.5839527068203125
79.3252062840874856
79.5508846660853237
91.4139110033273852
1622.6395873130582
1605.1427965518269
1569.78836309886447
1515.73522697844055
1441.74367865934619
1346.05350157781277
1226.11063682450913
1079.07617421894929
898.163265293154041
686.571120485370557
405.464451649047419
142.505805484375742
66.7977669720720968
59.9430083386269317
59.3990870886263025
68.9049672316781425
1524.0115027332381
1506.9581743034139
1472.55655635508947
1419.98749857199368
1348.07937817315155
1255.17616281903975
1138.88836400366995
996.643161587212035
822.10727189725344
619.282126471224501
348.845848771124338
108.053126643770156
50.0338007757949654
44.8114612935676888
42.622336556912984
50.3582953143604328
1428.2126443360828
1411.65069522440808
1378.30413111123448
1327.3758110331155
1257.77521132126026
1167.95737081522816
1055.72146669108201
918.760451760586193
751.253187866608187
557.998944093993259
299.446332573993914
83.9234606581136404
38.0601219611937296
32.9526446417459766
29.5190588172901798
35.6827314382459093
1335.17803447362166
1319.14860387587555
1286.95503172147278
1237.81315623113869
1170.72934465474964
1084.27056838765134
976.450167465291543
845.210226264372295
685.268827713007795
502.054363758096088
255.504436374071474
63.5920111370536461
29.3737474178882749
23.7327278387636795
20.1460208744540239
24.665222046107516
1244.83409208045123
1229.37350680149461
1198.42863789069565
1151.20601305462833
1086.83416634403011
1003.98148882569444
900.910717887185683
775.77048316313585
623.884178399209986
451.095072556880268
217.417757517873724
42.735480747726001
22.2648707735459226
17.0098576625039115
13.5763462125764605
16.6516492903322586
1157.12383594809853
1142.25115031097994
1112.64019669536219
1067.45556376273908
1005.97495948947039
926.943407992371704
828.929505089569375
710.194753440340264
566.786988521382227
404.827978490754276
185.746327791437352
29.2611577039716622
16.4100205459155291
12.1893319708956795
9.44014748109087165
11.9406378506307114
1072.00101117491954
1057.6702382484159
1029.45830419414892
986.409834114267369
927.976008344951197
852.917707772691301
760.220404574498389
648.103044570490511
513.486021149852149
362.703295753858356
158.688879179796459
23.3965653062773526
12.3562913434539325
8.83435632310198571
6.85987267837494663
9.00044627571730693
989.160571202222854
975.408642934072986
948.688617287234365
907.855162327049129
852.626722709505657
781.65512707987682
694.558543735741523
589.132713957250189
463.526898490281383
324.334527361925439
135.40230608283855
17.2396516240316942
9.40044882846931174
6.32424479584660482
4.8831661035093159
6.31999828872627312
907.896836611578237
895.578971455733154
870.360131787301952
831.938238680741733
779.920247305826706
713.227010719689588
631.796022388457686
533.337564704311035
416.772197247607664
289.053346797274571
115.673522807172731
8.2431150027109652
6.20786226783661377
4.38617469160648987
3.46654934660648095
4.01690740544198732
2396.10602295656281
2377.47422588516747
2338.47128678098488
2279.06742934938848
2197.77851181925053
2092.30798924277315
1959.6869530200961
1796.45277557851614
1595.09492837217385
1356.1199103185993
1055.18823819783188
691.26631765530442
418.288076061783556
273.565416822857969
261.067104601021242
307.093365115151244
2276.59953785906964
2257.92549363006765
2219.12338376389152
2159.92146964566882
2078.87437665357766
1973.76777872839421
1841.6347872679828
1678.89822232041956
1478.35052535168916
1239.24429361221473
936.219466810628887
578.315615513941907
327.756393334476684
239.516591491292388
234.194614836453212
279.449856210679513
2160.1638667711477
2141.46034653901916
2102.98954102393145
2044.19580279163029
1963.67147403555146
1859.27849527284206
1728.05619351100358
1566.41820385871279
1367.07112111508741
1129.09997564857576
824.927726589168742
478.350351043775106
257.259332092889736
203.739522231562631
203.932253079318912
239.94758134576395
2046.74813250355965
2028.1171567139636
1990.07627100670788
1931.882170936178
1852.15457254131798
1748.82683480770652
1618.96317301282397
1459.02452826288481
1261.46857572067688
1026.16723063558584
722.994460264668646
388.824381599991511
200.945691356485952
168.188353791435247
171.746034132338735
199.82565670907718
1936.34342149554686
1917.89024865303008
1880.36970184581787
1822.95815778132464
1744.29687929495094
1642.38848586917993
1514.3482128488904
1356.72798074977322
1161.59714094232186
930.803335097324066
630.594225576882536
309.013667583094502
153.523534345694657
134.897670406015862
140.186072256008686
164.022736693310804
1828.93290566012274
1810.73856574768115
1773.84231094690108
1717.39365139878964
1640.06267224428689
1539.92605781596649
1414.18182795087523
1259.51939243835182
1068.20226394108795
842.636953594254237
546.092904469814357
241.691271988659764
115.901387860470123
105.148247796880213
111.244855039680473
131.805643930075547
1724.48783333075539
1706.62101549578665
1670.45755849793886
1615.14868328486591
1539.40486079366815
1441.38673996174293
1318.40128350734358
1167.33589280593446
980.715634733119032
761.64633597161901
470.971518357735249
189.281595472345884
87.5550300521193776
79.8388997752166887
85.6545626726765477
102.480977948075662
1622.9699698796644
1605.49177449784452
1570.16936421080982
1516.17302227601817
1442.26409253334077
1346.70042701292755
1226.92135735681677
1080.05287256800511
898.939191976810889
687.749365848080743
405.856575674196733
142.036298123568372
66.5690460325224649
60.4228079577206145
62.8605982331500002
77.1994607060425153
1524.33239042984042
1507.29868431975774
1472.92227560450488
1420.40589930254464
1348.56768280567348
1255.77906485378708
1139.6298838760199
997.517126543020368
822.700412704614791
620.465652770209772
350.746490174163
107.089364732041645
48.3577780053952893
45.117559938404753
44.6647032630363157
56.5155520238755571
1428.51915773792302
1411.98116429169795
1378.65006469119567
1327.77507783053625
1258.2282043170112
1168.51569959267817
1056.38620015846391
919.52728990634273
751.699306038559143
559.046126920359029
302.378059640811898
89.8253564438342664
34.5299269372171409
31.9308001810055124
31.0899241224118867
40.5627766413157858
1335.46331429440488
1319.46796531132054
1287.2747342917171
1238.19667116431651
1171.14350170079592
1084.78643530945124
977.027010175940632
845.865515434308691
685.589692764594702
502.717439700883915
253.849555560487033
55.9367070764998289
25.9185313037310365
22.5781929413566438
21.2775310938701061
28.7335263825882379
1245.08862391120215
1229.6827381174096
1198.71101604227306
1151.58370234353947
1087.20388230925369
1004.46233455205356
901.381510212832154
776.31409220847172
624.069321860435821
451.552481395897757
212.602307135554838
30.7620801431542077
19.0342441225829511
16.8499828787861645
14.3886389740542526
19.3547609706879911
1157.33909959821131
1142.55274634194916
1112.87004064435155
1067.84843333365757
1006.29565033735253
927.403769592907338
829.271368735402348
710.633216817560424
566.834565602840485
405.115334040092193
180.707004708673594
23.5762746352396562
14.0576661177084254
12.5650132315471375
9.77792971428755742
13.4573243555353645
1072.15903875110234
1057.96210462967179
1029.60717509044684
986.844839368553721
928.231336530263206
853.373709724434775
760.391437997026969
648.419014562138727
513.365943121114242
362.972056601127861
154.998312319692104
17.5305814340308643
10.6323492086902966
9.18295004594044251
6.86779135560896403
11.0697675416594912
989.306940786480027
975.724717506650222
948.694269375134127
908.394286528636712
852.759759464622448
782.14673462761084
694.457198740448121
589.312515495444131
463.174171009644851
324.658797587852405
132.556501918320009
7.22421381586411826
8.00830230751885708
6.99648749338131637
4.82210190255171511
8.11054965614259515
908.27013447315835
895.692573587473817
870.354492049616738
832.439565879012207
779.966295531188052
713.561401594494782
631.457130908763702
533.275819094472581
416.377432047108869
289.416436856813789
113.044747973856374
1.59081541325599574
5.89324312955827345
5.02172227225348067
3.3629460291671478
4.79564277879496359
2396.39993514775642
2377.7869760771091
2338.82707573043353
2279.49493140333379
2198.31275851913415
2092.99174647168911
1960.57539956250343
1797.62261977491175
1596.70000368963747
1358.4020767546383
1058.68426037409813
696.177277187490176
424.094726081417605
280.550262496858466
268.037031595255598
310.297835857686152
2276.89242928489739
2258.23717132358843
2219.47751245654217
2160.34638005194483
2079.40452846924609
1974.44506113669445
1842.5137051096965
1680.05603069007066
1479.94466985567647
1241.52181417974566
939.784771304542232
582.366173383509931
331.952801583841335
246.318089652086456
241.270794310370746
283.71527912475733
2160.455090370785
2141.77009250085302
2103.34043675535258
2044.61524945652059
1964.19270681870148
1859.94196658672558
1728.91568899661956
1567.54886872722295
1368.64226128532732
1131.33688485012021
828.542272062987877
481.734621161246537
261.198300438037563
210.9516496954503
211.484739693862082
246.17196041581812
2047.03730549890406
2028.42417977177956
1990.42240524343765
1932.29325786935078
1852.66205085095976
1749.46935535194666
1619.79417362409777
1460.11421483017421
1263.00487184613553
1028.31871151598716
726.609925418189732
391.583172351500821
205.242309396042856
175.709029889446811
179.704081105946699
207.313114799065943
1936.63040289370429
1918.1939582455268
1880.7097682902031
1823.3582028730591
1744.78619559624349
1643.00351911527127
1515.14077940723905
1357.76209253559091
1163.07838483362616
932.820324533238363
633.888605236388798
310.47470424726248
158.272937861658306
142.395756981628523
147.88091362979921
171.937336163969206
1829.21786902774193
1811.03864163976914
1774.1752954302292
1717.78015632763299
1640.52985787254602
1540.50785256842482
1414.9274377115205
1260.48380792337684
1069.60439361861972
844.489689877020623
548.957199218414644
241.553225608379989
119.770905539311428
111.653142874400118
117.986080943646215
140.077634946822116
1724.77137700189883
1706.91733220493984
1670.78273877863103
1615.5191496946004
1539.84636171015904
1441.93050227704043
1319.09465438835787
1168.21921333933733
981.971355933334507
763.331369490079965
473.299802448144874
184.561223427811115
89.8850104492416335
85.1978242719517311
91.2017239959306778
110.544487447153614
1623.25335591185512
1605.78433010404387
1570.48650467249195
1516.52468175954778
1442.67673353795226
1347.20192335340971
1227.55880851685401
1080.84184109841772
900.034764681680826
689.077221454241567
407.235532084093393
135.015851234890647
66.6543498137913559
64.3510862767731453
68.4066909818021429
84.2876436015664581
1524.61827615674633
1507.58772689835746
1473.23239170167471
1420.73546376165359
1348.9490044988147
1256.23453003447526
1140.20991560018592
998.201747269028374
823.617489161333424
621.362051471362065
350.261321736618356
95.2208180673659399
48.7044583330000194
47.8799082599860526
50.3232182566692074
63.319588933799551
1428.81298756629371
1412.267755008206
1378.95742759748964
1328.0787693234563
1258.57784675070479
1168.92229210932305
1056.91254928182911
920.111558586307865
752.430049137500646
559.652063492123489
300.583511404649016
66.5598445684963735
34.2214749808662617
34.9000062857249702
36.1519241116408523
46.9424649870024524
1335.77481020053938
1319.75530015776803
1287.59006310497125
1238.47067896232943
1171.46559669297767
1085.14310962926902
977.510675267214083
846.354689066199398
686.151474781947627
503.352753016400811
255.376937625894925
40.650707142945862
23.5195883215941706
24.8343426539469476
25.138296232800549
34.1118362033998466
1245.43562207651075
1229.97730639723704
1199.05756080389892
1151.82198087150118
1087.51100109978711
1004.770075488359
901.844768720359752
776.704030735362721
624.485457984192408
452.079505593846079
215.603362583962735
19.8769570179590573
16.5660743928043388
17.7564607781899113
16.9236716768710913
24.2095212792139058
1157.74615609481316
1142.86981565040492
1113.29283585153257
1068.04674125036331
1006.61279875021819
927.675733330093635
829.748590916788544
710.911698816856415
567.106999500253323
405.419145028559797
182.748677119264812
10.228985453784162
11.919426237644636
12.9575357150657613
11.1010752783844584
16.1451684802637594
1072.65555224105628
1058.32538467375821
1030.17669025583473
987.003648316419685
928.597062806545637
853.635702021681936
760.928227904690175
648.565759927534145
513.478764393662232
362.881057540743086
156.201783780378491
7.17079937261655687
8.95586095139630345
9.45098168791462712
7.12826076467983327
11.0535640859678779
989.894644435557439
976.174544367883755
949.545516745983832
908.492824927479887
853.269794264106622
782.450781052702268
695.162138617614346
589.250773409232806
462.985040684787691
323.86411778765887
132.930032640181707
1.7656669044465616
6.80620180939853725
6.69767609396399877
4.65314765697510957
8.90322387691606565
908.629009557482732
896.360315061189567
871.285536034386723
832.644075610368873
780.555008169385019
714.094866392041013
632.275254375160557
533.153414513412145
415.788543809270323
288.092464232072643
112.6876940048096
-1.93067492194256829
4.13839432113217143
4.27939326397447406
2.92916926614700124
6.09006392697697496
2396.62418661701031
2378.0250051426201
2339.09739811652298
2279.81941601522158
2198.71758016653803
2093.50641367505295
1961.23189703987828
1798.45669787293036
1597.77634971137968
1359.69745899436521
1060.23249226409212
698.607483258713046
429.195265693384613
283.006836514723034
268.716076922922639
309.772771975098124
2277.11565442715801
2258.47414464028179
2219.74619269760387
2160.66845522847962
2079.80580545264866
1974.95424079358531
1843.16159849982114
1680.87624020527255
1480.99461834716158
1242.77526560799811
941.15421553159706
584.193773437808318
336.984892276404139
248.673215096762959
241.586813630112175
282.694416134057406
2160.67672320351176
2142.00522730920602
2103.6060717280784
2044.93248454629293
1964.58641319301773
1860.43959298790469
1729.54615484314604
1568.34130863907876
1369.64880427795583
1132.4950276624329
829.586663887826717
482.705756802031487
266.384680477018321
213.671279468544327
211.752571305099366
245.695494931284003
2047.25702341023953
2028.65682042565959
1990.68369738511001
1932.6032308637532
1853.04409556476367
1749.94939082473866
1620.39869582658957
1460.86725494351094
1263.95069570534315
1029.33849538207096
727.323323426078559
392.730514351768477
211.395852883291383
179.324683837317053
180.628311300970978
208.919227190764104
1936.84803159702051
1918.42365843822085
1880.96551037521704
1823.6586184936009
1745.15265477083904
1643.46045482711702
1515.71227465468701
1358.46675747177346
1163.95550724006921
933.657024485952775
634.346321037926373
313.335550897188284
165.9869929983943
147.041443123816862
149.999943096639953
174.991507227606547
1829.43327177503761
1811.2651704812688
1774.42427807163313
1718.06878467948491
1640.87678571171637
1540.93661195804953
1415.45974748020762
1261.13279596410712
1070.43657682005642
845.166991478906766
549.016634204357501
246.544005992673874
129.29902219461971
117.470136459260658
120.98974527448614
142.63886258453104
1724.98426682069066
1707.14054968898449
1671.02341632194975
1615.79375757703156
1540.16951061015425
1442.32651101971396
1319.58274857982315
1168.80962784372832
982.717218935218057
763.844103492335421
473.027058663044954
191.932731983110784
100.238218499547628
91.3970053305615266
94.7226113316271068
113.540076611965262
1623.4629241510163
1606.00410084081045
1570.71644709965426
1516.78306381009725
1442.97103303443964
1347.56097948586375
1227.998786403753
1081.37465479915295
900.705630231400505
689.436283755234854
406.61939343936092
146.249270087115178
77.6215461086453331
69.7588672108276029
72.2815032645299596
88.6457914292562918
1524.82270684165292
1507.80402058337449
1473.44741205895116
1420.97580538808188
1349.20781137658332
1256.55302575947144
1140.5980126108002
998.685890745474126
824.222440503807547
621.595558097788853
348.960155206550326
108.333654757642876
60.0453876946415761
53.0393124226821371
54.0649185172110691
68.0157141179216893
1429.00902014459803
1412.48114443408303
1379.15007338538226
1328.30076335436479
1258.79166392477964
1169.19755271879603
1057.24371215793758
920.563100976041142
753.000881649211124
559.849394678535873
299.048161583868932
78.9700812096585878
45.9804514276629916
40.0959894822962895
39.8918966470804932
51.2872322716629441
1335.95716291344888
1319.96784039106024
1287.74774111476086
1238.67758916148296
1171.62053369285036
1085.37400632133358
977.776574685341529
846.795135653970874
686.723387987425212
503.624494446223707
255.364443248415455
56.3481456627230273
34.1170275047399656
29.8376757273584339
28.965446368161313
37.8104203836331436
1245.59784541876752
1230.1950325264329
1199.15877312504745
1152.02254744560491
1087.58290846996124