# Moment                  
# CofR                    : (0.000000000000000000e+00 0.000000000000000000e+00 0.000000000000000000e+00)
#
# Time                    	total_x total_y total_z   	pressure_x pressure_y pressure_z	viscous_x viscous_y viscous_z
0.0299999999999999989      2.627005461057272187e-03 -8.269761332686458022e-02 -4.956018776168488738e-02 2.621776468638563427e-03 -8.269247090278754320e-02 -4.957725029797688948e-02 5.228992418708723117e-06 -5.142424077037403366e-06 1.706253629200143196e-05
0.0599999999999999978      -2.140249027964471768e-03 -3.103064652646093657e-01 -1.764085130938025103e-01 -2.142742779352087637e-03 -3.103063487391620745e-01 -1.764198684627056035e-01 2.493751387616054793e-06 -1.165254472995889357e-07 1.135536890308504307e-05
0.0899999999999999967      -2.566348816964702031e-03 -1.195090398540283205e+00 -7.359488244040123250e-01 -2.567251693983664800e-03 -1.195098432729220228e+00 -7.359613646166707213e-01 9.028770189628671691e-07 8.034188937081537173e-06 1.254021265841669933e-05
0.119999999999999996       -5.272761296345423836e-03 -2.949238743819782460e+00 -1.931193470605480300e+00 -5.273272389114739417e-03 -2.949252782293290132e+00 -1.931210874031706215e+00 5.110927693157404168e-07 1.403847350761380165e-05 1.740342622597227423e-05
0.149999999999999994       -2.122860597328448881e-02 -5.210949293750554823e+00 -3.681606849301337192e+00 -2.122945260366904119e-02 -5.210963243958089741e+00 -3.681625438777008430e+00 8.466303845508469875e-07 1.395020753465695736e-05 1.858947567117577544e-05
0.179999999999999993       -4.708537767790101775e-02 -7.057124103454097686e+00 -5.525708695518358304e+00 -4.708536097017938793e-02 -7.057135771960891368e+00 -5.525722175095608257e+00 -1.670772163199039332e-08 1.166850679406131252e-05 1.347957725006182486e-05
0.209999999999999992       -7.847766507611438069e-02 -7.550285597266421789e+00 -6.493511527757563684e+00 -7.847716009232839907e-02 -7.550297245654322253e+00 -6.493522871534857188e+00 -5.049837859873676504e-07 1.164838790027923360e-05 1.134377729346843403e-05
0.239999999999999991       -6.429839152335199703e-02 -7.344263654020347865e+00 -6.441738542925374844e+00 -6.429731457552331775e-02 -7.344274736988790409e+00 -6.441748000439765143e+00 -1.076947828674001561e-06 1.108296844285914647e-05 9.457514390717066308e-06
0.270000000000000018       -5.387392589066931220e-02 -6.825596170329359502e+00 -5.933839361438812965e+00 -5.387259636965403831e-02 -6.825607044117536049e+00 -5.933847717444247216e+00 -1.329521015272503032e-06 1.087378817676642449e-05 8.356005433978800604e-06
0.300000000000000044       -4.842814267172270565e-02 -6.229573007097139126e+00 -5.317402914342015841e+00 -4.842649877818119841e-02 -6.229583748416073874e+00 -5.317409945702936014e+00 -1.643893541506157474e-06 1.074131893516179319e-05 7.031360919986216908e-06
0.330000000000000071       -4.347094240218229294e-02 -5.689438436023773527e+00 -4.719552960081420778e+00 -4.346887669851498548e-02 -5.689448910291821981e+00 -4.719558004261481976e+00 -2.065703667307087814e-06 1.047426804863658926e-05 5.044180060979343736e-06
0.360000000000000098       -3.989518402662955293e-02 -5.232845782072680585e+00 -4.218156182499875229e+00 -3.989283707531801615e-02 -5.232855493430548677e+00 -4.218159054202986979e+00 -2.346951311539239200e-06 9.711357867863326096e-06 2.871703111749050216e-06
0.390000000000000124       -3.793397195938585237e-02 -4.865581444135169242e+00 -3.823478895803873012e+00 -3.793110656660883540e-02 -4.865590724034406733e+00 -3.823479079303619965e+00 -2.865392777020070101e-06 9.279899237665681036e-06 1.834997467545965598e-07
0.420000000000000151       -4.408079808142766065e-02 -4.589702659670668261e+00 -3.567801480413765880e+00 -4.407783736908584687e-02 -4.589711199894917826e+00 -3.567799717662064385e+00 -2.960712341812640090e-06 8.540224249728513734e-06 -1.762751701659679749e-06
0.450000000000000178       -4.726799693145888187e-02 -4.369742407903195236e+00 -3.308686440368631576e+00 -4.726499028755010157e-02 -4.369749045242604879e+00 -3.308681423922505527e+00 -3.006643908783310417e-06 6.637339409651121090e-06 -5.016446125858398729e-06
0.480000000000000204       -7.492811871602728102e-02 -4.198134736370086273e+00 -3.213067926339245428e+00 -7.492568594921970859e-02 -4.198138790165953260e+00 -3.213062488925803262e+00 -2.432766807576352773e-06 4.053795867248760433e-06 -5.437413442385242524e-06
0.510000000000000231       -1.531317423944734968e-01 -4.102964229461928625e+00 -3.437082329476141229e+00 -1.531304024100839933e-01 -4.102966872012959065e+00 -3.437080796284610607e+00 -1.339984389492600373e-06 2.642551030488339838e-06 -1.533191530541103041e-06
0.540000000000000258       -2.871948271103577643e-01 -4.131050539511871733e+00 -4.031958214883413660e+00 -2.871941327349153417e-01 -4.131053450466137811e+00 -4.031960755849077316e+00 -6.943754424226471375e-07 2.910954265970228982e-06 2.540965663455438987e-06
0.570000000000000284       -4.379637579414353277e-01 -4.285243035634265674e+00 -4.825811751432334873e+00 -4.379627288781308692e-01 -4.285247854909493448e+00 -4.825815431438339687e+00 -1.029063304446367198e-06 4.819275227611124732e-06 3.680006004745283213e-06
0.600000000000000311       -5.668698589740154281e-01 -4.471309574299779932e+00 -5.510038332139072459e+00 -5.668683268121119667e-01 -4.471315970335174583e+00 -5.510041162140250748e+00 -1.532161903411830063e-06 6.396035394224087336e-06 2.830001178217433193e-06
0.630000000000000338       -5.280196248991088082e-01 -4.681130606761735535e+00 -5.271055411755273923e+00 -5.280179088569202372e-01 -4.681136821121059555e+00 -5.271056156544736027e+00 -1.716042188582732306e-06 6.214359324272752654e-06 7.447894624492412296e-07
0.660000000000000364       -3.754926475580856460e-01 -4.863764723111515309e+00 -4.383957246925577422e+00 -3.754909615286546876e-01 -4.863770243958076556e+00 -4.383956748035271467e+00 -1.686029430966435225e-06 5.520846560827174322e-06 -4.988903060940139743e-07
0.690000000000000391       -2.242147004676072752e-01 -4.944802464696156363e+00 -3.460573011526614007e+00 -2.242133113476895701e-01 -4.944807598312085162e+00 -3.460572662712465331e+00 -1.389119917710605060e-06 5.133615929068329237e-06 -3.488141484739065928e-07
0.720000000000000417       -1.164019964977877353e-01 -4.866438657406859214e+00 -2.726994800348824022e+00 -1.164009655553412959e-01 -4.866443071615591975e+00 -2.726995144410334859e+00 -1.030942446437927228e-06 4.414208732646346210e-06 3.440615107512491348e-07
0.750000000000000444       -4.812328079260635300e-02 -4.635904823639355854e+00 -2.181622448512819723e+00 -4.812248697397555897e-02 -4.635908564679099619e+00 -2.181623055672965883e+00 -7.938186307944792683e-07 3.741039743416094468e-06 6.071601462225574226e-07
0.780000000000000471       -1.477830360092840384e-02 -4.279219206803216657e+00 -1.775682382322317343e+00 -1.477766445498619047e-02 -4.279222291248070853e+00 -1.775682967424839998e+00 -6.391459422126623908e-07 3.084444853764679777e-06 5.851025226158378006e-07
0.810000000000000497       -2.345995034152939616e-03 -3.853857325116161192e+00 -1.462461773991618363e+00 -2.345463484023103604e-03 -3.853859765370348800e+00 -1.462462255503887754e+00 -5.315501298359132674e-07 2.440254187469128031e-06 4.815122693302108186e-07
0.840000000000000524       8.155450716269919964e-03 -3.455142023590583200e+00 -1.217496548155087899e+00 8.155927655576654042e-03 -3.455144070626738895e+00 -1.217496908528435728e+00 -4.769393067335815710e-07 2.047036155740082352e-06 3.603733478767883231e-07
0.870000000000000551       1.754364848695333032e-02 -3.108386791481884792e+00 -1.011930077057291433e+00 1.754410791767129288e-02 -3.108388627219083933e+00 -1.011930312797041820e+00 -4.594307179641053269e-07 1.835737199084170937e-06 2.357397504165724032e-07
0.900000000000000577       2.595758878680076015e-02 -2.829783581389802904e+00 -8.463354375409882779e-01 2.595808722221816522e-02 -2.829785288848927660e+00 -8.463353879359195586e-01 -4.984354174033432259e-07 1.707459124786116154e-06 -4.960506876492886080e-08
0.930000000000000604       3.172938554190474214e-02 -2.581404872287317520e+00 -7.138281313169688724e-01 3.172992645356351171e-02 -2.581406476286445262e+00 -7.138277405418826937e-01 -5.409116587699032091e-07 1.603999127532789785e-06 -3.907750862269050631e-07
0.960000000000000631       3.562544972819659678e-02 -2.365754921146037137e+00 -6.053484063899648993e-01 3.562602910620400049e-02 -2.365756410427635625e+00 -6.053476672091221422e-01 -5.793780074035503856e-07 1.489281598681971245e-06 -7.391808427512820294e-07
0.990000000000000657       3.788568066255405126e-02 -2.188191800238858065e+00 -5.121172240196929515e-01 3.788631111923555089e-02 -2.188193202004914628e+00 -5.121160016004847604e-01 -6.304566814994830730e-07 1.401766056672864734e-06 -1.222419208156739790e-06
