/*--------------------------------*- C++ -*----------------------------------*\
| =========                 |                                                 |
| \\      /  F ield         | OpenFOAM: The Open Source CFD Toolbox           |
|  \\    /   O peration     | Version:  2206                                  |
|   \\  /    A nd           | Website:  www.openfoam.com                      |
|    \\/     M anipulation  |                                                 |
\*---------------------------------------------------------------------------*/
FoamFile
{
    version     2.0;
    format      ascii;
    arch        "LSB;label=32;scalar=64";
    class       volScalarField;
    location    "0.990000000000000657";
    object      alpha.water;
}
// * * * * * * * * * * * * * * * * * * * * * * * * * * * * * * * * * * * * * //

dimensions      [0 0 0 0 0 0 0];

internalField   nonuniform List<scalar> 
7248
(
-5.78198639538155421e-06
0.0077146944713567759
1.03625603959077797e-06
1.07566699746995692e-05
8.17588670897531778e-08
3.8343707752977302e-08
7.12112674359478242e-08
1.05261575348619094e-07
1.83901943120573876e-06
5.94735983414440744e-08
1.32359855629295937e-08
3.40463117186315826e-08
6.45929954846955556e-08
8.60764260383736579e-06
8.43778219668098667e-09
7.85794145359919386e-09
3.19317355877658129e-08
3.2366023168516444e-07
2.36977283954707371e-08
5.91051164868815421e-09
2.3229313255249828e-08
2.23608195770081207e-08
1.24989286848123833e-07
2.86029368330382102e-08
3.15492224283673893e-10
1.39851726140339707e-08
1.12488508850753861e-08
1.9866637988633639e-09
2.83683231191174319e-10
3.72394938285317576e-08
6.74054599641507038e-10
3.86815547816496331e-11
2.66506431138517818e-11
1.07795004557417722e-10
1.48829617580856123e-10
4.88073726330045688e-12
6.28750446936203688e-12
2.37592270999931502e-11
3.92550344477277729e-10
2.35460925411545091e-13
4.75141461016799538e-12
9.3907905718010835e-12
3.75627953149349321e-11
5.74859897711669136e-10
2.44511331492274453e-13
3.14769949569702112e-12
1.64651198558945104e-12
2.21661164683016603e-11
2.11655715871295277e-10
4.24117866364316345e-14
4.26787406832434368e-14
3.27522694982744926e-13
2.79072066387170095e-11
4.94683677463953419e-10
-1.26913217471097406e-16
1.17495169905786409e-16
5.92316975798892239e-16
1.27686768341312271e-14
8.84346024303204833e-13
1.04722468066612549e-11
2.68286863814243524e-10
-3.47436330783591929e-18
4.21548270367406994e-20
6.15681632876117002e-17
1.81988043413949315e-14
7.8530464803936087e-13
8.56836711613194784e-12
2.31594623356649401e-10
-1.08672652975806148e-19
1.19143656030430922e-20
2.33180697816186018e-17
5.32784180370177386e-15
3.73966828212635866e-13
6.51990912571560386e-12
5.13852086484062699e-11
-4.00022319154917988e-21
6.75078486498004754e-22
1.64624628238330514e-18
2.00183820423868013e-16
1.42161753404680965e-14
6.11456764347217548e-13
8.21384814699345689e-12
9.85206526635768515e-06
0.0111476424299035651
1.13446187450481668e-05
5.73143526310126999e-06
1.34064997257672095e-05
3.98582353115722263e-05
6.00414135911655778e-05
1.50054470246228977e-05
1.31309750023258128e-06
5.87770846850752401e-07
6.26692158090704816e-08
1.31680396837719442e-08
4.86059304838913438e-08
4.28507580973249062e-08
9.0103239392872201e-08
1.78720467973508097e-08
5.16952357796714902e-09
5.95898958549324286e-09
3.53785520638783005e-09
3.6327646059530143e-08
1.248974536520561e-08
1.9962111157025954e-09
3.82674986837379702e-10
3.91489554753389586e-10
5.98676542763442006e-08
1.82560125219285949e-08
2.72527088348015111e-10
7.10898837499585466e-11
2.74897224268876715e-10
8.06395317524076398e-09
2.99089702674023288e-09
2.6468514027925132e-10
2.76671965043588899e-11
3.08977783081279977e-10
6.4624477528189375e-10
4.54500852640010198e-10
9.61936956416025386e-11
1.6358187893809532e-11
5.9673359595102646e-10
1.30896186324762948e-13
3.91395254309908777e-13
6.51304686630962656e-12
5.24127769394978163e-12
6.22407472572132202e-10
2.38605555333830061e-13
1.1774514222094113e-12
2.95379569268143929e-12
3.73083791002424832e-12
3.04753869106745782e-10
2.28339977011152032e-13
1.11551755804132074e-13
1.49794712345108174e-12
6.61843769380422022e-12
8.52940248665736481e-11
2.72476343165894796e-15
1.45547244375138141e-15
3.45445534499405919e-13
5.452615782788663e-12
2.88216049158114244e-11
4.00766618476103806e-18
5.62249809940579595e-16
8.85068112592614396e-14
2.37986384244970754e-12
2.78734412740593728e-11
2.00924071240125757e-19
1.62051251435098655e-16
1.85372323172752228e-14
8.83473556662092964e-13
1.28164688352837246e-11
9.43923614220838143e-21
6.28402975736494827e-18
5.29420292064022688e-16
2.97730083613021475e-14
1.02107998932567356e-12
2.34384574522999458e-05
0.0131180200131057779
1.78270887978331923e-05
7.90336776657051541e-06
3.47072600377868677e-05
0.000276400077458732025
0.000261691128300438943
8.92186058527950009e-05
2.34426613058174446e-07
1.48791832626046005e-06
2.63893563927438494e-06
7.32454422538563768e-08
2.5408008069811338e-08
8.88779079997900556e-09
3.36963976929250774e-07
6.25460387039274871e-08
1.29898449219038098e-08
5.26673274077759969e-09
1.66445256798550052e-09
1.03017120233563917e-06
8.62828894515712902e-08
3.72456560944746918e-09
1.35019451997327663e-09
9.11501675452478158e-10
2.94039237830679611e-06
2.32747939907859023e-07
1.04262569139717276e-09
1.98651817045470211e-10
2.2506634369087184e-10
4.25646042608783827e-08
1.09955319840274809e-08
4.79507155454131746e-10
1.0434730709336047e-11
2.03528725693082074e-10
3.32000718888222617e-12
2.61703910384328967e-11
1.66503221764182251e-11
9.01343236852254214e-12
4.0473954766557694e-10
3.81500076207212935e-13
5.14614134322872505e-13
7.61382888111963993e-12
6.99205915554089146e-12
4.88696466875367804e-10
4.67134665428751013e-13
1.36867973214854334e-12
3.96288365926985836e-12
7.97086143450587866e-12
2.49285495187825902e-10
3.31667851340301194e-13
1.61466308950985731e-13
2.03063950139449164e-12
1.22655783004109021e-11
2.54269863347785875e-11
2.64780512107777334e-15
1.48896112948540891e-15
7.02383847681010344e-13
6.59676598285880477e-12
5.77185402338134142e-12
-8.82375606461517382e-35
4.28336676701266581e-17
2.53887271140432829e-15
2.19997709132434422e-13
4.61118022152639747e-12
-1.15583428810495924e-19
1.85744062320601536e-18
3.31513369855771892e-16
2.95830386185152666e-14
1.16949369323335806e-12
-6.09023118721132816e-22
6.01426612021150868e-20
1.01168010872229215e-17
7.18792730997699989e-16
3.7415099620004047e-14
4.96320113322355194e-05
0.0150577469589202873
1.76526949933479361e-05
4.43507385504563202e-06
8.59275461534300363e-05
0.000249244448327976226
0.000245258275011387024
0.000236448274325541934
9.71064713048185111e-06
1.24105777060011448e-05
4.36289328331896634e-05
4.27171798847320332e-05
4.39791920202711337e-06
6.82818582570449228e-08
1.67191037144581596e-06
5.23680170528522324e-07
1.11692155592275915e-07
4.83507410209826414e-08
9.04068316925300473e-09
7.73998782507059236e-06
1.63876700460955544e-07
4.93097346986015115e-08
9.19406471359555172e-08
1.76067241209558828e-08
6.96801999271058369e-07
1.69395880367202075e-07
2.7252089926276893e-07
2.91477269300295262e-07
9.49501197979671954e-08
4.22226614814885577e-10
8.58716377826199038e-10
1.85502119920805464e-09
6.57823702908569951e-10
1.15857728006998938e-10
4.38855115401361299e-12
1.26148312162604295e-12
1.84051373729999542e-11
2.67063269170612916e-11
2.07978442139685584e-10
7.30922236751249134e-13
1.00123653133315074e-12
5.40793771336348194e-11
6.35272756000304023e-11
2.98728593827995251e-10
9.27775766564398477e-13
1.90035191129680397e-12
2.24732131072442744e-12
4.66434494912066654e-12
2.02619782924341982e-10
3.30289769424325589e-13
1.87102748211122367e-13
9.87852641468687153e-13
7.6962195784964095e-12
3.93064590061483518e-11
3.43653186135621392e-15
3.13061355470982141e-15
3.03362235301981094e-13
6.06429935889653261e-12
1.97210919755692863e-12
2.03815792150389026e-17
3.10761644336254598e-16
1.10748726882438448e-16
4.55689374427923583e-15
3.10401742352749892e-13
-6.90447466632481637e-29
1.59241167887925496e-19
4.45970875152709625e-18
5.39951471460762294e-16
3.90349851332482726e-14
-1.80494630870298294e-29
2.43676213759030573e-21
8.53153320433836106e-20
7.65171292313241704e-18
4.97555972132636823e-16
1.99769178226228993e-05
0.0151501911531384953
1.06501197007309215e-05
3.89828127418885707e-06
6.75141474566492582e-05
7.50340512463945115e-05
6.87255762944520771e-05
7.43910329634939812e-05
2.29433915979965668e-05
5.69925895303703511e-06
3.02354294830804179e-05
6.74176204104485013e-05
3.62764227898539922e-05
7.15386721068723667e-07
1.28998067492101399e-06
5.99992525903440222e-07
2.82605338643909302e-06
9.42032171527993924e-07
8.50581966588377006e-08
3.68313850134197531e-07
5.37657976826042162e-08
4.15408715384633674e-08
2.90570854807151865e-08
1.82559853253516218e-08
1.19501857063261937e-08
2.09202100474719604e-09
2.06682760139200125e-08
5.54366358873672349e-08
4.72198102052035593e-08
2.15556139510967098e-10
5.4875469191895663e-11
1.71970554267961772e-10
1.51685716543594797e-10
1.15918878957860451e-10
1.05414126364087726e-10
2.05872684950985479e-11
4.75314380945395507e-11
1.37923581943752248e-10
3.25430017437763352e-10
1.13526391226258663e-12
8.76174701612078017e-12
7.31748339937736336e-11
6.52843551500647091e-11
2.66671096705134593e-10
1.14989266943122179e-12
4.67257575044337915e-12
5.53890262272683099e-12
1.38889870435402381e-11
2.1482604793347691e-10
1.63376205694852795e-13
8.40258131170629312e-14
9.4782586368208557e-13
2.20952607617031962e-11
6.36337834787061293e-11
1.15319992512087745e-15
1.07248700266174176e-14
6.12214113601168059e-13
1.67794848332268846e-11
3.01638956210206633e-12
7.03644078463321672e-17
5.77366135227891323e-15
2.44211159968157971e-15
1.81002894831840078e-16
3.46850804957655484e-15
1.82528734243941694e-20
5.14845631056030027e-18
1.14457188038799367e-19
4.26191841062841332e-18
4.93129451600881079e-16
1.27820884269854405e-21
4.1546023099738966e-22
2.64255053092198934e-22
2.53797793690873147e-20
1.36806952589825222e-18
5.57416850113293072e-06
0.0146466845319754065
5.60797468604168609e-06
2.37323417309539261e-06
4.46247870375536033e-05
3.71334428355087802e-05
2.21341279844153852e-05
5.04633688736642555e-06
1.99982606502410857e-06
8.26470672642191072e-05
5.06573450673726653e-05
2.66908938530535996e-05
5.51350661105401971e-06
1.42787595753756681e-07
2.09826603033922554e-05
3.98768431681770721e-07
7.02358714858669477e-07
3.21653569485086559e-07
5.06235143803933524e-08
6.55984420745296397e-08
2.34127702660347238e-08
8.16424962008621473e-09
3.49617649653882934e-09
3.77562895961155272e-09
1.87613178782727832e-09
6.51322886549512681e-10
1.94485096329591205e-10
2.19949074880354803e-10
1.00738330567802509e-09
3.84556746835948465e-11
7.8536649540866001e-12
3.71296571840049647e-11
1.84605457118699181e-10
6.03776484602391561e-10
1.07449570538048743e-11
1.56794073204867352e-11
1.01423409848152866e-10
4.69303187550742573e-10
6.13106784525688344e-10
1.30140668877260496e-12
2.25418807312105299e-11
4.27057888083643591e-11
1.611750346233989e-10
1.97223092362821805e-10
9.12311846991436509e-13
1.89604138910174856e-11
1.10961138225464989e-11
3.96758596362512549e-11
7.16516646096993558e-11
1.09496207373195423e-13
8.02913527537690911e-14
3.02417739621601287e-13
2.10371246797491519e-11
3.56882351803550137e-11
1.63379882769011908e-15
2.96070801718403555e-14
2.45080392093367539e-13
3.87693415496569739e-12
1.45982989064302439e-12
1.24378702373225663e-16
4.95597774291518512e-15
2.16311683401919515e-14
2.19081979510135404e-15
2.8039218309574165e-16
4.80528074261722096e-20
9.26949462720727315e-20
7.70093376954128351e-22
8.15906894224392203e-21
6.86174492681710596e-19
2.91288239387558133e-22
1.30446523941814542e-22
-4.94970466548587944e-29
-2.9580703546103823e-26
-5.08282828074815501e-27
1.16360465565672224e-05
0.0134912778108067094
1.9639362894154735e-05
2.36658085986844049e-06
0.000120489416353116254
0.000115298561774794495
0.000112804807932521679
2.67381726196407702e-05
1.35203568011722785e-06
0.00012520704352712755
0.000120503970840853301
4.53894554934847493e-05
2.59510888059859391e-06
1.32868158153690409e-07
9.82321565950472904e-05
2.22469929238311651e-05
1.25427094964381791e-07
2.0971252686570798e-08
3.12945726323007852e-09
2.18763944957560831e-06
8.94377859456238211e-09
2.47958027598410041e-09
1.38694686679020542e-09
4.69151841333881786e-10
3.87288137688068445e-10
8.98218283450170868e-11
3.5218035779459754e-10
2.10842587515897652e-10
3.2219141666082538e-10
6.67816779016531239e-11
4.73108646553786216e-12
2.06030953106872271e-11
1.91270679685735377e-10
5.85985073968887149e-10
1.3580227333272075e-12
1.56851020554230812e-11
1.04139785540390206e-10
5.51858880631661864e-10
6.13106784525688344e-10
4.33193838478956591e-12
3.77597626660018455e-11
5.75124875721284644e-11
2.23634804593884908e-10
2.2714071524790578e-10
2.34655681099835238e-12
2.17555934518426597e-11
1.36637810965443169e-11
3.37016000414585671e-11
3.2091567675856717e-11
6.64178388735063561e-14
1.41016601037432511e-13
5.37946173968540772e-13
1.0452135256760132e-11
1.11877413613635994e-11
1.36605137370850447e-15
2.71188178430715817e-14
2.56179208849334216e-13
5.41095936919138127e-13
8.26745306835818966e-13
8.72761165983262357e-17
1.35500138038900313e-14
9.83473377459870772e-15
9.06504353988973818e-16
1.17285309278605101e-13
2.06543242954887728e-20
2.18770541693087106e-21
2.27015919954021163e-25
2.80187101755705322e-23
-5.34980540107565325e-35
8.17685172357921932e-24
4.01259620266082806e-24
-8.94015007836471437e-31
-3.78642755067049151e-30
-1.95818166954904145e-20
4.61892628548137626e-05
0.0131992393540322252
4.33201205288711569e-05
5.44813886423970517e-06
3.07234535962134164e-05
3.29537715439317516e-05
5.27049305440232001e-05
8.35215766741692075e-05
1.96523617695377624e-05
3.07107969734642019e-05
7.85793609820688971e-05
8.64523183101800448e-05
8.72542611924134704e-05
3.1340196509263961e-05
9.81048168337766784e-05
9.01723632067271894e-05
8.40806538504587154e-05
7.23384146681807073e-06
3.06821052521168952e-08
8.71340786886678012e-05
2.84661816419767739e-05
3.57143610852612469e-09
4.18836428072621085e-10
-5.04584520896281422e-10
3.18947035854721596e-07
-4.67111046973104035e-11
1.23067241406262648e-11
4.46664782511094499e-11
2.26034984849639938e-10
8.27297947222283399e-14
7.41905353510480362e-13
8.12642624222130539e-12
6.16000513758602297e-11
3.01240461951759402e-10
7.01407136107970342e-14
1.15877492233317529e-12
3.22877519896245705e-11
2.87648632878547102e-10
6.06704272873864379e-10
5.78734111228853367e-13
1.50791844506950843e-11
8.12094339675208755e-11
3.4131402396357203e-10
3.48667462710761602e-10
8.09633383533509516e-13
1.72976960749355347e-11
8.81130274050961203e-12
1.30292601684950647e-10
6.27716916852801894e-11
1.4782230625558477e-13
8.04798953314507149e-14
1.3488967108650074e-13
4.89749962084391489e-12
9.87396711186015452e-14
1.74339518363315764e-15
5.08901294422711086e-15
6.06554123060234891e-14
6.33960827547060444e-15
9.64128966043955632e-14
4.73183303528039971e-17
6.84250977570510012e-16
3.23203882063613208e-15
6.16324230118494946e-16
3.41367207065158585e-20
3.54980885070241895e-21
8.77541838675319753e-22
3.14496341012019816e-27
-4.65645682469871613e-38
2.07267612856577568e-41
2.88072588515477865e-24
9.78152602339109553e-25
-3.17799587841698908e-34
-4.76592580559394161e-25
-2.18199772485255876e-21
3.80805728169946849e-05
7.1930563721710639e-05
3.05641418433001745e-05
6.47783648593149703e-05
2.99864441987016797e-05
1.23242275336638387e-05
4.89339290836709024e-06
1.27605316709477019e-05
4.0115975110907904e-05
2.49155434777148592e-05
2.31010706613588997e-05
2.40258497837768862e-06
3.51144160948232514e-06
1.43293362564809787e-05
1.04690474495373736e-09
4.66292304228804479e-07
1.18223297029944062e-07
6.72508927840209042e-07
3.51460390168013765e-06
5.89946345761271242e-10
9.41881633753360444e-10
1.24168126240268368e-08
1.51608105493449896e-07
9.48858167505948882e-07
1.23018602892699508e-10
3.71805955887716951e-10
8.83265763977699522e-10
1.15135299024408384e-08
9.2061525893209337e-08
1.65874586683019746e-11
2.55490196814338031e-11
1.30070460947347005e-10
1.04207240315044128e-09
7.98921723522713349e-09
1.105215680836829e-11
2.19404397063548692e-11
1.2839751431218607e-10
2.27654904052927537e-10
5.05265632033008554e-10
1.18283075349750686e-11
7.98638343152362301e-12
5.21007108188573945e-11
3.1721552048274951e-11
9.19572100879976612e-11
3.46417996088682793e-13
4.85719057188090654e-14
8.30722820354825132e-13
8.92774862962604657e-12
1.90121405660818269e-10
-3.23382064052092071e-14
8.11188074968080188e-15
1.32371957948426817e-12
1.52653241440296589e-11
2.58097886979810532e-10
5.96788443060775288e-15
1.63689045800343198e-16
-1.65466921974977691e-21
1.46625224307506605e-14
7.59132398787097747e-13
1.46976581911335774e-11
2.3621857090625254e-10
2.61658295672985233e-16
3.42468029624142371e-17
2.14741893253942144e-16
3.40971579100067559e-14
8.33814139536900375e-13
1.48745945307262593e-11
2.28698556358701873e-10
1.20284579278495976e-17
4.92156108029551595e-18
5.62055828571335398e-16
3.00770634366737095e-14
8.92358357996899942e-13
1.25199560766726469e-11
1.40688633292341487e-10
2.36383709098110403e-18
3.92817524686316449e-18
6.31940115973152074e-17
3.34114430236926061e-15
1.22709804574921852e-13
2.51783689871894435e-12
2.9809913627433917e-11
2.65363478760434536e-05
5.10195771759536584e-05
1.46098079973060817e-05
3.11551005274086044e-05
6.55609863049403242e-05
7.31822136596798652e-05
4.38541128947806115e-05
5.3377866052229259e-06
1.4494824447465874e-05
1.04677351541496915e-09
1.0499457109705726e-06
1.37887499437752854e-07
8.15961025235397412e-07
5.32606265918122767e-06
3.2308324134345303e-10
4.37926438299800043e-09
1.9872419032466818e-08
1.37869821238552816e-07
1.3533764378838323e-06
2.75709145059962001e-10
8.64709419567518446e-10
2.20038924167352908e-09
3.2706614938016944e-08
3.66248549607197492e-07
5.77611749832591593e-11
5.06031698522456989e-10
1.43839372424324361e-10
3.08791949400672788e-09
4.83610773766079744e-08
7.6720797044151898e-13
1.56080319234835441e-11
2.69337934468147747e-11
3.28753925679496052e-09
2.82877150014237351e-09
2.54679585302630594e-13
1.43570072211898183e-11
8.8605462735302711e-11
7.6738520860322053e-11
2.44335354837306906e-10
-1.11774898880801628e-12
5.84280379753205159e-12
5.82603556727202e-11
5.40591772905213619e-11
4.51100034269481206e-10
-2.20903859121616228e-14
7.2857826123699024e-14
3.84298583922228049e-12
8.99654845793415373e-11
1.19661011923431922e-09
-3.49890538866441075e-20
2.67314722564801835e-13
1.5032825935808542e-12
3.33546533938919669e-11
6.56760755462770296e-10
1.81972440170408856e-15
6.70811272662973551e-16
6.70637386022948146e-16
1.11652270212565643e-13
5.94790840438140418e-12
1.42971307178955934e-10
2.56626051538481156e-09
7.48044104277570376e-17
1.95410303738160059e-16
3.54593485680046293e-15
1.40725232502181125e-13
5.53205951786589264e-12
1.25593994309376711e-10
2.09860117055155474e-09
3.13028518156724756e-18
6.69429093470780492e-17
6.30706388425759715e-15
2.96591205154230289e-13
4.93227190906911113e-12
4.10800432961051856e-11
6.95374823045812724e-10
1.79288476853368958e-18
5.53090290804014818e-18
7.00018724861764567e-16
3.74448413453397729e-14
1.00250872502159415e-12
1.03664833961701114e-11
1.06065492933224454e-10
7.00289332360042364e-05
0.000138872132914241741
1.2584229821839182e-05
1.69724465686742711e-05
1.93653426235590254e-08
2.43280661777112617e-05
4.55803066275906692e-05
1.30308056047603563e-05
7.16837086816949176e-06
3.2307217576501031e-10
2.45249325646117175e-09
4.14455954541439336e-08
1.57912879856392215e-07
1.38151770773236585e-06
1.56056226733622848e-10
3.2310558821872573e-10
2.79933909838736559e-09
3.95324790478081046e-08
4.4034593797627702e-07
1.25867067657132849e-10
2.45870793895485523e-09
3.36920226539860424e-09
1.2091995470510037e-08
1.19497826639269986e-07
-3.28682226906378988e-27
3.46980625949195014e-09
2.9553543670249845e-09
6.36063266050299948e-09
2.13184166806566575e-08
-1.75586494573024371e-10
4.05178182681272196e-10
1.72685942882510959e-09
6.71509498645658482e-09
4.36580762045536167e-09
-8.57006945386715683e-11
-1.76906328336266328e-11
1.56597762902468112e-11
1.00852826247950099e-10
1.42009943387646338e-10
-5.937383387865255e-12
-2.13322903115513074e-13
1.35294894085303453e-11
4.16355704248235091e-11
1.1784076280442442e-09
-1.25652896668830918e-13
1.92772143492873018e-13
1.92959114984058864e-11
2.63533001284320679e-10
4.22528735820984573e-09
8.0509684575124662e-15
7.24836423198698828e-13
5.83437738643836027e-12
1.90454926790209451e-10
4.16693574687733567e-09
5.88738501954319916e-16
-1.81105547127718627e-18
3.96978843958417766e-15
7.15822316643458957e-13
2.82335943042217872e-11
7.74678906496004672e-10
1.29886253649886205e-08
1.29613336508182354e-17
9.48237976236100292e-17
1.37473749639062285e-14
7.94110122615999142e-13
3.16167647317521935e-11
7.79745669797346195e-10
1.21013499290225046e-08
1.79288476853369035e-18
4.0436196548175338e-16
4.12203987170590548e-14
1.36810627153402153e-12
9.65238069936069088e-12
2.28528299008480118e-10
3.90596399231173056e-09
1.38030300701040557e-18
4.5516832806862222e-17
4.28893897762579375e-15
2.00010613759451875e-13
3.10084413488361067e-12
2.69538412636081846e-11
5.22224222330321293e-10
2.29246958618314537e-05
5.9646549621930221e-05
1.69977113145636709e-05
8.00192404489318435e-06
1.64139237790596303e-09
7.02946929315018624e-06
4.50382967872581925e-05
2.41028321193497679e-05
2.46874707809699085e-06
3.36552472664509932e-10
8.08928532501776003e-10
2.85371750099989135e-09
2.44739803817746849e-08
3.52047126530391951e-07
3.11591397688794077e-10
5.88188969223385533e-10
9.0602740438277762e-10
9.62055237589631944e-09
1.23383667137717417e-07
1.49574552929577376e-10
2.7136745886990985e-10
2.96539268150027851e-08
2.05662991410145318e-07
2.2296554608103737e-07
2.32638798635369543e-09
5.47580970211854877e-10
9.03887910603538363e-08
1.53936340245138877e-07
1.24275102316828775e-07
7.26051745801535251e-09
2.17451695009396837e-08
2.97137328333230617e-09
2.11277050185827664e-09
8.31749401963112036e-10
2.91822760094961546e-11
3.5991495007850531e-10
1.21855539271648708e-11
4.41505645963583958e-11
1.05439652381605344e-10
-4.70249884115035768e-12
3.68780202021184749e-28
1.56679793765825323e-11
8.28839620588570818e-11
1.52646039991108144e-09
1.09881576243522019e-14
9.64290740227356192e-13
3.09971249896695392e-11
4.25277469273585086e-10
7.72583761119065553e-09
2.11016632435402027e-14
7.87149064544357393e-13
9.17854929282343462e-12
3.2223232956108098e-10
7.79545088230860297e-09
-1.12353939268337449e-15
-4.86328367616270959e-19
8.63062094023544386e-15
1.47896859514439801e-12
6.99636049868678261e-11
1.91610043095921237e-09
3.10167127706556952e-08
-2.15808264290755045e-23
1.72561053338294179e-16
2.05082335923304404e-14
1.81202239514117901e-12
7.81367593388438599e-11
1.91099371220731205e-09
2.85419081582989093e-08
1.40103410545574766e-18
9.17001629926369117e-16
8.85182426210821676e-14
1.94418531494021768e-12
2.22266398540882863e-11
5.576361282540316e-10
9.24594809897280765e-09
6.51810299139291689e-19
9.88119225375482223e-17
9.71637427303253729e-15
3.75432526005347552e-13
4.42559256125510307e-12
6.16743817978635813e-11
1.23199920271115047e-09
4.84956080549985732e-05
0.000101963892203121821
1.79945235281295232e-05
2.20520990693671389e-05
3.73527114471560523e-08
1.36441118158540262e-09
2.98464221449624176e-05
1.44282161186661486e-05
2.33207145956827694e-06
4.78493068387929827e-10
6.39100981405340795e-10
1.36441173579761141e-09
6.48137025921526435e-09
1.97638649783547839e-07
3.24850709414558919e-11
5.4891559511926365e-10
3.7368662635062992e-08
3.38594346061229913e-08
7.14277020204449537e-08
1.49838878002609834e-11
1.83817495676779821e-09
2.06379923861342574e-07
2.51643741350343322e-07
2.06691591388727488e-07
2.63367362352324117e-12
1.98140478605959826e-08
2.13845480243131213e-07
2.22422139019033816e-07
4.97713806164558269e-08
1.35515026851264123e-08
1.02213656560043793e-08
2.93797926978493229e-09
2.56506564706354106e-09
1.11674301514039238e-10
1.76735284957150119e-10
4.95288873281953525e-11
2.21579455537858368e-11
5.34608779088500844e-11
8.67232877792019944e-11
-8.76512116912233802e-31
1.10040509888807102e-13
3.30952648286513659e-11
1.40613522611008641e-10
1.39924294125496522e-09
2.38562890494353525e-13
1.39619831297301108e-12
2.87332381764502962e-11
4.87472794630901893e-10
8.43786538565011635e-09
1.90783416117072524e-14
1.04797136324208522e-12
6.93841029169681664e-12
2.69184818750765432e-10
7.19051759317652319e-09
-7.45749101061800569e-16
-2.29553363385076103e-21
8.29464726048100448e-15
1.21340510627128332e-12
6.70352543472047152e-11
1.96743238878579915e-09
3.26666627094543772e-08
0
2.27242694365695513e-16
1.56564548300395872e-14
1.63906393188373398e-12
7.58650705111107674e-11
1.93333391612245488e-09
2.93344333542227684e-08
1.58723475147576683e-33
7.09737510070195532e-16
7.7748218337832247e-14
1.85229580235960468e-12
2.06102949325313456e-11
5.3607973701176253e-10
9.04985555240179278e-09
4.25302431082350879e-19
7.23658674319076567e-17
7.87200089400779832e-15
3.24716361388009575e-13
3.82267310250685857e-12
5.62890421351697549e-11
1.15529184320270724e-09
6.6967893362846628e-05
0.000346860481380797687
1.1394616975890155e-05
4.30217336749207774e-05
2.76211391610384425e-09
2.66718739198971588e-09
1.43789021411102389e-06
9.78718801572167325e-07
4.86466115833845161e-05
8.34499477784378865e-10
1.36441173579667401e-09
1.01916813207834116e-06
1.76470848498711069e-06
1.45343175864726291e-06
1.26444986281393565e-11
1.18816658906638584e-08
2.5835134871677225e-07
7.14277020204450332e-08
2.42868703080323361e-06
2.43653748946872126e-13
1.32931810165920004e-07
3.29022958320015189e-07
9.60427555347875852e-08
9.46746201491529369e-08
4.84696757782824773e-29
1.08743356247213068e-07
2.22663416343918128e-07
1.03028813656628476e-07
6.77259142345791874e-10
1.21427529368767463e-08
1.6325920153031398e-09
1.07711625498953706e-09
2.15124418446680851e-09
1.94149519507924345e-10
1.46067096574008774e-10
5.4239107140238582e-12
8.03002658255067942e-12
1.63433914939858428e-10
1.89108842827937609e-10
7.10705695903922472e-14
5.14877343972765843e-12
1.00896286968940593e-11
3.15008555182518132e-10
1.32445849769892057e-09
1.25007000371076307e-12
1.02534709587399302e-12
9.71720618405045144e-12
4.08822612475006682e-10
7.12334619431555263e-09
2.40635738703031679e-14
7.32691811951710134e-13
2.53609327572599258e-12
1.25356076164768643e-10
3.86752250152185958e-09
-2.5460093060021228e-16
4.58249362134385803e-17
1.7032960465085513e-14
4.66563868760401852e-13
3.32107804594163759e-11
1.12440994898329104e-09
2.05622184265408171e-08
-8.59976651203573216e-18
1.81438282003029497e-16
3.76149042587212887e-14
7.42602088523157673e-13
3.77652047106007753e-11
1.05891480869511011e-09
1.72529284799703255e-08
-5.54366950451572202e-36
2.46299162708942414e-16
3.86385321850636437e-14
1.46028974004954945e-12
1.00572150963626544e-11
2.67881513928566018e-10
4.8466699165958745e-09
6.92391185072456414e-20
2.30387321299458987e-17
2.89901370038772264e-15
1.69337495977417888e-13
2.67660630405898913e-12
2.65692059253624809e-11
5.63677270303733276e-10
5.09015174576696691e-05
0.0004013736549613046
-1.45233990532386714e-06
0.000210019555769671261
4.0851180677068187e-09
3.65149776375104777e-09
-1.02933702999979613e-07
1.91326594707612517e-06
2.62554693643704074e-05
1.66787888607695134e-10
2.76262938262990013e-09
2.0061774941179251e-09
4.84718043512828167e-06
1.49324935335365843e-05
1.99178404558922076e-11
6.67823652044483591e-10
1.59097727487667542e-09
5.81756785827066099e-06
9.65543194139403428e-06
2.34675740319701036e-12
8.92241056658349999e-08
3.29472088713067965e-07
1.40499993811077453e-07
3.7058238459303321e-08
3.9061235616963153e-10
1.57779392451221114e-07
1.44992280250131253e-07
5.88108867281218958e-09
2.76026866066892716e-10
7.46651305410232805e-10
2.08635609092884936e-09
2.24560161952869499e-10
2.51493803234822805e-10
1.42403498158069185e-10
1.62070769493800951e-11
6.33897169152386913e-12
9.14048294038910431e-12
2.40747848959141014e-10
1.41803214039216088e-10
2.20954575857493226e-12
8.35735136435855337e-12
1.46773483455375065e-11
3.23758816009260458e-10
6.66635359171041461e-10
6.94038710482645632e-13
6.10497096680103761e-13
3.55011621230048676e-12
2.42861231735531245e-10
3.1251603312575048e-09
8.96428177887511538e-15
1.82544045213910876e-13
7.25682993592194806e-12
2.75524983673738631e-11
2.50822553452620976e-09
-1.16409788873640897e-16
4.83792835948607556e-17
6.3350894814779706e-15
8.70952633527679221e-14
8.46081399684542441e-12
3.62900288448084429e-10
7.85762494969286818e-09
-3.8040087220825029e-18
3.68097293921642143e-17
1.19347590902952115e-14
1.6683630759171486e-13
1.00890504731164996e-11
3.34675595193687182e-10
6.20210488509130798e-09
-9.29488816164814671e-20
2.93230138172961532e-17
7.73812690375317609e-15
4.77918168875828793e-13
5.03814531770887548e-12
7.86453998911011959e-11
1.55913070979504081e-09
-3.56514375556057685e-37
3.12201325040857382e-18
4.47276261611499676e-16
4.14081170337967278e-14
9.58278679853535432e-13
7.04570393108207487e-12
1.58112378944077208e-10
2.93613227275246348e-05
6.55162190162516416e-05
-2.77123019466988774e-07
3.56519575730324654e-05
4.27854901733415336e-08
3.16234706708377086e-08
-3.84912304077336004e-09
-1.57450288041855666e-07
1.52519130240125059e-05
5.9736710100842414e-07
3.636664013209455e-09
6.30378506060524413e-08
2.37957045089035149e-07
2.50617372101775976e-05
1.57750200071003307e-10
3.17060332407934965e-09
6.79384056942349196e-09
5.55983990530065257e-06
2.73345388038472295e-06
4.69342086891736625e-12
3.47729579798903886e-08
1.67795403856256032e-07
5.25443062548047061e-07
8.30240880087692703e-08
2.21528090720829748e-10
1.57582814476265135e-07
1.08193977001783949e-07
8.28599671414818189e-10
1.3384826320029891e-10
2.10068937698393338e-12
1.40411458436136991e-09
4.13153695849160233e-10
5.92503676161410285e-11
1.1211535822646762e-10
2.64237518668716251e-12
3.40624680137920747e-12
7.51682501078805192e-12
1.38202250859244891e-10
1.3878827901085875e-10
3.7162403125140541e-12
1.32354334763288518e-11