/*--------------------------------*- C++ -*----------------------------------*\
| =========                 |                                                 |
| \\      /  F ield         | OpenFOAM: The Open Source CFD Toolbox           |
|  \\    /   O peration     | Version:  2206                                  |
|   \\  /    A nd           | Website:  www.openfoam.com                      |
|    \\/     M anipulation  |                                                 |
\*---------------------------------------------------------------------------*/
FoamFile
{
    version     2.0;
    format      ascii;
    arch        "LSB;label=32;scalar=64";
    class       surfaceScalarField;
    location    "0.990000000000000657";
    object      phi;
}
// * * * * * * * * * * * * * * * * * * * * * * * * * * * * * * * * * * * * * //

dimensions      [0 3 -1 0 0 0 0];

oriented        oriented;

internalField   nonuniform List<scalar> 
20536
(
-0.000469671484257212519
-0.000346641230063101779
0.000247362185420192432
-0.00038615536234859135
-0.000576785784050965443
-0.000199995097790847752
0.000165861183064685593
-0.000542872684534879751
-4.07970032680080524e-05
-0.000216956237341765518
0.000703410077111341742
-0.000834135571531619512
-0.000303781810678531558
0.000723265139594971821
-0.00090921649794388612
-0.000127852486982665451
0.000141630142524066941
-2.38986727554779679e-05
6.98234863183436536e-05
-0.000143771476021978999
0.000110002110287913142
-4.63716792383024785e-05
0.000162205602762773081
-0.000215876821232455918
7.45274873181600952e-05
-5.27340513690577979e-05
0.000231631171531087909
-0.000297435791983315708
4.62688274892700561e-05
-6.60462253607681574e-05
0.000309831282489969183
-0.000432486664734337987
-0.000111869793010337527
0.000415501418349812236
-0.00059987572114950029
3.87274620861666907e-05
0.000197857990969893478
-5.75155604092252043e-06
4.73469418297514603e-05
-5.70370564053179058e-05
0.000177240642405846404
-2.15192351926694935e-05
0.000107287667217136946
-0.000111525413472328194
0.000162220750168790397
-2.82092722834958808e-05
0.000171766796105860605
-0.000181275181986423789
0.000148047487664286395
-2.10615790682485118e-05
0.00023059279738795279
-0.000261408111495585091
-1.83866407350856718e-05
0.000269963282800376124
-0.000336385859547928519
0.000120983557096403653
9.39944211894832692e-05
-6.11097220920899257e-06
3.30904743112742471e-05
-4.01281664109068569e-05
9.5561283066079923e-05
-1.22491555864322579e-05
5.88106273126141681e-05
-6.96508972048846722e-05
9.90816599801255045e-05
-1.29288278607511925e-05
9.10975533530654889e-05
-0.000109902393807868875
0.000111583652023600305
-4.3140730625980991e-06
0.000130057850918938547
-0.000159311609658713548
6.6355781585650432e-06
0.000169589843126611488
-0.000211095608398776953
0.000128063929988548881
7.31651324256695054e-05
3.5503143629304131e-07
2.18958132322510811e-05
-4.28837289961845334e-05
8.36478174772312463e-05
-7.11675341128940138e-07
4.2296029113557122e-05
-6.43199294298450362e-05
9.42496124762600828e-05
-2.08088793876001548e-07
7.03119836410776321e-05
-9.3639025478805388e-05
0.000110190668010651556
3.63299521814535679e-06
0.000102157419033019768
-0.000126050237123283548
9.37661037831074705e-06
0.000131908975669474491
-0.000158591907586561813
0.000134129152216730027
7.73239801492873807e-05
5.93263451552071574e-06
3.30115873266403518e-05
-5.05305343817050637e-05
8.92963121346631889e-05
5.18847082417214886e-06
4.51453278481688897e-05
-6.30214173619800646e-05
0.00010346891815336961
4.05258030610698141e-06
6.39890716954474577e-05
-8.2427036301261844e-05
0.000122840520357235799
3.15126165522490941e-06
8.68907369694979362e-05
-0.000105785708322659754
2.66346270874174911e-06
0.000110327186055889028
-0.000131129853910826879
0.000150352332310164493
7.40549555699496849e-05
7.41882848338915415e-06
4.47238770586955251e-05
-5.41915353207784789e-05
8.51695628132964801e-05
3.848989184213064e-06
5.33650009719820179e-05
-6.31434028289034553e-05
0.000100346290753989073
-7.09128766911883558e-07
6.67146277911691868e-05
-7.71338707813710089e-05
0.00012139561884524504
-6.06382316995740891e-06
8.31864141323886461e-05
-9.50254703485682454e-05
-1.22175056910204659e-05
0.000100721406193655521
-0.000115574223948688236
0.00015112507207380683
6.53271044659931678e-05
6.03483004932297987e-06
4.76820105871861996e-05
-5.2374627538461188e-05
7.46231590765423917e-05
-4.28064872285904775e-07
5.60408794304615441e-05
-6.10625611672194289e-05
8.83150680576895675e-05
-8.42889928800157702e-06
6.70252750517811723e-05
-7.30003391698519252e-05
0.000108396918204906108
-1.84214175361297269e-05
7.99894387349635029e-05
-8.77171625473628452e-05
-3.11103002974130131e-05
9.4019417260173918e-05
-0.000104462243523486739
0.000137728720846713748
5.25527955992481925e-05
4.80423973767574609e-06
4.553454557420463e-05
-4.8296155563604458e-05
5.88274106050095584e-05
-3.37617686039413066e-06
5.34191855683064398e-05
-5.67476003683110728e-05
6.84807796172541176e-05
-1.38564680634838025e-05
6.36840824950153173e-05
-6.79111517666323365e-05
8.32788236923827585e-05
-2.76927685139679637e-05
7.62022291715040527e-05
-8.17304745749537352e-05
-4.63541604547548672e-05
9.05256191409460501e-05
-9.78071280794405882e-05
0.000105801549922035628
3.66736116677850047e-05
5.64653030695415179e-06
4.22105350358803369e-05
-4.40024993871692411e-05
3.84215948863412071e-05
-2.93441419482756119e-06
5.020549810204622e-05
-5.23968637219594306e-05
4.14493296005048777e-05
-1.40888854749990605e-05
6.08763849640394511e-05
-6.3671707863125233e-05
4.66059670617065437e-05
-2.91592025904026072e-05
7.46719989126937763e-05
-7.83620594588843014e-05
-5.01654059034678247e-05
9.20244637781534528e-05
-9.68809458233743539e-05
5.5272263784813676e-05
2.06250620888887076e-05
9.06974854816681476e-06
3.76674400999528835e-05
-3.88929008106772038e-05
1.74870840932515413e-05
1.68801466822816784e-06
4.58441100022757042e-05
-4.73301465817214676e-05
1.30042558180622474e-05
-7.71564332946733796e-06
5.72048179589499924e-05
-5.90946175346308874e-05
7.00505540378728681e-06
-2.02066537749049974e-05
7.29232504987490287e-05
-7.58755054388980253e-05
-3.72504665144217966e-05
9.48332653875651053e-05
-9.89008652854429657e-05
-1.84274717285842191e-06
1.48895184044992791e-05
2.291527137129316e-05
-2.33662248577585687e-05
1.1943055651570382e-05
1.88061018406057888e-05
-2.71128990616558872e-05
7.44412159740319605e-06
1.4382598201989292e-05
3.18428182353051992e-05
-3.26585027692061959e-05
6.56563307277159109e-07
9.49212522764593066e-06
3.97366635859422451e-05
-4.07547020719909261e-05
-9.49819936684094913e-06
3.89354239538268845e-06
5.11295182832458947e-05
-5.25840861906420496e-05
-2.45060696693979012e-05
-2.73946052991741213e-06
6.77036637902722588e-05
-7.01632680323566708e-05
-1.08586943908885902e-05
9.21093194694422692e-05
-9.68297634196349668e-05
-4.61786191171708644e-05
7.89344099923083158e-06
2.54713943982686898e-05
-1.73028499403073112e-05
4.54332907031948132e-06
2.26324928744795408e-05
-2.04067157453497522e-05
-6.25348580149845854e-07
2.00874818315474791e-05
2.45032057562222534e-05
-2.50407702687123837e-05
-8.51637110322716597e-06
1.80754975999193097e-05
3.12347177193095005e-05
-3.19291929268127823e-05
-2.03484836457334839e-05
1.68284047160632973e-05
4.11852299368650664e-05
-4.2291045498911793e-05
-3.77077621173919642e-05
1.67044821963469126e-05
5.60118038421342367e-05
-5.81006683433491793e-05
1.82641573650301254e-05
7.83063362293425641e-05
-8.27713063129263964e-05
-6.23696989745590444e-05
3.56440938582187371e-06
2.73808386012058911e-05
-1.07612625246171666e-05
9.32299470608237353e-07
2.55465318766199791e-05
-1.28458420281863205e-05
-3.2656252027011949e-06
2.45270377800893707e-05
1.56888092358260233e-05
-1.59318457512430232e-05
-9.50864814137298581e-06
2.47525298125582353e-05
2.02599411547618856e-05
-2.06968875282730966e-05
-1.881284460358584e-05
2.69241390386393005e-05
2.71627811508306876e-05
-2.79593975833434563e-05
-3.25963309871087986e-05
3.20483833256008776e-05
3.76287630943025159e-05
-3.91948564155483528e-05
4.14234013743408679e-05
5.35466042899301257e-05
-5.69734706647269308e-05
-5.23332976744876274e-05
1.03560566177381031e-06
-3.7059955125531286e-06
2.52757109158954299e-08
-4.46175697496306226e-06
-1.57839086937102353e-06
5.49104110317405018e-06
-5.58215784312828586e-06
-4.00519919424961514e-06
7.15662941044152437e-06
-7.32055958448098489e-06
-7.69439335630349912e-06
9.70368079349730918e-06
-9.98386450236842673e-06
-1.31263610902639917e-05
1.35578138269425486e-05
-1.4177507687471427e-05
1.94477999426781841e-05
-2.08020393552110338e-05
-2.09938349545579948e-05
-0.000416312553526293223
-0.000447972146782517442
0.000143122075212894645
-0.00076400292481768094
-0.000124429019667518222
-0.000488661326416884234
0.000149780983116475997
-0.000216947433614441331
0.000458879821737408081
-0.000418878628204304626
0.000545453704365758533
-1.75350493080272393e-05
9.6799823928233426e-05
3.6948666330328695e-05
2.26058943266570602e-05
0.000129396525424125587
-1.28262062365035038e-06
6.57650473189989437e-05
0.000165723392466364988
-5.15912022466161841e-05
0.000110896010526877523
0.000199539402865735145
-9.62454972944118783e-05
0.00015530894379482758
-0.000120505185320247049
0.000198844307111010473
0.000117819309664187797
0.000232974742774624165
4.26034474271492705e-05
2.47313322747301888e-05
0.000222801252591845643
2.59160035510125695e-05
9.0258608328296945e-05
0.000202853022188599825
-6.06086025531825336e-06
0.000146180138175203009
0.000176591739501681113
-2.52103373985894521e-05
0.000185814640773979714
-3.04740480935848396e-05
0.000208504706098518828
0.000148016085587516458
0.000123935696775711169
2.02722485212865426e-05
3.47825837930957e-05
0.000128024983579484779
1.68097941757899651e-05
6.38227437166915298e-05
0.000125522680621587121
1.19051776508282271e-06
8.63429844842693149e-05
0.000132442332390038403
-9.31090596325670245e-06
0.000107234162857266379
-9.7908724045815042e-06
0.000130352505769592929
0.000150993914611186086
7.25823505338910345e-05
1.52781913978371393e-05
2.41942145696084112e-06
9.39326774497038861e-05
1.56485868322260926e-05
2.21012578672830896e-05
0.000112201282153130184
9.29607287161957345e-06
4.39314673349161235e-05
0.00013052695017143321
3.69010337387518821e-06
7.08253180529241536e-05
2.47952435177543375e-06
9.80358169911501259e-05
0.000152126714979763125
7.84809349334566835e-05
1.35364607306287792e-05
1.29343177790624977e-05
0.000100631508115251567
1.25244153823544121e-05
2.61132501012954634e-05
0.000121271195142232558
7.72681892306659331e-06
4.49119214165991792e-05
0.000142382746019390557
2.53361532215002825e-06
6.69292689857060326e-05
-1.35720239624781316e-06
8.84574490264580755e-05
0.000168085025023597616
8.12800283398863808e-05
8.4299871829181914e-06
3.69046670122767217e-05
9.64536034411702216e-05
4.34180611760154897e-06
4.63693717670748642e-05
0.000113651447332054658
-1.48287288952099645e-06
5.8720470732201198e-05
0.000134935307059920847
-8.29330452924666498e-06
7.27229870059273867e-05
-1.57594892623059041e-05
8.6650797446590863e-05
0.000163402825215908483
7.2584939288510071e-05
5.41788315904796731e-06
4.28017527076341155e-05
8.36276217150274325e-05
-1.15246565132006622e-06
5.04894694243316041e-05
9.87074489283948538e-05
-9.48140234806432963e-06
5.99400469975511945e-05
0.000119451609123833382
-1.98095195630743802e-05
7.07564638188807888e-05
-3.25571360276279029e-05
8.21216626172310989e-05
0.000148141529663644667
5.88367080607088373e-05
3.50295337211975607e-06
4.16545202177473023e-05
6.70928410331213341e-05
-4.64557887816248027e-06
4.86546253033114616e-05
7.86305649390096602e-05
-1.50107230966041395e-05
5.76741475226927484e-05
9.48574481659141867e-05
-2.83628989491973318e-05
6.85256229881130272e-05
-4.57996744198765259e-05
8.075253235193249e-05
0.00011786799174948168
4.32589680735621885e-05
3.71853910422397036e-06
3.91656025414187457e-05
4.72390855075698827e-05
-4.77811177951079189e-06
4.63572394532099088e-05
5.28661438091790003e-05
-1.56325073133880643e-05
5.58715623023512683e-05
6.10034456018333169e-05
-2.98699668394086722e-05
6.80406537723056122e-05
-4.89182640069796163e-05
8.31826120058201039e-05
7.29599729616262283e-05
2.7381435840892376e-05
6.55279286927812034e-06
3.50494079502039821e-05
2.68975299150530714e-05
-9.32621160164087085e-07
4.24820192479736348e-05
2.60441699129497312e-05
-1.02890497074637947e-05
5.27161099217989459e-05
2.48169668986708981e-05
-2.23644301376396768e-05
6.66454879471729247e-05
-3.83010238185202675e-05
8.54843361035376306e-05
2.35469704176003733e-05
1.39254285713598426e-05
1.1166802377088282e-05
2.97112530759597186e-05
1.00339848707952932e-05
5.77485107643702279e-06
3.69186984463945462e-05
4.17953301019528139e-06
-4.54799582509950086e-07
4.71485940229902917e-05
-4.28428954028993976e-06
-7.85938748775018628e-06
6.16608513849576132e-05
-1.68607313397000199e-05
8.23149733986751927e-05
-1.59323506956845649e-05
4.88498552330356044e-06
1.6181852465650478e-05
2.28855548444991065e-05
-3.5399318884902536e-07
1.32155078729724791e-05
2.9028711933911025e-05
-8.17212408770968051e-06
1.06147274991436467e-05
3.79278218768206875e-05
-1.94112807083208026e-05
8.55226174347582677e-06
5.08328218342180533e-05
7.27560721157512972e-06
6.95155539733939597e-05
-3.47619689236525146e-05
6.63140237880953024e-07
2.00613015534641483e-05
1.46220951359837381e-05
-3.69789998683292852e-06
1.90145285340277668e-05
1.88173719247943473e-05
-1.01666395156557099e-05
1.92818555804755813e-05
2.495769050288346e-05
-1.95386657502250713e-05
2.15370238055289937e-05
3.40094131872324408e-05
2.66170810859109547e-05
4.72355196294684256e-05
-3.25743221067129827e-05
-1.62464484167263861e-07
5.1147615946114383e-06
-1.88521039698405131e-06
6.63620700798391664e-06
-4.44991830881732864e-06
8.88068176459696582e-06
-8.20293966735544875e-06
1.22027457963230641e-05
1.70830181319280461e-05
-1.35503886853987596e-05
-0.00054971613543168432
-0.00040820443294962023
7.0097626300592229e-05
-0.000797182541034615125
-9.95053178404301804e-05
-0.000534887930048801594
0.000252314239014839235
-0.000170868337395977304
0.000226877926930073472
-0.000381910317681034156
0.000356840389165142418
2.56535365149487805e-05
0.000149073761170307449
0.000128507503053161635
-1.029603839170824e-05
0.000200298607233789577
2.16578575113197773e-05
-1.52599256791248754e-06
0.000237083917489772246
-6.01256339343834057e-05
2.26551877165119877e-05
0.000268977597851242575
-0.000104211512596426401
5.67562097123960863e-05
-0.000121044513373611879
9.12947847025190112e-05
0.000115658919103765016
0.000264188799715097962
0.000106812066593806499
7.69473610201264121e-06
0.000262528335627144069
7.82789613168586885e-05
3.52954532934632374e-05
0.000238062007051817231
3.15077927016349594e-05
7.90103959013735511e-05
0.000193081201137342489
-7.3053653706416655e-06
0.000133886937822491267
-3.020159170703476e-05
0.000167839752641663217
0.000142901165700790321
0.00017847145803291637
7.74370514419348021e-05
3.80558081530362862e-05
0.000180406144375864624
6.0144325094064372e-05
8.00195077347225459e-05
0.000166148310019934091
3.1116702678611808e-05
0.000100988660204881788
0.000158721510183567417
2.51395560074391502e-06
0.000104839102951868564
-1.21047207976604954e-05
0.000107901522445583712
0.000163073965048379739
0.000103575713413334386
4.4770609648405638e-05
1.35504021951216394e-05
0.000122509303382071122
3.55245638392353796e-05
2.77835018645280455e-05
0.000139102350308106359
2.1132392584881467e-05
3.73187101574106375e-05
0.000154157842339658536
8.65411583436326228e-06
4.96263885908730098e-05
2.03166059119187694e-06
6.71798122993044278e-05
0.000170875416387161587
9.66383648238967652e-05
2.10578447638927745e-05
1.77692036326564172e-05
0.0001174814341409229
1.74870961742092999e-05
2.33035245575806239e-05
0.000137920770013045819
1.04646326209218953e-05
3.51356529014536673e-05
0.000158202981718253728
2.66016973749754056e-06
5.26367501770295951e-05
-3.75274490035292169e-06
7.1016220488170784e-05
0.000181425693950572413
9.04771641347370598e-05
1.07619428758934173e-05
3.44344778884625764e-05
0.000106411151490861286
5.46446787949724476e-06
4.24542809884404185e-05
0.000124324215227414786
-1.51253424098563298e-06
5.27797288467155492e-05
0.000145452278335373374
-9.48779664728699619e-06
6.37380186275610604e-05
-1.78795861306401131e-05
7.3860574817486159e-05
0.000172365323374387957
7.89766778509007599e-05
5.81258535155562223e-06
3.85979675054051814e-05
9.13822539795250334e-05
-1.13940725034221771e-06
4.46849091283270714e-05
0.000107493600854627198
-9.80552514369052817e-06
5.2117660191760949e-05
0.00012851615778354628
-2.03320193034034068e-05
6.05734474155315351e-05
-3.2921466056649794e-05
6.93968804837166009e-05
0.00015627816556668502
6.46576717024417567e-05
2.52520180914156216e-06
3.7670016173287241e-05
7.44667338505652644e-05
-5.60267716387701962e-06
4.33069622854694833e-05
8.7438615217670128e-05
-1.57856913240007841e-05
5.0679789646424563e-05
0.000104711555910379627
-2.86076154750658702e-05
5.95243534905274933e-05
-4.48458410736874032e-05
6.93955472233284004e-05
0.000127988377941958432
4.91731694671427097e-05
2.06169802470640147e-06
3.51786992600675884e-05
5.50665585713084872e-05
-6.34145793944337704e-06
4.12016861270908264e-05
6.28899713802848166e-05
-1.6897533005736428e-05
4.91589640168081792e-05
7.34752462545036291e-05
-3.03944474751898983e-05
5.92397154958661747e-05
-4.78790242315481714e-05
7.16278303859782512e-05
8.80594438950813013e-05
3.35054445993368912e-05
4.24469220912709666e-06
3.13133696042138963e-05
3.53276411950917819e-05
-3.3289204558190061e-06
3.76468218773941699e-05
3.75205991533841059e-05
-1.26645284300212703e-05
4.62903535849124061e-05
4.03636262628885052e-05
-2.4447214775247898e-05
5.78542627979843343e-05
-3.95680476371937549e-05
7.31076873320593676e-05
4.44265725593830885e-05
1.98260033135588148e-05
8.16994010206273413e-06
2.64877055769249867e-05
1.84218519091128728e-05
2.32413374089729028e-06
3.26686341539547372e-05
1.60727100198976782e-05
-4.47234293819071037e-06
4.13047922845591561e-05
1.26046977464892385e-05
-1.25764944217438582e-05
5.32567524663395424e-05
-2.24493060782604285e-05
6.96356825466094755e-05
8.16319573613028619e-06
9.89429294935543283e-06
1.25218366945119167e-05
2.03744092230676282e-05
6.90210426003153519e-06
8.69909256936323219e-06
2.56430264593421754e-05
2.34601497681735987e-06
4.87440036615457094e-06
3.3133064865921258e-05
-4.20508578338323198e-06
1.09876318048142581e-06
4.37047140630491212e-05
-2.59239129028393848e-06
5.85156901567129051e-05
-1.30647451942964834e-05
4.06981425592199126e-06
1.58916479672960377e-05
1.29857505508567813e-05
1.33722457327136879e-06
1.36694040483991501e-05
1.65756939187489318e-05
-2.79905474115204501e-06
1.22243806014237939e-05
2.17380590349228353e-05
-8.77423114580867802e-06
1.19738042735786736e-05
2.91040406565944524e-05
1.34326156110666563e-05
3.95179659008816788e-05
-1.70858359314633998e-05
1.08041768392822354e-06
4.53272692278717891e-06
-4.57758919845525057e-08
5.84055622381262959e-06
-1.75109269430664437e-06
7.72065028854785215e-06
-4.22315757199385002e-06
1.04080297605341259e-05
1.42239372439465534e-05
-7.73676594201934506e-06
-0.000561933095313264797
-0.000196312437872979466
-3.71730408211788191e-05
-0.000793440496909710719
-0.00010031636310902842
-0.000540682303366875902
0.000374211363373925404
-4.6109674974065181e-05
4.92472417294789541e-05
-0.000311797831174009119
0.000171922251038168306
7.74853095207070732e-05
0.000213489545728208637
0.000174510172781029238
-1.98894400714630406e-05
0.000260480287150908736
0.000112067868524336634
-8.22109322285542125e-06
0.000313910639704238889
3.02004940525483318e-05
7.91847079032435581e-06
0.000344822491249974509
-6.20779065498557546e-05
4.18110130978893062e-05
-0.000113276673791728999
7.86659848141903542e-05
0.000158928148662109146
0.000291498546089293095
0.000129717714588731563
1.82205681597606312e-05
0.000303088108174784691
0.000102161221976806483
3.36105829302360624e-05
0.000289389457827777564
5.44212666574550683e-05
6.84865680338174194e-05
0.000228940743790440737
1.95211289910476049e-05
0.000112735330781011791
-1.53715955242723844e-05
0.00014599779102382918
0.000152876248894511803
0.000221443618784644903
0.000116663434202277449
3.13807905678741732e-05
0.000223325310664818273
0.000103996325966705585
7.63002953922804311e-05
0.000206732678475114875
6.80381324206139992e-05
0.000103962499640977414
0.000191848684068403048
3.27600276709448318e-05
0.000106483023350653432
4.49866859013537323e-06
9.53449870712070517e-05
0.00018453400102198651
0.000141332064339698237
8.36451607154145175e-05
3.48418628223488472e-05
0.000156221862319254665
7.00618577081009192e-05
4.68251335969972478e-05
0.000168478151861113943
4.54407319656048594e-05
4.76572804042493749e-05
0.000180478844526417578
2.1620309759009905e-05
4.87637302279945412e-05
5.97346515631638362e-06
5.45991021780653423e-05
0.000191583599632754906
0.000112468755462004756
3.66497865697363538e-05
4.81752995027460076e-05
0.000133636081498596709
2.72025451411249579e-05
4.49919565813654867e-05
0.000153387271018828067
1.48999586565934199e-05
4.59216625004555328e-05
0.000171653813118508876
3.14569427430186517e-06
5.28420402822446012e-05
-5.59397013242354422e-06
6.27632759084383713e-05
0.000191472115358872803
9.65656907379430882e-05
1.46855428396513687e-05
4.1521068179840379e-05
0.000113896498284207659
7.95847540536295843e-06
4.43637421714098275e-05
0.000132368864855360075
-3.00327801879384372e-07
4.95031901921492851e-05
0.000153186839222172366
-9.39034560395623672e-06
5.54522604953827281e-05
-1.85855301822140484e-05
6.1279615627417934e-05
0.00017875620184803882
8.40473005834982943e-05
6.13524044975888034e-06
3.64002956398731819e-05
9.76740301761850916e-05
-1.00538712311390107e-06
4.00183276582190134e-05
0.000114552219688984395
-9.90528593249151803e-06
4.48398295976675892e-05
0.000135662227247493545
-2.05291370889177114e-05
5.05979072310462321e-05
-3.2876794375893395e-05
5.68360021817008201e-05
0.000162510753519033995
6.93451309670518678e-05
1.42438138902252812e-06
3.37863636035530261e-05
8.04659038468448853e-05
-6.58381794839820952e-06
3.77614699691836391e-05
9.45796307576601906e-05
-1.65040055283585359e-05
4.3160823186764339e-05
0.000112618691688565377
-2.87679311207984426e-05
4.97199181089241822e-05
-4.39397542162620362e-05
5.70799516838949589e-05
0.000135994027660236554
5.41355687758161074e-05
5.25345289377601504e-07
3.02575602454523574e-05
6.15867386762412031e-05
-7.74011996738347037e-06
3.49046328148779761e-05
7.11449090922163229e-05
-1.80097017122079762e-05
4.11036704605090473e-05
8.35831234284217827e-05
-3.0894544255242429e-05
4.89246820686848311e-05
-4.71852711897407514e-05
5.84440823304199726e-05
0.000100009507800222116
3.86872648458560589e-05
2.14924289402705811e-06
2.66278684588780921e-05
4.24070317630149298e-05
-5.48624307678373933e-06
3.16717905217643502e-05
4.69876874376308024e-05
-1.48122491553879376e-05
3.85107369362664949e-05
5.28226975238307856e-05
-2.64025669201769364e-05
4.75249315931984244e-05
-4.09928809706860056e-05
5.91484269804623634e-05
6.05864501227558195e-05
2.48739762466982717e-05
5.48016868484563446e-06
2.23643258610686021e-05
2.54739581323619818e-05
-7.50625294729370457e-07
2.7331582825275146e-05
2.58151571364805033e-05
-8.03378993915730851e-06
3.41838535664346906e-05
2.59179087251501339e-05
-1.6721340601268006e-05
4.34710702073287653e-05
-2.72657605546484661e-05
5.58344131563232347e-05
2.59894083415272562e-05
1.41809504355387275e-05
9.25239057336642659e-06
1.71437322704456302e-05
1.29878496742897886e-05
4.69140401837517848e-06
2.13911803543173087e-05
1.09192667642694945e-05
-1.61114691354436769e-07
2.73255781506905066e-05
7.75722789115359215e-06
-5.35626703972618193e-06
3.5498942032119152e-05
-1.09986196412172212e-05
4.65293878171016962e-05
3.47424846408006384e-06
6.97986523886277101e-06
1.21773692180517914e-05
1.08960449965167652e-05
5.50628199828657606e-06
8.94851580601874983e-06
1.37878671807212745e-05
3.16016737499079377e-06
6.05232353187363018e-06
1.78652192906834471e-05
-3.82083770722937705e-07
3.73462354924424997e-06
2.35507403300820183e-05
2.29463587768788185e-06
3.13448622004856798e-05
-5.50569335841943326e-06
2.1339714657862909e-06
3.79398761724036538e-06
1.49873461285011819e-06
4.84284727048449118e-06
4.74715695384417439e-07
6.33437554364484256e-06
-1.09131650895272253e-06
8.41772965843201868e-06
1.12439348954076262e-05
-3.3800589897906153e-06
-0.000421172176424275402
-9.52955824617592728e-05
-0.000103884983746495963
-0.000712568712896389719
-8.38741751868638528e-05
-0.00050357486612345639
0.000490672514858014777
4.49063422335768252e-05
-7.43888474669706431e-05
-0.000239428077144014726
6.55991345707149839e-05
0.000123853807648159338
0.00030185576899087246
0.000143420833499231066
1.46554260408473166e-05
0.000348151468934180489
0.000143292787623871068
1.74492744989057039e-05
0.000374428985718179281
9.23286342416725558e-05
3.56767272565552994e-05
0.000388714960078078309
3.19711304384872642e-06
6.92334393039749851e-05
-8.68901975771418792e-05
0.00010463314999921582
0.000210208549066486481
0.000316606071355297631
0.000105133474161852412
3.07491054669889019e-05
0.000328966790301796316
0.00010495330108092073
5.95878199311718378e-05
0.000321300795744993773
7.28579578962808202e-05
9.5622517339352198e-05
0.000271994831756769537
3.70837946126812204e-05
0.000128154413045288842
5.85298399662877085e-06
0.000138338245769934951
0.000186910283907474445
0.000254038521939663035
0.000111936075489855408
1.4858504295514133e-05
0.000256041291297571605
0.000111334045192720892
6.79151111263738935e-05
0.000240750475100164611
8.83817826409976297e-05
0.000103728980834140233
0.00022259227580562305
5.30530342958343695e-05
0.000108672119786031008
2.05540558126039621e-05
9.33787457759082859e-05
0.000209856717824030052
0.00017399580123428571
8.64460850403656782e-05
5.01417518992199559e-05
0.000181854039719725865
7.44172506875438597e-05
7.5881571856408568e-05
0.000189634284973132705
5.24342646602848442e-05
7.58235973570397647e-05
0.00019778095710605803
2.66162730766526641e-05
6.70535408080344191e-05
7.02110396849859111e-06
6.06315184158510827e-05
0.000205280533157856283
0.00011355493926785382
3.77972690763387292e-05
7.74782905444281627e-05
0.000135571085929236999
2.6992269832511866e-05
7.03979538567753278e-05
0.000157201107605353218
1.39582349019627875e-05
6.2765425241592874e-05
0.000176541057565059194
1.99840720429579882e-06
5.81185022649962377e-05
-7.09784763778581105e-06
5.75079777791730342e-05
0.000195913561050705765
9.8696933663528115e-05
1.37787612387578703e-05
4.796778680922202e-05
0.000117592835539739876
7.53594128866845805e-06
4.49204177743618954e-05
0.000136941757192931554
-5.21189595417020403e-07
4.4630017333832379e-05
0.0001579806757705689
-9.60777040694490861e-06
4.60168793305862722e-05
-1.90470070450450579e-05
4.83218590646922601e-05
0.000182885038652997017
8.66990989895497296e-05
4.63883344215521406e-06
3.31906911482058182e-05
0.000101551376183774361
-2.23882982862926147e-06
3.49363226082564937e-05
0.000119254155261400233
-1.09381453386761079e-05
3.75495120661184192e-05
0.000140629051363792829
-2.12418618111999814e-05
4.08537914026242235e-05
-3.30685695429285145e-05
4.45880725235107096e-05
0.000166896044640067178
7.26215227260963437e-05
4.60117380706045152e-10
2.86397438593347427e-05
8.48226520575994116e-05
-7.72200447489745413e-06
3.10391837722013872e-05
9.98294864516735076e-05
-1.7288184779630942e-05
3.44996229215367432e-05
0.000118450776884832811
-2.90030403667703444e-05
3.88566205851316251e-05
-4.3289921369649506e-05
4.3865217637424854e-05
0.00014188553247962814
5.79267412143189201e-05
-1.02386088539650538e-06
2.43069948524842071e-05
6.66327332443298725e-05
-9.10512045104054158e-06
2.75782255475985144e-05
7.75206885642868224e-05
-1.90956878332912389e-05
3.20192867839238176e-05
9.12914215591956771e-05
-3.14769765080460636e-05
3.76249232831729695e-05
-4.68787958982438702e-05
4.44016417548764105e-05
0.000108921636622349844
4.279042499859517e-05
2.87634160145382027e-07
2.10465056827553146e-05
4.79744570044901439e-05
-7.37038028894592854e-06
2.47503020677471805e-05
5.43173709300326629e-05
-1.66817951294761482e-05
2.97509181858018093e-05
6.22366676451955225e-05
-2.8141512015157703e-05
3.62672301652253022e-05
-4.23863686224921875e-05
4.4513403690950018e-05
7.23763037157537181e-05
2.89177376663738915e-05
3.17368097294482693e-06
1.75020309369206849e-05
3.10446335349213786e-05
-3.36014778617871606e-06
2.11923562383804182e-05
3.33420093591599791e-05
-1.10333919190021897e-05
2.6236296985920537e-05
3.59011856072819928e-05
-2.01935500173098967e-05
3.29619232131419734e-05
-3.12963965549310297e-05
4.17000278659075224e-05
3.89424006773676825e-05
1.76291994350436648e-05
6.48428400890497711e-06
1.33537912327342212e-05
1.78016371242021151e-05
1.32878010765601583e-06
1.65271416914236861e-05
1.75267771811322868e-05
-4.33957215693066658e-06
2.09044260795565468e-05
1.66313632569115102e-05
-1.06245173922465036e-05
2.68238454905309713e-05
-1.769231638013702e-05
3.46412975526368767e-05
1.49136884911875042e-05
9.31914724936884138e-06
9.04976613416166674e-06
8.46288215853314178e-06
8.80234247003624676e-06
5.00571452382484285e-06
1.06239048164689739e-05
7.73302567323248828e-06
9.60945127978583401e-07
1.36299389645275559e-05
5.88651134759835092e-06
-2.96399824261818338e-06
1.77336563611354335e-05
-6.5958563910873991e-06
2.32562795610491409e-05
2.87627043796890332e-06
2.97516080896693008e-06
2.93961340688430654e-06
2.69757358988197224e-06
3.72064825630841839e-06
2.18191046630667027e-06
4.81483052647453415e-06
1.28167266358253843e-06
6.33824540240103018e-06
8.36976033521869258e-06
-2.33424834464685075e-07
-0.000517875022688487913
-0.000220091975987610558
-8.67698622450957258e-05
-0.000769520406571863082
-7.31280623123549509e-05
-0.000526251650139239035
0.000541424002515414511
-0.000157079585691135746
-7.73135465351432291e-05
-0.000299508045881640643
-1.62407884748323241e-05
0.000153250777892646387
0.000365759754798624
-0.000135477948528530138
4.54497391664846167e-05
0.000379809902730382683
-8.76636207209740279e-05
6.9904383446716626e-06
0.000347111144664667822
-6.71769178854132471e-05