/*--------------------------------*- C++ -*----------------------------------*\
| =========                 |                                                 |
| \\      /  F ield         | OpenFOAM: The Open Source CFD Toolbox           |
|  \\    /   O peration     | Version:  2206                                  |
|   \\  /    A nd           | Website:  www.openfoam.com                      |
|    \\/     M anipulation  |                                                 |
\*---------------------------------------------------------------------------*/
FoamFile
{
    version     2.0;
    format      ascii;
    arch        "LSB;label=32;scalar=64";
    class       volVectorField;
    location    "0.270000000000000018";
    object      faceTraction;
}
// * * * * * * * * * * * * * * * * * * * * * * * * * * * * * * * * * * * * * //

dimensions      [1 -1 -2 0 0 0 0];

internalField   uniform (0 0 0);

boundaryField
{
    inlet
    {
        type            calculated;
        value           uniform (0 0 0);
    }
    outlet
    {
        type            calculated;
        value           nonuniform List<vector> 0();
    }
    top
    {
        type            calculated;
        value           uniform (0 0 0);
    }
    bottom
    {
        type            calculated;
        value           uniform (0 0 0);
    }
    left
    {
        type            calculated;
        value           uniform (0 0 0);
    }
    symmetry
    {
        type            symmetryPlane;
    }
    interface
    {
        type            calculated;
        value           nonuniform List<vector> 
181
(
(2535.2528998462617 -0.0346484858778405777 -0.0706771874923014382)
(2444.80764443081762 0.00305947545867932096 -0.0760779454677759231)
(2345.22520920374836 0.0101247564310318703 -0.0759798580315626665)
(2248.32564523479596 0.0129671556050692544 -0.074948292499640301)
(2155.64823341770307 0.0163171820333397888 -0.0734198232814240598)
(2061.43724800516793 0.0205571152258744935 -0.0718354980364263873)
(1960.16775575579322 0.0263092138441157163 -0.0704591413361403685)
(1846.67248718107794 0.0328489284749589813 -0.0686486297900136128)
(1711.75602973791752 0.0419080538409463896 -0.0678699788689958727)
(1546.00896349104573 0.0567481737410233458 -0.0729671708141244324)
(1333.47438275077184 0.0661503894977617524 -0.0700347756941106098)
(1073.56603202532028 0.0741678113400888045 -0.0656868851942282173)
(808.573665891211476 0.0722583416964505953 -0.0544816668929667194)
(580.845553749940109 0.0886342408262955767 -0.0584805896452572985)
(386.041770783869367 0.0980378702388290252 -0.057542987950156041)
(229.85504422771595 0.0964812775278789947 -0.0522395810635864835)
(2993.98721685318969 -0.0146886525356845956 -0.0431041983397490239)
(2893.30550156003483 0.0058170305433139155 -0.0509616996011279105)
(2783.30221458210644 0.0111616450131847185 -0.049979040022076468)
(2672.33632977773368 0.0155564717496819299 -0.0492208017834760009)
(2561.88698874575584 0.0202589933354238652 -0.0483147788661645455)
(2446.27753723077876 0.0254797848041914202 -0.0476025658641985247)
(2320.9573782411012 0.0321728164517613435 -0.0469604331952896484)
(2185.80492673425215 0.0392053871649298072 -0.0463480366635083477)
(2031.00189496468283 0.0474666288379666443 -0.0456322834109494785)
(1845.97270640800321 0.0623425941894749508 -0.0487259000398041972)
(1622.1890570300186 0.0736100539751057548 -0.0479068794214164637)
(1346.52082808849286 0.0827277418427916078 -0.0457823617222806803)
(1028.39233539567317 0.0855529287130370047 -0.0411803026385628435)
(736.626424099178962 0.0841964574455894427 -0.035585040427661592)
(502.574057695782528 0.110770086460910203 -0.0423885397180722365)
(308.828104349019782 0.111283342106749145 -0.040138394548259862)
(3215.35827495662397 -0.0151046327050780235 -0.0341704279841050437)
(3115.99601825873742 0.0062893391053944793 -0.0384006984496845505)
(3006.74806740690065 0.0129720692840641083 -0.0386843789015978365)
(2892.37420611825155 0.0184079219764903511 -0.0384035846994616598)
(2775.52250429320293 0.0240350765357892626 -0.0379838791730001124)
(2652.60221130922037 0.0298848336943099632 -0.0377645978972949783)
(2521.41180177152046 0.0374592819892934428 -0.0377818581731100209)
(2387.31491460825782 0.0455044623724285627 -0.0379369811119122449)
(2230.75093106386885 0.0570842649757551182 -0.0400740237540966882)
(2037.17668033071322 0.0702532337766633846 -0.0413968579542248541)
(1807.92084794350535 0.0799927462570145659 -0.0402275932252047774)
(1534.01080805684956 0.0896431944061258645 -0.0390489898663035906)
(1211.01239090338754 0.0976251981722273537 -0.0375233041495466046)
(878.218398742698696 0.0921793936342438364 -0.0318352832405622913)
(590.12801684256101 0.11615048047734082 -0.0362116882359053566)
(366.275307795385345 0.120318254057114826 -0.0353843527297866903)
(3308.57943792005153 -0.0116571175564906589 -0.0198070445402038636)
(3208.43280097820752 0.00715426834962433651 -0.0254091061084814641)
(3098.23439441433266 0.0138298244246653004 -0.0256195630431041363)
(2981.58819101953577 0.0197726424813091349 -0.0253037998998146378)
(2861.69251362039995 0.0257307376692356773 -0.0249591782253207814)
(2736.78880169071044 0.0321282268247646899 -0.0248034509631955176)
(2607.89007077031556 0.0407919840816823032 -0.0252717046907902157)
(2472.610666362762 0.0506643500232786259 -0.0261960836383342659)
(2307.97766992593461 0.0577291276891079702 -0.0257289589542347985)
(2110.59833147644167 0.0724984767269573893 -0.0274272296156257249)
(1887.39701798560122 0.083040464238538253 -0.0272111809605063565)
(1625.89775431629323 0.0926255123918398177 -0.0266235921076588833)
(1310.38427308210021 0.100789405889509368 -0.0259432269240954562)
(964.39883343216934 0.102890277901061589 -0.0240854549441138974)
(650.851790882617252 0.096322830748179572 -0.0206493409893170818)
(401.426317297130595 0.132931084934607147 -0.0268566378834514119)
(3363.22382675205699 -0.00997526500537918373 -0.0160875230542752226)
(3262.86933030338469 0.00739227982576810914 -0.018060835541581402)
(3153.28519807448811 0.0141912874715343154 -0.0182287633035780466)
(3036.65558451085872 0.0204769310123963794 -0.0183292228122553906)
(2916.64512590158802 0.0268840433185501514 -0.0182996988826403355)
(2792.83744752940038 0.0335514241563615243 -0.0181524206763420369)
(2664.36665813833406 0.0428069319341230908 -0.0186356605718767943)
(2527.87802634700438 0.054159409123973358 -0.0196776815201424558)
(2365.3414153540125 0.0589584965918379458 -0.0186445525189056251)
(2173.68376894983021 0.0684846312638261734 -0.0187052010012901879)
(1955.54808136657743 0.0847666716844250878 -0.0202391095103909811)
(1701.4856844976805 0.0953925098557361906 -0.020111367600261422)
(1394.93232636999164 0.103883642166443996 -0.0197606867205106264)
(1049.71785668245684 0.10408127167776153 -0.0180901420236430736)
(722.730261398602579 0.0975047883574932384 -0.0155879583300647592)
(449.551978719248666 0.136895626103065937 -0.020540344413541009)
(3390.57628476012815 -0.00786432076638897762 -0.00862989515161452156)
(3291.07833109481953 0.00752964627605461415 -0.0116089438545551472)
(3182.43602377302659 0.0143006074142909036 -0.01200100324088774)
(3065.89905928010648 0.0207255883433687185 -0.012079636249593545)
(2945.03646720606002 0.0274572990302328658 -0.0120563570106741094)
(2820.04062646559441 0.0345252565975190523 -0.0118964639652865359)
(2687.94593088814599 0.0421556644425228472 -0.0116779424391402591)
(2546.64479604955704 0.0516999182520255854 -0.0116183144856458059)
(2387.4692757873172 0.0603495678119976911 -0.0115500684946420514)
(2203.35854054461242 0.0713816775045869323 -0.0117730420565217118)
(1985.3823067729345 0.086452051760109852 -0.0126469561677806704)
(1731.26554911539802 0.0962036405204538675 -0.0126214940388028832)
(1442.81348013255001 0.107409713973195167 -0.0128789577261093705)
(1107.25711481714802 0.116785193552439215 -0.0130503807444463937)
(761.296164338036988 0.105984513586959622 -0.010941149068000278)
(467.454685991843348 0.135607472159445436 -0.0131953221712694298)
(3406.63931962998777 -0.0075233414073633386 -0.00487329812643647834)
(3306.39555313957135 0.00778274641135270548 -0.00662000998316284849)
(3198.46596576352658 0.014367483750014268 -0.00682189549784387086)
(3083.36351556731961 0.0206445919352463148 -0.00689474125588924666)
(2963.12368787993091 0.0275475090139516605 -0.0070233431416354946)
(2838.58575507377827 0.0349081665949332043 -0.00700809920665067688)
(2704.08577414816682 0.0481366262407432605 -0.0074586093020952704)
(2557.52796695361621 0.053719276058294102 -0.0065186959831644662)
(2396.45327369977576 0.0621481802291907262 -0.00599461299394861771)
(2217.8993635578413 0.0713820704622124963 -0.00569278340272798191)
(2010.08058730747575 0.0812966256603259163 -0.00580200135000890661)
(1762.72869927543343 0.0978473668773216648 -0.00647553664764257547)
(1482.24036699173985 0.108806062651570973 -0.00679889558414605629)
(1148.41481906606168 0.117939498674748719 -0.00707853033133197702)
(790.583587197873499 0.123555739080256577 -0.00711234581598177342)
(496.839426001917275 0.110761421872101501 -0.00616110115978637293)
(3413.00114098175391 -0.00686350352855304071 -0.00156997147052114904)
(3312.36821646904673 0.00791761181226138984 -0.00209687610124279986)
(3204.84909930406729 0.014373272628711577 -0.00217084317475490845)
(3090.68184466701268 0.0203957133306109199 -0.00221206967518502258)
(2974.4384348180829 0.0282105829032828909 -0.00235638881037527562)
(2850.46243376963639 0.0412000850566337853 -0.00272215673600674111)
(2710.41258264693852 0.0503125633967905009 -0.00247347823335902555)
(2559.13816005592071 0.0559615503893109781 -0.00202650673375378079)
(2397.32143906553529 0.062920679511359448 -0.00167286845300985412)
(2222.43376459014598 0.0722593775744308914 -0.00146713690703216852)
(2014.43129275292517 0.087879774613853906 -0.00151891358668608751)
(1768.63063602623242 0.0999368396834335315 -0.00158997343784204252)
(1488.89394592750159 0.108755663551887927 -0.00166827448162016299)
(1158.05464016339488 0.116027775151093915 -0.00178403817070470119)
(809.188731044723454 0.122712680746507305 -0.00198501292405986896)
(503.047824794422411 0.118894458100782391 -0.00192863328291010497)
(0.130368271221281279 0.0521911919096702606 -540.118407500692797)
(0.137526866947521642 0.00119375892147529912 -615.446889383269991)
(0.132233119254527576 -0.00326386623623287119 -598.133444808715694)
(0.129153200486412045 -0.00316847945697677161 -548.193946886446156)
(0.125602762958356318 -0.00270932616983010632 -469.730390580861695)
(0.113222058580045234 -0.0018865467364627595 -370.87120033957882)
(0.103736542882211846 -0.00016513135895405344 -235.918213214431091)
(0.0624837920965972127 0.00452137450257714211 -69.0769460974843668)
(0.071755117555698425 0.0158586540781659666 -99.8230214993809)
(0.0490033216657732862 0.0169244346133361756 -5.38924051269401705)
(0.0443170450001893895 0.0258863361196951802 -4.09799221941101699)
(0.0383579746643197619 0.0323653884502399028 -2.9650923322097511)
(0.0325094463971291048 0.0365278039478880781 -2.28711860833978031)
(0.0181533890369740165 0.0235178061693228635 -5.91872639274743051)
(0.00583846273485672581 0.0111406089882174313 -6.02037836067646914)
(0.109378320745751115 0.0441392627315271222 -174.897738958991567)
(0.104999950831356312 -0.0117347517213086134 -209.568128349681956)
(0.0840127802054774914 -0.0253925672074703582 -194.157116832522377)
(0.0630617271998422935 -0.0224812674680798484 -168.665472738658224)
(0.0423718022803473773 -0.0142444661751142468 -107.123188027043852)
(0.021552925493472784 -0.00670609036453936186 -59.6049321558293315)
(0.0101369366783386292 -0.0069653838933213261 -9.16046298263126602)
(-0.000156084422293517936 -5.73055609374591688e-05 -11.715447914623617)
(0.00025942629586508904 0.000133733968592387125 -2.63592236067142283)
(-0.000127744209986509763 -8.35750469748972914e-05 -3.4426295362507191)
(-0.000133849734682639336 -7.35433284936675536e-05 -3.45895597765749407)
(-0.000169349258689721805 -7.18888337646434404e-05 -3.45559008578324267)
(-0.000173692865974876202 -6.0883125794607349e-05 -3.53005349778078159)
(-0.000184725642280564838 -6.30740762247210604e-05 -3.71844741900542219)
(0.0979511825813716847 0.026209568889067919 269.224769125776675)
(0.0654033181499420468 -0.0177364232917201388 143.323593208174486)
(0.0124857780094457162 -0.0135282488491397235 41.5947719501313387)
(0.000315352240092600341 -0.00206260903885907218 1.13855822105279403)
(-0.00025662048017516709 -0.000147387611382940819 -9.55238532714509248)
(-0.00010795060230762353 -9.52919277936551421e-05 -7.4169511411227953)
(-0.000189475961417500012 -9.40012411095161383e-05 -6.58112808116209447)
(-0.000165084023995911453 -5.30874186178045053e-05 -5.9114067365307772)
(-0.000119864551878385659 -6.56986434860901846e-05 -4.97127648831299496)
(-9.83521753922476509e-05 -3.81088909129710432e-05 -4.79755954974030985)
(-0.000111441368132018527 -5.90458740604525979e-05 -4.48966818648169053)
(-0.000136280525066511012 -4.81613468477455273e-05 -4.27135977100828246)
(0.0884811054722435542 0.0134089092112320615 207.658858121288603)
(0.0524305431286809162 -0.0254153988816868993 67.5817209698403047)
(0.00145793217077344888 -0.000999977100039867433 2.46004288731612553)
(-5.24664195613640063e-05 2.57406880711628098e-07 -1.96099227365264617)
(1.72609040727508504e-05 -3.91182108894399651e-05 -6.32467611701114496)
(-0.000198309780245736132 -2.40568966190928328e-05 -7.0508077140753791)
(-0.000141272727024418002 -4.34517316315588794e-05 -7.03527885483464388)
(-7.74860264812052458e-05 -3.75077888419356461e-05 -5.65411716974138123)
(-0.000126587835375929157 -4.34667328209029728e-05 -4.77676528566846414)
(-0.000116706966679635431 -1.16474930308407871e-05 -4.49191673717869566)
(-0.000106873302823255951 9.76165106710138997e-07 -4.35313226354668181)
(-0.000121893569676657986 -7.4490128635249037e-06 -4.21206940942825447)
)
;
    }
    procBoundary0to1
    {
        type            processor;
        value           uniform (0 0 0);
    }
    procBoundary0to3
    {
        type            processor;
        value           uniform (0 0 0);
    }
}


// ************************************************************************* //
