/*--------------------------------*- C++ -*----------------------------------*\
| =========                 |                                                 |
| \\      /  F ield         | OpenFOAM: The Open Source CFD Toolbox           |
|  \\    /   O peration     | Version:  2206                                  |
|   \\  /    A nd           | Website:  www.openfoam.com                      |
|    \\/     M anipulation  |                                                 |
\*---------------------------------------------------------------------------*/
FoamFile
{
    version     2.0;
    format      ascii;
    arch        "LSB;label=32;scalar=64";
    class       volVectorField;
    location    "0.270000000000000018";
    object      faceForces;
}
// * * * * * * * * * * * * * * * * * * * * * * * * * * * * * * * * * * * * * //

dimensions      [1 1 -2 0 0 0 0];

internalField   uniform (0 0 0);

boundaryField
{
    inlet
    {
        type            calculated;
        value           uniform (0 0 0);
    }
    outlet
    {
        type            calculated;
        value           nonuniform List<vector> 0();
    }
    top
    {
        type            calculated;
        value           uniform (0 0 0);
    }
    bottom
    {
        type            calculated;
        value           uniform (0 0 0);
    }
    left
    {
        type            calculated;
        value           uniform (0 0 0);
    }
    symmetry
    {
        type            symmetryPlane;
    }
    interface
    {
        type            calculated;
        value           nonuniform List<vector> 
181
(
(0.792266531201956337 -1.08276518368251743e-05 -2.20866210913441893e-05)
(0.764002388884630457 9.56086080837287782e-07 -2.37743579586799768e-05)
(0.732882877876171235 3.16398638469745906e-06 -2.37437056348633283e-05)
(0.702601764135873941 4.05223612658414262e-06 -2.34213414061375981e-05)
(0.673640072943032409 5.09911938541868535e-06 -2.29436947754450248e-05)
(0.644199140001616155 6.42409850808579017e-06 -2.24485931363832868e-05)
(0.612552423673685786 8.22162932628616675e-06 -2.20184816675438814e-05)
(0.577085152244087185 1.0265290148424688e-05 -2.14526968093792643e-05)
(0.5349237592930981 1.30962668252957192e-05 -2.12093683965611677e-05)
(0.483127801090951881 1.7733804294069799e-05 -2.2802240879413888e-05)
(0.416710744609616934 2.06719967180505854e-05 -2.18858674044096021e-05)
(0.335489385007913199 2.31774410437777915e-05 -2.05271516231963542e-05)
(0.252679270591003202 2.2580731780140777e-05 -1.70255209040520742e-05)
(0.181514235546856417 2.7698200258217386e-05 -1.82751842641429186e-05)
(0.120638053369959114 3.06368344496340544e-05 -1.79821837344237545e-05)
(0.0718297013211614127 3.01503992274622607e-05 -1.63248690823708154e-05)
(0.93562100526662173 -4.59020391740143626e-06 -1.347006198117157e-05)
(0.904157969237510795 1.81782204478559819e-06 -1.59255311253524703e-05)
(0.869781942056908064 3.48801406662022409e-06 -1.56184500068988931e-05)
(0.835105103055541975 4.86139742177560395e-06 -1.53815005573362528e-05)
(0.800589683983047862 6.33093541731995131e-06 -1.50983683956764049e-05)
(0.764461730384618954 7.96243275130982443e-06 -1.48758018325620485e-05)
(0.725299180700343715 1.00540051411754143e-05 -1.46751353735280079e-05)
(0.683064039604454276 1.22516834890405742e-05 -1.44837614573463683e-05)
(0.634688092176462715 1.48333215118645612e-05 -1.42600885659216972e-05)
(0.576866470752501082 1.94820606842109259e-05 -1.52268437624388154e-05)
(0.506934080321881142 2.30031418672205669e-05 -1.49708998191926547e-05)
(0.420787758777654342 2.58524193258723979e-05 -1.43069880382127234e-05)
(0.321372604811147378 2.67352902228240216e-05 -1.28688445745508692e-05)
(0.230195757530993583 2.63113929517467194e-05 -1.11203251336442546e-05)
(0.157054393029931794 3.46156520190343855e-05 -1.3246418661897554e-05)
(0.0965087826090689493 3.47760444083592061e-05 -1.25432482963312427e-05)
(1.00479946092394612 -4.72019772033688737e-06 -1.06782587450328374e-05)
(0.973748755705856506 1.965418470435777e-06 -1.20002182655264348e-05)
(0.939608771064657233 4.0537716512700373e-06 -1.20888684067493357e-05)
(0.903866939411954728 5.75247561765324149e-06 -1.20011202185817842e-05)
(0.867350782591626124 7.51096141743414575e-06 -1.1869962241562537e-05)
(0.828938191034132799 9.33901052947187977e-06 -1.18014368429047021e-05)
(0.787941188053600694 1.170602562165421e-05 -1.18068306790968906e-05)
(0.746035910815081915 1.42201444913839517e-05 -1.18553065974725969e-05)
(0.697109665957458269 1.78388328049234567e-05 -1.25231324231552018e-05)
(0.636617712603348651 2.19541355552073349e-05 -1.29365181106952832e-05)
(0.564975264982346403 2.49977332053170966e-05 -1.25711228828765144e-05)
(0.479378377517766352 2.80134982519143815e-05 -1.22028093332198925e-05)
(0.378441372157307998 3.05078744288209991e-05 -1.17260325467332961e-05)
(0.274443249607094153 2.88060605107012826e-05 -9.94852601267574556e-06)
(0.184415005263300236 3.62970251491689903e-05 -1.13161525737204184e-05)
(0.11446103368605838 3.75994543928485334e-05 -1.10576102280583843e-05)
(1.03393107435001608 -3.6428492364033308e-06 -6.18970141881370735e-06)
(1.0026352503056899 2.23570885925760526e-06 -7.94034565890045727e-06)
(0.968198248254478866 4.32182013270790571e-06 -8.00611345097004137e-06)
(0.931746309693605168 6.17895077540910537e-06 -7.90743746869207574e-06)
(0.894278910506373537 8.04085552163613643e-06 -7.79974319541273219e-06)
(0.855246500528347164 1.00400708827389675e-05 -7.75107842599860121e-06)
(0.814965647115722724 1.27474950255257063e-05 -7.89740771587193414e-06)
(0.772690833238363628 1.58326093822745812e-05 -8.18627613697946371e-06)
(0.721243021851853072 1.80403524028462029e-05 -8.04029967319835807e-06)
(0.659561978586387654 2.26557739771741728e-05 -8.5710092548830349e-06)
(0.589811568120500507 2.59501450745432096e-05 -8.50349405015823782e-06)
(0.508093048223841715 2.89454726224499465e-05 -8.31987253364340279e-06)
(0.409495085338155262 3.14966893404715977e-05 -8.10725841377980912e-06)
(0.301374635447553441 3.21532118440818023e-05 -7.52670467003560638e-06)
(0.203391184650817486 3.01008846088060536e-05 -6.45291905916157437e-06)
(0.1254457241553536 4.15409640420648241e-05 -8.39269933857858539e-06)
(1.05100744586001804 -3.11727031418099558e-06 -5.02735095446100795e-06)
(1.01964666571980778 2.31008744555253421e-06 -5.64401110674418783e-06)
(0.985401624398277165 4.43477733485447204e-06 -5.69648853236813737e-06)
(0.94895487015964386 6.39904094137387211e-06 -5.72788212882981298e-06)
(0.911451601844245785 8.40126353704691769e-06 -5.71865590082510209e-06)
(0.872761702352938151 1.04848200488629824e-05 -5.67263146135688907e-06)
(0.83261458066823002 1.33771662294134747e-05 -5.8236439287115023e-06)
(0.789961883233439632 1.69248153512416886e-05 -6.14927547504452324e-06)
(0.739169192298127831 1.84245301849493306e-05 -5.82642266215799882e-06)
(0.679276177796821923 2.14014472699456801e-05 -5.84537531290318381e-06)
(0.611108775427056217 2.64895849013828748e-05 -6.32472172199718913e-06)
(0.531714276405525266 2.98101593299175635e-05 -6.28480237508169568e-06)
(0.435916351990622175 3.2463638177013734e-05 -6.17521460015956766e-06)
(0.328036830213268016 3.25253973993005035e-05 -5.65316938238846417e-06)
(0.225853206687063074 3.04702463617166051e-05 -4.87123697814523241e-06)
(0.140484993349765691 4.27798831572082515e-05 -6.41885762923158728e-06)
(1.05955508898754092 -2.4576002394965575e-06 -2.69684223487954022e-06)
(1.02846197846713205 2.35301446126706907e-06 -3.62779495454848679e-06)
(0.994511257429070983 4.46893981696590821e-06 -3.75031351277741934e-06)
(0.958093456025034151 6.4767463573027301e-06 -3.7748863279979862e-06)
(0.920323896001893238 8.58040594694776657e-06 -3.76761156583565736e-06)
(0.881262695770499094 1.07891426867247144e-05 -3.71764498915204562e-06)
(0.839983103402546338 1.31736451382884016e-05 -3.64935701223133409e-06)
(0.795826498765487833 1.61562244537580217e-05 -3.63072327676432015e-06)
(0.746084148683536119 1.88592399412492663e-05 -3.60939640457563871e-06)
(0.688549543920191742 2.23067742201834298e-05 -3.67907564266303707e-06)
(0.620431970866543003 2.70162661750343724e-05 -3.95217380243146554e-06)
(0.541020484098562071 3.00636376626418427e-05 -3.94421688712590237e-06)
(0.450879212541422048 3.35655356166235039e-05 -4.02467428940917959e-06)
(0.346017848380359316 3.64953729851373118e-05 -4.07824398263950465e-06)
(0.237905051355636388 3.31201604959248605e-05 -3.41910908375008455e-06)
(0.146079589372451579 4.23773350498268562e-05 -4.12353817852171194e-06)
(1.06457478738437139 -2.35104418980104384e-06 -1.52290566451139981e-06)
(1.03324861035611604 2.43210825354772046e-06 -2.06875311973839026e-06)
(0.999520614301102062 4.48983867187945903e-06 -2.13184234307620971e-06)
(0.963551098614787938 6.45143497976447658e-06 -2.15460664246539065e-06)
(0.925976152462477775 8.60859656685988802e-06 -2.19479473176109064e-06)
(0.88705804846055647 1.09088020609166361e-05 -2.19003100207833849e-06)
(0.845026804421302069 1.50426957002322667e-05 -2.33081540690477176e-06)
(0.79922748967300572 1.67872737682169217e-05 -2.03709249473889737e-06)
(0.748891648031178914 1.94213063216220756e-05 -1.87331656060894052e-06)
(0.693093551111825135 2.23068970194413983e-05 -1.77899481335249378e-06)
(0.628150183533586759 2.54051955188518732e-05 -1.81312542187778495e-06)
(0.550852718523573426 3.05773021491630457e-05 -2.0236052023883066e-06)
(0.463200114684918063 3.40018945786158845e-05 -2.12465487004563956e-06)
(0.358879630958144624 3.68560933358590077e-05 -2.21204072854124484e-06)
(0.247057370999335141 3.86111684625801285e-05 -2.22260806749430116e-06)
(0.155262320625599609 3.46129443350318228e-05 -1.92534411243324713e-06)
(1.06656285655679817 -2.14484485267282522e-06 -4.90616084537859057e-07)
(1.03511506764657724 2.47425369133168499e-06 -6.55273781638375031e-07)
(1.00151534353252103 4.49164769647236796e-06 -6.78388492110908917e-07)
(0.965838076458441774 6.37366041581591522e-06 -6.91271773495319822e-07)
(0.929512010880650275 8.81580715727589723e-06 -7.3637150324227315e-07)
(0.890769510553012123 1.28750265801980692e-05 -8.5067398000210733e-07)
(0.847003932077167954 1.57226760614970268e-05 -7.72961947924695257e-07)
(0.799730675017475967 1.74879844966596953e-05 -6.33283354298057031e-07)
(0.749162949707978809 1.96627123472997986e-05 -5.22771391565578701e-07)
(0.69451055143442042 2.25810554920096481e-05 -4.58480283447552497e-07)
(0.629509778985289703 2.7462429566829372e-05 -4.74660495839402754e-07)
(0.552697073758198099 3.12302624010730084e-05 -4.96866699325638711e-07)
(0.465279358102343721 3.39861448599649348e-05 -5.21335775506300347e-07)
(0.361892075051061246 3.62586797347168814e-05 -5.57511928345219633e-07)
(0.252871478451475729 3.83477127332834816e-05 -6.20316538768708208e-07)
(0.1572024452482573 3.7154518156494569e-05 -6.02697900909408952e-07)
(4.07400847566504891e-05 1.63097474717719941e-05 -0.168787002343966874)
(4.29771459211006544e-05 3.73049662961032213e-07 -0.19232715293227251)
(4.13228497670398918e-05 -1.01995819882277282e-06 -0.186916701502723742)
(4.03603751520037883e-05 -9.90149830305241638e-07 -0.171310608402014508)
(3.92508634244863528e-05 -8.46664428071908446e-07 -0.146790747056519316)
(3.53818933062642184e-05 -5.89545855144613651e-07 -0.115897250106118649)
(3.24176696506913079e-05 -5.16035496731418695e-08 -0.0737244416295099597)
(1.95261850301867077e-05 1.41292953205536253e-06 -0.0215865456554639526)
(2.24234742361557963e-05 4.95582939942687292e-06 -0.0311946942185565845)
(1.53135380205541784e-05 5.28888581666756413e-06 -0.00168413766021688316)
(1.3849076562559226e-05 8.08948003740476794e-06 -0.00128062256856594663)
(1.19868670825999494e-05 1.01141838906999883e-05 -0.000926591353815549063)
(1.01592019991028648e-05 1.1414938733715047e-05 -0.000714724565106182683)
(5.67293407405440331e-06 7.34931442791342425e-06 -0.00184960199773357955)
(1.8245196046427282e-06 3.48144030881795e-06 -0.00188136823771139789)
(3.41807252330471813e-05 1.37935196036022085e-05 -0.0546555434246847952)
(3.28124846347988076e-05 -3.66710991290893704e-06 -0.0654900401092755324)
(2.62539938142116544e-05 -7.93517725233446782e-06 -0.0606740990101630948)
(1.97067897499506716e-05 -7.02539608377493687e-06 -0.052707960230830575)
(1.32411882126085343e-05 -4.45139567972319541e-06 -0.0334759962584511503)
(6.73528921671023837e-06 -2.09565323891854846e-06 -0.0186265412986966472)
(3.16779271198081831e-06 -2.1766824666629121e-06 -0.00286264468207226772)
(-4.87763819667242268e-08 -1.7907987792955945e-08 -0.00366107747331987071)
(8.1070717457840119e-08 4.17918651851208717e-08 -0.000823725737709817473)
(-3.99200656207842402e-08 -2.61172021796553636e-08 -0.00107582173007834806)
(-4.18280420883247271e-08 -2.29822901542710736e-08 -0.00108092374301796521)
(-5.29216433405380401e-08 -2.24652605514510659e-08 -0.00107987190180726281)
(-5.42790206171486742e-08 -1.90259768108147482e-08 -0.00110314171805649141)
(-5.77267632126763596e-08 -1.97106488202252815e-08 -0.00116201481843919148)
(3.06097445566786788e-05 8.19049027783373195e-06 0.0841327403518052908)
(2.04385369218569098e-05 -5.54263227866254883e-06 0.0447886228775545708)
(3.90180562795179127e-06 -4.22757776535616857e-06 0.0129983662344160585)
(9.85475750289376997e-08 -6.44565324643460581e-07 0.000355799444078998468)
(-8.01939000547397734e-08 -4.60586285571690376e-08 -0.00298512041473284351)
(-3.37345632211324103e-08 -2.97787274355172832e-08 -0.00231779723160087771)
(-5.9211237942968785e-08 -2.93753878467238109e-08 -0.00205660252536315558)
(-5.15887574987223633e-08 -1.65898183180639189e-08 -0.0018473146051658691)
(-3.74576724619955839e-08 -2.0530826089403217e-08 -0.00155352390259781378)
(-3.07350548100773772e-08 -1.19090284103034445e-08 -0.00149923735929384603)
(-3.48254275412558165e-08 -1.845183564389145e-08 -0.00140302130827552919)
(-4.25876640832848084e-08 -1.5050420889920519e-08 -0.00133479992844009196)
(2.76503454600761385e-05 4.19028412851002348e-06 0.0648933931629027544)
(1.63845447277128415e-05 -7.94231215052718186e-06 0.0211192878030751659)
(4.55603803366703282e-07 -3.12492843762458882e-07 0.000768763402286290107)
(-1.63957561129262357e-08 8.04396502223836954e-11 -0.000612810085516451324)
(5.39403252273464121e-09 -1.22244409029499898e-08 -0.00197646128656598285)
(-6.19718063267926482e-08 -7.51778019346652316e-09 -0.00220337741064855971)
(-4.41477271951306508e-08 -1.3578666134862157e-08 -0.00219852464213582746)
(-2.42143832753766289e-08 -1.17211840131048838e-08 -0.00176691161554418065)
(-3.95586985549778003e-08 -1.35833540065321579e-08 -0.00149273915177139263)
(-3.64709270873860559e-08 -3.63984157213774394e-09 -0.0014037239803683418)
(-3.33979071322675423e-08 3.0505159584691897e-10 -0.00136035383235834058)
(-3.80917405239556861e-08 -2.32781651985153653e-09 -0.00131627169044633177)
)
;
    }
    procBoundary0to1
    {
        type            processor;
        value           uniform (0 0 0);
    }
    procBoundary0to3
    {
        type            processor;
        value           uniform (0 0 0);
    }
}


// ************************************************************************* //
