/*--------------------------------*- C++ -*----------------------------------*\
| =========                 |                                                 |
| \\      /  F ield         | OpenFOAM: The Open Source CFD Toolbox           |
|  \\    /   O peration     | Version:  2206                                  |
|   \\  /    A nd           | Website:  www.openfoam.com                      |
|    \\/     M anipulation  |                                                 |
\*---------------------------------------------------------------------------*/
FoamFile
{
    version     2.0;
    format      ascii;
    arch        "LSB;label=32;scalar=64";
    class       surfaceVectorField;
    location    "0.270000000000000018";
    object      Uf;
}
// * * * * * * * * * * * * * * * * * * * * * * * * * * * * * * * * * * * * * //

dimensions      [0 1 -1 0 0 0 0];

internalField   nonuniform List<vector> 
20789
(
(0.0527301417605337691 -0.0131948258364025222 -0.0206936801740356391)
(0.0271031775407344772 -0.0235804736321411496 -0.0196158614703548159)
(0.0263180032266023024 -0.0110229559202424578 -0.0194261464718755959)
(0.0268537694836035179 -0.0110548661933113582 -0.0197158566176206182)
(0.121378198926003031 -0.0155289127056553022 -0.0230768918261991043)
(0.08702658437783857 -0.0306817619813708614 -0.0215745253221420498)
(0.0854148639265965015 -0.0153116437495915501 -0.0215011714476224906)
(0.0871414030062658274 -0.0153784282092740004 -0.0218440594093363069)
(0.19022170074590658 -0.0157286898515167327 -0.026617975278988841)
(0.152769999598420497 -0.0307868928055835232 -0.0241693960663257358)
(0.151289811859627782 -0.0156443333794497354 -0.0240771504073924725)
(0.154322344158977665 -0.0157703470954025718 -0.0244566930502078256)
(0.258187609906796511 -0.0155161964230874916 -0.0321276608880295342)
(0.221276022495344116 -0.0304301424353664966 -0.0285573349370288818)
(0.223615756711665309 -0.0156504368947652933 -0.0284651900422782309)
(0.228662600417555262 -0.0158482504194899024 -0.028911402165512929)
(0.324109724397582344 -0.0152123166394211341 -0.0401033849471400528)
(0.285406014819293397 -0.0295727652952920105 -0.0350783624337249328)
(0.287665073796967263 -0.0151665543604377461 -0.0349252163269930527)
(0.295047734168568554 -0.0154122595865586014 -0.0354733487758700436)
(0.390167371275361941 -0.0152516983662318549 -0.0512567852463372484)
(0.350321568503957681 -0.0297293971254064607 -0.0443852580412716288)
(0.351657223310882006 -0.014994991949375194 -0.0441482463834557415)
(0.361998636001687579 -0.0152979321897091843 -0.0448891398869539146)
(0.457514509091317245 -0.0155760446385424176 -0.0668699621336244915)
(0.416431817948337779 -0.0303963499593499879 -0.0572464382148324749)
(0.416086948945071311 -0.0151749696100493426 -0.0568620938658219166)
(0.430364643639177646 -0.0155731447873645699 -0.0577906785558226985)
(0.525867083703163707 -0.0157516800108924507 -0.0878268738453842068)
(0.484251079647261051 -0.0311959187579312798 -0.0751891150983441808)
(0.481883809127867102 -0.0155160814523345476 -0.0746722914468954113)
(0.501453885340595984 -0.0160656486980338166 -0.0763062762824390228)
(0.59400288548414959 -0.0157002328977621335 -0.117402479802359933)
(0.552217546602295495 -0.0310967934653910046 -0.0990162998437924824)
(0.546393003917424736 -0.0153567156304900768 -0.0980181964896521402)
(0.573515281531958299 -0.0161252505175103061 -0.0996465772313702841)
(0.658621314713096262 -0.0149928227749427639 -0.156705269864008123)
(0.61915348506786605 -0.0308911727057858999 -0.133392402656942854)
(0.608471872051486562 -0.0150959616151082627 -0.131962492934925513)
(0.64581210587481841 -0.0162423081111305392 -0.136306130945313159)
(0.718471445429175626 -0.0135160621903329184 -0.214424737039464797)
(0.683225784314454687 -0.0282335429497373863 -0.177818355671578193)
(0.664848243689157514 -0.0135928652420152819 -0.17488280226036218)
(0.718248543461793787 -0.0151526886770000698 -0.178149690763218155)
(0.76064831837194391 -0.0108058356583691784 -0.289674254010717724)
(0.737936728844253986 -0.0255088635883966124 -0.246711502339887062)
(0.707346794683553437 -0.0116386847749054799 -0.241276608592050162)
(0.782029715138181647 -0.0139992760164775552 -0.254803786070239069)
(0.790963206256517615 -0.00882447717106912485 -0.411805080635618936)
(0.779563320634981349 -0.0187261221725916367 -0.331266825262425069)
(0.731598621616436073 -0.00776175207098602372 -0.320681410848198511)
(0.848439264741638222 -0.0102017547480744881 -0.331187191935572556)
(0.758418786971616687 -0.00549374947436173482 -0.580361408019310243)
(0.792169897134029966 -0.0183888187798224266 -0.488319276895325338)
(0.726114553354639702 -0.00683591502612028706 -0.459195197800419508)
(0.870581249100144339 -0.0115234371553958152 -0.524901407222824856)
(0.668766692265476359 0.00696364599598998241 -1.0239150949806568)
(0.790303151304248441 -0.00985006456652079941 -0.671766426052433641)
(0.686404783231774784 -0.0012571864967455416 -0.603474566914931398)
(1.03566673947423271 -0.0099171255041037281 -0.70286554737571616)
(0.468364551925265715 0.0301981761255903196 -1.39944552854548032)
(0.444837188068124945 0.0210731257690087471 -1.00832121135327091)
(0.87130335596944497 0.0088325755056557001 -1.54238412861584817)
(0.0552704504379102624 -0.0407074246006223772 -0.0204967066184612266)
(0.0281938978508351722 -0.0482953080835404544 -0.0195327674914720709)
(0.0273549559950143628 -0.0351358740620889357 -0.019376069288813802)
(0.027897691913111599 -0.0352349394770330795 -0.0196761927475590896)
(0.12135396528366188 -0.0458819393538473994 -0.0226670295622686778)
(0.0884138693958526345 -0.0602221409077759035 -0.0213331235443279602)
(0.0869323469528837794 -0.0460964466670630221 -0.0210978657062940757)
(0.0886455511071106705 -0.0463202308606801977 -0.0214376482060366844)
(0.185164357012353481 -0.0451395550201976609 -0.02610875572436578)
(0.152581689412976979 -0.0593322518137982813 -0.0238715198042340343)
(0.151187610458995203 -0.0453494896694452282 -0.0236245226391346638)
(0.154317309013886184 -0.0457187983666210163 -0.0239950508226338989)
(0.247726658753686046 -0.0444303683934414231 -0.0315080364827242804)
(0.216095554554593922 -0.0584474453499636837 -0.0281379984453064315)
(0.214020416080654141 -0.0444753181849195101 -0.0278827939942191752)
(0.218872465290883611 -0.0450035088216449025 -0.0283065806178084446)
(0.311684495357842484 -0.0443132340507519373 -0.0393602355278565158)
(0.279256963191950314 -0.0582578284753347761 -0.0345642956773933377)
(0.276002653444001822 -0.0438062447460974835 -0.034266632435137806)
(0.283023610297798101 -0.0444699155474059041 -0.0347853686431040948)
(0.37697373208242313 -0.0450004456003832848 -0.0503749110097668762)
(0.343743186766407915 -0.059087451069304478 -0.0437203010971439696)
(0.339001864627846261 -0.0441028457037211108 -0.0433345550678002692)
(0.34882906898296151 -0.044941830898751943 -0.0440157765729424222)
(0.443529170267839834 -0.046081923869448177 -0.0655655911795521851)
(0.409686719123771248 -0.0604544874649919281 -0.0564281719186843847)
(0.403019401764503626 -0.0449690254225352179 -0.055892484390558661)
(0.416576070600346737 -0.046082648337791271 -0.0568483163138155043)
(0.511132412965206062 -0.0466995020287795798 -0.0863785410967524286)
(0.47718460476325969 -0.0619261363210147839 -0.0738695728033780807)
(0.467838350283530546 -0.0459242979592940359 -0.0730967413818580936)
(0.486384809446188338 -0.0474418242276327951 -0.0744652665631664601)
(0.57874373365979892 -0.0464802492624072153 -0.115006222698375432)
(0.54518678064478765 -0.0622022737465301942 -0.0977094621062521568)
(0.532165027911083888 -0.0457156244794715422 -0.0965442797767572664)
(0.557695382649719074 -0.0478472310226860723 -0.0986560513665958594)
(0.643894202898662837 -0.0446812101030452727 -0.15450548846451298)
(0.61258733914745167 -0.0614604894652740694 -0.130645668154736161)
(0.594427614206370247 -0.0446974174001380439 -0.128817736262175464)
(0.629566467292640874 -0.04774022689787185 -0.132044656354239481)
(0.705118350544627792 -0.0408606266542758945 -0.210105120972000459)
(0.677293928838492487 -0.0581821478390543156 -0.175992730848540169)
(0.6517764081152152 -0.0411830645740190668 -0.172954832703018008)
(0.701370567981358661 -0.0453308739180523362 -0.178430609166754434)
(0.753451118459783853 -0.0342372823145414978 -0.288304073591594434)
(0.734850819563133806 -0.051998802256150771 -0.241024955985707307)
(0.699519516653954065 -0.0357158293667347512 -0.235207897108723668)
(0.768176146275063032 -0.0416084730266517364 -0.245225589239778524)
(0.785796011957391793 -0.0285591651763571243 -0.407781021522131248)
(0.778686676549910417 -0.0419400957863003618 -0.331356953628684392)
(0.728456524730934696 -0.02660178618862288 -0.32100495755979519)
(0.835983758808918509 -0.0337777628923238774 -0.338682332935253294)
(0.76751706499402661 -0.0247366900113620558 -0.579724294928448902)
(0.794229720421186669 -0.0366924786728468344 -0.478204238399189296)
(0.729268080974860955 -0.0225554637054184125 -0.449657883390705337)
(0.872831113243972889 -0.0324400102729940215 -0.502513353613421199)
(0.68869716942941428 0.0163396941440411766 -1.04729685961725494)
(0.789259589107318194 -0.0350593402972272025 -0.676082697390614884)
(0.687332271581997944 -0.0147817618627879462 -0.600390393841781833)
(1.00144780889556206 -0.0368000556828179184 -0.720871073460825684)
(0.485751246999962416 0.0817624442157402209 -1.41494571094563226)
(0.49578143921596407 0.0653909957145791254 -1.06899398792697764)
(0.875708391033200639 0.0287874407703647139 -1.57804097167311608)
(0.0576447792775163365 -0.0680046026982795981 -0.0203691844173388044)
(0.0291111705675937416 -0.0740734033984417062 -0.0193804526146089846)
(0.0284944794149442453 -0.060973025452466606 -0.0191838585004796627)
(0.0290406378241261642 -0.0611491267611653302 -0.0195000776662837931)
(0.12124696857522077 -0.0743080140426768398 -0.0225376137862933132)
(0.0893712447898778323 -0.0886654994380811773 -0.0211878708528561305)
(0.0882024928299756511 -0.0747210221692649335 -0.0209658674099879212)
(0.0898992350758375941 -0.0750738429555490028 -0.0213172978392468689)
(0.184500558928928859 -0.0731159971027203065 -0.0259007625251746858)
(0.152141386538256485 -0.0876307618000166239 -0.0236486866258484758)
(0.150893330310031215 -0.0733797742111721579 -0.0234482572159441655)
(0.153957988175282556 -0.073957398157633733 -0.0238199912223553308)
(0.247334498472021408 -0.0725792422410003052 -0.0311942576399754819)
(0.215173242354530503 -0.0865769343504732003 -0.0277924115061800071)
(0.213387906023575241 -0.0721411245737615392 -0.0276168380582341513)
(0.218151757118131395 -0.0729546284835182191 -0.0280234997952934148)
(0.311318060763328464 -0.0732304682005216756 -0.0389243612466807984)
(0.278407960635410567 -0.0869370994778219525 -0.0340862137897907508)
(0.275592275306695889 -0.0721155009701381911 -0.0339007088267844203)
(0.282508450865184058 -0.0731641660208471462 -0.0343849824690032474)
(0.376790850333822924 -0.0747215025033206304 -0.0497735620060614989)
(0.343021298218568138 -0.0885057930490558975 -0.0430797547990062896)
(0.33881748777850923 -0.0732136945436936276 -0.0428351304307787312)
(0.34850778370050689 -0.0745567374408098726 -0.0434737623395670056)
(0.443697159044578515 -0.0765045347543854698 -0.0647321535425102734)
(0.409112377618474576 -0.090642329292746307 -0.0555593455526479513)
(0.403050503246612402 -0.0747564267811647865 -0.0551972181222475863)
(0.416417624366217487 -0.076527979023091261 -0.05610057896708881)
(0.511822540254201153 -0.0776380838297573844 -0.085200493812877795)
(0.477045945215730904 -0.0928704154430699813 -0.0726725192814757365)
(0.468382336734831317 -0.0762651450200816095 -0.0721196655965820471)
(0.486650871347037495 -0.0786479391949467116 -0.0734522160889785058)
(0.580108678116214027 -0.0773894116260889359 -0.113348907562612927)
(0.545655697471059464 -0.0935650642646394665 -0.0960248353667612353)
(0.533329034165593407 -0.0762433547353596752 -0.0951606562779338666)
(0.558477809178299589 -0.0795930630247971421 -0.09718725684302848)
(0.64665304962918746 -0.0750285985624323665 -0.152132910538763322)
(0.614176149943291061 -0.0926456960506518296 -0.128287986436426527)
(0.596630428351956121 -0.0746252675129254611 -0.126855054042748633)
(0.631225003473419033 -0.0792666231360924373 -0.130074769744127156)
(0.708817234032138921 -0.0692007547844721571 -0.206912565862247044)
(0.680425880087023649 -0.0884283105963972055 -0.172625500516008168)
(0.655343137909458417 -0.0700125002712936456 -0.170219041467414622)
(0.704261903664152977 -0.0764047149857705332 -0.175454363620043657)
(0.75808659394524569 -0.059240452270295299 -0.28407783602279757)
(0.739372097359483615 -0.0787785101440820479 -0.2366531575822311)
(0.70427718831963948 -0.0608484452836751885 -0.231705411234637004)
(0.772149566994946746 -0.0697531725017966758 -0.241470144424564631)
(0.79006059374245452 -0.0490196565521095473 -0.40178017050574244)
(0.783453626955524118 -0.0648025395269338639 -0.32554811248721921)
(0.732797632383663133 -0.0476761758831884472 -0.316208102109322875)
(0.839349053138980783 -0.0594791867865771956 -0.333511995273385431)
(0.768989148949286494 -0.0444389711384151204 -0.574562640861355889)
(0.799374985160071105 -0.0527148900688909072 -0.469713382384773226)
(0.735271183560177288 -0.0379299355187255119 -0.44370300747871394)
(0.876037872615992974 -0.0512526816061793719 -0.494478092704587813)
(0.667153917224089898 0.0291271258333601346 -1.04373154871899221)
(0.787299940679608623 -0.0488990370937534558 -0.669335449622911138)
(0.681593557698987107 -0.0296776569122219197 -0.597043565503620033)
(0.997170079352672434 -0.0603568158269201238 -0.715243123585847296)
(0.465634624814032616 0.123485001619267523 -1.40202008392832633)
(0.471209768090272763 0.11790178216620488 -1.05997092007854943)
(0.850290640085200167 0.0548522885329134 -1.56955150529543541)
(0.0590435405491488499 -0.0950001794799965882 -0.0201991390501263107)
(0.0296260840290158978 -0.100490530054399799 -0.0192405311997005148)
(0.0291912624678083779 -0.0871558293893809205 -0.0189742251884077243)
(0.0297306746491781439 -0.0873821847476523444 -0.019325230623911404)
(0.120978448533513805 -0.102236323488794717 -0.0222989436924112931)
(0.0897861860783500942 -0.116378656600495109 -0.0209742720064985087)
(0.0888756237163348256 -0.102406659215548299 -0.0207385247036215928)
(0.0905241501036278678 -0.102841048213435385 -0.0211116183634917007)
(0.183492396505118671 -0.101259618007622704 -0.0255403356068538007)
(0.151506582291549147 -0.115600526297547204 -0.0233065207563906071)
(0.150378089343727595 -0.101364072944722994 -0.0231399547907283898)
(0.15334091155075924 -0.102131211882289963 -0.0235116281284818637)
(0.246214750149950645 -0.101041440141834596 -0.030684367655995276)
(0.213955717927519551 -0.114639841575149601 -0.0272835466950524762)
(0.212269462245137541 -0.100183137621839197 -0.027189347657464745)
(0.216899859357230551 -0.101289703868947922 -0.0275620029336407432)
(0.310111825815790998 -0.10232844196319632 -0.0382416073421162281)
(0.277075666692210065 -0.115546482614709206 -0.0333987019222165074)
(0.274422753806378539 -0.100672883518660425 -0.0333334080429691648)
(0.281178543262969649 -0.10211418762837117 -0.0337547763785443072)
(0.375621973196051229 -0.104576017159181231 -0.0488655383455927766)
(0.341693613295091125 -0.117901752551002825 -0.0421775346751524852)
(0.337721415708766459 -0.102449530937704994 -0.0420827830064675473)
(0.347204776201762877 -0.104293065962927312 -0.0426434384411298883)
(0.442786706343641034 -0.107158827756022007 -0.0634997112916134421)
(0.407885557611386562 -0.120903805363799105 -0.0543632564333524429)
(0.402106931659128586 -0.104715541134182258 -0.05418048837433391)
(0.415182610548422204 -0.107124066969419215 -0.0550014115604475842)
(0.511455593102315031 -0.108933654350387835 -0.0834968608353592046)
(0.476225526448272152 -0.124015458977554005 -0.0710398643435436045)
(0.467904098200799368 -0.10693607958216185 -0.0707066250060853774)
(0.485750123300768166 -0.110161029936821531 -0.0719576024535606429)
(0.580644029384381644 -0.108928355403345611 -0.110963914240574835)
(0.545604821464004464 -0.125287028660538979 -0.0937644163206668158)
(0.53360157436227218 -0.107208341376428012 -0.0931861832455331829)
(0.558150649978342739 -0.111735923980730345 -0.0951290990303221284)
(0.648912530903243301 -0.106074878013542068 -0.148780576413671317)
(0.615585943015938497 -0.124563557063982172 -0.125096272726229252)
(0.598283154569408282 -0.105381841513543045 -0.124056414573017304)
(0.632016703058614238 -0.111638995931325591 -0.127208897916496227)
(0.712677609899027065 -0.0979472649674238693 -0.202366092235992223)
(0.683934703186306225 -0.119303598043466463 -0.168154911122082279)
(0.658907147765106505 -0.0993602139937448947 -0.166352005879028403)
(0.706738844648192699 -0.108084289814120244 -0.171422610525662794)
(0.76374223912556205 -0.0840167722464449096 -0.27812343404665274)
(0.744844616778715496 -0.106210177194837121 -0.230692865974405747)
(0.709585083003532624 -0.0861633692306976867 -0.226630606462664086)
(0.77608958115905291 -0.098423814241416635 -0.236103457093960634)
(0.795702047316950489 -0.0679356305695226481 -0.393481324366250163)
(0.790958864864197642 -0.0875413178008768306 -0.317596833946465873)
(0.739375191421064559 -0.0680591073202111985 -0.309520801059998463)
(0.844106143862062397 -0.0842107186399690538 -0.326589899957765106)
(0.773589887746565119 -0.05632664538653058 -0.564486191146328697)
(0.806072180061486954 -0.067609153911189615 -0.458396796088904213)
(0.741488884557965022 -0.0505900838542935952 -0.434519746444331501)
(0.880052460658943381 -0.0692351588493531761 -0.483963691193791901)
(0.65644318020573067 0.0458471882623645438 -1.02762398483224571)
(0.792156105309423042 -0.0547566062596131706 -0.656515975650290295)
(0.685303120561978729 -0.0338396399668548231 -0.588224940327915613)
(0.991304975195770766 -0.0725732650518074868 -0.704070434687539937)
(0.457401798866397202 0.166017673556268175 -1.37608462967593503)
(0.457375852829012552 0.16671328409537467 -1.0447235157753556)
(0.830344511867906587 0.0799393823406741588 -1.5431631447729619)
(0.0596681896094786932 -0.122054725479859821 -0.0200156641560727128)
(0.0298496223006976154 -0.12721840912523466 -0.0191371296808062231)
(0.0295366543298713549 -0.113731184438894989 -0.0187511832705945895)
(0.0300564750757369263 -0.113943171329714918 -0.0191685038299548617)
(0.120583612393351192 -0.129889518419349259 -0.0219818490704778192)
(0.0897844420795596843 -0.143656081956561044 -0.0207232950239735064)
(0.0890913789743754542 -0.12983433577537562 -0.0204426375687664051)
(0.0906536012425977894 -0.130286476149492264 -0.0208504906957861502)
(0.182401338051460138 -0.129171045417196151 -0.0250497318445892861)
(0.150700202285981216 -0.143259502065841204 -0.0228613842810446825)
(0.149726416311279503 -0.129063718180590592 -0.0227227585448275086)
(0.152538947504193806 -0.129993907498313382 -0.0230916796860727962)
(0.244907474294805777 -0.129323359566691831 -0.0299978809612737214)
(0.212616486938547289 -0.14257829677504702 -0.0266182802760820229)
(0.211076692528435583 -0.128046985508299488 -0.0266208184371466705)
(0.215529597316082261 -0.129441564788745994 -0.0269367393644330162)
(0.308679094930093434 -0.131286833520954133 -0.0373346292552527576)
(0.27552454586206232 -0.144050204464894527 -0.0325116026650129827)
(0.273083230760808815 -0.129065525757358912 -0.0325878434023428309)
(0.27963743243837752 -0.130891038712922403 -0.0329094055577249869)
(0.374178222783075221 -0.134399248014009931 -0.0476752527629121792)
(0.340054420373124944 -0.14723178551234048 -0.0410310002612941024)
(0.336379665327926292 -0.131609393005088809 -0.0411043083372971338)
(0.345607809221611995 -0.13393044089536732 -0.0415429087888716103)
(0.441594794057386775 -0.137927344612134739 -0.0619034094852825914)
(0.406307058394799858 -0.151213208030228335 -0.0528657540660468217)
(0.400910911128924852 -0.134749211256522144 -0.0528702500281783769)
(0.413626461224165465 -0.137747608471716076 -0.053563185280569095)
(0.51091996323908262 -0.140526651807962699 -0.0813074198288512434)
(0.475052760401687812 -0.155387322215276569 -0.0690275373771449402)
(0.467212725664586048 -0.137851795614030631 -0.0688996133895744128)
(0.484532807135236498 -0.141843578729831082 -0.0700208779866615116)
(0.581355015639448469 -0.141051886130001136 -0.107896774806321233)
(0.545391235958542553 -0.157514595719272427 -0.0909936345793733586)
(0.53391512864295243 -0.138635820333399967 -0.0906465928183040337)
(0.557688427500900419 -0.144239378678353208 -0.0924926050990926701)
(0.651807977011231832 -0.137847180771110633 -0.144470607434640241)
(0.617231121075218714 -0.157409542620379789 -0.121149385346056723)
(0.600426487290792954 -0.136942194545589035 -0.120445172344502777)
(0.633064544794342821 -0.144728499121273141 -0.123512190892932749)
(0.717924830149240023 -0.127471170375181131 -0.196481684860495665)
(0.68831771766990657 -0.151158141395537571 -0.162602147362742977)
(0.663598726430359775 -0.129415470811380717 -0.161340506625518798)
(0.709982235173637899 -0.140446174642878507 -0.166279200064022414)
(0.771962539445858464 -0.109340416609012309 -0.270166265874218881)
(0.752187932775476242 -0.134818582460179415 -0.223098547678872966)
(0.716820245547027723 -0.112332935172722193 -0.219974829324215637)
(0.781629103967318772 -0.127938466772647641 -0.229158358601570716)
(0.80537807560700303 -0.0864556807987176407 -0.38251230566912009)
(0.801982859187036046 -0.11086061301795215 -0.307204463999825816)
(0.749652002886833313 -0.0887027653857584142 -0.300437425322225393)
(0.851599870643523826 -0.109150834603691904 -0.31737351681622733)
(0.782661051736025071 -0.0646625891503591343 -0.550426580592865533)
(0.81765811441093228 -0.081395827719093608 -0.443913262728117264)
(0.751760831651676065 -0.0620305137235769924 -0.422678430750443423)
(0.887684929456521887 -0.0863635903226244034 -0.470444858863908466)
(0.652330843491242152 0.0675417710936198207 -1.00497662049398095)
(0.801944908288152791 -0.0537521921820545076 -0.63974192895605031)
(0.695481398970686393 -0.0320551592815946917 -0.574508459361794288)
(0.989910250471129238 -0.0810724162187694553 -0.68834869464719084)
(0.457633415498229057 0.215788413890935366 -1.34381167197791029)
(0.45313759899412992 0.219079367868320107 -1.02584498950013403)
(0.819204214814062359 0.111798454531921831 -1.50615316601318838)
(0.0598126526506144521 -0.149018042992862643 -0.0198447605487070133)
(0.0298681500954920548 -0.154065911554857188 -0.0190949459038394533)
(0.0296609585427760857 -0.140520026075361709 -0.0185198545340373409)
(0.0301456134667319499 -0.140606333746181728 -0.0190480475898849276)
(0.119991614598963903 -0.157191773400654877 -0.0216028302345403662)
(0.0894356201322342032 -0.170627488279223527 -0.020460046731607711)
(0.0889651147490796435 -0.156896661966828194 -0.0200998920699104848)
(0.090390626712448921 -0.157269762845762773 -0.0205503316569198534)
(0.181172764293277638 -0.156846723861571918 -0.0244299327125374194)
(0.149687328029913247 -0.170630831498186447 -0.0223150142687066864)
(0.148901756293515319 -0.1564398901842117 -0.0222047517333303253)
(0.151503321706651567 -0.15749915098852546 -0.0225641812169333975)
(0.243370086525550727 -0.157473251629575539 -0.0291320019798212947)
(0.21110890043457764 -0.170335842706101193 -0.0257883584187911311)
(0.20973576732384655 -0.155763499316502768 -0.0259118543643872025)
(0.213963540742417524 -0.157446056369271448 -0.0261404421831583876)
(0.306934964433210722 -0.160153211947803076 -0.0362079736710543346)
(0.273714154513804597 -0.172385860068049623 -0.0314245882872961485)
(0.271499737854564827 -0.157363694888033756 -0.031670846414513211)
(0.277814471490894832 -0.159571026172888986 -0.0318400562518808827)
(0.372346892293167531 -0.16420787724891342 -0.0462215015644287658)
(0.338042034209667108 -0.176428768353752541 -0.0396532162497737206)
(0.334696046022576632 -0.160727563608621893 -0.0399184415430603248)
(0.343628012663190041 -0.163502907151480747 -0.0401684676985735734)
(0.439969226141750491 -0.168838657611061094 -0.0599898819579091774)
(0.404267117093926875 -0.18151352558455558 -0.0511098696810980899)
(0.399313755580110064 -0.164877150819726259 -0.0513028851615195264)
(0.411616811908779134 -0.168404181415594323 -0.0517947739052000283)
(0.510007932354804572 -0.172532153203862088 -0.0787137521276670971)
(0.473369091727079805 -0.186982162495683696 -0.0667285866396524763)
(0.466129511405018682 -0.169091534041655611 -0.0667528894486533048)
(0.482830077605517438 -0.1737414590781797 -0.0676858530479223369)
(0.581988040566179254 -0.173993558075953653 -0.104246245119108766)
(0.544806896458866152 -0.190382142381468639 -0.0878261329376437416)
(0.534032102501964201 -0.170727755619943883 -0.0876004412713575348)
(0.556865434805794757 -0.177265078394942766 -0.0893530221468036151)
(0.655136811104839678 -0.170755271398443598 -0.139280925274159528)
(0.618952601484020981 -0.19142633970635739 -0.116517550346799642)
(0.602830476826212935 -0.169623427214814659 -0.116064423137438144)
(0.634125331112042723 -0.178795328623644501 -0.11907683131697866)
(0.724592909746912817 -0.158361011985855504 -0.18921901018112014)
(0.693466381395960618 -0.184471524003296555 -0.155936307599754409)
(0.669280323500709207 -0.160700252536325583 -0.15519705678106413)
(0.713831243429376316 -0.173978107767207985 -0.160085225058142405)
(0.783122907251497025 -0.135831893638354878 -0.260136745804480096)
(0.761689894461421546 -0.165317923800579358 -0.213689977209338716)
(0.726325637860158912 -0.140007268003181362 -0.211606908720530895)
(0.788933125694234794 -0.15883890047915708 -0.220579095226851374)
(0.819963984249845401 -0.104881180995928289 -0.368605421058823102)
(0.817222897919936297 -0.135578935625771557 -0.294098745977058651)
(0.76391961772230943 -0.110106122010891705 -0.289043861855124706)
(0.862077091350511249 -0.134995134153414548 -0.305733024332859316)
(0.797344319706978388 -0.0689920211563361946 -0.533228611091301818)
(0.836337855357651372 -0.0940046870067494239 -0.425866561321070258)
(0.768012230504814597 -0.0721121174813551119 -0.4079240884774743)
(0.901497976234855614 -0.102804232812860399 -0.453248249666711789)
(0.653153706831145486 0.0962911812814247203 -0.978576980439980204)
(0.815339314190716813 -0.0454974489245951047 -0.620799293809425001)
(0.710873027132609359 -0.0236139744274780558 -0.55825434617198022)
(0.990728179239732221 -0.0828092311058435948 -0.669914341227712984)
(0.46258990338826278 0.27667217243993053 -1.30989904848949212)
(0.455025783416404317 0.277308209236912795 -1.0042310802761909)
(0.816018863156500518 0.152874160938985648 -1.46304460773181511)
(0.0595946875117137481 -0.175875827377835664 -0.0197102320867401509)
(0.0296906289695581874 -0.180897909057582434 -0.0191305792518303847)
(0.0296028873480015491 -0.167382154359428104 -0.0182838415192224969)
(0.0300283780650697878 -0.167161235724120699 -0.0189747926608066324)
(0.11915171986309675 -0.184234491361380426 -0.0211722307657740312)
(0.0887372824469071786 -0.197340519454989899 -0.0201994865216937811)
(0.0885252411375469644 -0.183726422962746938 -0.0197389360828830289)
(0.0897393560136554996 -0.183887641551780834 -0.0202254298649677117)
(0.179771418428843255 -0.184291788569504122 -0.0236734399749604016)
(0.148429009998566896 -0.197744368078288296 -0.0216519993239828942)
(0.147868844206704347 -0.183549611452169442 -0.0215882475482716239)
(0.150180394768576253 -0.184705177372714524 -0.0219311145264976769)
(0.241599909356368298 -0.185417882016047086 -0.0280809447262659884)
(0.20941500837488089 -0.197864216414496141 -0.0247777971417523779)
(0.208216002543338191 -0.183281962439556634 -0.0250619325257375007)
(0.212167801847434917 -0.185264956538910147 -0.0251600178074150096)
(0.304855583210262904 -0.188827597439977568 -0.0348698308660155484)
(0.271638961715917504 -0.20046445024320364 -0.030137507727802746)
(0.269654617034526145 -0.185479670936034013 -0.0305982437124052119)
(0.27569777523296124 -0.188072972794620485 -0.0305281880340840354)
(0.370069014869593926 -0.193905639823166998 -0.0445415843664430516)
(0.335625406303847351 -0.205387961421176712 -0.038066601100435131)
(0.332623530078665408 -0.189709027662042812 -0.0385601103875394466)
(0.341235943877018943 -0.192913545186981006 -0.0385110230528379685)
(0.437794376915536299 -0.199834566485773774 -0.0578485743628413887)
(0.401675193496425886 -0.211705234508411111 -0.0491757564959993815)
(0.397215841014424698 -0.195038553372994389 -0.0495409389717627602)
(0.409086009931876327 -0.199009983573352062 -0.0497240511557439299)
(0.508557630138261163 -0.205005642391460463 -0.0758409674496291208)
(0.471013443135736842 -0.218780686636642074 -0.0642760921207329861)
(0.464498587592494128 -0.200672565926784924 -0.0643466504468088035)
(0.480517993084794703 -0.205814764582234938 -0.0650429288041315251)
(0.582412303523378916 -0.207958611718611713 -0.100097438165334549)
(0.543714921971586107 -0.224067139916939634 -0.0843413605481330153)
(0.533791903913278576 -0.203667432939082932 -0.0841078553507148691)
(0.555534094780380072 -0.210904674875068587 -0.0858290645991605233)
(0.658820497266250693 -0.205198917248569479 -0.133172932672394606)
(0.620640698538338031 -0.226917511998072918 -0.111118845316725126)
(0.605444182379514029 -0.203728034276580983 -0.11091541467578539)
(0.635114016409657034 -0.214038781815434342 -0.113979353999884084)
(0.732765394455547669 -0.191270666755941787 -0.180407274627973152)
(0.69923013851006377 -0.219827702539188041 -0.147933214157011494)
(0.675904249735944207 -0.193755135418787944 -0.147844646941647478)
(0.718206408262626494 -0.209074200349440853 -0.15282834919861471)
(0.797940371044193242 -0.164377841917928841 -0.247651977381917715)
(0.773775340677827494 -0.198708680294922863 -0.202142589520023924)
(0.738397631864642023 -0.169941927111901869 -0.201378388500239813)
(0.798055541288105297 -0.191862265617195882 -0.210226714939721226)
(0.841381823936080409 -0.12308940272670163 -0.351359886239305808)
(0.838553025658393736 -0.162870674073418875 -0.277675629097436094)
(0.783085969284644801 -0.133086236361833837 -0.275081953140685287)