/*--------------------------------*- C++ -*----------------------------------*\
| =========                 |                                                 |
| \\      /  F ield         | OpenFOAM: The Open Source CFD Toolbox           |
|  \\    /   O peration     | Version:  2206                                  |
|   \\  /    A nd           | Website:  www.openfoam.com                      |
|    \\/     M anipulation  |                                                 |
\*---------------------------------------------------------------------------*/
FoamFile
{
    version     2.0;
    format      ascii;
    arch        "LSB;label=32;scalar=64";
    class       volScalarField;
    location    "0.209999999999999992";
    object      alpha.water;
}
// * * * * * * * * * * * * * * * * * * * * * * * * * * * * * * * * * * * * * //

dimensions      [0 0 0 0 0 0 0];

internalField   nonuniform List<scalar> 
29184
(
0.999999999496054892
0.999999999456762767
0.999999999240616555
0.999999998932332934
0.999999998668814505
0.999999998297088855
0.999999997703807986
0.999999996657580104
0.999999994763018041
0.999999991469194827
0.999999985850840267
0.999965775200683082
0.999962922611536187
0.999901487440634451
0.976766104327661311
0.771991340794234482
0.999999999463014655
0.999999999271857787
0.999999998989513861
0.999999998768199116
0.999999998475392449
0.999999998290326708
0.999999997433950627
0.999999995227674798
0.999999991594343163
0.999999985866780516
0.999999977369047666
0.999938401352997719
0.999907855210328211
0.999796280189650499
0.999280702540330634
0.799180872358070227
0.999999997098169668
0.999999994627522315
0.99999999380572091
0.999999992577786267
0.999999990386332582
0.999999988108317917
0.999999982620763062
0.999999966880356195
0.999999939123421111
0.999999896489828677
0.999999842899204183
0.999855744170325966
0.999842627648047322
0.99946984232661884
0.989865751525464521
0.810915960832556904
0.999999974676111236
0.999999956473978879
0.999999949672195187
0.999999938885299366
0.999999919181714381
0.999999890572762506
0.999999841138027978
0.999999727521381443
0.999999522673107766
0.999999191348170502
0.999998764835201559
0.999795865824081864
0.999750624005846467
0.99915791147251154
0.987105498812375304
0.792286158374691851
0.999999839717524597
0.999999747218963675
0.999999706288104528
0.999999639746061542
0.999999521864298968
0.999999334480186297
0.999999035710421591
0.999998433002611042
0.999997328901976346
0.999995484455035721
0.999993037217439151
0.999740847278796085
0.999685909929467931
0.998729854974403364
0.978897255206927608
0.770852793652454737
0.999999217973631449
0.999998849738022444
0.999998662317525877
0.999998348539989035
0.999997812535381891
0.999996942951992152
0.999995561069680017
0.999993050655801907
0.999988438775381239
0.999980485076444436
0.999969646267855339
0.999741931883043278
0.999507682106205997
0.997710704974055895
0.958865391416320767
0.745636293805610695
0.999996861078239263
0.999995632069500262
0.999994931156620304
0.999993718845695323
0.999991724801144954
0.999988519261929332
0.999983343963683935
0.999974496362948884
0.999958707491967802
0.999930701361384733
0.999891224783747035
0.999641714766454248
0.999053867462847744
0.995435723829928953
0.925178475434221159
0.722648287582742133
0.999989183085850053
0.99998560308351736
0.999983363507466638
0.999979351872540501
0.999973015297943135
0.999963019123373265
0.999947017763880286
0.999919716356797661
0.999873063220575009
0.999789310524879959
0.999666669647900852
0.999101178807433987
0.998159233131980406
0.993943389200841354
0.890940878081485477
0.706182001288920169
0.999967034592021964
0.999957685672840491
0.999951386286124122
0.999939667576587254
0.999921970153069273
0.99989456068991589
0.999850812957799207
0.999780935552430972
0.999655743116707241
0.999437978887846024
0.999101522664289532
0.998192545115557772
0.996075475797817522
0.983329761156277904
0.939901867392001433
0.733942699452336589
0.999909225457548456
0.999886919841430633
0.999870990437582208
0.999840111353873962
0.999795845731963118
0.999728299957558297
0.999621189238206864
0.999449811118988118
0.999184670005099251
0.998651481745836289
0.997838506763493394
0.996090372671153412
0.991208182341145827
0.940152820691832369
0.939357816837329329
0.816964949255284179
0.999770466306002081
0.999721156665026478
0.99968439618398941
0.999609762030631233
0.999509261033305063
0.999357625463227262
0.99911857902273149
0.998738446019601822
0.998151027688530146
0.997165269487956474
0.995239877395678207
0.991317787613769097
0.981940441207692416
0.90010902601445486
0.842640089610063647
0.781284942891940948
0.999460219847983611
0.999358179479828523
0.999279879966404549
0.999112394627801992
0.998903049791047049
0.998588661872258587
0.998098831945361309
0.997325731295781504
0.996128311486387696
0.994166577501322202
0.990722741451003586
0.982104789974895587
0.965656224378060757
0.780242503170334167
0.621209263558638147
0.553128628698200342
0.998807271507826444
0.998608221798490514
0.998452952472725475
0.998100610162320434
0.997698489498332064
0.99708781915392164
0.996156970370847272
0.994703363840960808
0.992470660136166249
0.988715252244709908
0.982502112014785212
0.967870206265889488
0.93986733860661098
0.584029410076140287
0.28336957936556828
0.603263564508328187
0.99750235808224863
0.997134905785116099
0.996846238634435555
0.996146458719103345
0.995431456407279924
0.994312226440860591
0.992649885043224711
0.990102812427542833
0.986190784585911029
0.979729844957518248
0.968160541758109283
0.94684696699480253
0.656061264026581714
0.327564703788956413
0.210077497003280045
0.61702143696168521
0.995007981947965026
0.994365698040343471
0.993859916525632991
0.99254255875742281
0.991366778570665907
0.989417154123213516
0.986636364718034176
0.98239776143356583
0.975950670625496453
0.965438784632557057
0.946597823803383198
0.914155775231218715
0.428278811520173219
0.133107967320940046
0.138302858612536411
0.604822561908069378
0.990418700407858399
0.989355451930761354
0.988509891963885279
0.986148042522769108
0.984357625142834314
0.981093483284435575
0.976690291871507243
0.969929843812388004
0.959566527030569549
0.943506100703928152
0.914782431085356951
0.872528295756592409
0.161923041965909037
0.0552971217621179637
0.0619812520245418136
0.586270168305117689
0.999999999532993677
0.999999999496055336
0.999999999295984487
0.999999999019406283
0.999999998785008337
0.999999998454923489
0.999999997924337025
0.99999999698823816
0.999999995314512224
0.99999999248031668
0.999999987860661133
0.999963467013790019
0.99996032292031245
0.999892444149240833
0.97433959562953687
0.752928796960600222
0.999999999501743231
0.999999999323851196
0.999999999070351198
0.999999998872662887
0.999999998610128338
0.999999998433924286
0.999999997648984396
0.99999999571695064
0.999999992596555254
0.999999987876354135
0.999999981305604635
0.999931986944479712
0.999895077083138184
0.999765081125836397
0.999375993396572904
0.783251389615847726
0.999999997294016785
0.999999995071429337
0.999999994321267294
0.999999993224196526
0.999999991217424111
0.999999989017155921
0.999999983979922735
0.999999970088358614
0.99999994666734171
0.999999912610101127
0.999999874466448779
0.999805231185955989
0.999654742274182162
0.999367310872000925
0.997745027055075173
0.805880768647512791
0.999999976333626028
0.999999960028862822
0.999999953729680979
0.999999944031147336
0.999999925859678118
0.999999898945233445
0.999999852713542081
0.99999975097845073
0.999999574887701526
0.999999303989221655
0.999998992134701337
0.999743525765822927
0.999708207905279811
0.99893826107652739
0.996178270621615791
0.814693732419001559
0.999999849638553151
0.999999767375462145
0.999999728922277953
0.999999668776506256
0.999999558913404973
0.999999382229663114
0.999999099666763591
0.999998548628016515
0.999997581098457156
0.999996032331988971
0.999994176925841249
0.999704004828204207
0.999689168645685022
0.99873101906238082
0.993738014573948503
0.767913901464694182
0.999999263373328451
0.99999893933460382
0.999998760230788486
0.999998475382418706
0.999997969594118907
0.999997139090784359
0.999995824781054088
0.999993485137531279
0.999989361856645331
0.999982516615594674
0.999974024434729825
0.999639918173337194
0.99844829232393717
0.997388897267486474
0.972503887373864062
0.729855373203558644
0.999997030559108824
0.999995965218193339
0.999995281147708193
0.999994177256753769
0.999992268338659507
0.999989163945910975
0.999984178816829328
0.999975846868450313
0.999961418778866795
0.999936742658170008
0.999904906421006934
0.999698995985970562
0.997461861758777713
0.995207135028784995
0.928689557290409251
0.70446384891085978
0.999989721036010581
0.999986681707586422
0.999984437328227393
0.999980780341399367
0.999974610956520404
0.99996480121704745
0.999949183531837926
0.999923259067431625
0.999879709273130635
0.999804316471731624
0.999702548267211943
0.99919284569901734
0.998347206813654742
0.994232254565097673
0.850264534485669743
0.691043934344193644
0.999968526957395687
0.999960811721869014
0.999954283125612298
0.999943618078710905
0.999926039380911735
0.999898785315874061
0.999855522463448221
0.999788228058173134
0.999672320107140022
0.999469515035125822
0.999184462118427041
0.998370221743724029
0.996444681561630241
0.991450517151274302
0.889391227842249776
0.688029249196770554
0.999912912682230592
0.99989519415047956
0.999877964758467908
0.999850013444027907
0.999804971283422828
0.99973702866481351
0.999629742043413039
0.999462721481356509
0.999208560139668966
0.998731457889358909
0.998010739616960518
0.996469493342019175
0.991994994471906866
0.978988724576644431
0.953624944814746689
0.725223842588254008
0.999778683856366479
0.999741462890004318
0.999699497374960444
0.999632649260346007
0.999527231757407097
0.999373407563806215
0.999131054008848052
0.998757096404681022
0.998183851342055228
0.997251687092204131
0.995653339977174201
0.992149411581405127
0.983706340237750831
0.918859007463277644
0.908768645705215983
0.776672822228181681
0.999476875291296807
0.999404913741657186
0.999309310914428428
0.999161909457755071
0.998933644486261874
0.998613256783518199
0.998110253552309978
0.997344516291612027
0.996164193079459137
0.994275548587166935
0.991255826595523137
0.983920558827764524
0.968556883899312604
0.830132372332348489
0.788608496699892414
0.730267635071739529
0.998838095395429226
0.998709923807753697
0.998504216856182403
0.998202154030789379
0.997741187524936235
0.997120312881754844
0.996148264257708971
0.994702826178186506
0.99247094643932865
0.988909928772802593
0.983273778129837517
0.969864289219304787
0.944120513535410599
0.647610586380634512
0.352147708454118802
0.494449674916089488
0.997554375989228914
0.997345320105906041
0.996924479428584753
0.996346196148458541
0.995469913725006483
0.994348692849084781
0.992573152657003188
0.990031923343063447
0.986114495537792513
0.97992955085924538
0.969877794517428615
0.948795563015693455
0.751428759302610993
0.412405601202794736
0.242072418357148267
0.440601057586786804
0.995087051027806591
0.994780650133122668
0.993959813081565224
0.992922384758029075
0.991345779635832147
0.989450041168244532
0.98639492144198504
0.982159570273482108
0.975718316345004055
0.965934669773199528
0.948811170783171121
0.918705682726084216
0.540891094881573387
0.152299590549655972
0.160928723388294836
0.51551339105126015
0.990522801165224953
0.990135743285378678
0.988604520703693535
0.986847736019111244
0.98414137637080179
0.981126983811352216
0.976068781588643741
0.969421918918271897
0.959081692151584342
0.944721803465260357
0.918727884649201965
0.87622437615705473
0.177583089038692771
0.0682630759357296391
0.0732528077572870001
0.706309450998099941
0.999999999578471854
0.999999999532994011
0.999999999338016421
0.999999999064620448
0.999999998847081351
0.999999998552821623
0.999999998086061548
0.999999997260782036
0.999999995794409902
0.99999999336665224
0.999999989540665046
0.999960217949339536
0.999953355603189209
0.999877723590397949
0.959567606466415701
0.742016016856248628
0.999999999538124351
0.999999999363882619
0.999999999111268356
0.999999998925420464
0.99999999868685685
0.999999998552291935
0.999999997786748529
0.999999996108127065
0.999999993459080527
0.999999989553683855
0.999999984387305418
0.999871756836302472
0.999729296295261305
0.999726052491273776
0.999193937335636218
0.757523049230450329
0.999999997511239913
0.999999995261161123
0.999999994549817472
0.999999993583451374
0.99999999182172572
0.999999989824473134
0.999999985322983731
0.999999972987322128
0.999999953423437948
0.999999926110092807
0.999999899226116873
0.99979350729716665
0.999182964088582426
0.998866857487009874
0.995576382400282123
0.777605445129998962
0.999999978209322959
0.99999996139042957
0.99999995546339393
0.999999947003218148
0.999999931125245434
0.999999906914931458
0.999999864602239441
0.999999774164962107
0.999999624421085032
0.999999402128084913
0.999999175972177357
0.99973528169727266
0.998787971355325266
0.993303291542793065
0.989286606025906123
0.913879524263110588
0.999999861349248231
0.999999774246119522
0.999999738225473278
0.999999685954489292
0.999999590136695371
0.99999943065531649
0.99999917035008079
0.99999867062754344
0.999997831234138435
0.999996529945166301
0.999995122177342544
0.999645158814631341
0.998743762048242223
0.991864906229218857
0.990901336561895496
0.943159266528194928
0.999999319827434396
0.999998965511419535
0.999998798826020163
0.999998552382323269
0.99999811232925051
0.999997356085381206
0.999996137422607179
0.999993982732244491
0.999990328157199793
0.999984437871499154
0.999977726560022928
0.999509973127815643
0.997511635203410352
0.99036863559478383
0.970625171889880844
0.741730092747212133
0.999997255441067989
0.999996043749947217
0.999995413574671144
0.99999446390528679
0.999992809242671199
0.999989944583431489
0.999985288035836195
0.999977527013499179
0.999964494240102808
0.999942748290137295
0.999916624910518914
0.999418440873111047
0.997628947376980157
0.994917894002637082
0.90096381258581304
0.716992852798027158
0.999990493387307833
0.999986865986214446
0.999984829476750159
0.999981704705554364
0.999976385657900035
0.999967198338206797
0.999952278518035476
0.999928142752908089
0.999888195119920553
0.999820086922695528
0.999733579641914116
0.999248482776146529
0.997830183069958743
0.994014001847377537
0.897670170688910307
0.702182282368886135
0.999970882737561295
0.999961114219075409
0.999955316650454229
0.999946272932351166
0.999931229252042142
0.999905321588741458
0.999863434321616618
0.999797897682472625
0.999692151351760039
0.999505059411844421
0.999254067893432629
0.998240764287664173
0.995922395140766303
0.985828864733761856
0.935690900414174909
0.69104380733510784
0.999919429456629927
0.999895300850106139
0.999880453961242477
0.999856930219931939
0.999818753761611667
0.999752978670030656
0.999648230023374884
0.999485862739814657
0.999235021927186384
0.998791978852701878
0.998138692035244857
0.996221404825882839
0.992209934690433171
0.957547482322950838
0.955202464255319295
0.840866024835783543
0.999795288974800522
0.999739821192187184
0.99970511396453432
0.999649229033029885
0.999560967924407517
0.999408351700213915
0.999169431054715118
0.998809169148409781
0.998254307694962151
0.997296116108624786
0.995812840435552626
0.992314903280833605
0.984756201898605354
0.919874343876005085
0.907426622730308718
0.844616664623015545
0.999516303346963175
0.999396340097108871
0.999321524640729431
0.999198681821046319
0.999010794110670841
0.998682696496168587
0.998181739691125336
0.997440679722584322
0.996334101329247046
0.994421391857493675
0.991321899528609052
0.984392803055248011
0.969655695602913648
0.830583926628810421
0.825962609576117002
0.754913652656456602
0.998926101800083899
0.998680216806746568
0.998530553439273216
0.998277912154416081
0.997906425153085364
0.99724701909132174
0.996271848234127733
0.994863085587216367
0.992766093402423611
0.989248149086438655
0.983498212025796681
0.969853589079199718
0.944450489209493815
0.696508382045208041
0.505601241523542688
0.532490781361975363
0.997740213476643323
0.997260779815966281
0.996982030704117284
0.996490909325563834
0.99580390937664709
0.994554585241752331
0.992784716425868519
0.990286332181140483
0.986598895812521581
0.980389878524651426
0.970182136083474256
0.94879216232353536
0.770173481085403955
0.466479111759524057
0.280186713591839276
0.485466904108674657
0.995459664300244462
0.994570883786314308
0.994087682976488862
0.993177145173620657
0.991984876757470713
0.989740090867252897
0.986737985796322992
0.982585131392025746
0.976529549809056485
0.966486032881239021
0.949010120284136782
0.917549026953487612
0.594083965279046611
0.187084620916078193
0.188771858330475079
0.424386768982948248
0.991232822393863788
0.98967144919063621
0.988889563879694622
0.987258748388446961
0.985302515853715866
0.981446642144041315
0.976641905959756196
0.97010172082187518
0.960593108122943184
0.945481803345569749
0.918458744418096495
0.874419079461780324
0.195139849522632192
0.0764487945797078516
0.0918295450040947092
0.75336664444232937
0.999999999608748968
0.999999999578472187
0.999999999372912285
0.999999999098509118
0.999999998874821383
0.999999998585344052
0.999999998144927904
0.999999997395216833
0.999999996101936017
0.999999994016998572
0.999999990821557661
0.999905693181496469
0.999898167248300496
0.999797042507044376
0.925830091560543966
0.737900148653590326
0.999999999583269239
0.999999999397576111
0.999999999142825668
0.999999998948217561
0.999999998736968765
0.999999999420676744
0.999999997713949096
0.999999996304936856
0.999999994074945442
0.999999990829378738
0.999999986681278985
0.999867678308807406
0.999824924680930316
0.999599993990574975
0.988924744081078222
0.74201601685127283
0.999999997628704618
0.999999995398480501
0.999999994646318502
0.999999993681563337
0.99999999197394307
0.999999990341227107
0.999999991292057855
0.99999997449243494
0.999999958739454575
0.999999936823263935
0.99999991777699182
0.999797436908006931
0.99917741573058616
0.99901268603526916
0.978113489215153953
0.757272746442081868
0.999999979070179235
0.999999962282007049
0.999999956003257862
0.999999947595551331
0.999999932263031077
0.999999909998528613
0.99999987259561296
0.999999807022053266
0.999999664043389469
0.999999482438735932
0.999999319115200236
0.999737710767226839
0.998187438629766999
0.993615035197779828
0.979233774144821711
0.787704207109931387
0.999999866152086692
0.999999778552907781
0.999999740039043461
0.999999688029727496
0.999999595233109329
0.999999448493836374
0.999999216640333755
0.999998775816267393
0.999998069369752329
0.999996943687443185
0.999995886048008376
0.999644781207333466
0.998098906145676201
0.989494579049171041
0.982013401852050549
0.97288788243864166
0.999999340257047065
0.99999898149690436
0.999998801174634799
0.999998555670363221
0.999998127691154259
0.999997432405630771
0.999996353349930978
0.999994435850844909
0.999991189811169079
0.999986095743219616
0.99998081706215991
0.999460636865359797
0.996946359498196211
0.985529007854949568
0.97515681517511732
0.849080648010676065
0.999997325155393302
0.999996092440631701
0.999995401157159458
0.999994454875562599
0.999992837248976585
0.999990209828608978
0.999986100519648424
0.999979168278254171
0.999967295690869729
0.99994783976196977
0.99992671868545191
0.99929275917806748
0.997895803522559022
0.995386841540129463
0.912210461187274113
0.734632141618367762
0.999990690965293805
0.999986993956396786
0.999984722298879358
0.999981613281044734
0.999976379585759911
0.999968000108538146
0.999954778512303744
0.999933014930942443
0.999895910101678886
0.999833191956277956
0.999761037978130762
0.999104696670180314
0.997634890130516427
0.994399159399256716
0.910149204635862241
0.716992852798027158
0.999971353494387483
0.999961421296708841
0.999954819444987208
0.999945857109426628
0.999930932857494015
0.999907555454781383
0.999870906958934658
0.999809812088644057
0.999707729968768111
0.999532378837921343
0.999317164978046124
0.998280053661153133
0.993628838626024691
0.97831967077785098
0.967034993643703378
0.74511548133201444
0.999920362359269399
0.999896025337278838
0.999878670297257188
0.999855534940111035
0.999817226884756494
0.999758785676757467
0.999667540882926087
0.999519642473568837
0.999259347639310791
0.998826291721469861
0.998259563505041969
0.996660893695399119
0.99306660160664606
0.957223350967583153
0.95671297913694886
0.915291531817671755
0.999796732820485312
0.999741634092392251
0.999699663351814705
0.999645382760648848
0.999555485213005968
0.99942262887270128
0.999215908144578391
0.998877500734532742
0.99832318761801675
0.997316718554929427
0.9959806140915759
0.993116505337402034
0.978918974877649228
0.922788730803209334
0.887013637919086939
0.844258799864186615
0.999517591044126075
0.999401261193143431
0.99930667611088797
0.999189639968713905
0.998994269813253788
0.998717388108344761
0.998285303447164818
0.997572254185546958
0.996393551955171319
0.994500269120290326
0.991513328238864067
0.985280719899424118
0.970581556670186085
0.852984608340223494
0.837264556974715024
0.737454325222908214
0.998924545664583219
0.998694032740094717
0.998493486910998707
0.998259579269989983
0.997862486216117617
0.997328699326095025
0.996490857109942674
0.995089418994017039
0.992782739281190985
0.98914454790649331
0.983748604126697179
0.970940442151705496
0.946167454571295696
0.764992671274329128
0.532255183634034235
0.535901698501735302
0.997728616843289284
0.997298435869248157
0.996895663911407048
0.996459321100030992
0.995698045397880094
0.994742236373854061
0.993212785473237436
0.990650543255458649
0.986404624968386656
0.980096138749918078
0.97026500231454893
0.94861460850888224
0.819047028813571387
0.544586348277950494
0.309892426290155565
0.507131714810503564
0.99542187821973338
0.994666344385675916
0.993897569132561665
0.993133954071339309
0.991750553213068597
0.990157308724607832
0.987515600996283993
0.983099403041302944
0.975881861996426236
0.965499452974620365
0.949670186284423679
0.916771013931483858
0.622897894540827779
0.261641963863073312
0.225041635047553285
0.657088855336170896
0.991136768770989995
0.989891047598899343
0.988491975505852105
0.987225862713229096
0.98482526576186824
0.982341255111435108
0.977953791342731638
0.970745896334420211
0.95898159642754921
0.943477923006332708
0.918627833464630728
0.874889964486210703
0.211374421089358583
0.085148659819432454
0.113076914376482734
0.795714247633312999
0.999999999608748968
0.999999999608749413
0.999999999451217203
0.999999999201108603
0.999999998989033134
0.999999998715966121
0.999999998309792359
0.999999997622684988
0.999999996451140127
0.999999994609833243
0.999999991894880091
0.999886923394122773
0.999873099784361008
0.999761123072024249
0.911110793789636109
0.737387245580677586
0.999999999612340096
0.999999999472149903
0.999999999239604254
0.999999999053513111
0.999999998850221172
0.999999999528782713
0.999999998410828317
0.999999996533443625
0.999999994637957967
0.999999991898384177
0.999999988488517344
0.999821767951478479
0.999770800867274323
0.999565705231381552
0.97437481257297287
0.737900148653590326
0.999999998149723623
0.99999999600244438
0.999999995209636561
0.999999994237659395
0.999999992622491618
0.999999990942756156
0.999999992010316419
0.999999979057380695
0.99999996279646286
0.999999945634685972
0.999999932080242515
0.999740826220735013
0.999406380598856448
0.999105775862424883
0.969388042236359881
0.749176559481676163
0.999999984017045263
0.999999967157758074
0.99999996049474571
0.999999951992320391
0.999999937546489415
0.999999916511794762
0.999999879747303866
0.999999820569300812
0.99999970171019037
0.999999551189611813
0.999999435766897871
0.999686750955477987
0.998299697868276437
0.995897456950922022
0.960553453820945702
0.765579089280917668
0.999999898369882345
0.999999806315122974
0.99999976543872493
0.999999712849308331
0.999999625447539398
0.999999485410846711
0.999999263044526465
0.99999885003386968
0.99999823954480016
0.999997332063749966
0.999996555009193155
0.999666191799069681
0.997872476320893709
0.989068140128314677
0.968418434556191254
0.907659408004412582
0.999999502168875232
0.999999104707404829
0.999998913237795328
0.999998663552661093
0.999998261050751069
0.99999758790412796
0.999996545487994659
0.99999474829409718
0.999991896894336652
0.999987727038976648
0.999983770004992834
0.999582093086095802
0.998043017410291666
0.987115177155931445
0.981801822820774994
0.964301753493000624
0.999997996781235354
0.9999965458590101
0.999995812541970563
0.999994842290510055
0.999993322684261887
0.999990743959015216
0.999986704953884642
0.999980192216906594
0.999969733877052125
0.999953647241663468
0.999937345873204375
0.999485491113786706
0.996319155146107249
0.988652514342642896
0.961838309596710905
0.801924109947495078
0.999993089376214783
0.999988430082990432
0.999986031598528724
0.999982809115890103
0.999977905565272107
0.999969553295300129
0.999956441677092078
0.999935663398129559
0.999903090118785531
0.999851043484599078
0.999793589155844709
0.9994009820936538
0.996339429453239944
0.993696111880399968
0.880513014046558906
0.731020743141776674
0.999978938609314083
0.999965429958672658
0.999958538502515037
0.99994911804268094
0.99993519953797283
0.999911409862284994
0.999874464736468904
0.999817464137327638
0.99972598948384217
0.999580278427305347
0.999403761866229479
0.998653483114882334
0.992899863421365048
0.983561474686996728
0.928158054651142539
0.718045091249444711
0.999942030938249959
0.999906036998481906
0.999888309030036448
0.999863546462150032
0.999828105819562385
0.999767030860363004
0.999673652281472425
0.999534112097811622
0.999314757314682334
0.998940788675261038
0.99845961780170378
0.997269388758461828
0.993893814019057853
0.965307304546469513
0.965449682142054622
0.870861787894358752
0.999853450789790155
0.999764208096983076
0.999722864432401992
0.99966338409363964
0.999581162750598828
0.99943782994804542
0.99922368315465504
0.998902017425436606
0.998439059417226105
0.997611163078820251
0.996389511881511147
0.993940572893258101
0.987607031440151939
0.936586860443828328
0.930516438790566891
0.881367510534762699
0.999655036654392259
0.999447410084633669
0.999359326005223148
0.999226980620528504
0.999051192201374505
0.998739647280474485
0.998290124963640335
0.997617305226298545
0.996609552446316216
0.995084619702385598
0.992328223519711949
0.986752654471459323
0.973586583265464656
0.859068649511600668
0.879292679861753079
0.792874063189794365
0.999235159280905672
0.998779568532212947
0.998607468812849786
0.998331601837276095
0.997981448392607828
0.997348655631606906
0.996478377299277129
0.99517788703611787
0.993217301991310419
0.990062798094566432
0.985186822055199696
0.973368390816330642
0.949467573037215185
0.78401894427395602
0.69826359850655273
0.616460719767865317
0.998386500655203291
0.997441366190783274
0.997132982909173959
0.996588532132599569
0.995934342523754457
0.99472075517562375
0.993160048587937716
0.990818131479670794
0.987259015444666987
0.981571565865624995
0.971838885239333483
0.951499831363919135
0.898823996996481522
0.663446096146846132
0.372480724173064992
0.518712489307075919
0.996731955916336454
0.994878146572834465
0.994374260316199798
0.993348302604473155
0.992195996406514014
0.989995101680127387
0.9873799062125721
0.983427235048235038
0.977363517855146302
0.967964915059610576
0.951083268102927315
0.918492426711423282
0.648593515789851915
0.418562101515466078
0.226581180230129547
0.45806557682005189
0.993591591093087478
0.990158588748073498
0.989414563418080206
0.987550621182139432
0.985622228343610129
0.981812845542929469
0.977724875673458005
0.97128161389879708
0.961424099346869454
0.94703463086763362
0.920460207210826109
0.874422440465187023
0.271944628077810335
0.0918246877113158833
0.120732090201437922
0.763843434831887769
0.999999999608748968
0.999999999603595091
0.999999999467241829
0.999999999257494165
0.999999999071906842
0.999999998822062253
0.9999999984467145
0.999999997822533238
0.999999996780090883
0.999999995167186184
0.999999992820877592
0.999892079396989208
0.999879287319564214
0.999760978719982818
0.916454744243195396
0.737387245580677586
0.999999999607064094
0.999999999485362667
0.999999999290833719
0.999999999128400763
0.999999998942378787
0.999999999607565582
0.999999998409022095
0.999999996936195235
0.999999995174394751
0.999999992822067196
0.999999989912818354
0.999834706171228382
0.999777826755827714
0.99955949924524079
0.967717094375780018
0.737387244960132637
0.999999998053572647
0.999999996307553651
0.999999995600301061
0.999999994677107651
0.999999993133595
0.999999991662618215
0.999999992512848435
0.999999980442698888
0.999999967479985097
0.999999952853418805
0.999999942358272165
0.99970488352603748
0.999059586586232617
0.99905184982131634
0.971632887315889482
0.747209765345797639
0.999999983080826826
0.999999969859697968
0.999999963756936006
0.999999955608189994
0.999999941765387867
0.999999922508384875
0.99999988956817365
0.99999983690875538
0.999999734529738005
0.999999609147957935
0.999999518751173877
0.999658181019148828
0.998318828264930902
0.994864295633454354
0.96590025857460593
0.763667827915245678
0.999999892001445234
0.99999982293440981
0.999999784710242867
0.999999734001182361
0.999999649951459846
0.999999521178329576
0.999999322857216266
0.999998960093851696
0.999998429117426091
0.999997649524142829
0.999997028118970621
0.999643639425179309
0.998042454610270857
0.988476477772333384
0.968018855102494968
0.896445743389151062
0.999999468301911887
0.999999184836254829
0.999999001471590931
0.999998759391607983
0.999998370160829042
0.999997750786328465
0.99999682726989314
0.999995245006692013
0.99999273878251127
0.999989085072597428
0.999985833222479359
0.999533962512997309
0.997233933373188441
0.983440335382408826
0.979738906565192247
0.957832173574951318
0.99999784705324668
0.999996869316840398
0.999996146782005768
0.99999520137722564
0.999993723072403862
0.999991348965358684
0.999987799280554479
0.999982056983436007
0.999972727073105583
0.999958382200086371
0.999944680708021005
0.999432638692931863
0.995312592917716454
0.985595982577196383