/*--------------------------------*- C++ -*----------------------------------*\
| =========                 |                                                 |
| \\      /  F ield         | OpenFOAM: The Open Source CFD Toolbox           |
|  \\    /   O peration     | Version:  2206                                  |
|   \\  /    A nd           | Website:  www.openfoam.com                      |
|    \\/     M anipulation  |                                                 |
\*---------------------------------------------------------------------------*/
FoamFile
{
    version     2.0;
    format      ascii;
    arch        "LSB;label=32;scalar=64";
    class       volVectorField;
    location    "0.209999999999999992";
    object      faceTraction;
}
// * * * * * * * * * * * * * * * * * * * * * * * * * * * * * * * * * * * * * //

dimensions      [1 -1 -2 0 0 0 0];

internalField   uniform (0 0 0);

boundaryField
{
    inlet
    {
        type            calculated;
        value           uniform (0 0 0);
    }
    outlet
    {
        type            calculated;
        value           uniform (0 0 0);
    }
    top
    {
        type            calculated;
        value           uniform (0 0 0);
    }
    bottom
    {
        type            calculated;
        value           uniform (0 0 0);
    }
    left
    {
        type            calculated;
        value           uniform (0 0 0);
    }
    symmetry
    {
        type            symmetryPlane;
    }
    interface
    {
        type            calculated;
        value           nonuniform List<vector> 
352
(
(2740.04356107737203 -0.0379404998119915182 -0.0688430400019779398)
(2659.28845036787652 0.00401006297491061058 -0.0728459730346083245)
(2559.42069288809535 0.013676199725752498 -0.0736102850809398634)
(2452.6450856307024 0.0186567161904394735 -0.0710727931675452368)
(2338.27117126563599 0.0239597941634334226 -0.0684990474988772524)
(2210.86900696094108 0.0302031997743768994 -0.0661366911760010306)
(2067.42837288454712 0.0369822635852937037 -0.0642010260374634434)
(1898.71340289890395 0.044319697940468826 -0.0628595778944095601)
(1696.06120649525769 0.0555485104368525495 -0.0650493548498183582)
(1449.8321543581319 0.0727937838692753331 -0.071549397937210199)
(1168.44890169405153 0.0807985469354425695 -0.0681586787767291952)
(907.354269137899792 0.0653660902647942854 -0.0478251694237377123)
(692.723160050437059 0.0788179459187947212 -0.0511289390340474575)
(505.785277715849418 0.0872196627897539323 -0.0512525814101494198)
(344.436647052958619 0.0913364313399066124 -0.0491437007048365002)
(215.536710891251147 0.0918281063542143172 -0.0466545968941690856)
(3272.24759148084104 -0.0128810592949264707 -0.040859724569531998)
(3179.33323072400572 0.00765848471186196013 -0.0490882497316355235)
(3067.48952326095741 0.0152260645373191016 -0.0493118308118090307)
(2942.37527047282856 0.0222401154326307415 -0.048908036977207317)
(2805.40948083533704 0.0278296226057013693 -0.0455362441833007878)
(2650.42830314014327 0.0341302653043305121 -0.0430860423784446139)
(2472.77058431907335 0.0411189859305448324 -0.0416959228959193212)
(2269.92136616178004 0.0488480729432088645 -0.0412936979357341263)
(2040.55551749792403 0.0575726683148841262 -0.0413672939840576057)
(1774.74329424116058 0.0703963709090328627 -0.0434204398707247335)
(1471.31765410350158 0.0868099627789433587 -0.046364391377181749)
(1154.88798388728537 0.0925079399449203477 -0.0434938058278497575)
(886.613213779293233 0.0707721455514060543 -0.0296823322623522359)
(675.186197489657047 0.0680692262840878887 -0.0265840443728727269)
(475.284139331292749 0.0839671618597456204 -0.0309875751426382691)
(293.071117229160393 0.119111965771088152 -0.0421380703912575955)
(3538.45226827478882 -0.0131967758773927513 -0.0321575286347725517)
(3445.19196839789493 0.0080281797768840344 -0.0357827200308852289)
(3338.24478787185762 0.0162650428651731349 -0.0368181158917368981)
(3215.73174065000467 0.0281179052645454154 -0.0432249030245784038)
(3074.30532583411832 0.0389102922497877243 -0.0447110259653651296)
(2913.16905514778637 0.038767524807938894 -0.0355933437482129494)
(2732.63259007753959 0.0460833727648725863 -0.0349735167251853246)
(2526.70393999186717 0.0533236687252002725 -0.0346636068541442618)
(2288.36551379997672 0.0608212899637257803 -0.0342869673995417276)
(2004.88885082922229 0.085442489984589795 -0.0416394909376363517)
(1684.5481427251375 0.0992105613370130313 -0.0418270708531697927)
(1353.0034960318194 0.10064086930491431 -0.037695701218429023)
(1052.81007611653808 0.0795500040493918176 -0.027091091535609034)
(805.365475379728196 0.0786517887697478491 -0.0249959054909187732)
(580.067660639583778 0.072571913038482927 -0.0218072968734019969)
(370.069717968798216 0.133075496445311692 -0.0383752449576034715)
(3658.91047418521157 -0.0103803909583806159 -0.0183080780032588014)
(3564.70612964729617 0.00898667707164912087 -0.0238374137313534344)
(3454.40899836699691 0.0168712480859061764 -0.0246012598936205078)
(3332.79134289932017 0.02579164636596009 -0.0253826701737115343)
(3197.88368493697999 0.0427236868860501537 -0.031247416182267243)
(3035.46351609030671 0.0462814946592713036 -0.0275620987660252434)
(2851.22245660435556 0.0486558601997973059 -0.0240938519740656817)
(2640.91785907144504 0.0552402553306477195 -0.0235931032523220043)
(2403.07209104285039 0.0669848874134176403 -0.024561433403585093)
(2126.14618370059952 0.0950924756406257843 -0.0303260730029370346)
(1802.49797499609485 0.100941627220894822 -0.0284488362729510766)
(1457.35353789287547 0.0993687292458699523 -0.0253660198065619215)
(1140.09795535254079 0.0810075218639495082 -0.0189196689570919271)
(874.68000810258593 0.0832695675048835127 -0.0181483434448104324)
(629.983131650767973 0.114858534066224177 -0.0235566372805266905)
(408.966316952537738 0.144941038218275142 -0.0284765534005945384)
(3735.5218467292525 -0.00985426147071185275 -0.0147397815120583961)
(3641.91879286111134 0.00924973645978392593 -0.0168648601369121263)
(3533.17018103099053 0.0174608329554647862 -0.0174052728894406906)
(3411.40094209178051 0.0258234874820097646 -0.0177185809364091805)
(3276.37805399690706 0.0410801464347244696 -0.0208511302957059413)
(3122.25322954232843 0.0552216653532875204 -0.0222352088740401799)
(2939.74935906574092 0.0549149997622257954 -0.018528684064313107)
(2731.32220605470684 0.0588183695006131158 -0.0168060383862447746)
(2491.23483095144184 0.0663048922565735305 -0.0164566232507800565)
(2215.91522643799271 0.0934340904899767649 -0.020476838498731751)
(1905.54258972278967 0.108259523100297739 -0.0216670744457464585)
(1560.82248709658711 0.109906462987472253 -0.0203617147021525856)
(1222.81786976181365 0.0951366407939875924 -0.0163756196627640981)
(923.893663031037931 0.087434642853477712 -0.0139102485891829768)
(663.862973054102326 0.0829272525127330157 -0.0122268777478416382)
(435.979513765962679 0.14486400073741354 -0.0203710249321232967)
(3780.41402383300374 -0.00882905397450670267 -0.00849466106749615334)
(3687.89583698189836 0.0093583794305313224 -0.0112627642405461487)
(3579.79399100699447 0.0176799884295467148 -0.0116203706230173301)
(3456.88152610130055 0.0264766257092360381 -0.0116193846833372704)
(3319.46177921037861 0.041705194580281213 -0.0131712226100252853)
(3164.94829884883484 0.0565942005977680337 -0.0135894042016575876)
(2977.63689911603387 0.0657006903430711331 -0.0127461218421294539)
(2760.31820005044256 0.064686342160545196 -0.0104312645330158684)
(2529.10766095002236 0.0670528751172226739 -0.00950420829491105748)
(2268.45743463581766 0.0799649331818916564 -0.0103911011244603359)
(1958.13360740683379 0.107640830355409986 -0.0130742758854942159)
(1611.70039619442832 0.11334922008671891 -0.0130366972771593804)
(1266.31076547516614 0.107462216375871403 -0.0117827910284134477)
(955.123224121421231 0.0863965161228617134 -0.00888980853247930622)
(679.982261358788037 0.102579719255401727 -0.00983976470976391515)
(441.832255268895835 0.131828371684244161 -0.0119577995748890321)
(3809.59237330781525 -0.0090483401080760327 -0.00489648012071207828)
(3716.14173465621752 0.00943781024996963834 -0.00642279304573419463)
(3608.32317114943044 0.0177868946046303017 -0.00650996129014322616)
(3485.55386030855925 0.0286700361065746999 -0.00673859274772494691)
(3344.46664932712793 0.0460432911138509565 -0.00780662070522600716)
(3180.95884222237919 0.0583836551758860206 -0.00725494857782188994)
(2986.02717388722476 0.0622888857266288773 -0.00605189493091165976)
(2772.90759846885157 0.0600234467345116887 -0.00476736998341656913)
(2553.12845787363449 0.0667153922154744145 -0.00462847574043369608)
(2301.82594883497541 0.0764067402946805585 -0.00495391907052421861)
(1996.20216572756749 0.108069758288069154 -0.00700797242574574802)
(1655.32609355974023 0.117897959940306191 -0.00797805944057954596)
(1310.00461439036189 0.110172548765165731 -0.00763671742164252244)
(984.868378615323081 0.0941141307888023193 -0.00636802771307382227)
(699.79689942551488 0.0939398997265361024 -0.00594453797441990648)
(460.754728521634661 0.124591186007735388 -0.00743725735322582886)
(3821.68285555431248 -0.00816926305514875835 -0.00158000778144944121)
(3727.92935300133104 0.00958017765739756222 -0.00205888644963925097)
(3620.86472351983048 0.0178551585794265687 -0.00207228927639849583)
(3497.59378453936324 0.0294121895846851875 -0.00216604641973751778)
(3355.45283118238649 0.0468405171531337192 -0.0024860461901566322)
(3186.32288054482478 0.0589023211080071663 -0.00232473954707854927)
(2989.39900372121656 0.0531421588912404791 -0.0016467368439255618)
(2775.53467546075808 0.0588533867660852097 -0.00148304318472154413)
(2553.37735154405163 0.0669665299282762722 -0.00138794997298760311)
(2309.08252972176433 0.0750882095063487992 -0.00143141730063497648)
(2025.62042464645128 0.0955245673723746219 -0.00196913595932084705)
(1710.44302566913575 0.12059857547293247 -0.00291849808135998543)
(1364.45054826563683 0.117786395046516987 -0.00313266696006782829)
(1015.23545234485653 0.109374652820882171 -0.00295770823880709029)
(712.407027770258537 0.0890924667954687416 -0.00222594436414721292)
(482.982873614589494 0.079245866597084505 -0.00186629577502189282)
(0.1405167967317561 0.0546611838172056455 -641.708314210207618)
(0.153819506184150079 0.00370851749657246082 -709.441974709731539)
(0.143671365239623428 0.00033784299755842029 -674.31150187875653)
(0.142453852161927519 0.00281783243494011619 -603.042958730276382)
(0.135419915267153718 0.00601019678810931803 -528.327061582884312)
(0.124080806054549436 0.00758122294094271901 -428.810437477940127)
(0.106766246715519333 0.0077522459545647654 -247.896540771217332)
(0.0626676366131170004 0.00899977443943190784 -25.3072965221188433)
(0.045679094421946391 0.0180591908079132946 -7.46481986535144593)
(0.0353959695902453658 0.0220995363724845427 -6.54550991480233524)
(0.0411424815403610492 0.0376414447384239709 -4.45993432336223261)
(0.0264093824424119668 0.0307923018154084398 -6.28749037926870979)
(0.00743930017236739925 0.0118326186847811862 -7.70398941750064381)
(0.00712506630192024336 0.0128965594070952465 -6.69037975598067014)
(0.00583547280441656675 0.0133747143617854707 -6.17346437255182501)
(0.00191393361408938659 0.00492953736106317188 -8.47544283846701774)
(0.120680564788721217 0.0474618118223543856 -264.720173352702432)
(0.119050124315515565 -0.00683046284341274484 -291.480423669481581)
(0.084187135200268437 -0.0183976230273232497 -241.517669674636892)
(0.0534368256398714547 -0.0128550328806740291 -174.374825306792502)
(0.0384512806693085019 -0.0056229916683400551 -123.487514819587659)
(0.0242362784887327869 -0.00311318248148592441 -80.6713430479063618)
(0.00911105501321564544 -0.00406271050308270546 -7.76455016180816138)
(-0.000208919658238996062 -0.000151667406914539929 -9.50865482031509757)
(-0.000184031201385938904 -8.51601745376043311e-05 -7.70934152789519622)
(-0.000170790997490601331 -7.90264160256636108e-05 -6.70648172195085301)
(-0.000193655156870542044 -0.000105873498888975156 -6.10721691764359864)
(-0.000214863657934849999 -9.29340225675730967e-05 -5.98641432504710025)
(-0.000206165281789511906 -9.42110129066544742e-05 -5.95305235974356783)
(-0.000215849662605136882 -8.48828726240316865e-05 -5.79817688006702703)
(-0.000180826639117314173 -6.00727838269779501e-05 -5.66181817702569923)
(-0.000167372238428065021 -3.80346511915654554e-05 -5.76457766966950214)
(0.101830370310828561 0.0248166632014385873 223.714641087236458)
(0.0771129894432043272 -0.0138254716624733216 112.841660001061825)
(0.0186599527817628459 -0.0149136487421164896 29.6557938898882192)
(-0.000238610493413794219 -0.000654369572528879472 -3.66758871831686672)
(-0.0002709304003913021 -6.5692221252882586e-05 -5.75324533239244307)
(-3.97528441603485041e-05 -3.97283147988339676e-06 -4.54775974495892488)
(-7.08308332547253805e-06 -3.8424178910112965e-05 -6.09787880764946699)
(-7.00611390821388372e-05 -3.7270015275634023e-05 -9.29017705044360298)
(-0.000144580253237789979 -3.03790947777942368e-05 -8.50828037116239422)
(-0.00014129623196106148 -2.68198928354292958e-05 -7.65203081117429651)
(-0.000182905988127601198 -7.08838128327554955e-05 -6.67942925501504803)
(-0.000171726580885102256 -7.14865336911996586e-05 -6.1188988019093129)
(-0.000162999558539422167 -4.68849575680558884e-05 -5.80405736791087978)
(-0.000144625040005196183 -2.93225818648298387e-05 -5.61402353612013272)
(-0.000139062819842699525 -3.6657371466798129e-05 -5.32670905501847347)
(-0.000132858117505347514 -3.95846660994682726e-05 -4.93772636834930445)
(0.0865687984050430431 0.0127830472211346146 179.96259126103638)
(0.0506742379575783122 -0.0174390261378981754 54.899677379126274)
(0.00047027618471627775 -0.000743214130318428645 -1.21685182974169814)
(6.46213934454540359e-05 -4.20509905036647915e-05 -6.08637375015523663)
(-7.16311978381588114e-05 -3.1563714561386206e-05 -5.22785297020113582)
(-6.27124688040509639e-05 -7.47772571931032345e-06 -4.70863863127926052)
(-0.000101823813954753686 4.47805220221910751e-06 -5.0584097734593918)
(-0.000161684023847236163 -4.56171360880326772e-06 -5.61956312882710218)
(-0.000199032193588743805 1.14976595847426285e-05 -5.79899483394101178)
(-9.08897585026757922e-05 1.99119346566174618e-05 -5.73993931775796629)
(-0.000151751007601323587 5.37614904594283492e-06 -5.52833450251901137)
(-0.000140609289419933422 -8.67198659183506871e-07 -5.30927115760455681)
(-0.000129297653984236508 -1.95156377742440598e-05 -5.0640335346262928)
(-0.000121670377251220069 -1.10144914693664616e-05 -4.82728176459234781)
(-0.000112154551974768448 -1.39589573842992873e-05 -4.59475200835329467)
(-0.000101439850285135733 -1.12275385723370685e-05 -4.39608771622941497)
(0.619656605036918773 0.00115743825965075316 -0.000362049480494152579)
(1.55013730377595094 -7.14919031927281786e-05 -3.09539173117880253e-05)
(1.55132254352216292 -7.25438758317124202e-06 -7.33406890425423151e-05)
(1.58611783171370413 5.91767374930750649e-06 -7.24655443395559248e-05)
(1.66621939453104506 1.40326054314041025e-05 -7.42872909684211529e-05)
(1.77620594923777042 1.48896009094212985e-05 -6.59052642225412937e-05)
(1.91343704964593053 1.64949023906565782e-05 -6.36750770817701145e-05)
(2.05746716983348543 1.61524347438766309e-05 -6.36750015225774635e-05)
(2.20527384972610285 1.51761397941685083e-05 -6.36051740819361204e-05)
(2.34590128896357042 1.45488439366022494e-05 -6.09928867051760351e-05)
(2.49161828162690169 1.43481315614349052e-05 -6.00741724343813906e-05)
(2.61704219082104572 1.43014094262916801e-05 -5.71902454549008568e-05)
(2.73520175909312924 1.52752785175960596e-05 -5.41125527030373289e-05)
(2.85367592379918467 1.90865024536196347e-05 -5.08378209884520344e-05)
(2.99164474696125238 2.36374313562897351e-05 -4.61727228909547763e-05)
(3.14844374237858826 3.0695805363039743e-05 -3.96254329698267674e-05)
(1.0929459331000515 -5.811552948935075e-07 -1.36918027855915138e-05)
(1.20614238415323505 -8.11703519465441844e-06 -3.80188428349552713e-05)
(1.31314952740985524 1.33464736345998174e-06 -3.10632131744732965e-05)
(1.40904586794386466 5.17383557545578621e-06 -2.76397368393044839e-05)
(1.51833911644652986 6.82851446252059924e-06 -2.81148524809543329e-05)
(1.63873904513812274 8.50292713093403286e-06 -2.92955588191410701e-05)
(1.76127782951132272 9.82635056689996752e-06 -3.09580796032611613e-05)
(1.88775421039273783 1.13330127150036611e-05 -3.23674214203567581e-05)
(2.01558839881095775 1.28072138253499394e-05 -3.31054943140994887e-05)
(2.14415567991249967 1.42186004208001318e-05 -3.30141934810698762e-05)
(2.27484142136929535 1.59123604350868565e-05 -3.24971713171980892e-05)
(2.40622873549229732 1.84065338711664788e-05 -3.13263496139413786e-05)
(2.54215663000103298 2.13838103317786592e-05 -2.94183886238449562e-05)
(2.68488051043349119 2.6654780789480785e-05 -2.7109430672717826e-05)
(2.85562615231162642 3.20084830414509367e-05 -2.44411123449537663e-05)
(3.05685747338718317 3.98272324408179801e-05 -2.11930052654911124e-05)
(0.881384747249306488 -3.88558390963058435e-06 -2.794749164321898e-05)
(1.02884769635974238 5.08779279249712694e-06 -2.54020766771717548e-05)
(1.16692980085738385 6.17838910719916919e-06 -2.50600030165726999e-05)
(1.29324233278652478 6.83982956184549994e-06 -2.5959271534104385e-05)
(1.41562572087445981 8.03647614031880827e-06 -2.64794083553003071e-05)
(1.53848903396250569 9.52197806498579357e-06 -2.66639183116472804e-05)
(1.66211067065585905 1.08969942571893176e-05 -2.64519286689640567e-05)
(1.78717343343193491 1.23069423967094806e-05 -2.59838593098626785e-05)
(1.91369215162923378 1.3909998139497592e-05 -2.52799720651242521e-05)
(2.04191275011135254 1.58722746269566531e-05 -2.44091446634995323e-05)
(2.17281330880372137 1.82295343970735706e-05 -2.33614464664671483e-05)
(2.30715615862050871 2.15251495139046222e-05 -2.20991159967996049e-05)
(2.44934523185375452 2.49240725663085569e-05 -2.06003661698776453e-05)
(2.6000567119349518 3.15066517913503027e-05 -1.89302181170120787e-05)
(2.78151673201667515 3.6637984876017168e-05 -1.69265442464196771e-05)
(2.99580103892358762 4.4916148932448671e-05 -1.5039276034608712e-05)
(0.865795016353411051 -3.12364890269699693e-06 -1.44554749011342744e-05)
(0.9913323382565562 2.90154864803106743e-06 -1.62069378620418529e-05)
(1.11928149932038101 5.50528664039439068e-06 -1.61513937587883671e-05)
(1.24578414010729377 6.83717511317018521e-06 -1.59442828362230618e-05)
(1.37089138413774081 8.03681393594903616e-06 -1.58402437721610577e-05)
(1.49562800562281972 9.40564374663802955e-06 -1.58043050680685747e-05)
(1.62052384158323504 1.09433076420356629e-05 -1.57253155996232337e-05)
(1.74616629930677747 1.26887039451791928e-05 -1.55642529413936252e-05)
(1.8730474623934581 1.46929105828117109e-05 -1.52763441083748452e-05)
(2.00171703413484803 1.70834431997513524e-05 -1.48336160909701275e-05)
(2.1333038643276292 1.98487959437872593e-05 -1.42270298431171839e-05)
(2.2686567208903381 2.36038534531823873e-05 -1.34657156198889481e-05)
(2.41254322344729832 2.72478512113734532e-05 -1.25614556433890474e-05)
(2.56562414672580807 3.42898639776834804e-05 -1.15588117343937236e-05)
(2.7499556151814728 3.94405777407043934e-05 -1.04396875602014456e-05)
(2.96762627004988966 4.75867059539505856e-05 -9.38211310815176717e-06)
(0.841881258215209316 -3.06565088153903668e-06 -1.03562816169617844e-05)
(0.965167534084488854 2.38646347976331318e-06 -1.14490936790394758e-05)
(1.08970747491786879 4.65855271563273727e-06 -1.13665495270052356e-05)
(1.21439373987428478 6.25159817200736763e-06 -1.14819958199142447e-05)
(1.33898067963813672 7.77957119713467362e-06 -1.15567216460111544e-05)
(1.46381657314308211 9.43498341697452354e-06 -1.1509499877502692e-05)
(1.58917236780693694 1.12332296068299689e-05 -1.13478407189263573e-05)
(1.71536679634768352 1.32176929500738957e-05 -1.10954043634699334e-05)
(1.84281071210310432 1.5450378816854224e-05 -1.07669907462525349e-05)
(1.97200249927614935 1.80655031631726404e-05 -1.03636608628536297e-05)
(2.10404977470741406 2.10385933545117823e-05 -9.89189548884049877e-06)
(2.23987289970623271 2.50308051509781896e-05 -9.34745418565638701e-06)
(2.38432130967433897 2.8836226673813525e-05 -8.72904383750652684e-06)
(2.5382283258718199 3.60872637134487242e-05 -8.06301127181821482e-06)
(2.72375774751475008 4.12922627207224324e-05 -7.32868960163109682e-06)
(2.94312070666592129 4.93665185666172199e-05 -6.6404875579217572e-06)
(0.823976160978352579 -2.64472524880060407e-06 -7.13636970108616959e-06)
(0.946910123438820195 2.30479877418858335e-06 -7.71887067948206758e-06)
(1.07086989928885279 4.46469493534172247e-06 -7.50137167302087082e-06)
(1.19524363255021471 6.14467402381978232e-06 -7.44029476377386487e-06)
(1.31985965787490622 7.79518564520018845e-06 -7.40433298182228146e-06)
(1.44490759525973989 9.56540775843826534e-06 -7.3332384624917072e-06)
(1.57053653483234945 1.14846471657636654e-05 -7.21894063572391052e-06)
(1.69696957986001729 1.35969437130571153e-05 -7.06014985000710296e-06)
(1.82459629533258094 1.59624445772869486e-05 -6.85638219350095583e-06)
(1.95393780274249784 1.87176354619588717e-05 -6.60629573638546305e-06)
(2.08611613763086678 2.18204397615065351e-05 -6.3067477765641864e-06)
(2.22208202767727858 2.59378976184036636e-05 -5.96190396765206982e-06)
(2.3666658010909889 2.9849194179706465e-05 -5.58028489282066863e-06)
(2.52093707432644454 3.72065563107495443e-05 -5.17390590013201976e-06)
(2.7071247880057423 4.24612054163474642e-05 -4.7253195439737522e-06)
(2.92756094141174028 5.0431608427536887e-05 -4.31317266550373971e-06)
(0.812358662801124343 -2.42256418467434918e-06 -4.13239466772390131e-06)
(0.935248006129756559 2.29055325375801219e-06 -4.46612969452930987e-06)
(1.05897539341246039 4.39153235050107678e-06 -4.31544222876597325e-06)
(1.1831476032262549 6.1090126831174528e-06 -4.26977138580858616e-06)
(1.30766825443606782 7.82316156861922115e-06 -4.24428184485335431e-06)
(1.43271972994180197 9.67034494463402445e-06 -4.19817441584901917e-06)
(1.55841405547425094 1.16647960267633998e-05 -4.12623322952906157e-06)
(1.68494135292822955 1.38545715338317782e-05 -4.03063373538565673e-06)
(1.81266207293326609 1.63001158718981019e-05 -3.91022604704380642e-06)
(1.94207174922407244 1.91316232649328861e-05 -3.76274960667432054e-06)
(2.07426576346525016 2.23064233175321639e-05 -3.59251006780406604e-06)
(2.21022841442407669 2.64881571614999204e-05 -3.40222971131503157e-06)
(2.35477156909896879 3.04717325604859999e-05 -3.19364658295446934e-06)
(2.50915379181952547 3.78851789162455959e-05 -2.97178855782965137e-06)
(2.69563272216942096 4.31733543919216872e-05 -2.72496929920719133e-06)
(2.91662973702174222 5.1102226041009674e-05 -2.49723824874143572e-06)
(0.806662274169329119 -2.33501059978238665e-06 -1.3588824653107487e-06)
(0.929536700709874375 2.27863101405560363e-06 -1.46456766384365015e-06)
(1.05319735230984968 4.36534551189724842e-06 -1.41322823436876004e-06)
(1.17732114981982505 6.109428612698955e-06 -1.39554917250064972e-06)
(1.30181848681500667 7.85028647335128107e-06 -1.38345149728520689e-06)
(1.42686788588592983 9.72364329648681598e-06 -1.36585641735220382e-06)
(1.55258332901375806 1.17520771717701257e-05 -1.34184048099793832e-06)
(1.67914269734565247 1.3979527867876149e-05 -1.30963392317215823e-06)
(1.80688288687070142 1.6460962099634544e-05 -1.26910834326236076e-06)
(1.93628630464472207 1.93247813238203329e-05 -1.22091621052986354e-06)
(2.06844008491360931 2.25336170316926495e-05 -1.16614316699570399e-06)
(2.20436122638296306 2.67417812316553118e-05 -1.10506685325814827e-06)
(2.348829492366447 3.07607442510049448e-05 -1.03942564269678244e-06)
(2.50323429326667757 3.81939581136362993e-05 -9.7210192775498702e-07)
(2.68975774497958398 4.34940764983023832e-05 -8.9446850308714239e-07)
(2.91093170171122662 5.14119893570068282e-05 -8.2190512747919998e-07)
(0.00122257684101767473 -3.0763140113952625 -0.00242305893858331661)
(0.00204002556483636735 -6.45042438382025018 -0.00293767906294778404)
(0.00213698275323980381 -11.2236178490279439 -0.0026269574792556938)
(0.00294255477296473346 -16.9739647427243874 -0.00336092068526766367)
(0.00350497268274318607 -14.9136569854346774 -0.00175167756689235737)
(0.00300366973925062343 -13.6621036382735781 -0.0014796482487881527)
(0.00246819122930177527 -14.2939453940957026 -0.000720463792392557131)
(0.00521120037593142318 -26.745434756118474 -0.000476819980640957343)
(-0.00013584174260396659 4.75047110077989121 9.95967602860015792e-08)
(-0.000131139609703086744 4.43342852225930439 -5.40475981170046059e-07)
(-0.000127971140613349657 4.36311105979027047 3.2881655766303168e-06)
(-0.000130469508926872 4.44953898348696963 4.67161569505094073e-06)
(-0.000134069080859602495 4.55535106565144954 4.1215449990308461e-06)
(-0.000132155838624318139 4.59163205408579866 2.11644744714242354e-06)
(-0.000132440052385218016 4.60444199416842714 8.84069154761705657e-07)
(-0.000131848114834629221 4.5724059309980305 -4.08586120945611874e-08)
(-6.24166918262463355e-05 4.17448868989238164 1.45933885685668107e-05)
(-5.73387891053343921e-05 4.18869724915174579 -3.58466752374873214e-08)
(-5.6075547624998443e-05 4.19428271933452201 -1.38723129125693531e-06)
(-5.67596358667619915e-05 4.24320809696126933 -6.46349726860214394e-07)
(-5.72695496637430933e-05 4.27882517420273611 -9.30042235676372421e-07)
(-5.80464442723304649e-05 4.29371491307473363 -7.83527262704492016e-07)
(-5.91869964573826839e-05 4.29437635612072377 -8.17653406159959829e-07)
(-5.99761223083678096e-05 4.28378033278242754 -4.71889678957772363e-07)
(-7.02470106848671419e-05 3.95621319981403774 -1.95340059624754522e-06)
(-6.98101883389470288e-05 4.02668486327097774 -2.15933798171958609e-06)
(-6.88812711424584815e-05 4.046056786490416 -2.99709904168609656e-06)
(-6.97089016123866016e-05 4.06654107294726241 -2.03263917400533783e-06)
(-7.01849201367567364e-05 4.0741454195904554 -1.5937600642283394e-06)
(-7.02896270139085987e-05 4.07823783721513866 -9.84887491316350002e-07)
(-7.04071998896687061e-05 4.07722237455412095 -5.54208408257704301e-07)
(-7.03916517154651745e-05 4.07264269165205661 -2.24080057692562196e-07)
)
;
    }
}


// ************************************************************************* //
