/*--------------------------------*- C++ -*----------------------------------*\
| =========                 |                                                 |
| \\      /  F ield         | OpenFOAM: The Open Source CFD Toolbox           |
|  \\    /   O peration     | Version:  2206                                  |
|   \\  /    A nd           | Website:  www.openfoam.com                      |
|    \\/     M anipulation  |                                                 |
\*---------------------------------------------------------------------------*/
FoamFile
{
    version     2.0;
    format      ascii;
    arch        "LSB;label=32;scalar=64";
    class       volVectorField;
    location    "0.209999999999999992";
    object      faceForces;
}
// * * * * * * * * * * * * * * * * * * * * * * * * * * * * * * * * * * * * * //

dimensions      [1 1 -2 0 0 0 0];

internalField   uniform (0 0 0);

boundaryField
{
    inlet
    {
        type            calculated;
        value           uniform (0 0 0);
    }
    outlet
    {
        type            calculated;
        value           uniform (0 0 0);
    }
    top
    {
        type            calculated;
        value           uniform (0 0 0);
    }
    bottom
    {
        type            calculated;
        value           uniform (0 0 0);
    }
    left
    {
        type            calculated;
        value           uniform (0 0 0);
    }
    symmetry
    {
        type            symmetryPlane;
    }
    interface
    {
        type            calculated;
        value           nonuniform List<vector> 
352
(
(0.856263612836678289 -1.18564061912473427e-05 -2.15134500006180967e-05)
(0.831027640739961382 1.2531446796595658e-06 -2.27643665733151029e-05)
(0.799818966527529707 4.27381241429765499e-06 -2.30032140877937031e-05)
(0.766451589259594668 5.83022380951233631e-06 -2.22102478648578898e-05)
(0.730709741020511339 7.48743567607294639e-06 -2.14059523433991441e-05)
(0.690896564675295366 9.4384999294927974e-06 -2.06677159925003592e-05)
(0.646071366526421498 1.15569573704042912e-05 -2.00628206367073397e-05)
(0.593347938405907827 1.3849905606396516e-05 -1.96436180920029996e-05)
(0.530019127029766945 1.73589095115163854e-05 -2.03279233905681949e-05)
(0.453072548236916339 2.27480574591485466e-05 -2.2359186855378193e-05)
(0.365140281779391729 2.52495459173258458e-05 -2.12995871177279129e-05)
(0.283548209105594196 2.04269032077482481e-05 -1.49453654449180606e-05)
(0.216475987515761248 2.4630608099623312e-05 -1.5977793448139805e-05)
(0.158057899286203063 2.72561446217981234e-05 -1.60164316906717048e-05)
(0.107636452204049507 2.85426347937208018e-05 -1.53574064702613991e-05)
(0.0673552221535161505 2.86962832356920457e-05 -1.45795615294278743e-05)
(1.02257737233776291 -4.02533102966452194e-06 -1.27686639279787503e-05)
(0.993541634601251666 2.39327647245686227e-06 -1.53400780411360997e-05)
(0.958590476019049009 4.75814516791221834e-06 -1.54099471286903203e-05)
(0.919492272022759072 6.95003607269710805e-06 -1.52837615553772885e-05)
(0.8766904627610419 8.69675706428166937e-06 -1.42300763072814818e-05)
(0.828258844731295296 1.06657079076032935e-05 -1.34643882432639524e-05)
(0.772740807599710089 1.28496831032952547e-05 -1.30299759049747804e-05)
(0.709350426925556832 1.52650227947527801e-05 -1.2904280604916924e-05)
(0.637673599218100629 1.79914588484012719e-05 -1.29272793700179895e-05)
(0.554607279450362811 2.19988659090727723e-05 -1.35688874596014825e-05)
(0.459786766907344546 2.71281133684198206e-05 -1.44888723053693073e-05)
(0.360902494964776943 2.89087312327876302e-05 -1.35918143212030582e-05)
(0.277066629306028711 2.21162954848143574e-05 -9.27572883198505957e-06)
(0.210995686715517994 2.12716332137774804e-05 -8.30751386652273345e-06)
(0.148526293541028753 2.62397380811704654e-05 -9.68361723207444378e-06)
(0.0915847241341128798 3.72224893034651537e-05 -1.31681469972680346e-05)
(1.10576633383587275 -4.12399246168523896e-06 -1.0049227698366433e-05)
(1.0766224901243433 2.5088061802762636e-06 -1.11821000096516466e-05)
(1.0432014962099565 5.08282589536660971e-06 -1.1505661216167791e-05)
(1.00491616895312763 8.78684539517045343e-06 -1.35077821951807674e-05)
(0.960720414323162131 1.21594663280586655e-05 -1.39721956141766049e-05)
(0.910365329733684892 1.21148515024809261e-05 -1.11229199213165663e-05)
(0.853947684399231743 1.44010539890226928e-05 -1.09292239766204212e-05)
(0.789594981247459859 1.66636464766251142e-05 -1.08323771419201012e-05)
(0.715114223062491949 1.90066531136642866e-05 -1.07146773123567787e-05)
(0.626527765884132726 2.67007781201843428e-05 -1.3012340918011376e-05)
(0.52642129460160636 3.10033004178166281e-05 -1.30709596416155824e-05)
(0.422813592509944269 3.14502716577857766e-05 -1.17799066307590899e-05)
(0.329003148786417621 2.48593762654349067e-05 -8.46596610487781052e-06)
(0.251676711056165792 2.4578683990546274e-05 -7.81122046591214e-06)
(0.181271143949869845 2.26787228245259033e-05 -6.81478027293812114e-06)
(0.115646786865249901 4.15860926391600671e-05 -1.19922640492511324e-05)
(1.1434095231828787 -3.24387217449394265e-06 -5.72127437601837551e-06)
(1.11397066551478008 2.80833658489035022e-06 -7.44919179104794815e-06)
(1.07950281198968634 5.27226502684567884e-06 -7.68789371675640739e-06)
(1.04149729465603769 8.0598894893625301e-06 -7.93208442928485548e-06)
(0.999338651542804657 1.33511521518906517e-05 -9.76481755695849807e-06)
(0.948582348778221007 1.44629670810222843e-05 -8.61315586438289019e-06)
(0.891007017688860259 1.5204956312436643e-05 -7.52932874189551799e-06)
(0.825286830959827133 1.72625797908274244e-05 -7.37284476635063175e-06)
(0.750960028450889161 2.09327773166929687e-05 -7.67544793862032571e-06)
(0.664420682406437035 2.97163986376955443e-05 -9.47689781341781876e-06)
(0.563280617186279753 3.15442585065296401e-05 -8.89026133529721313e-06)
(0.455422980591523696 3.10527278893343644e-05 -7.92688118955060162e-06)
(0.356280611047668061 2.53148505824841549e-05 -5.91239654909121232e-06)
(0.273337502532058574 2.60217398452761419e-05 -5.67135732650327058e-06)
(0.196869728640864577 3.58932918956949827e-05 -7.3614491501645761e-06)
(0.127801974047668326 4.52940744432110868e-05 -8.89892293768581391e-06)
(1.16735057710289158 -3.07945670959745458e-06 -4.60618172251824993e-06)
(1.13809962276909737 2.89054264368247679e-06 -5.27026879278503992e-06)
(1.1041156815721842 5.45651029858274433e-06 -5.4391477779502144e-06)
(1.06606279440368201 8.06983983812805624e-06 -5.53705654262787165e-06)
(1.02386814187403297 1.28375457608513904e-05 -6.51597821740810389e-06)
(0.975704134231978215 1.72567704229023596e-05 -6.94850277313756011e-06)
(0.918671674708044672 1.71609374256955725e-05 -5.79021377009784992e-06)
(0.85353818939209658 1.83807404689416151e-05 -5.2518869957014966e-06)
(0.778510884672324321 2.07202788301791959e-05 -5.14269476586875964e-06)
(0.692473508261872706 2.91981532781177413e-05 -6.3990120308536727e-06)
(0.595482059288372501 3.38311009688430837e-05 -6.77096076429577673e-06)
(0.487757027217683548 3.43457696835850864e-05 -6.36303584442268459e-06)
(0.382130584300566567 2.97302002481211092e-05 -5.11738114461377841e-06)
(0.28871676969719956 2.73233258917118056e-05 -4.34695268411968315e-06)
(0.207457179079406751 2.59147664102290423e-05 -3.82089929620050806e-06)
(0.136243598051863812 4.52700002304418916e-05 -6.36594529128855234e-06)
(1.18137938244781471 -2.75907936703334704e-06 -2.65458158359255012e-06)
(1.15246744905684428 2.92449357204104096e-06 -3.51961382517067439e-06)
(1.11868562218968592 5.52499638423334916e-06 -3.63136581969291643e-06)
(1.08027547690665737 8.2739455341362697e-06 -3.63105771354290034e-06)
(1.03733180600324282 1.30328733063378727e-05 -4.11600706563289938e-06)
(0.989046343390261762 1.76856876868025268e-05 -4.24668881301799977e-06)
(0.93051153097376138 2.05314657322097462e-05 -3.98316307566545813e-06)
(0.862599437515764622 2.02144819251704075e-05 -3.25977016656746389e-06)
(0.790346144046881527 2.09540234741320718e-05 -2.97006509215970357e-06)
(0.708892948323693428 2.49890416193411563e-05 -3.24721910139385693e-06)
(0.611916752314636492 3.36377594860656754e-05 -4.08571121421694878e-06)
(0.503656373810759006 3.54216312770996709e-05 -4.0739678991123081e-06)
(0.395722114210989573 3.35819426174598247e-05 -3.68212219637920386e-06)
(0.298476007537944621 2.69989112883943288e-05 -2.77806516639978746e-06)
(0.212494456674621107 3.20561622673130162e-05 -3.07492647180122157e-06)
(0.138072579771530451 4.11963661513264521e-05 -3.73681236715283611e-06)
(1.19049761665869247 -2.82760628377376064e-06 -1.53015003772252472e-06)
(1.16129429208006796 2.94931570311551218e-06 -2.00712282679193581e-06)
(1.12760099098419708 5.55840456394696901e-06 -2.03436290316975828e-06)
(1.0892355813464254 8.95938628330459859e-06 -2.10581023366404713e-06)
(1.04514582791472677 1.43885284730784139e-05 -2.43956897038312549e-06)
(0.994049638194494323 1.82448922424643977e-05 -2.2671714305693425e-06)
(0.933133491839757578 1.94652767895715221e-05 -1.89121716590989349e-06)
(0.866533624521516943 1.87573271045349191e-05 -1.48980311981767912e-06)
(0.797852643085509738 2.08485600673357239e-05 -1.44639866888552791e-06)
(0.719320609010929535 2.38771063420876679e-05 -1.54809970953881794e-06)
(0.623813176789865365 3.37717994650216417e-05 -2.18999138304554832e-06)
(0.517289404237419315 3.6843112481345716e-05 -2.49314357518111014e-06)
(0.409376441996987528 3.44289214891142447e-05 -2.38647419426328508e-06)
(0.30777136831728874 2.94106658715007513e-05 -1.99000866033557124e-06)
(0.218686531070473117 2.93562186645424918e-05 -1.85766811700621837e-06)
(0.143985852663011255 3.89347456274174243e-05 -2.3241429228830784e-06)
(1.19427589236072262 -2.55289470473398709e-06 -4.93752431702950381e-07)
(1.16497792281291623 2.99380551793673885e-06 -6.43402015512266106e-07)
(1.13152022609994707 5.57973705607080335e-06 -6.47590398874530024e-07)
(1.0929980576685514 9.19130924521412481e-06 -6.76889506167974551e-07)
(1.04857900974449514 1.46376616103542765e-05 -7.76889434423947007e-07)
(0.995725900170258638 1.8406975346252256e-05 -7.26481108462047288e-07)
(0.934187188662879864 1.66069246535126452e-05 -5.14605263726737906e-07)
(0.867354586081487633 1.83916833644016434e-05 -4.6345099522548297e-07)
(0.79793042235751499 2.09270406025863071e-05 -4.33734366558625391e-07)
(0.72158829053805118 2.34650654707339942e-05 -4.47317906448429975e-07)
(0.63300638270201659 2.98514273038670939e-05 -6.15354987287765202e-07)
(0.534513445521605401 3.7687054835291432e-05 -9.12030650424996264e-07)
(0.426390796333010968 3.68082484520365158e-05 -9.78958425021195229e-07)
(0.317261078857767942 3.41795790065257076e-05 -9.24283824627216532e-07)
(0.222627196178205478 2.78413958735839442e-05 -6.95607613796003067e-07)
(0.150932148004559508 2.47643333115889569e-05 -5.83217429694342654e-07)
(4.39114989786738773e-05 1.70816199428768034e-05 -0.200533848190690339)
(4.8068595682547059e-05 1.15891171767889783e-06 -0.221700617096791841)
(4.48973016373823425e-05 1.05575936737006396e-07 -0.210722344337111539)
(4.45168288006023724e-05 8.80572635918786835e-07 -0.188450924603211473)
(4.23187235209855457e-05 1.8781864962841622e-06 -0.16510220674465137)
(3.87752518920467858e-05 2.3691321690446052e-06 -0.134003261711856586)
(3.33644520985999045e-05 2.42257686080149711e-06 -0.0774676689910056698)
(1.95836364415991415e-05 2.81242951232248267e-06 -0.00790853016316216996)
(1.42747170068582722e-05 5.64349712747291427e-06 -0.00233275620792233089)
(1.1061240496951697e-05 6.90610511640143196e-06 -0.00204547184837573347)
(1.2857025481362865e-05 1.17629514807575253e-05 -0.0013937294760507017)
(8.25293201325375602e-06 9.622594317315156e-06 -0.00196484074352147554)
(2.32478130386481662e-06 3.69769333899412779e-06 -0.00240749669296895594)
(2.22658321935008486e-06 4.0301748147172805e-06 -0.00209074367374396768)
(1.82358525138017842e-06 4.17959823805796282e-06 -0.00192920761642244678)
(5.98104254402934964e-07 1.54048042533224565e-06 -0.00264857588702095042)
(3.77126764964753346e-05 1.48318161944857269e-05 -0.0827250541727194144)
(3.72031638485985711e-05 -2.13451963856648032e-06 -0.0910876323967128865)
(2.63084797500838226e-05 -5.74925719603850136e-06 -0.075474271773323845)
(1.66990080124597927e-05 -4.01719777521062525e-06 -0.0544921329083725356)
(1.20160252091588891e-05 -1.75718489635626453e-06 -0.0385898483811210821)
(7.57383702772898787e-06 -9.7286952546435037e-07 -0.0252097947024707107)
(2.8472046916298861e-06 -1.26959703221334422e-06 -0.002426421925565048)
(-6.5287393199686102e-08 -4.73960646607936065e-08 -0.00297145463134846017)
(-5.75097504331057566e-08 -2.66125545430012853e-08 -0.00240916922746724259)
(-5.33721867158128359e-08 -2.46957550080198399e-08 -0.00209577553810963825)
(-6.05172365220442933e-08 -3.30854684028046835e-08 -0.00190850528676362154)
(-6.71448931046405898e-08 -2.90418820523665762e-08 -0.00187075447657721787)
(-6.44266505592223082e-08 -2.94409415333294477e-08 -0.0018603288624198602)
(-6.7453019564105101e-08 -2.65258976950098353e-08 -0.00181193027502094114)
(-5.65083247241604714e-08 -1.87727449459305421e-08 -0.00176931818032052455)
(-5.23038245087702933e-08 -1.18858284973641985e-08 -0.00180143052177171841)
(3.18219907221339553e-05 7.75520725044956584e-06 0.069910825339761451)
(2.40978092010013719e-05 -4.3204598945229166e-06 0.0352630187503318523)
(5.83123524430089629e-06 -4.6605152319114087e-06 0.00926743559059007953)
(-7.45657791918107563e-08 -2.0449049141527501e-07 -0.00114612147447402187)
(-8.46657501222819693e-08 -2.05288191415258216e-08 -0.00179788916637263984)
(-1.24227638001089287e-08 -1.24150983746356366e-09 -0.00142117492029966664)
(-2.21346353921016946e-09 -1.20075559094103075e-08 -0.00190558712739045933)
(-2.18941059631684016e-08 -1.1646879773635641e-08 -0.00290318032826362808)
(-4.5181329136809448e-08 -9.49346711806071547e-09 -0.00265883761598825286)
(-4.41550724878316891e-08 -8.38121651107165064e-09 -0.00239125962849196655)
(-5.71581212898754171e-08 -2.21511915102361061e-08 -0.00208732164219220398)
(-5.36645565265946081e-08 -2.23395417784999576e-08 -0.00191215587559666572)
(-5.09373620435694667e-08 -1.46515492400174757e-08 -0.00181376792747215115)
(-4.5195325001623838e-08 -9.16330683275933102e-09 -0.00175438235503754263)
(-4.3457131200843584e-08 -1.14554285833744108e-08 -0.00166459657969327229)
(-4.15181617204211721e-08 -1.23702081560838574e-08 -0.00154303949010916024)
(2.70527495015759808e-05 3.99470225660457123e-06 0.0562383097690739298)
(1.58356993617432743e-05 -5.44969566809319782e-06 0.0171561491809770171)
(1.46961307723836945e-07 -2.32254415724509214e-07 -0.000380266196794281047)
(2.0194185451704365e-08 -1.3140934532395234e-08 -0.00190199179692350962)
(-2.23847493244246279e-08 -9.86366080043319044e-09 -0.00163370405318785487)
(-1.95976465012659596e-08 -2.3367892872844803e-09 -0.00147144957227477152)
(-3.18199418608605425e-08 1.3993913131934719e-09 -0.00158075305420606093)
(-5.05262574522612757e-08 -1.42553550275102057e-09 -0.00175611347775846854)
(-6.21975604964823443e-08 3.59301862023206606e-09 -0.00181218588560656335)
(-2.8403049532086171e-08 6.22247958019295352e-09 -0.00179373103679936348)
(-4.74221898754137028e-08 1.68004657685713892e-09 -0.00172760453203719402)
(-4.39404029437292731e-08 -2.70999580994846385e-10 -0.00165914723675142698)
(-4.04055168700738474e-08 -6.0986368044512588e-09 -0.00158251047957071395)
(-3.80219928910062975e-08 -3.44202858417702163e-09 -0.00150852555143510974)
(-3.50482974921152063e-08 -4.36217418259353553e-09 -0.00143586000261040729)
(-3.16999532141050086e-08 -3.50860580385534434e-09 -0.00137377741132169639)
(0.000193642689074037034 3.61699456140860204e-07 -1.13140462654422619e-07)
(0.000484417907429984622 -2.23412197477275506e-08 -9.6730991599337569e-09)
(0.000484788294850675824 -2.26699611974101287e-09 -2.29189653257944715e-08)
(0.000495661822410532575 1.84927304665859575e-09 -2.26454826061112272e-08)
(0.000520693560790951677 4.38518919731378306e-09 -2.32147784276316162e-08)
(0.00055506435913680425 4.65300028419416384e-09 -2.05953950695441912e-08)
(0.000597949078014353729 5.15465699708018431e-09 -1.98984615880531748e-08)
(0.000642958490572964527 5.04763585746145003e-09 -1.98984379758054679e-08)
(0.000689148078039405663 4.74254368567764892e-09 -1.98766169006049952e-08)
(0.000733094152801115834 4.54651373018820356e-09 -1.90602770953675145e-08)
(0.000778630713008408165 4.48379111294841588e-09 -1.87731788857442183e-08)
(0.000817825684631578206 4.46919044571615785e-09 -1.78719517046565494e-08)
(0.000854750549716601598 4.77352453674876105e-09 -1.69101727196991385e-08)
(0.000891773726187245646 5.96453201675613862e-09 -1.58868190588912697e-08)
(0.000934888983425390856 7.38669729884053815e-09 -1.442897590342336e-08)
(0.000983888669493311087 9.59243917594994224e-09 -1.23829478030708938e-08)
(0.000341545604093766123 -1.81611029654221101e-10 -4.27868837049734836e-09)
(0.000376919495047885959 -2.53657349832950579e-09 -1.18808883859235216e-08)
(0.000410359227315579723 4.17077301081244215e-10 -9.70725411702290264e-09)
(0.000440326833732457745 1.61682361732993316e-09 -8.6374177622826509e-09)
(0.000474480973889540082 2.13391076953768508e-09 -8.7858914002982203e-09)
(0.000512105951605663738 2.65716472841688729e-09 -9.15486213098159056e-09)
(0.000550399321722288052 3.07073455215623818e-09 -9.67439987601910882e-09)
(0.000589923190747730988 3.54156647343864646e-09 -1.01148191938614945e-08)
(0.000629871374628423607 4.0022543204218519e-09 -1.03454669731560793e-08)
(0.000670048649972656337 4.44331263150004196e-09 -1.03169354628343383e-08)
(0.000710887944177905347 4.97261263596464573e-09 -1.01553660366244107e-08)
(0.000751946479841343498 5.75204183473952861e-09 -9.78948425435668801e-09)
(0.000794423946875321579 6.68244072868082071e-09 -9.19324644495153472e-09)
(0.000839025159510466546 8.32961899671275128e-09 -8.47169708522432658e-09)
(0.000892383172597381873 1.00026509504534032e-08 -7.63784760779803978e-09)
(0.000955267960433497476 1.24460101377556542e-08 -6.62281414546599092e-09)
(0.000275432733515408557 -1.2142449717595589e-09 -8.73359113850594011e-09)
(0.000321514905112419813 1.58993524765535379e-09 -7.93814896161618172e-09)
(0.000364665562767932752 1.93074659599974208e-09 -7.83125094267897565e-09)
(0.00040413822899578952 2.13744673807672138e-09 -8.11227235440763031e-09)
(0.000442383037773268748 2.51139879384962787e-09 -8.27481511103134709e-09)
(0.000480777823113283853 2.97561814530806565e-09 -8.33247447238979027e-09)
(0.000519409584579956355 3.40531070537166408e-09 -8.26622770905127413e-09)
(0.00055849169794748067 3.84591949897171951e-09 -8.11995603433210167e-09)
(0.000598028797384134972 4.34687441859299323e-09 -7.89999127035132077e-09)
(0.000638097734409798396 4.96008582092396072e-09 -7.62785770734361337e-09)
(0.000679004159001164102 5.69672949908550084e-09 -7.3004520207709967e-09)
(0.000720986299568910217 6.72660922309520608e-09 -6.90597374899988885e-09)
(0.000765420384954297118 7.78877267697141232e-09 -6.43761442808675456e-09)
(0.000812517722479674733 9.845828684796997e-09 -5.91569316156629077e-09)
(0.000869223978755210582 1.14493702737553585e-08 -5.28954507700614613e-09)
(0.000936187824663624823 1.40362965413902659e-08 -4.6997737608152415e-09)
(0.000270560942610440966 -9.76140282092811523e-10 -4.51733590660446103e-09)
(0.000309791355705173828 9.06733952509708525e-10 -5.06466808188807922e-09)
(0.000349775468537618999 1.72040207512324682e-09 -5.04731054962136406e-09)
(0.000389307543783529359 2.13661722286568331e-09 -4.98258838631970752e-09)
(0.000428403557543043361 2.51150435498407008e-09 -4.95007617880032287e-09)
(0.000467383751757131244 2.9392636708243848e-09 -4.93884533377143016e-09)
(0.00050641370049476055 3.41978363813614167e-09 -4.91416112488225649e-09)
(0.000545676968533368345 3.96521998286850065e-09 -4.86382904418551157e-09)
(0.00058532733199795448 4.59153455712865034e-09 -4.7738575338671296e-09)
(0.000625536573167139722 5.33857599992229502e-09 -4.63550502842816228e-09)
(0.000666657457602384232 6.2027487324335197e-09 -4.44594682597412073e-09)
(0.000708955225278230794 7.37620420411949751e-09 -4.20803613121529686e-09)
(0.000753919757327278718 8.51495350355418057e-09 -3.92545488855906625e-09)
(0.000801757545851816602 1.07155824930261088e-08 -3.61212866699804543e-09)
(0.000859361129744208542 1.23251805439700982e-08 -3.26240236256294509e-09)
(0.000927383209390592587 1.48708456106095923e-08 -2.93191034629743387e-09)
(0.000263087893192252864 -9.58015900480948763e-10 -3.23633800530055703e-09)
(0.00030161485440140278 7.45769837426035319e-10 -3.57784177469983629e-09)
(0.000340533585911833821 1.45579772363522972e-09 -3.55204672718913447e-09)
(0.000379498043710714225 1.95362442875230331e-09 -3.58812369372320354e-09)
(0.000418431462386917525 2.43111599910458417e-09 -3.61147551437848378e-09)
(0.000457442679107213513 2.94843231780454056e-09 -3.59671871171959373e-09)
(0.000496616364939668074 3.51038425213436725e-09 -3.5462002246644886e-09)
(0.000536052123858651386 4.13052904689809453e-09 -3.46731386358435632e-09)
(0.000575878347532219194 4.82824338026693742e-09 -3.3646846082039122e-09)
(0.000616250781023796788 5.64546973849145131e-09 -3.23864401964176009e-09)
(0.000657515554596067755 6.57456042328493966e-09 -3.09121734026265977e-09)
(0.000699960281158197866 7.8221266096806861e-09 -2.92107943301762162e-09)
(0.000745100409273230491 9.01132083556672166e-09 -2.72782619922078853e-09)
(0.000793196351834944235 1.12772699104527347e-08 -2.51969102244319375e-09)
(0.000851174296098358512 1.29038321002257462e-08 -2.29021550050971551e-09)
(0.000919725220833103683 1.54270370520679342e-08 -2.07515236185055645e-09)
(0.000257492550305735395 -8.26476640250189511e-10 -2.23011553158942991e-09)
(0.000295909413574631588 7.20249616933932981e-10 -2.41214708733814835e-09)
(0.000334646843527766646 1.39521716729428878e-09 -2.34417864781902297e-09)
(0.000373513635171942508 1.92021063244368389e-09 -2.32509211367933532e-09)
(0.000412456143085908041 2.43599551412505823e-09 -2.31385405681946213e-09)
(0.000451533623518669206 2.98918992451196103e-09 -2.29163701952866103e-09)
(0.00049079266713510962 3.58895223930114876e-09 -2.25591894866372392e-09)
(0.000530302993706256243 4.24904491033035505e-09 -2.20629682812722325e-09)
(0.00057018634229143118 4.98826393040216842e-09 -2.14261943546904724e-09)
(0.000610605563357030905 5.84926108186215062e-09 -2.06446741762045831e-09)
(0.000651911293009646954 6.81888742547080289e-09 -1.97085868017631134e-09)
(0.000694400633649149826 8.1055930057511478e-09 -1.86309498989127261e-09)
(0.000739583062840934316 9.32787318115827337e-09 -1.74383902900645958e-09)
(0.000787792835727015202 1.16270488471092506e-08 -1.61684559379125873e-09)
(0.000845976496251793692 1.32691266926085724e-08 -1.47666235749179618e-09)
(0.000914862794191172255 1.57598776336053349e-08 -1.34786645796992359e-09)
(0.000253862082125351377 -7.57051307710734156e-10 -1.29137333366371922e-09)
(0.000292265001915548931 7.15797891799378765e-10 -1.39566552954040929e-09)
(0.000330929810441393834 1.37235385953158639e-09 -1.34857569648936647e-09)
(0.00036973362600820482 1.90906646347420474e-09 -1.33430355806518357e-09)
(0.000408646329511270893 2.44473799019350517e-09 -1.32633807651667225e-09)
(0.000447724915606813496 3.02198279519813549e-09 -1.31192950495281969e-09)
(0.000487004392335703233 3.64524875836356115e-09 -1.28944788422783136e-09)
(0.000526544172790072173 4.32955360432243448e-09 -1.25957304230801891e-09)
(0.000566456897791644967 5.09378620996815056e-09 -1.22194563970118795e-09)
(0.000606897421632522421 5.97863227029152496e-09 -1.17585925208572483e-09)
(0.000648208051082891225 6.9707572867288073e-09 -1.12265939618877168e-09)
(0.000690696379507524556 8.2775491129687328e-09 -1.06319678478594826e-09)
(0.000735866115343426709 9.52241642515186207e-09 -9.98014557173270312e-10)
(0.000784110559943602416 1.18391184113267602e-08 -9.28683924321766856e-10)
(0.000842385225677942879 1.34916732474755095e-08 -8.51552906002246189e-10)
(0.000911446792819297193 1.59694456378155696e-08 -7.80386952731700994e-10)
(0.000252081960677915393 -7.29690812431995973e-10 -4.24650770409609028e-10)
(0.000290480218971835751 7.12072191892376178e-10 -4.57677394951140656e-10)
(0.000329124172596828026 1.36417047246789013e-09 -4.41633823240237491e-10)
(0.000367912859318695435 1.9091964414684241e-09 -4.36109116406453173e-10)
(0.000406818277129689294 2.45321452292227351e-09 -4.32328592901626877e-10)
(0.000445896214339353437 3.03863853015213261e-09 -4.26830130422564051e-10)
(0.00048518229031679921 3.67252411617816315e-09 -4.19325150311855614e-10)
(0.000524732092920516852 4.36860245871130036e-09 -4.09260600991299839e-10)
(0.000564650902147093448 5.14405065613578759e-09 -3.96596357269487213e-10)
(0.000605089470201475473 6.03899416369385192e-09 -3.81536315790582246e-10)
(0.000646387526535503461 7.04175532240395946e-09 -3.644197396861578e-10)
(0.000688862883244676554 8.35680663489229262e-09 -3.45333391643171633e-10)
(0.000734009216364513747 9.61273257843903167e-09 -3.24820513342744046e-10)
(0.000782260716645837408 1.19356119105113535e-08 -3.03781852423433723e-10)
(0.000840549295306118865 1.35918989057194769e-08 -2.79521407214731614e-10)
(0.000909666156784760035 1.60662466740646657e-08 -2.56845352337250482e-10)
(7.64110525636047605e-07 -0.00192269625712204132 -1.51441183661457472e-06)
(1.27501597802273057e-06 -0.00403151523988765949 -1.83604941434236624e-06)
(1.33561422077488129e-06 -0.00701476115564248544 -1.64184842453481343e-06)
(1.83909673310296067e-06 -0.0106087279642027542 -2.10057542829229251e-06)
(2.19060792671449388e-06 -0.00932103561589668443 -1.09479847930772471e-06)
(1.87729358703164191e-06 -0.00853881477392099721 -9.24780155492596596e-07)
(1.54261951831361281e-06 -0.00893371587130983337 -4.50289870245349177e-07)
(3.2570002349571465e-06 -0.0167158967225740814 -2.98012487900598968e-07)
(-8.49010891274789803e-08 0.00296904443798742769 6.22479751787508924e-11)
(-8.19622560644290898e-08 0.00277089282641206124 -3.37797488231278261e-10)
(-7.99819628833434917e-08 0.0027269444123689179 2.05510348539394702e-09)
(-8.15434430792948669e-08 0.00278096186467935175 2.91975980940683337e-09)
(-8.37931755372514264e-08 0.00284709441603215154 2.57596562439427508e-09)
(-8.25973991401987492e-08 0.00286977003380362115 1.3227796544640133e-09)
(-8.27750327407611583e-08 0.00287777624635526374 5.52543221726065386e-10)
(-8.24050717716431456e-08 0.00285775370687376502 -2.55366325591007084e-11)
(-3.90104323914039875e-08 0.00260905543118274044 9.12086785535426348e-09)
(-3.58367431908340144e-08 0.00261793578071984256 -2.24041720234295897e-11)
(-3.50472172656240885e-08 0.00262142669958408082 -8.67019557035586077e-10)
(-3.54747724167262656e-08 0.00265200506060079503 -4.03968579287634211e-10)
(-3.57934685398394539e-08 0.00267426573387671146 -5.81276397297733053e-10)
(-3.62790276702065962e-08 0.00268357182067171292 -4.89704539190308296e-10)
(-3.69918727858642084e-08 0.00268398522257545487 -5.11033378849975348e-10)
(-3.74850764427299128e-08 0.00267736270798901938 -2.94931049348607993e-10)
(-4.3904381678042019e-08 0.00247263324988377655 -1.22087537265471714e-09)
(-4.36313677118419195e-08 0.0025166780395443622 -1.34958623857474205e-09)
(-4.3050794464036624e-08 0.00252878549155651422 -1.87318690105381369e-09)
(-4.35680635077416252e-08 0.0025415881705920392 -1.2703994837533362e-09)
(-4.38655750854730134e-08 0.00254634088724403759 -9.96100040142713342e-10)
(-4.39310168836929467e-08 0.0025488986482594656 -6.15554682072719682e-10)
(-4.40044999310429704e-08 0.00254826398409632726 -3.46380255161065451e-10)
(-4.39947823221657732e-08 0.00254540168228253785 -1.40050036057851505e-10)
)
;
    }
}


// ************************************************************************* //
