/*--------------------------------*- C++ -*----------------------------------*\
| =========                 |                                                 |
| \\      /  F ield         | OpenFOAM: The Open Source CFD Toolbox           |
|  \\    /   O peration     | Version:  2206                                  |
|   \\  /    A nd           | Website:  www.openfoam.com                      |
|    \\/     M anipulation  |                                                 |
\*---------------------------------------------------------------------------*/
FoamFile
{
    version     2.0;
    format      ascii;
    arch        "LSB;label=32;scalar=64";
    class       volScalarField;
    location    "0.209999999999999992";
    object      p;
}
// * * * * * * * * * * * * * * * * * * * * * * * * * * * * * * * * * * * * * //

dimensions      [1 -1 -2 0 0 0 0];

internalField   nonuniform List<scalar> 
29184
(
2992.14559256889879
2991.34996661402283
2986.01725789309421
2977.80625172680311
2967.66833701790711
2954.70417046298508
2938.97632375238936
2920.89274606230811
2901.16628142961417
2880.59750600882262
2862.93234209098227
2848.83516457625365
2845.83312684109615
2847.78583580702571
2880.44132012352793
2739.99783519166476
2868.62870329077032
2867.46008096156629
2862.19121898908497
2853.97519007223991
2843.56964729880519
2830.43409121374862
2814.46641202151386
2795.99453715160462
2775.63494854976761
2754.37498135322812
2735.26603754029929
2720.37052479262275
2715.98023924093104
2720.00122008724384
2750.94337063963712
2659.23232810707077
2744.04185189965619
2742.32372360103636
2737.04385371545595
2728.77738436817299
2718.05144540267293
2704.54084528944531
2688.04104629514904
2668.7768511395584
2647.27934214503011
2624.5425938704293
2603.28393280283126
2586.48732983945774
2580.52915490132045
2586.98445714700574
2624.56188194488004
2559.36487751549657
2618.31022403486077
2616.12045817166518
2610.73779936695882
2602.32817386846455
2591.17915729490051
2577.07696752919355
2559.76603293309699
2539.34182903033343
2516.18950292550198
2491.23737720730105
2466.87087578514638
2446.88253591308239
2438.27408466087718
2445.66372573136414
2493.32770617928054
2452.59102256830874
2491.4873249716793
2488.92925294720862
2483.33095222578731
2474.65427504019362
2462.96956358161287
2448.08663330060881
2429.69677179055861
2407.74168681373158
2382.40921054097407
2354.46085861110851
2325.90257582717595
2301.30170220878335
2288.08396148484508
2294.56274407790897
2351.41773620713184
2338.21795316712405
2363.64330202254496
2360.77803519428653
2354.88422943984551
2345.82554273434471
2333.48729195519127
2317.64586871867868
2297.91984443313186
2274.07056903884313
2246.0330173822731
2214.28273190393611
2180.35448993780255
2149.39430109217619
2128.9053128586711
2131.55425420410211
2196.57992483035105
2210.81652473303075
2234.85466262778573
2231.72072640733586
2225.46925834311241
2215.92169444444153
2202.80957934341677
2185.8429119886564
2164.54089728613326
2138.44671260813539
2107.18748762781479
2070.80488230012315
2030.21078001246656
1990.80056133083917
1959.48899860178221
1953.68402232822655
2024.62264164288445
2067.37746368364515
2105.20689213537707
2101.82807211941326
2095.16384217531777
2085.03394205335235
2071.0321415092244
2052.78695650039481
2029.69161356701306
2001.02359198333625
1966.05040671465304
1924.2110843103942
1875.5529912053953
1825.22348312516874
1778.15025576270591
1757.46466815940721
1831.1783427426567
1898.66343915477751
1974.79432903006023
1971.19170147556019
1964.05893651516817
1953.26782591486176
1938.26812645309656
1918.61100621927562
1893.53468345884471
1861.99654689856584
1822.86853067931429
1774.79566483193389
1716.65407590737323
1652.57812304127901
1582.4594684597846
1537.78455200375515
1607.07938875348373
1696.00988275114582
1843.71027981598331
1839.91430534568826
1832.2567960683059
1820.7441527272872
1804.6470732179921
1783.47498075481235
1756.26490238635506
1721.59866041627515
1677.94922283926053
1622.96216581638146
1554.05553746723353
1472.93488813767317
1369.67927270006862
1292.22851068879754
1341.50612851331312
1449.77518655487256
1712.04822330704974
1708.09273299647543
1699.85230588534728
1687.58374314036632
1670.30005622351223
1647.54989314910131
1618.08893408621748
1580.09185185342176
1531.67888143828668
1469.24310665527878
1388.66601053082081
1286.69983456685122
1138.23151926479113
1023.4522173615876
1044.72679247111228
1168.39539636711356
1579.96735900269096
1575.86665018230588
1566.94772464843186
1553.91906991546671
1535.37890087369328
1511.03830051375894
1479.26203710863751
1437.86293847258253
1384.68027337664898
1314.57096293611062
1222.23202731591914
1095.39646805836628
894.591336613977774
750.462487756729843
759.406383853157649
907.318289587560912
1447.780676957781
1443.56419907944814
1433.76329906814021
1419.9994600777527
1400.16260067744452
1374.31509628716617
1340.25268215896131
1295.59054158918502
1237.87421813475771
1160.56658090626456
1058.00025335493297
902.730990116398516
653.154155667741861
511.577287016227842
536.166120964734318
692.684888415340424
1315.74483535021727
1311.57879028622892
1300.59356404120012
1286.17274811243396
1265.01731296224443
1237.93421757492911
1201.65422983377357
1153.94023428739683
1091.86115355070183
1008.92772367606176
899.400476145289076
714.015063912110691
441.006095437875274
329.495850869597689
369.664416061492659
505.746760875322934
1183.32826685554119
1179.58476417191127
1167.32315522806721
1152.43367965569723
1129.94393078356143
1102.0366382114496
1063.41852465258989
1012.7378874927299
946.411858748012719
860.437959067231304
746.144225030038342
531.767741400648219
276.402557916795331
206.496196895102798
241.334725965535995
344.401206202272078
1049.3293441266494
1046.43358793428138
1033.56412437900713
1018.361203287541
994.645454395768638
966.020506188475792
924.931015628218347
871.700194985203098
802.462443499741084
716.165468863029446
595.628613527852167
360.16804941391797
163.396565812891936
127.099422548914532
153.03681900579079
215.506639567947104
2995.34892617010519
2994.84270910181431
2990.21315961421624
2983.17478972072013
2974.80287050740571
2964.48076499797844
2952.64721621468561
2940.29396183849985
2928.96584181560456
2920.98076831732351
2921.76178844332435
2936.00164422539456
2974.42239775854387
3047.61949379732278
3158.10050077885035
3272.19147308305764
2871.82439697859854
2870.95142958561655
2866.37768590325913
2859.32361728532396
2850.67950086073688
2840.16969010082721
2828.07180158160645
2815.29156366135066
2803.30035097973632
2794.5062224190001
2793.84627692135837
2807.13788005694596
2844.63668971982815
2918.29771196862157
3033.0867463325626
3179.27065944458536
2747.2250773081073
2745.81004842979883
2741.2159049747147
2734.09573843592989
2725.11517334609607
2714.20274944531229
2701.53254573439472
2687.90521521691971
2674.71009778798862
2664.33964632983407
2661.4706189051517
2672.80095806181589
2708.81252184365576
2784.40747165290259
2905.45125608906892
3067.42619029471507
2621.47904798592162
2619.59593740336277
2614.88706630296701
2607.60273119390467
2598.17284145363192
2586.62992744824624
2573.09113721462518
2558.22421884572805
2543.27603388805346
2530.56386117423972
2524.46868868934689
2532.50609694362174
2565.78858353987016
2642.19651379689458
2771.03905185905569
2942.311753763669
2494.64050678693911
2492.38731693892123
2487.44814086492261
2479.87139101997946
2469.87032812857524
2457.49584970023398
2442.8023240761886
2426.30031493178967
2409.04079336061386
2393.1707994176495
2382.69955431884819
2385.95237950292403
2414.45886360649729
2489.21914619258314
2624.53084272369688
2805.34891976464587
2366.78000285593407
2364.21234542885122
2358.95966845522253
2350.97099210465876
2340.27203949799832
2326.87607379480187
2310.75086958557904
2292.22521811285333
2272.09385985944346
2252.21650486131011
2236.10303638525693
2232.75003020825761
2253.65370834787245
2324.09917420751117
2462.87374256228759
2650.37059620594346
2237.97532156283251
2235.12439711170282
2229.49345331081622
2220.98112817362698
2209.45561301056568
2194.85895797098601
2177.04101401187563
2156.11540826562168
2132.55852418509039
2107.79617570816799
2084.62972969283192
2072.44793811322188
2081.93338657816184
2143.88340636681232
2282.48924767986819
2472.71532924932671
2108.31446863860765
2105.19273429809982
2099.12875218970157
2089.99302034286302
2077.51761406649393
2061.55359790181228
2041.80273688713328
2018.12223097317428
1990.61635226497947
1960.09016928914025
1928.31463338017829
1904.60124649765567
1897.59751088197709
1944.35356109192799
2078.92354330787794
2269.86772944032964
1977.89586344156533
1974.50567767430402
1967.9602099478127
1958.11151385126641
1944.57288250750275
1927.09156183046093
1905.19534912735094
1878.44052676400975
1846.52802387475708
1809.38344812512628
1767.35791620506302
1729.03426825524025
1698.24428050169308
1720.04852858699383
1845.85899140557831
2040.50277194267665
1846.81841426447545
1843.16021376425215
1836.09813667863568
1825.45618869570262
1810.75585646132208
1791.62964206648871
1767.40945956664336
1737.30898437171322
1700.61844058077395
1656.05228544234524
1602.26495690442175
1545.79232190268704
1480.70722065078076
1466.12066144157166
1571.75804748821429
1774.68796333188357
1715.18242778978833
1711.24594905709387
1703.65022542876568
1692.14562753977202
1676.20683939493597
1655.33580143834638
1628.65118852277692
1595.00113729165628
1553.27903529013906
1500.5926920241518
1433.90308653074999
1355.14262577616341
1244.25107171015156
1184.75180349864263
1258.41827748792753
1471.25929608194178
1583.15555007335456
1578.89228736652149
1570.73180219241408
1558.30130510921845
1541.08420409618952
1518.40407093567478
1489.1736480728382
1451.91249681217414
1405.13166751090671
1343.91664148405448
1263.86584721703912
1158.58046715147816
994.95707905767631
889.962145545703606
927.27920893798273
1154.8344579008276
1451.06893169769751
1446.40873029463819
1437.58239845806997
1424.14392892330306
1405.67234060849432
1381.16587631429934
1349.42471634582375
1308.72792745266975
1257.15219181389602
1187.68581700840446
1095.38402994971511
960.164988410490423
744.374843502719159
624.890281767433066
659.984503673194467
886.579815691272643
1319.21904923090415
1314.17744167415253
1304.55399721147614
1289.98829945924922
1270.38062568542159
1244.06939593488846
1210.00165950198834
1166.15071721385925
1110.07334394494978
1033.61923360273067
932.190548471929787
765.541688512240626
514.629045002062185
409.961383194863402
463.107184308367607
675.158728044137092
1187.09896810292435
1181.93777634759545
1171.5801640124821
1155.83227160259321
1135.29020101603055
1107.18825624832198
1071.03098192873381
1024.07540724413502
963.627479745774963
882.068718311699058
774.151629181968929
576.838766711116932
325.98524425963592
259.426583010289789
306.780101872861621
475.254333869242828
1053.33116665138482
1048.69586231049834
1038.05154531003268
1021.36950356415741
1000.00159061404042
970.194806888707717
932.115259177539201
882.139946349464708
818.274985435956523
733.664364916654904
618.595332875646818
398.350162843175667
197.505836849029492
162.656205075920496
196.031252325139661
293.034339601641477
2998.39240315434017
2998.16728715141653
2994.19980621412424
2988.25935092622967
2981.53545719706062
2973.66939694772009
2965.42924289143593
2958.30954110308221
2954.49717764746947
2957.47116305850341
2973.56647064157642
3009.73094218180313
3077.91232320570225
3192.1891188425484
3353.35316399694238
3538.41248874786243
2874.86009963899687
2874.27570211222883
2870.35686341505198
2864.39078193186515
2857.39028695321349
2849.32148527532308
2840.79719104014339
2833.21795537062553
2828.72515763176125
2830.80555390233212
2845.53352625322623
2880.71687191882666
2948.17252179872867
3062.6008430689767
3228.18445726474602
3445.1439255211817
2750.24875982977892
2749.13098163015775
2745.18461848199286
2739.13779018745436
2731.78513705803198
2723.28847609696595
2714.15867529755042
2705.68749148100505
2699.94420431152912
2700.36928011584223
2712.87949895628572
2746.11593363974134
2812.08542131768081
2927.94141740088116
3097.95879741264162
3338.19606414361397
2624.48831498910567
2622.90810853534686
2618.83945590296844
2612.60818742396259
2604.78019207848865
2595.61763880358512
2585.5721513122412
2575.79767251941939
2568.22658454999146
2566.20440867189336
2575.4382307590472
2605.37397435458843
2668.59440673011477
2785.28069317301924
2960.73998694155762
3215.67450312390974
2497.63220244607737
2495.68433428528988
2491.37798387121211
2484.82852299226124
2476.39364779489733
2466.35369458116156
2455.09280402161312
2443.6018987333573
2433.613342816559
2428.29767112849686
2433.05691340530075
2458.1698443011428
2516.61510072121155
2631.93110024566568
2811.89299210227819
3074.24669621035446
2369.74897982855464
2367.48804354668982
2362.86084372441064
2355.86676915682347
2346.68861446813708
2335.57126041725223
2322.80577445064546
2309.19134287243924
2296.18916359242212
2286.69026991124611
2285.64314206150038
2304.0629418733738
2354.9939382864095
2466.17266907728663
2647.59603438751947
2913.12376591610609
2240.91381712487237
2238.37291082129559
2233.36010184633233
2225.80113290368172
2215.74123944642361
2203.35841737582905
2188.81698285160564
2172.68259551910069
2156.07096493190784
2141.46126296251168
2133.11421069823382
2142.55450920366502
2182.08481675163875
2284.98481219500718
2466.45766587790513
2732.59000661613572
2111.21150852681285
2108.40936479916309
2102.95513049543206
2094.72116802170603
2083.64600407574744
2069.8248653992764
2053.25959096720226
2034.22673881755691
2013.4341953107546
1992.7703280921512
1975.47722424842391
1973.14019180837272
1996.0656503057412
2083.28679998767893
2261.13901987534882
2526.66259766039138
1980.73635333332049
1977.6881348236036
1971.73935196811112
1962.72992470239342
1950.51480153142666
1935.10443953283198
1916.29723520943321
1894.01741874869367
1868.52944076584731
1840.88840636940608
1812.92832072879719
1795.57355454608955
1793.97013620684061
1856.24712975079092
2021.63831022943259
2288.32435607624438
1849.5804671324413
1846.3105917457101
1839.82100851237783
1829.94743450415831
1816.47892738003588
1799.35760647896586
1778.12359534926827
1752.29048750552147
1721.67598779472814
1686.19276600030071
1645.95985911044522
1609.71305510307116
1573.18769471064593
1599.08969651963071
1739.03645060986059
2004.83759402936312
1717.83570160178556
1714.37411854708921
1707.30586762567827
1696.49798444212024
1681.67698355661923
1662.75753157349527
1638.9479011715971
1609.31755270750273
1573.26362553531135
1529.18695535495908
1475.3336432436713
1415.62351906155141
1333.88796964444577
1312.15453912607245
1418.01764670842999
1684.49701737341934
1585.67012553490417
1582.0153701870579
1574.29926689346644
1562.51119929519746
1546.26388483242181
1525.51002952367367
1499.0339883313959
1465.49385537769899
1423.91473016259511
1370.77127237969898
1302.47694264758275
1214.56209203921844
1078.99194593768084
1005.74413126016134
1070.39325722248418
1352.95904702584585
1453.41685422653291
1449.54045428326503
1441.01213426984737
1428.2168101707789
1410.50300204669952
1387.97063456344722
1358.83491655759531
1321.49645309505036
1274.64677436000125
1212.62396770281134
1130.51057151886494
1010.41695092542113
818.309202762808582
718.917070704875186
767.812324666312293
1052.78095992976705
1321.34072523950977
1317.33150055487704
1307.7823675910588
1293.95445976890232
1274.75079927633055
1250.62139803646915
1218.89281779104635
1178.01229980859762
1126.27025532433481
1056.55361352247883
963.272782680922774
809.003342173506326
574.363961553907757
476.550387642393957
538.982928155676518
805.341225084956932
1188.95126291912106
1185.16890965933271
1174.62132383959352
1159.74254491853185
1139.07070102089369
1113.58253547837217
1079.22073401155944
1034.94077545318714
978.344224143991596
902.818511165092332
800.938401495474864
613.057198593459361
367.603057034564927
302.874052822315775
360.125602539047861
580.048067919410755
1055.13625649424603
1052.05611384680674
1041.04319134786306
1025.17591957136915
1003.28487135115142
976.495526865422562
939.44524964731886
892.009881576069574
830.903084730381124
751.60138546514986
640.840946063407273
427.341848448473456
226.264091281824506
192.992178988058043
233.195172256765943
370.038117508850291
3001.16608969577737
3001.19166844955589
2997.81773402497765
2992.85727404406907
2987.59454598123921
2981.89015905557062
2976.78601064429949
2974.15511178367524
2976.68752809222769
2988.542876925163
3016.67250596451049
3068.729014771332
3156.51190252107517
3293.74668207546938
3472.73340118416036
3658.87140374871433
2877.6284417021634
2877.30114005893665
2873.96900806319354
2868.97391394628266
2863.43082130014727
2857.51036526850112
2852.10266192867539
2848.99046003364765
2850.82018994313557
2861.75613550100297
2888.54508795563106
2939.68756154504763
3026.87413159657171
3163.93427613019139
3348.47345671150242
3564.66101638042937
2753.00918274995092
2752.1565097255002
2748.78975565021119
2743.70121060235306
2737.79181515817481
2731.41983887606057
2725.37489971975174
2721.3338740039876
2721.87286812522734
2731.11331722274417
2755.67604381535511
2804.88787548693199
2890.63623370556752
3028.70743537341923
3217.27557336326072
3454.36335228466487
2627.24111513228627
2625.93094039681091
2622.43350865519551
2617.14342358199701
2610.73525646865028
2603.66323475858781
2596.65633671991327
2591.25704804055249
2589.90636466483375
2596.63738041129136
2617.88856050626464
2663.84179683122147
2746.89701931633772
2885.4356344452649
3078.16290693950577
3332.74276992418663
2500.37848366715298
2498.70159667425423
2494.95643996474428
2489.32743783371006
2482.28024849850317
2474.28489215932859
2466.00075930364119
2458.81161276622333
2454.96015336595156
2458.31282564639105
2475.02947348800808
2516.17954389221813
2594.55483949870086
2731.78499136285336
2927.78919744654377
3197.82469695770305
2372.4905673296862
2370.49798090832201
2366.41896302023679
2360.32089866153183
2352.48963315122683
2343.35805050667841
2333.49025113463267
2324.08488470136626
2317.11764820180542
2316.17311179571334
2326.97718099207759
2361.44138568400922
2432.44626467534363
2565.78241874026571
2762.34489778148372
3035.41246891645642
2243.65406022510888
2241.37445142801835
2236.89284284173755
2230.20174744522819
2221.43958390549869
2210.96945478135058
2199.22651699798462
2187.19134521740943
2176.49674718912775
2170.28109982427304
2173.6252580936507
2199.11253798088273
2259.00240991582268
2384.14859978031609
2580.12368677945051
2851.17922855219331
2113.95616465693547
2111.40147788118793
2106.45740245158595
2099.05915208389979
2089.22519604826539
2077.22708117947877
2063.33750595631591
2048.28339470872015
2033.27329671478856
2020.77357801132734
2014.95357458321018
2028.65050970086986
2072.31037759067567
2182.42215442909583
2375.54100530265941
2640.87518564149104
1983.49400222225972
1980.66773516763919
1975.20610142129522
1966.99547900718312
1955.96088915754467
1942.26202184158365
1925.98187509924696
1907.56176317766904
1887.6975471846697
1867.89578395367562
1851.11803306482602
1849.63170400436002
1869.67907826290025
1955.97915786886551
2136.23202625797467
2403.02687588714798
1852.36095504162381
1849.27057792112555
1843.24669313027221
1834.12891563882135
1821.78284852881188
1806.22813879443515
1787.34934956910115
1765.27876185325931
1740.09372196695745
1711.99528280593131
1682.51830567014326
1661.72450773005494
1648.66878398347762
1699.86736480291688
1852.38736503136056
2126.08969684465501
1720.64977506235141
1717.30534261463072
1710.68672873246624
1700.579991585485
1686.83439433740318
1669.2874788188426
1647.64947937384477
1621.73099506274366
1590.85357213382895
1553.53230251742798
1509.75212367499762
1464.96603728478158
1408.93200654391762
1413.28278373996409
1527.66132888728362
1802.4465729774613
1588.54600432087386
1584.90403154714659
1577.64175590316404
1566.47180118130132
1551.27597796182772
1531.64117072638214
1507.15800186502338
1477.33167946217759
1440.57764527857557
1393.33226740208124
1334.10962839284866
1260.53255239835039
1151.45450547015253
1105.93885901730732
1179.57770267200249
1457.30951554445392
1456.37581878441006
1452.34515314889313
1444.33640677255516
1432.02036501416501
1415.3967631906205
1393.64468534785738
1366.34719886715857
1332.78095382508263
1290.24077634782702
1232.97177114530427
1158.62226714969847
1052.1152449599083
883.944966714647308
802.944605758455054
861.119748449227927
1140.06777633632964
1324.36973632986451
1319.93605837545533
1311.10033269927931
1297.54752931866847
1279.60718367939353
1255.70422022517823
1225.76933656997198
1188.88181837711477
1140.66601559586297
1074.14831415640219
987.198854564211388
845.119389369685223
627.184566843828406
537.134174264912303
606.768564059661458
874.653439534075005
1192.0661401476043
1187.45690492111044
1177.90522012829524
1163.08644004637586
1143.94307801812738
1117.73977289161417
1085.49358691946782
1045.69227742013732
991.503364900413089
917.108232738047491
820.317989586589192
642.895697836214367
404.002247787213264
338.952163356008498
406.102781136636963
629.951040010498673
1058.43579507314871
1054.23195322252127
1044.20997965485981
1028.30914712420918
1007.9461111196099
979.493214308144616
945.368809533513968
902.642746698034671
842.645140325055991
762.459123958375585
655.826701687190962
450.163710341229944
249.863026072914863
214.524893401112081
264.067166634161936
408.931234131148585
3003.56907064751249
3003.79112525393248
3000.91795572020874
2996.78053191027766
2992.73868783119087
2988.82621916236985
2986.29616377536968
2987.29077142480128
2994.8443801028975
3013.49674734842256
3050.47825106550135
3113.84557303116844
3214.29428074384077
3365.07559747314281
3548.57130086898405
3735.48703780284904
2880.02689871429084
2879.90107781327833
2877.06652883806282
2872.88973399463657
2868.56409138792333
2864.42466385102443
2861.57713882023972
2862.07837735295971
2868.92309514598219
2886.65588770915292
2922.3748437188251
2984.78210011656984
3084.60660955591993
3234.1886281590123
3426.06644640134709
3641.87607818416654
2755.39934870283514
2754.75558479665324
2751.88451927480946
2747.60599073758385
2742.90197177731488
2738.29149498656534
2734.78268601245964
2734.32940087299903
2739.85266557463137
2755.86798025828466
2789.37268080813737
2849.78248146891838
2948.19168329256536
3098.6451462159539
3295.00998654020441
3533.12705882327828
2629.62007508775423
2628.52525065049485
2625.52376549193696
2621.03229610273956
2615.80964992763757
2610.47102180048569
2605.96554456122658
2604.11262843119084
2607.69237317767238
2621.15372869002613
2651.32439281626512
2708.46784617601952
2804.21588000921338
2954.96492528484987
3155.36683714170749
3411.35618160572221
2502.74094714369085
2501.28615032424614
2498.04122129239431
2493.19699504872369
2487.30748320023076
2481.00811180668779
2475.18066774510771
2471.47923181177384
2472.48122176578272
2482.48717773628096
2508.08906835491507
2560.46706960504434
2651.6009240308581
2801.01543672000662
3003.88753733135582
3276.32486651074214
2374.82743681290594
2373.06845783900553
2369.49876750178146
2364.16880602968831
2357.45857104073002
2349.97625617306949
2342.51095150028004
2336.51589787382409
2334.29481511600579
2339.8870656672093
2359.55085327444203
2405.29841426771691
2489.15319034478398
2634.80840965141942
2837.41568417263443
3122.19821912204725
2245.95127776206391
2243.92855209361915
2239.97012116113183
2234.02700184596642
2226.33900356851382
2217.46264374668635
2208.05987477419103
2199.33594383566242
2193.23736744339294
2193.39986217552359
2205.58945648838016
2242.4509691662679
2315.63172487159136
2453.70308992265836
2653.42628896919814
2939.70427094290608
2116.19167982162708
2113.9419208166064
2109.53721846448161
2102.86272562971453
2094.04313980546112
2083.5762834343891
2071.95854652867274
2060.08749555348459
2049.46375218397907
2043.14181555005644
2046.16558118146418
2071.30629644384089
2129.24602596135037
2254.1983967105507
2451.22948518749263
2731.28162762176271
1985.63320215210933
1983.20659149675339
1978.29616806924082
1970.78180727942595
1960.68389898066039
1948.45140451119573
1934.37013333101163
1918.96205539530047
1903.19744476157121
1889.33471346810802
1881.41261690119404
1891.34407771624433
1927.55276687056107
2030.47557872593893
2219.89877510927454
2491.19420297406168
1854.36364438032115
1851.83641475603213
1846.35381415392521
1837.90562159451997
1826.3936071916969
1812.24823475793391
1795.48857367623123
1776.19699780905626
1754.72990829830746
1732.31892144025687
1711.69372135588605
1702.13277989799917
1707.28628215591471
1777.46296329372149
1945.49988658628331
2215.86573126397343
1722.50380852421767
1719.95711955464776
1713.81009077290196
1704.3551417394724
1691.30951979854217
1675.1376687111499
1655.52312802179449
1632.06936667841637
1604.43267949027609
1572.58512124330628
1537.59290419836998
1503.51258034520538
1466.63663910317496
1492.06226311564956
1625.94523464509484
1905.49300328581535
1590.27231130683072
1587.71000575175799
1580.77249824685327
1570.26135991993397
1555.58806785559113
1537.32858894882179
1514.74353192324475
1486.97481643528249
1452.91542270036143
1411.01178127626599
1360.29734991128089
1296.46089957584127
1208.38731296633296
1183.36996997630558
1271.80571579219691
1560.77916932789958
1457.94761911708065
1455.34403535905494
1447.4636875080721
1435.87376649467205
1419.50699770846018
1399.18536323926355
1373.62144008008408
1341.60127498045244
1301.14831783532168
1249.21469537645839
1182.59546222417384
1084.49800219960025
939.394652580329421
876.463222570638891
931.805602227734198
1222.78592363349662
1325.65933927857418
1323.16674980584366
1314.19116662059901
1301.55195932066817
1283.43012988500914
1261.15538613996273
1232.71153169402169
1196.71521671855385
1149.88112990873879
1088.97353310780682
1008.40668790333666
872.39695658853384
670.977016896826171
597.408311577519498
658.336710009793251
923.868719753160121
1193.02489400741547
1190.94958997261824
1180.87271314657028
1167.2924608675728
1147.35298952495555
1123.25758263528996
1092.01579567138765
1052.30481904777935
998.897527728445311
930.772367391332637
838.489128770439265
662.830927935796353
428.947266186809884
365.906315785001084
445.756193145280179
663.842312160590723
1059.51171206382014
1057.84530138784658
1047.03942264709963
1032.55894170015745
1010.99013965276208
985.176356255691871
951.209388125644182
907.94038505400772
848.563487653783795
775.270703555619548
670.476137689135385
460.400842333313221
259.837713273564759
228.199679998970538
291.836530139341562
435.948687807499709
3005.5135247171952
3005.86930908801969
3003.38244368971164
2999.87923659549097
2996.77350952237794
2994.2305484545268
2993.65208491535077
2997.36768427313018
3008.63465360265582
3032.20095220698158
3075.4326599977876
3146.31033492890765
3255.11476060790665
3411.97717087149749
3598.83421188642387
3780.37867071130449
2881.97213671808686
2881.98469664394406
2879.53056949426627
2875.98345819964106
2872.59226645515218
2869.81412443880754
2868.90780063143711
2872.11948738955834
2882.67149809986131
2905.31947344648188
2947.30304789720731
3017.2239674602979
3125.12823903205344
3281.1388842188735
3475.74354421677526
3687.85379871931991
2757.34883907092262
2756.84904061473617
2754.3502222501902
2750.69209157336081
2746.9127550207204
2743.64676201696057
2742.05750140734335
2744.29161717163424
2753.50069707070861
2774.41672118991301
2814.18114067152055
2882.06896137905869
2988.43135857490188
3145.12177097128051
3344.25309620429243
3579.7512271433252
2631.57972064594651
2630.63189419866603
2627.99093284008768
2624.10642468936021
2619.79205409306314
2615.77274257231602
2613.15334682155435
2613.95140365584348
2621.18120268653047
2639.515551659214
2675.92769243223347
2740.55689801408971
2844.16114020086025
3001.0468524375342
3203.31757009866988
3456.83693945777577
2504.71850257597816
2503.40962914231113
2500.50913634596054
2496.25524747784675
2491.25114807661748
2486.23630475891605
2482.24850078237341
2481.1479442718055
2485.75171426725501
2500.59049220937368
2532.41647050441179
2592.30966624577968
2691.24833659916112
2846.79990905349723
3050.32199523033705
3319.40959280831885
2376.83341701484505
2375.2126430726189
2371.96602841304275
2367.20707969491195
2361.35286650797798
2355.10944157819677
2349.4226968510884
2345.96440706134308
2347.2857986876088
2357.65948267435715
2383.52810905632214
2436.86183274604446
2528.63188614366436
2680.86771785163137
2882.27648387176214
3164.894447203239
2248.00071548633878
2246.09578372631859
2242.43473003779445
2237.04132453143848
2230.17317526416127
2222.47736260850888
2214.77502599187164
2208.51049773188697
2205.88798222546211
2210.7649312400099
2229.13160666550857
2273.68876570149405
2355.09861663988613
2500.70953395106062
2697.72919459399509
2977.58546346507592
2118.30683764620062
2116.1305128851659
2111.99728097904881
2105.8494954804296
2097.80649065766011
2088.44602989363375
2078.43087824269833
2068.93264897038353
2061.71462136169612
2060.01747117581908
2069.16494229846285
2102.11699828080373
2168.94743395599289
2302.70282513108032
2497.32201104738215
2760.27597610638895
1987.84738093548549
1985.40699531381188
1980.75235411046651
1973.73772286307781
1964.36594819758398
1953.14514206010176
1940.54786948363153
1927.42577519670408
1914.99679745968956
1905.62596127386337
1903.69893720690152
1921.58829684492366
1967.99661725238025
2081.32433671991475
2272.17045990607949
2529.07021780776358
1856.72337997181012
1854.02318367383668
1848.81299307105542
1840.82669842318501
1829.98280204725802
1816.7288393314966
1801.31790540422298
1784.23945584923376
1766.04020149653616
1747.89818258981472
1732.98845781400655
1731.61203232072944
1748.76863438011628
1831.66292991917248
2006.71340661274689
2268.41834636727799
1725.05327968357642
1722.07588787407963
1716.2867802403764
1707.23429037984124
1694.79224694951927
1679.36279680373491
1660.95613378524354
1639.67187515082173
1615.22444893906186
1587.26793485389339
1557.52073606402769
1531.88280278421098
1507.95966897825429
1548.2552758056263
1692.92087344236757
1958.08699006489928
1593.00942776114698
1589.71433845940032
1583.29121901101348
1573.0818349324004