/*--------------------------------*- C++ -*----------------------------------*\
| =========                 |                                                 |
| \\      /  F ield         | OpenFOAM: The Open Source CFD Toolbox           |
|  \\    /   O peration     | Version:  2206                                  |
|   \\  /    A nd           | Website:  www.openfoam.com                      |
|    \\/     M anipulation  |                                                 |
\*---------------------------------------------------------------------------*/
FoamFile
{
    version     2.0;
    format      ascii;
    arch        "LSB;label=32;scalar=64";
    class       volScalarField;
    location    "0.209999999999999992";
    object      rAU;
}
// * * * * * * * * * * * * * * * * * * * * * * * * * * * * * * * * * * * * * //

dimensions      [-1 3 1 0 0 0 0];

internalField   nonuniform List<scalar> 
29184
(
2.77222736366086213e-05
2.58711642156401638e-05
2.42392132636251089e-05
2.27590205029700562e-05
2.14065744139385451e-05
2.0128363959518981e-05
1.89011915007761647e-05
1.77117571102606143e-05
1.65859459923935754e-05
1.54741689526763711e-05
1.44622807141437954e-05
1.34597604292152402e-05
1.26045833344840356e-05
1.16209066598524071e-05
1.15685736651445878e-05
1.17342883521229508e-05
2.61857663758474139e-05
2.43094377445771863e-05
2.29465066968152092e-05
2.16787714671992541e-05
2.04657546535445544e-05
1.92735876780737596e-05
1.81174168678966232e-05
1.70007159815404604e-05
1.59450641662675725e-05
1.49219270238585201e-05
1.3977718127590278e-05
1.30942622560784772e-05
1.22650621612841956e-05
1.13976435332728312e-05
1.09991509277317425e-05
1.04321417758833911e-05
2.47751071887093778e-05
2.29665785874529729e-05
2.17841530604018707e-05
2.06287755232808372e-05
1.94873138928238579e-05
1.83635745909874339e-05
1.72729939229552001e-05
1.62177735666668563e-05
1.5227824262432336e-05
1.42714332613641273e-05
1.34018138255721782e-05
1.26208931685366804e-05
1.18793741613044506e-05
1.11488611748217838e-05
1.10129356249260108e-05
9.87311551382051766e-06
2.34949836077566104e-05
2.18088033896078357e-05
2.07500747874061191e-05
1.96886512036910334e-05
1.86151862358015035e-05
1.75524568790536503e-05
1.65190366324850522e-05
1.55177584661363264e-05
1.45825938563089244e-05
1.36782428825105636e-05
1.28745954916031961e-05
1.21731784697914916e-05
1.15083162216922511e-05
1.09122502895451624e-05
1.10215024482375282e-05
9.46209607087488502e-06
2.23400753896750795e-05
2.07926863473381353e-05
1.98256209036385939e-05
1.88419341853208474e-05
1.78299694760907674e-05
1.68216111615853635e-05
1.58378124864529551e-05
1.48830391204548051e-05
1.39922823702619425e-05
1.31282152845839427e-05
1.2382309277955701e-05
1.17400498184097322e-05
1.11395371513413064e-05
1.06913926220023772e-05
1.1181890983893212e-05
9.01919945089575036e-06
2.12994456269498618e-05
1.98890402248210247e-05
1.89967103705774781e-05
1.80782542652399041e-05
1.71212433826951732e-05
1.61614297341439131e-05
1.52207876202224923e-05
1.43056437728247973e-05
1.34502508423648459e-05
1.26173574185579254e-05
1.19188302357350109e-05
1.13144657997603222e-05
1.07746859301237243e-05
1.04828673306583495e-05
1.15144332401921635e-05
8.61458520470599749e-06
2.03611467984364611e-05
1.90791138776511119e-05
1.82512395418860338e-05
1.73884715877495674e-05
1.64801742389281915e-05
1.55637582036055448e-05
1.46607725623382267e-05
1.37792111646665374e-05
1.29514357470626241e-05
1.21418150769657323e-05
1.14780979777400527e-05
1.08900070788341203e-05
1.04212704381558687e-05
1.03049451431454628e-05
1.19196174815276663e-05
8.31020080003900588e-06
1.95140112373909344e-05
1.83497235159825723e-05
1.75794571805209516e-05
1.67648866186865369e-05
1.58994703139899505e-05
1.50219904891408718e-05
1.41521056890777739e-05
1.32989632572567417e-05
1.24926937071848404e-05
1.17001176648572699e-05
1.10572524523535853e-05
1.04601522696191885e-05
1.00349827287864943e-05
1.02334072939053336e-05
1.21395645001583589e-05
8.07740789044824008e-06
1.87486717245909767e-05
1.76913399689922962e-05
1.69738134774047933e-05
1.62008721156393429e-05
1.53729457628728374e-05
1.45307862659087888e-05
1.36902915721879917e-05
1.28614851998062845e-05
1.20730882208310136e-05
1.12926083551073377e-05
1.06537671180420754e-05
1.00245716849427908e-05
9.62081941680090479e-06
1.01917433140427086e-05
1.17346336133987324e-05
7.7491181609842945e-06
1.80579176039850137e-05
1.70968775430069534e-05
1.64284481959414768e-05
1.56905402839452486e-05
1.48954199954345511e-05
1.40859351572192465e-05
1.32718572711474316e-05
1.24650185848261271e-05
1.16942697753653653e-05
1.092208986452536e-05
1.02693963746866668e-05
9.59129743811098947e-06
9.27061878801825418e-06
1.03568746989599189e-05
1.1684984236275084e-05
7.4446204741477236e-06
1.74363477684562347e-05
1.6560771879188005e-05
1.59386061879837702e-05
1.52286258575418481e-05
1.4462929251440588e-05
1.36844232729771452e-05
1.28946262460735046e-05
1.21103106493654819e-05
1.13615414374805589e-05
1.05933863096537776e-05
9.91250341704522518e-06
9.19062527382253107e-06
9.07519706743298673e-06
1.08355931394233927e-05
1.39727563889417347e-05
7.88917270344643673e-06
1.68791821269752905e-05
1.60785208471346285e-05
1.55003665464057909e-05
1.48109148606373576e-05
1.40732388523888382e-05
1.3324796583926476e-05
1.25584599780346644e-05
1.18017875494213013e-05
1.1083602143926609e-05
1.03158032515438845e-05
9.60203525997452139e-06
8.87756975726978912e-06
9.0410203642343775e-06
1.2685701745941834e-05
1.872217970118162e-05
8.43236895642908358e-06
1.63817960678716984e-05
1.56464061637729559e-05
1.51112061451146315e-05
1.44350613098781676e-05
1.37265767448298495e-05
1.30076939160864037e-05
1.22662949419413864e-05
1.15480503345927512e-05
1.08721658471349046e-05
1.0103857273523487e-05
9.37300794267860901e-06
8.71747887560660317e-06
9.62269396514884849e-06
1.7419873241541103e-05
2.62143466073161755e-05
8.53628735924168508e-06
1.59400712825983677e-05
1.52618120648650814e-05
1.47718828175454949e-05
1.41012748822125283e-05
1.34270966901453519e-05
1.27365362437879772e-05
1.20259927398352403e-05
1.13621490370004268e-05
1.07422744680428757e-05
9.98021742378495725e-06
9.26845642941273511e-06
8.76143227319956028e-06
1.17701171124033092e-05
2.77064621046967883e-05
3.34074728510929235e-05
8.89769185693482331e-06
1.5551265415226368e-05
1.49251074568736759e-05
1.44885253838112387e-05
1.38135121799705814e-05
1.3185554545641825e-05
1.25191265573685498e-05
1.18536033185776882e-05
1.12632318629136688e-05
1.07150969226955925e-05
9.98001894479846435e-06
9.34064354474531908e-06
9.18346662004289277e-06
1.58810226327989376e-05
4.66593673229020027e-05
4.51627330321693397e-05
9.4017063336495016e-06
1.52184962638859987e-05
1.46472007889782231e-05
1.42750348160237447e-05
1.35887086186485474e-05
1.30250620368329205e-05
1.23765500203684803e-05
1.17806069866884532e-05
1.1285021780201755e-05
1.08283999828475586e-05
1.01483071581883782e-05
9.60622032416359431e-06
1.00021624780665812e-05
2.47925789385622876e-05
8.40189913573098087e-05
6.68607690419610064e-05
1.01438059494352763e-05
2.77564606301566577e-05
2.5928608366332974e-05
2.43189450384781809e-05
2.28622433863623597e-05
2.1535170324950368e-05
2.0286334436399166e-05
1.90934900040661736e-05
1.79494346561815513e-05
1.68742428855623382e-05
1.58436777325820206e-05
1.49160714444977119e-05
1.40826179639600023e-05
1.33870740563897224e-05
1.2772093836117061e-05
1.29521829254552066e-05
1.5353043038613804e-05
2.6222740247699554e-05
2.43682292077515076e-05
2.30262835527846961e-05
2.17803459092092401e-05
2.05913681654083397e-05
1.94275640736324233e-05
1.83057745293306372e-05
1.72319020939094576e-05
1.62303210544531666e-05
1.52795160506218115e-05
1.44307296979102134e-05
1.36949552411928659e-05
1.30585074235625958e-05
1.25580400246929486e-05
1.22736823566952487e-05
1.28716347831277438e-05
2.48142439812367471e-05
2.30258503269929891e-05
2.18628489271563566e-05
2.07280731264400861e-05
1.96100036288546498e-05
1.85139195986130046e-05
1.74570475412096223e-05
1.64437358683870973e-05
1.55071845447931864e-05
1.46213064116788628e-05
1.38469922462170748e-05
1.32139430435132988e-05
1.26803667617174528e-05
1.23277215139403778e-05
1.23235803358310625e-05
1.17208438325076932e-05
2.35358117609156048e-05
2.18677333715097359e-05
2.08271235564738111e-05
1.97851433077378836e-05
1.87342613416507845e-05
1.76982133420162085e-05
1.66974774545484788e-05
1.57366246641973281e-05
1.48536194485086363e-05
1.40168699249721111e-05
1.33073800319054756e-05
1.27509542236237111e-05
1.22872854040117518e-05
1.2100834337310223e-05
1.22743403858393214e-05
1.08842289393772735e-05
2.23821739050128201e-05
2.08507468363176782e-05
1.99006812546500968e-05
1.89352461789843912e-05
1.79449893989092297e-05
1.69621093572517811e-05
1.60095897507265614e-05
1.50933934746368019e-05
1.42528550093454083e-05
1.34520253585044293e-05
1.27987209333165408e-05
1.22966496651115163e-05
1.18855655960047869e-05
1.18669211715973239e-05
1.20738739208985037e-05
1.02332365128701849e-05
2.13424931035265168e-05
1.99458962816473528e-05
1.90696155343548129e-05
1.81681436933262463e-05
1.72320096744888512e-05
1.62962153042590722e-05
1.53851129310709135e-05
1.4506429624246753e-05
1.36982289097035957e-05
1.29230570153138431e-05
1.23158759683267999e-05
1.18446716356308159e-05
1.149617896879383e-05
1.16796695899375069e-05
1.20354430850531779e-05
9.6600986505567929e-06
2.04049283223650544e-05
1.91345580170798602e-05
1.8321929680618777e-05
1.74748218499201691e-05
1.65867372039970496e-05
1.56925264672721937e-05
1.48171045877504701e-05
1.39695080732683966e-05
1.31846704501575002e-05
1.24267148170035599e-05
1.18521319274783406e-05
1.13872311705581102e-05
1.11032143455789823e-05
1.14260061419492441e-05
1.21647218967740928e-05
9.16900284702207332e-06
1.95583912525909654e-05
1.84036642423664732e-05
1.76478946779894854e-05
1.68476972844014491e-05
1.60020667723252927e-05
1.51444781505358476e-05
1.43000624387921198e-05
1.34779304331938341e-05
1.2709242352374849e-05
1.19612891169594156e-05
1.1402762533155754e-05
1.09161274156293442e-05
1.06559496760242456e-05
1.11846642624421741e-05
1.25657250919061485e-05
8.78349586474628101e-06
1.87935301735478023e-05
1.77438774073309124e-05
1.70398073264939909e-05
1.62801953898131174e-05
1.54718265177050543e-05
1.46466615179693123e-05
1.38296264354784609e-05
1.30285413140582814e-05
1.22708846035827179e-05
1.15256756046987527e-05
1.09644777429259491e-05
1.04317016245468025e-05
1.0203729461988442e-05
1.11096046312704253e-05
1.19327218360083722e-05
8.45585308852225244e-06
1.81031008225738913e-05
1.71485009816998325e-05
1.64912842292323185e-05
1.57663701819655164e-05
1.49906268734723433e-05
1.41948152316545404e-05
1.34026002712389853e-05
1.26199486577068624e-05
1.1870286249063403e-05
1.1121367973753045e-05
1.05413280604024126e-05
9.94318461931528784e-06
9.78129186843284781e-06
1.10877190060270469e-05
1.1265249886753086e-05
8.12642251518285606e-06
1.74816905761010751e-05
1.66126480210695164e-05
1.59964925336315223e-05
1.53008771765538178e-05
1.45542111507849246e-05
1.37860638435552727e-05
1.3017276706080911e-05
1.22529708414971167e-05
1.15113069549771972e-05
1.07545288434820903e-05
1.01460834630744703e-05
9.48368570000273819e-06
9.47607411980057534e-06
1.16760963862698453e-05
1.18887103371036589e-05
8.01523061995104027e-06
1.69248841923973074e-05
1.61327609315121574e-05
1.55499046614261472e-05
1.48797296776303865e-05
1.41602519565357369e-05
1.34192700563548842e-05
1.26740542854942984e-05
1.19317679747570127e-05
1.12018893547649559e-05
1.04374250992162161e-05
9.7999307038278545e-06
9.10663459561299394e-06
9.39103165756465706e-06
1.29812645076970563e-05
1.53121488635251632e-05
8.31564862634321399e-06
1.64289537928095431e-05
1.57064658256334327e-05
1.5146829130323952e-05
1.45017867596201117e-05
1.38090266629022322e-05
1.30955064075006933e-05
1.23764445120567083e-05
1.16646707020713423e-05
1.09546577590314276e-05
1.01868772027844066e-05
9.53644907256785851e-06
8.89388338000016257e-06
9.8050853877056428e-06
1.82212617387053254e-05
2.36517822082446224e-05
8.66614529851875571e-06
1.59909243188938866e-05
1.53326511687536379e-05
1.47844086411912818e-05
1.41706566055018269e-05
1.35036883612044301e-05
1.28194723803723032e-05
1.21326244242956799e-05
1.14648418894924604e-05
1.07853666471679208e-05
1.00271102325397158e-05
9.39264329032551793e-06
8.88375805324607637e-06
1.12417456106176686e-05
2.68358807734021996e-05
2.95379932889260841e-05
8.86436489105166478e-06
1.56088021338865855e-05
1.5012023416971766e-05
1.44643404501496806e-05
1.38964381353865058e-05
1.32510954142495323e-05
1.26025661619641655e-05
1.19573388300098217e-05
1.13516643832995966e-05
1.0715274332798582e-05
9.99124251195321519e-06
9.42845751193989333e-06
9.21578914236649647e-06
1.42186497905276152e-05
4.88088362764345669e-05
3.85335006922538033e-05
9.35363334379997523e-06
1.52857763706350984e-05
1.47508136131400082e-05
1.42028540208599058e-05
1.36992818301485626e-05
1.30702418000521593e-05
1.24697966589844022e-05
1.18793941451096429e-05
1.13583876568726282e-05
1.07803607202953646e-05
1.01220534049028355e-05
9.6597295030566699e-06
9.94926231862676677e-06
2.22688859702611285e-05
9.16692779186281941e-05
5.49644163918113008e-05
1.01905185559206517e-05
2.78095184798180705e-05
2.60019511272524926e-05
2.44137149157184776e-05
2.29809364080926345e-05
2.16807554636223226e-05
2.04636291565019961e-05
1.93090380094462689e-05
1.82134836376950541e-05
1.71974838097649674e-05
1.62487634718998881e-05
1.54214661447530128e-05
1.47482869436792193e-05
1.4228772106746526e-05
1.3919722550623981e-05
1.46882069292373889e-05
1.91637910249353589e-05
2.62762788578957358e-05
2.4440293589951954e-05
2.31185961357891782e-05
2.18950540717829462e-05
2.07316919323308037e-05
1.95985819262802762e-05
1.851438895381232e-05
1.74867935920022985e-05
1.6546260967304133e-05
1.56707879453661069e-05
1.49289474338934528e-05
1.4351564085660867e-05
1.39209006952688488e-05
1.37411831258102475e-05
1.35743991362504289e-05
1.53790426571613755e-05
2.48675545861313426e-05
2.30965371002905232e-05
2.19519927380589405e-05
2.08383441350220056e-05
1.97451905752357628e-05
1.86788814717983474e-05
1.76587548450321015e-05
1.66898729050984696e-05
1.5813761662776482e-05
1.50000914917813603e-05
1.43350671259865158e-05
1.38607641492335556e-05
1.35513495013815943e-05
1.35828211768631447e-05
1.34893039213677926e-05
1.30096583833739596e-05
2.35887552660341197e-05
2.1936546194405708e-05
2.09125054842473235e-05
1.98905411333111148e-05
1.88638032841207041e-05
1.78565225537465605e-05
1.68911703514789064e-05
1.59727352263488125e-05
1.51480797347989853e-05
1.43813177781087706e-05
1.37794503948389338e-05
1.3378594705150222e-05
1.31311728515974391e-05
1.33992073470454967e-05
1.32168167965043071e-05
1.09564643477785287e-05
2.24346373660202955e-05
2.09174667053209212e-05
1.99817946865595765e-05
1.90354615735392842e-05
1.80686038037077575e-05
1.71134317526884518e-05
1.61944106232194421e-05
1.531842753570494e-05
1.45330596871152336e-05
1.3799285513307376e-05
1.3249600623025441e-05
1.28971576993745299e-05
1.26984811641832356e-05
1.31277951717133528e-05
1.28350634150080401e-05
1.01380821170143079e-05
2.13944588959508974e-05
2.00105020201477423e-05
1.91459667623513701e-05
1.82629978985779171e-05
1.73496690103638372e-05
1.64404830698239512e-05
1.55605946834578696e-05
1.47194211544734977e-05
1.39623388281088513e-05
1.32504612468240214e-05
1.27423683386541223e-05
1.24132045266900309e-05
1.22719321586104407e-05
1.29459774065988097e-05
1.27065920353495371e-05
1.00941993498284778e-05
2.04564902959813815e-05
1.91971881397779532e-05
1.83929448399794075e-05
1.75642771483639068e-05
1.66987445607571159e-05
1.58300604964663595e-05
1.49830857889433595e-05
1.41694096078239175e-05
1.34312676079844178e-05
1.27319761626225065e-05
1.22518054542645968e-05
1.1919431688526843e-05
1.18305018769663876e-05
1.26515717516651401e-05
1.27803088085975792e-05
9.54418383055158789e-06
1.96097701356439319e-05
1.84645428695278493e-05
1.77127707045390057e-05
1.69318771755203513e-05
1.61092078289441968e-05
1.52760600750776681e-05
1.44564733336335054e-05
1.36636935052472758e-05
1.29370566752729325e-05
1.2242256384266584e-05
1.17736511499361681e-05
1.14024530190971755e-05
1.13159763625818525e-05
1.24291927357166999e-05
1.22860619308853592e-05
9.00565019611167726e-06
1.88451414449376682e-05
1.78030843325890574e-05
1.70972747711383974e-05
1.63594305192380576e-05
1.55755621578008487e-05
1.4773450302185399e-05
1.39763397207759495e-05
1.31991286307112293e-05
1.24790373851811633e-05
1.17816908111858746e-05
1.13051187783921607e-05
1.08635913405665227e-05
1.07824043803547591e-05
1.22751532037742673e-05
1.14863696663468123e-05
8.46703687587488893e-06
1.81557591989212164e-05
1.72053945070083214e-05
1.65392933850941818e-05
1.58412813172262918e-05
1.50932329972578884e-05
1.43181666065118177e-05
1.35394796224172574e-05
1.27747393466788826e-05
1.20590633093803289e-05
1.13525645386343212e-05
1.08478302781516168e-05
1.03074755907509512e-05
1.02634148697568717e-05
1.21986733994935978e-05
1.09561131914850883e-05
7.77911809423554332e-06
1.7536794203985986e-05
1.66648589294863958e-05
1.60320110872185066e-05
1.53724671356473073e-05
1.46587477364170488e-05
1.39074788546401367e-05
1.31446396511209007e-05
1.23924177485917437e-05
1.16817925229003828e-05
1.09599805810858051e-05
1.04119561051165017e-05
9.78097417897603963e-06
9.87905213821189103e-06
1.27204096619227657e-05
1.14604782587888802e-05
7.57032852563271434e-06
1.69843962082331147e-05
1.61749266602201333e-05
1.55692196727538095e-05
1.49493472782931606e-05
1.42703371002595316e-05
1.35408385758222198e-05
1.27933171656265269e-05
1.20575382283041563e-05
1.13546393711521359e-05
1.06126546453833304e-05
1.00194376063201111e-05
9.33963725846696308e-06
9.72030072759045874e-06
1.37726400174670869e-05
1.39198469314085496e-05
7.67792000567983822e-06
1.64951856008610966e-05
1.57293481239278997e-05
1.51467814961186034e-05
1.45705822516925638e-05
1.39288593464446773e-05
1.32207813268241867e-05
1.24901624547201938e-05
1.17787031864647211e-05
1.10873180895234736e-05
1.03257519691404423e-05
9.70746842481334606e-06
9.07717271465620236e-06
1.00274679180885912e-05
1.87664699688822883e-05
2.05331087810933841e-05
7.9033735016649843e-06
1.60671805991279516e-05
1.53232336573177023e-05
1.47646408083628256e-05
1.42380635932747958e-05
1.36392661699958333e-05
1.29534685128727538e-05
1.22433442678768383e-05
1.15674679121788886e-05
1.0891368882737166e-05
1.01235492600663973e-05
9.51800377560011014e-06
9.02012103491742827e-06
1.13243315464549329e-05
2.71850182269810425e-05
2.65891892138225097e-05
7.9530159314228577e-06
1.56985147521577394e-05
1.49556542912242817e-05
1.44290032208522198e-05
1.39583818122828511e-05
1.34122233093162371e-05
1.2749055962659204e-05
1.20661112316573308e-05
1.1439845640555583e-05
1.07852781971505198e-05
1.00421692430740498e-05
9.51708327139648076e-06
9.30921715825429998e-06
1.37820957125344382e-05
5.20310250281574949e-05
3.38978868056946032e-05
8.23613936608584306e-06
1.53891816219426826e-05
1.46383117163990591e-05
1.41578214863274083e-05
1.37489233497835848e-05
1.3268240006250133e-05
1.26282535977626642e-05
1.19834970198962498e-05
1.14243801100498906e-05
1.08051437047484343e-05
1.01285024170447863e-05
9.72558372075837562e-06
1.00057013452876286e-05
2.16787026097858747e-05
0.000100289928990214306
4.71282685865978004e-05
8.38538457267823257e-06
2.78793934505637978e-05
2.60880066210218443e-05
2.45200215810017586e-05
2.31104092901284113e-05
2.18371242193521247e-05
2.06522176392171017e-05
1.95371512639066597e-05
1.84904784124968444e-05
1.75352597583623018e-05
1.66651987633413e-05
1.59365517318954489e-05
1.54023118211864551e-05
1.50508858406031498e-05
1.50331572408841637e-05
1.65090842999263236e-05
2.20192918633824346e-05
2.63441437232728465e-05
2.45223485331160982e-05
2.32202106350262713e-05
2.20186102829647292e-05
2.08808486387334099e-05
1.97789956528994175e-05
1.87333805986209262e-05
1.77531582492343149e-05
1.6873981650647792e-05
1.60735505482897169e-05
1.54335571344850539e-05
1.50039432212497269e-05
1.47446742109600694e-05
1.48327440324078446e-05
1.47896604252928751e-05
1.73491001301214449e-05
2.4932988069810125e-05
2.31753679805621296e-05
2.20488752939587591e-05
2.09557037477583597e-05
1.98872321284349442e-05
1.88512492522987116e-05
1.78687003428400994e-05
1.69457957135296612e-05
1.61300583930577229e-05
1.53886602172385784e-05
1.48285719125093035e-05
1.45047723504164042e-05
1.43655996108721917e-05
1.4655035928159964e-05
1.45246264822139503e-05
1.4753610324299711e-05
2.365189272711639e-05
2.20118856958720005e-05
2.10044720982997375e-05
2.00015249822209545e-05
1.89984366075433627e-05
1.80204371702328013e-05
1.70914917235795208e-05
1.62174845263991161e-05
1.54509454736906442e-05
1.47542302017804264e-05
1.42580454539756135e-05
1.40051173120078089e-05
1.39471397438271519e-05
1.45178663957384794e-05
1.41543775940212921e-05
1.19507230558229273e-05
2.24956319143817126e-05
2.0989115831463614e-05
2.0068772229579207e-05
1.91398745861576771e-05
1.81955682716655313e-05
1.72685781615434157e-05
1.63847770865096872e-05
1.55513183386579522e-05
1.48210108242141066e-05
1.41549700734323902e-05
1.37087759755503475e-05
1.34978234099342065e-05
1.3489669275096451e-05
1.42768261205920618e-05
1.35435239666302924e-05
1.00961258916393623e-05
2.14535087994219663e-05
2.00782303447596609e-05
1.92279601355960599e-05
1.83606011126283153e-05
1.74686930149644347e-05
1.65866574671240276e-05
1.57409197424244348e-05
1.49399509169520366e-05
1.42346632499771934e-05
1.35869470383016954e-05
1.31781257091380503e-05
1.29824952742072531e-05
1.30352881036513718e-05
1.40820705744438804e-05
1.32448972262560673e-05
1.00094073331588141e-05
2.05138775868970884e-05
1.92606608071281551e-05
1.84700120087509791e-05
1.76547463217225118e-05
1.68095294878807911e-05
1.59671908069547748e-05
1.51535103978372812e-05
1.43776362207870976e-05
1.36875235882032043e-05
1.30467121199443761e-05
1.26617855610902337e-05
1.2452430326502507e-05
1.25482847024251779e-05
1.37708404671474437e-05
1.3109836069430511e-05
9.69131009577299947e-06
1.96658896013453225e-05
1.85232850846116508e-05
1.77850318709323492e-05
1.70148186052705243e-05
1.62114480598368468e-05
1.54041855143472619e-05
1.46175893035099726e-05
1.38603818711420748e-05
1.31763727418724904e-05
1.25331429411160869e-05
1.21571469842294589e-05
1.18942498597010766e-05
1.1988501416374783e-05
1.35550826106466777e-05
1.23347079234211497e-05
9.08740422683234994e-06
1.89004427871962031e-05
1.78565461683618455e-05
1.71649875836308239e-05
1.64345187518548357e-05
1.56689201295122827e-05
1.48927256149366928e-05
1.41295728092022801e-05
1.33854453312598833e-05
1.27001514213194871e-05
1.20481558801690773e-05
1.1661982669105747e-05
1.13046565636904704e-05
1.14172750337836938e-05
1.34005027445893355e-05
1.12763416603044015e-05
8.14542108419811318e-06
1.82105624373222848e-05
1.72532932938911699e-05
1.66030579057307984e-05
1.59085157589129516e-05
1.51771592731955038e-05
1.44289897425421804e-05
1.36873817750265597e-05
1.295165874589968e-05
1.22602415326986195e-05
1.15943397955019904e-05
1.11752864684392366e-05
1.0705852405642197e-05
1.08446643548954373e-05
1.33302630823805988e-05
1.08837764176989125e-05
7.44130407987483457e-06
1.7591142032750417e-05
1.67079653862426982e-05
1.6093024380430827e-05
1.54323902776973436e-05
1.47321532891597847e-05
1.40107498959315988e-05
1.32908639862938786e-05
1.2559922561523589e-05
1.18601490468321137e-05
1.11763764746667024e-05
1.07065945687724431e-05
1.01359074005766985e-05
1.04259839032536901e-05
1.37949151225498348e-05
1.16435143683244975e-05
7.47094509982232682e-06
1.70373201705581562e-05
1.62162940645237981e-05
1.56293652546391484e-05
1.5003047257986502e-05
1.43313134641496996e-05
1.36381426591141519e-05
1.29420840416647448e-05
1.22136247226641365e-05
1.15062689495817568e-05
1.08028158238621496e-05
1.02780675396487383e-05
9.64991499372857983e-06
1.00463586442188119e-05
1.51021352367151272e-05
1.39509185266289196e-05
7.67975810724170203e-06
1.65448577653632812e-05
1.57751829906443258e-05
1.5208236345344304e-05
1.46196070065195183e-05
1.39744123345714047e-05
1.33142830488976966e-05
1.26453589790096668e-05
1.19187871408495169e-05
1.12082608507011163e-05
1.04905570763908487e-05
9.92913100102028946e-06
9.32930452075781927e-06
1.02527129566666125e-05
1.82560194060246043e-05
1.91433250854277504e-05
7.7330748366725106e-06
1.61122200013034543e-05
1.53839826496832706e-05
1.48287037918655888e-05
1.42845852845440924e-05
1.36643924402418242e-05
1.30460460007970369e-05
1.24076951157548071e-05
1.16844601768590007e-05
1.09792665475550352e-05
1.02652523493687241e-05
9.70292812221854809e-06
9.22397449761321907e-06
1.14316542881475916e-05
2.62663401441608121e-05
2.38635345834380618e-05
7.53856491626080093e-06
1.57367226031643366e-05
1.50463848229993988e-05
1.44939192914423096e-05
1.40062608224826822e-05
1.34085575119895407e-05
1.2845480322508831e-05
1.22401256220512013e-05
1.15252960268611362e-05
1.08393884693798302e-05
1.01651968294833305e-05
9.66316041243676581e-06
9.45716309911493213e-06
1.36676697439626509e-05
4.86441888128392755e-05
2.95872097273222974e-05
7.37308123123455525e-06
1.54216530444119397e-05
1.47727503687867646e-05
1.42166561453434391e-05
1.38003256827426459e-05
1.32263546975162856e-05
1.2734409579737275e-05
1.21642282167614193e-05
1.14715642250729902e-05
1.08273894260297057e-05
1.0242103692282311e-05
9.84729362625138424e-06
1.01263679645641099e-05
2.1599811065524903e-05
9.31384097236855095e-05
4.02096851714458124e-05
7.68752496214545949e-06
2.79628761258802537e-05
2.61834663732826744e-05
2.46336433278543565e-05
2.32454109817424178e-05
2.19977429704586371e-05
2.08439613576476331e-05
1.9767008867343243e-05
1.87674026561091237e-05
1.78687063506511321e-05
1.70706947652665217e-05
1.64285047755372895e-05
1.60029408438212371e-05
1.58151486426279373e-05
1.60400049043860799e-05
1.795922564191568e-05
2.43307463217496729e-05
2.64231213581356626e-05
2.46115659984138803e-05
2.33268221509725422e-05
2.21453327873789176e-05
2.10320107144749933e-05
1.99602826505185185e-05
1.89517060183770268e-05
1.80168581513804226e-05
1.71937082682928643e-05
1.64653483866790965e-05
1.59119325550561131e-05
1.56012494860784793e-05
1.54975082020859003e-05
1.58161620123137166e-05
1.5712742826279479e-05
1.89376250292458672e-05
2.50079499677475417e-05
2.3260252852310593e-05
2.21493756315121257e-05
2.10748286802927025e-05
2.00296906696080373e-05
1.90228273123813099e-05
1.80759517805445509e-05
1.71971150589828812e-05
1.64366494206384473e-05
1.57661304631602279e-05
1.52945010380360214e-05
1.50984138966906518e-05
1.51260870245968425e-05
1.56595094417339257e-05
1.5261587088527158e-05
1.58736185598379621e-05
2.37238965613297987e-05
2.20932153981090612e-05
2.10989354411777556e-05
2.01129286953633854e-05
1.91320234705087049e-05
1.81820278042729659e-05
1.72871081804132315e-05
1.64555210511724005e-05
1.57427706100519419e-05
1.51141609636442397e-05
1.47093096689247896e-05
1.45853811212195854e-05
1.46748126276251e-05
1.55336346850575366e-05
1.48440398088863904e-05
1.30010411312995836e-05
2.2566403295386775e-05
2.10680418510980966e-05
2.01573845409997578e-05
1.92434725723903133e-05
1.83201696580531778e-05
1.74199534264165322e-05
1.65683303559419577e-05
1.57751194920545133e-05
1.50967327997876906e-05
1.44959581377639236e-05
1.4143141668592625e-05
1.40543779970503165e-05
1.41965959865301531e-05
1.52910059223895453e-05
1.41222125403680259e-05
1.05380341982183671e-05
2.1525796552865461e-05
2.01563475944709724e-05
1.93109232042283795e-05
1.84562764532337496e-05
1.75841850759460844e-05
1.67276607244577487e-05
1.59119251366475641e-05
1.51487406522866292e-05
1.44933806512124344e-05
1.39087213511858623e-05
1.35922931667383013e-05
1.35063350244471027e-05
1.368698725340113e-05
1.50215645789477955e-05
1.36006326800692897e-05
9.61985719112959629e-06
2.05919431908505188e-05
1.93400369480629846e-05
1.854744840259667e-05
1.77422303684426859e-05
1.69157183468718272e-05
1.6097717952015698e-05
1.53114725168753989e-05
1.45708451932292209e-05
1.39285029249362608e-05
1.33498402799714991e-05
1.30527535086623104e-05
1.29414937155194564e-05
1.31822381466936021e-05
1.47912084375994502e-05
1.3369642374048023e-05
9.64516462887667276e-06
1.97560716752974063e-05
1.86063711285510658e-05
1.78568374792142256e-05
1.70934934140752368e-05
1.63080856381151469e-05
1.55243268438464271e-05
1.47620759599181755e-05
1.40371800085576572e-05
1.33997179331878071e-05
1.28195921020231871e-05
1.25228810071139533e-05
1.2352454124464085e-05
1.26411205688382755e-05
1.45577689063225538e-05
1.29418796247381353e-05
9.29978418811864657e-06
1.90116870434925303e-05
1.79458098440571729e-05
1.72306201636621564e-05
1.65032347776871776e-05
1.57560149037213231e-05
1.50030483604782673e-05
1.42599032595943754e-05
1.35446895789459395e-05
1.29075392709056629e-05
1.23203937830533544e-05
1.20006940165479664e-05
1.17368308803324564e-05
1.20176684467735988e-05
1.42919770830678521e-05
1.16132787736532879e-05
8.69804511174900269e-06
1.8354840451481763e-05
1.73503914572640733e-05
1.66614374140980439e-05
1.59656943410285382e-05
1.52557063714461363e-05
1.4530571681123906e-05
1.38021032678684396e-05
1.30924046842664264e-05
1.24552653092949278e-05
1.18554519047867939e-05
1.14860826623295043e-05
1.11085147514236548e-05
1.13574718341941554e-05
1.41979160472633107e-05
1.08299055861974197e-05
7.79974774056785259e-06
1.77844106421102081e-05
1.68123170673071165e-05
1.61428949614598185e-05
1.54766668399161196e-05
1.48049624515229784e-05
1.41046332071530346e-05
1.3387492862918237e-05
1.26824684276750599e-05
1.20486666140306115e-05
1.14291683084205438e-05
1.09860662906418647e-05
1.04993561173842274e-05
1.08494074296985002e-05
1.44237330063394528e-05
1.08397812211136806e-05
7.54854362331631871e-06
1.72982598652231301e-05
1.6325291089002688e-05
1.56702982948487902e-05
1.50343320449694419e-05
1.44032837181573841e-05
1.3724445079786941e-05
1.30176885108787212e-05
1.23205366465085461e-05
1.16962326967528115e-05
1.1048047893719889e-05
1.0519145133447739e-05
9.96878449038968727e-06
1.0507657620383751e-05
1.59092516795875233e-05
1.27927178552402783e-05
7.80244872507051091e-06
1.68927179701001174e-05