/*--------------------------------*- C++ -*----------------------------------*\
| =========                 |                                                 |
| \\      /  F ield         | OpenFOAM: The Open Source CFD Toolbox           |
|  \\    /   O peration     | Version:  2206                                  |
|   \\  /    A nd           | Website:  www.openfoam.com                      |
|    \\/     M anipulation  |                                                 |
\*---------------------------------------------------------------------------*/
FoamFile
{
    version     2.0;
    format      ascii;
    arch        "LSB;label=32;scalar=64";
    class       volVectorField;
    location    "0.209999999999999992";
    object      U;
}
// * * * * * * * * * * * * * * * * * * * * * * * * * * * * * * * * * * * * * //

dimensions      [0 1 -1 0 0 0 0];

internalField   nonuniform List<vector> 
29184
(
(0.0289226586320500932 -0.0122597211556385154 -0.0165058463097776525)
(0.0920540410130681469 -0.0157911763551775892 -0.0181757623442761924)
(0.161431512139221273 -0.0159571237505248958 -0.0205170689302353118)
(0.235855645516901941 -0.0162198660259299209 -0.0244034325976328868)
(0.305613947828392241 -0.0163377583993984388 -0.0300789694558974141)
(0.378376858514925751 -0.0168181398598303243 -0.0381378106114162729)
(0.453941077853292518 -0.0176624548937926139 -0.0492910121303839766)
(0.535112074573543595 -0.0186613789619408284 -0.0651359263348068734)
(0.617096225403003906 -0.0191895999227951822 -0.0859676975833932322)
(0.703575178321503847 -0.0200442074235176286 -0.11758416074947968)
(0.788547132599061729 -0.0192487729912856897 -0.157391667803798985)
(0.865234017358939567 -0.0176004101478660704 -0.222609702106484009)
(0.928984507037117213 -0.0140343733876468202 -0.302143373963433159)
(0.965189306006886794 -0.0117066125688012196 -0.454615212391925594)
(0.964365945451608697 0.00415780555772314511 -0.65091742636486738)
(0.5926484074656031 0.0327081783715699945 -1.51882422376290327)
(0.0296177254048211602 -0.0383772785707647279 -0.0165395240749018381)
(0.0929141653115966304 -0.0474317497000721899 -0.0179871954638654019)
(0.160151147082114476 -0.0466612074732287371 -0.020290145888192064)
(0.227037107764347296 -0.0469208827892443545 -0.0240845259025089242)
(0.295125542822090414 -0.0478899061910508031 -0.0296805445615999017)
(0.366541995713795699 -0.0498511983904649722 -0.0375960645888658088)
(0.441365872378852331 -0.0524146701018791267 -0.0486266063646942498)
(0.52029546347177702 -0.0552360111991598915 -0.0638985839536075351)
(0.601784669615605616 -0.0569893997298136987 -0.085114314579337505)
(0.686214679121354143 -0.0587987092220714838 -0.114838462840916561)
(0.770502520774503208 -0.0573628580792538423 -0.156526705623040302)
(0.849717529163455221 -0.0528715263271621744 -0.217428266174061552)
(0.919639556605546749 -0.0444447654365247649 -0.30506325706729237)
(0.961882928230278433 -0.0353084864897776143 -0.447801543566507199)
(0.987427556712518029 -0.00797968000612360104 -0.664262500131866496)
(0.693793647164800631 0.114947042329383978 -1.52579395328014522)
(0.0303672136589119845 -0.065815516995938253 -0.0164378668229854391)
(0.0934144252565079214 -0.0771615739703369191 -0.0179092838440577523)
(0.15924536118475166 -0.0760422174691056663 -0.0201776795203095494)
(0.22582909943627183 -0.0766857959697309077 -0.0239020779084593536)
(0.293986613094259663 -0.079055181864335522 -0.0294054589563523261)
(0.36541530204955458 -0.082674701997648703 -0.0371887658828125439)
(0.440220669944384357 -0.0868817092643635325 -0.0480173897550812898)
(0.519488184203324987 -0.0914441425986430301 -0.0630138433874318227)
(0.6013491111853011 -0.0946104336327071305 -0.0837990904958551691)
(0.686891871810129784 -0.0973261506662382037 -0.112945191619993723)
(0.772798311309379371 -0.0961263802543158297 -0.15368168454287795)
(0.853601746309120335 -0.0889180942190867796 -0.213739076819918244)
(0.925055759800271993 -0.0778930583808151722 -0.298603505228168586)
(0.97342598933146629 -0.0617492119795744754 -0.440721650342381754)
(0.987089871681022801 -0.0216507074562339377 -0.658715167486092046)
(0.671587385170999474 0.219278267628544687 -1.51880263548503147)
(0.0307423076493688295 -0.0933540954309070303 -0.0162661768728403142)
(0.0933798072831473203 -0.105921758269879429 -0.0177248005849233031)
(0.157974223240558903 -0.105334200187070598 -0.0199435760027258449)
(0.223927802895428379 -0.106669282366305365 -0.0235749963635275769)
(0.291856197685201157 -0.110331901818180075 -0.0289438987559194026)
(0.363111501644743706 -0.115525961003629593 -0.0365332409282914244)
(0.437786085233285605 -0.121470973476709793 -0.0470721752862672399)
(0.51728705012446663 -0.127896956616006502 -0.0616584670371531154)
(0.599554664891670863 -0.132646330759146502 -0.0818440823813393753)
(0.686489732522661211 -0.136884925796885826 -0.110133311648485915)
(0.774512621823774783 -0.135632246311246096 -0.149683532399198016)
(0.857626150001884247 -0.126056519965500796 -0.208170348184066017)
(0.932775025359353083 -0.113121525541727844 -0.289732046917968777)
(0.984540006579294413 -0.0882799221675575063 -0.428635304376438042)
(1.00381014973341731 -0.0250220171035870423 -0.648701631523576072)
(0.662091945448138319 0.327346952497414745 -1.5018772547583632)
(0.030805713636294349 -0.121009753431118874 -0.0160275974258496171)
(0.0928994400210828575 -0.13432774522787938 -0.0174488249472211226)
(0.156416853160857516 -0.13432099287171026 -0.0196038085554185622)
(0.221646665271134108 -0.136441219997576801 -0.0231204004712305261)
(0.289163210975809326 -0.141408372953613137 -0.0283178094611407638)
(0.36011524570429887 -0.148239031742989913 -0.0356560365354837358)
(0.4346114264358793 -0.156044143956951348 -0.045822382900121153)
(0.514296921472637503 -0.164445881199137334 -0.0598763453186171024)
(0.597192960352667113 -0.171043698547434148 -0.0792886849541698524)
(0.685864233871839146 -0.177214318265983328 -0.106477193547945187)
(0.776345664685028192 -0.175863764866027422 -0.144568888511392435)
(0.862880049880357936 -0.165045134982141212 -0.200747854510785917)
(0.943096444609188511 -0.150220956725735627 -0.278564495242579924)
(1.00179922162420332 -0.11587169853606602 -0.413960071646183869)
(1.02131154190647044 -0.0215090489289016425 -0.639047528261144748)
(0.6649932163201695 0.443269032470911262 -1.48624494849875211)
(0.0306719445024044024 -0.148608840390244218 -0.0157251390280624057)
(0.0920693023717885362 -0.162215201711157664 -0.0170905840342862152)
(0.154534584273609527 -0.162895882974934403 -0.019167488674648292)
(0.218926150448556928 -0.165969013702442686 -0.0225475476102618873)
(0.285852080925330543 -0.172299030533984043 -0.0275423719321768526)
(0.356354039720055582 -0.180818574717739183 -0.0345790182042819416)
(0.430579393176059977 -0.190596327751893113 -0.0442997842500756495)
(0.510372344830877012 -0.201152253502876605 -0.0577003574798015187)
(0.594068440349638238 -0.209936316369145504 -0.0761908647122715305)
(0.684601962433743494 -0.218482610271714645 -0.102037206446622911)
(0.778108212226677476 -0.217295383216983884 -0.138386597173142556)
(0.869317617043283253 -0.206448531875505298 -0.191658628965434952)
(0.95679285568387118 -0.189752490643491006 -0.265717599760381062)
(1.02281566294335469 -0.144134755403070941 -0.397048043358266267)
(1.04158400225756953 -0.0105374648162646425 -0.630724753622907253)
(0.673302158552525509 0.578544984102504212 -1.4764182495774647)
(0.0303976459928207779 -0.176002176750390399 -0.0153638387506267043)
(0.0909338711119854481 -0.189650208053448122 -0.0166592233756259686)
(0.152305532162517687 -0.191042832920477496 -0.0186436315055994728)
(0.215732951562772529 -0.195169095216137733 -0.0218684088320713378)
(0.281893301445272582 -0.202925279120856172 -0.0266388326974456024)
(0.351785029546797023 -0.213197306934032438 -0.0333324305250199127)
(0.425608945625305268 -0.225076212198136588 -0.0425403079200405987)
(0.5054175878649666 -0.237995596859148673 -0.0551737869943844036)
(0.589953114871739071 -0.249354212068719133 -0.0726036883951021172)
(0.682541274740475878 -0.260777311839791248 -0.0968846404511233272)
(0.779633021235500046 -0.260376129278307056 -0.131272097973815671)
(0.877020191565505813 -0.251040763224752217 -0.181160651491045988)
(0.974661385783952672 -0.231954425793948205 -0.251099801928560351)
(1.04872282678131068 -0.170901605591321004 -0.377782006552968896)
(1.05883127256466403 0.00592275528032347454 -0.619980416181754035)
(0.681197981598079427 0.72690221246988207 -1.46770750347132894)
(0.0300035780512344259 -0.203076165353829469 -0.0149510043559002402)
(0.0895116750434944569 -0.216609268932175053 -0.0161637558218101288)
(0.149696555338708709 -0.218702453029442273 -0.0180401420509327635)
(0.212017853450969157 -0.223966487165138728 -0.0210991815983538542)
(0.277248627608838616 -0.233229685633875194 -0.025635844827142016)
(0.346364576335767171 -0.245321435278374245 -0.0319524806277883544)
(0.419625705956794326 -0.259428108507083366 -0.0405814642635376963)
(0.499306069147111287 -0.274937491910449971 -0.0523468464355472743)
(0.584692444735825267 -0.289286229717414467 -0.0685808671483881666)
(0.679345843683461292 -0.304131023505713582 -0.0911884166652790762)
(0.780309550468186286 -0.305638946724409055 -0.123419011592601768)
(0.886340023836105217 -0.299816506978253017 -0.169420830090240504)
(0.999053591276242492 -0.278618204820881621 -0.233075178793480386)
(1.07992627481310399 -0.194100796987651592 -0.354368357823304114)
(1.07395391566152987 0.0339717683659135905 -0.60555505280375288)
(0.686663379064439416 0.886588623095432182 -1.45652493976590125)
(0.029476921997677815 -0.229725258324812748 -0.0144981268899806726)
(0.0877702414108761375 -0.243047960103112665 -0.0156081342151989759)
(0.14665420808039803 -0.245804995638226637 -0.0173601763834500371)
(0.207731434702297907 -0.252293775855873259 -0.0202607778427341297)
(0.271896868588140883 -0.263153320968017135 -0.0245675580517616468)
(0.340070828105027478 -0.277115700801532472 -0.0304769949676831492)
(0.412570976952802315 -0.293567266224010304 -0.0384644248999820582)
(0.491958843323792416 -0.31189742910164403 -0.0492797634997411624)
(0.578095541775147326 -0.329619041340368402 -0.0642225359510853328)
(0.674495792204704236 -0.34847026172023382 -0.0852105905130567665)
(0.779736457333120581 -0.35359521677576311 -0.114971709167817765)
(0.89809006795456392 -0.354663527353169472 -0.156103060716829944)
(1.02996723665081391 -0.331064678212916685 -0.211466798316485793)
(1.12053712331221123 -0.214353177442122206 -0.326752477660335827)
(1.09522880737723138 0.0746916229213478722 -0.582196915728185993)
(0.689018555741675476 1.0685576901542202 -1.44051042506151772)
(0.0287864727640203127 -0.25585541912895593 -0.0140244344988638761)
(0.0856394839099044736 -0.268917396068259373 -0.014979828946068998)
(0.143124404075020806 -0.272257987047988204 -0.0165980403697764643)
(0.202853656228929563 -0.280088856987807833 -0.0193749651201450199)
(0.2658606264458378 -0.292632952965515447 -0.0234659854064293225)
(0.332915802540336203 -0.30848248295671582 -0.0289431320650763331)
(0.404422947234944208 -0.327395791191415209 -0.0362448075201062814)
(0.48332460905211444 -0.348768415591775516 -0.0460609534046426822)
(0.569930179814521098 -0.370119478189992024 -0.059715220632317538)
(0.667244564744957858 -0.393686200963852984 -0.0791931811661284318)
(0.777731115417011232 -0.405055139201822789 -0.105938967360931335)
(0.91183898438064237 -0.417929664019259961 -0.140842539505500963)
(1.06330290865968458 -0.39081146019401497 -0.188682851600425749)
(1.16847309321493031 -0.231466573359434491 -0.302529657575064836)
(1.12520381780334033 0.116539842756253925 -0.552717610172100304)
(0.694880864875803139 1.25188081124317918 -1.41278970745820542)
(0.0279360121839925604 -0.281372288039564822 -0.0135528643857386437)
(0.0830670114033200124 -0.294210423987067315 -0.0142311410430181837)
(0.139113519375514139 -0.297991734144322562 -0.0157377017810410025)
(0.197441167643971044 -0.307340973838930609 -0.0184512886053736155)
(0.259223046397022761 -0.321624104970350877 -0.0223510588144566584)
(0.324942237233553255 -0.339348576439465643 -0.0273933527762320432)
(0.395175920492990274 -0.360860384570521331 -0.034009400849679905)
(0.473348050378498586 -0.385416763704835463 -0.0428277993056749989)
(0.559778542992208972 -0.410373355009381879 -0.0552899180809203195)
(0.656761377599059393 -0.439721684260060752 -0.0732143705308540976)
(0.77405167603120173 -0.461101863785228938 -0.096313567555995766)
(0.924089911786659335 -0.490760614613564572 -0.124611847192218253)
(1.09008178211740581 -0.457579312824157647 -0.168819507118124545)
(1.20807614404929198 -0.249110329183862361 -0.287263750852234268)
(1.14366418376403911 0.175588339213678307 -0.537940951746722407)
(0.687516415541083448 1.43776373738421381 -1.39316132549635396)
(0.027043675679157695 -0.306061870573676509 -0.0131548012303067414)
(0.0800834562246930531 -0.318883114210961827 -0.0132440594676816389)
(0.134755535617288952 -0.322944884532088028 -0.0147553331636829307)
(0.191665176840799312 -0.334081227717797524 -0.0174679367892897897)
(0.252109817066531849 -0.350063332772888258 -0.0212377471780047823)
(0.316185072926647714 -0.369663375906986558 -0.0258975644827194942)
(0.384797858752339517 -0.393898062311306696 -0.0318896429306569432)
(0.461904202814547471 -0.421475221175164894 -0.0397538549679134837)
(0.546972996175981829 -0.449594775311867034 -0.0510838057618862931)
(0.642333404055700163 -0.486382119988354678 -0.0672021108040682102)
(0.767566032804939846 -0.52186771004452237 -0.0864070166943668866)
(0.927016624875851902 -0.571814965711868517 -0.10910744719046854)
(1.0985137744867679 -0.52370662554197267 -0.152476449901645938)
(1.21759286262133593 -0.266834711998893304 -0.279647406809462928)
(1.13422966148722315 0.246479062023108569 -0.532148177564476299)
(0.666191765644496559 1.6285494597521144 -1.36577677305037271)
(0.0264170287223447382 -0.329462217804513957 -0.0129096147746873158)
(0.0768430702797767706 -0.342605187487025287 -0.011848344861550536)
(0.130321775307290472 -0.346859195541769638 -0.0136324638645467632)
(0.18580437398988886 -0.360176966086771522 -0.0163705487838660367)
(0.244627973732817972 -0.377677207510435597 -0.0201847458338272508)
(0.306615169241199748 -0.399203125782073009 -0.0245839501348105831)
(0.373195678719792923 -0.426163799648939634 -0.0300501855789519767)
(0.448757313036587779 -0.456095294700398612 -0.0369635457585958116)
(0.530707553034927559 -0.486713807497679507 -0.0470103999767818304)
(0.623528827815177378 -0.532976171588129932 -0.0610985741853368736)
(0.75515593434751227 -0.585264697798277833 -0.0767653323777311714)
(0.911024171140573213 -0.656546422515801531 -0.0949263113671523356)
(1.08269453956983908 -0.584435726722725257 -0.138860913151296506)
(1.19457888421062575 -0.27059197346592212 -0.274271388313259257)
(1.05860969464517973 0.344565303071848128 -0.531620042269273951)
(0.630720761101839389 1.79022835258412494 -1.33016753868620063)
(0.0265884559501799213 -0.351299185125872993 -0.0128392902268783908)
(0.0736602911427799156 -0.364996331652752859 -0.00987769805314178684)
(0.126144530922413761 -0.369333281937378632 -0.0123899002631114412)
(0.180149691645943133 -0.38536073675919652 -0.0151152224259221441)
(0.236769987422107114 -0.404055346305401242 -0.0193417118624392009)
(0.296076355931112978 -0.427623695385583369 -0.0236085758654961259)
(0.360137706173107808 -0.457170921737375446 -0.028607421221824695)
(0.43343816991902151 -0.488491872453719056 -0.0344008763079739141)
(0.510214577536474034 -0.521329646352909348 -0.0427558458452389351)
(0.600148241012615991 -0.578693267957775426 -0.0549411308411688407)
(0.731750197550212866 -0.648487765248868531 -0.0676075968545754996)
(0.870160869172516893 -0.740243325994958568 -0.0811923011606994482)
(1.04260879012216656 -0.643015686916521001 -0.121568959421299111)
(1.14423762655063488 -0.255102872648283852 -0.257526675396016924)
(0.950794137662191785 0.442195363911751183 -0.522297045756359823)
(0.584655557014994831 1.93543561637687689 -1.29658644573212967)
(0.0281342427842893039 -0.372962903479359342 -0.0128687632236335614)
(0.0710024281029491416 -0.386860188727420951 -0.00731666474842395526)
(0.122469312797800586 -0.390595912505133758 -0.0111388010709829385)
(0.174768449539408982 -0.410004755768439755 -0.0137391046266494669)
(0.228265794656818094 -0.429311670378937082 -0.0188589861069075604)
(0.284130505726099714 -0.455360104237842511 -0.0229845994479157996)
(0.345015878347575355 -0.487221827337146807 -0.0274713363936851668)
(0.414980798160127617 -0.518994270959556858 -0.0317468472727835127)
(0.484794287071460883 -0.554109670867081183 -0.037953982304351104)
(0.571686120803161391 -0.623157374936931352 -0.048812957645327712)
(0.691985975027041622 -0.711845561351633127 -0.0584442194614084101)
(0.806745775975883039 -0.822351525566058505 -0.0666885480868471409)
(0.983785995299915395 -0.701508693198905631 -0.100082145084243679)
(1.07384896132443308 -0.225354806458359036 -0.241199571750630726)
(0.851559162753217858 0.514921531729438442 -0.498775501972728075)
(0.539785884673295802 2.06401181296725511 -1.26108174142268603)
(0.0309198012064069785 -0.397958902450643637 -0.0128645119587404034)
(0.069237965507479543 -0.409903678640590019 -0.00445277478307968058)
(0.119112415208151953 -0.411183459649251848 -0.0100124617531276543)
(0.168983013415002215 -0.43505364579796113 -0.012455888806942754)
(0.218256857878405514 -0.453730849470868614 -0.0186148127731051369)
(0.269682573900745848 -0.483833040470364961 -0.0223882503631326474)
(0.326638244461205984 -0.516693783234594028 -0.0261693087111577356)
(0.391925067728923937 -0.547633671884447226 -0.028416362422974132)
(0.453796647055530022 -0.583886065358751094 -0.0325465239390816605)
(0.536105231088248146 -0.66478115357509393 -0.0426762193505144868)
(0.632371757361778419 -0.777160312496323336 -0.0484870189528137652)
(0.730498226662407935 -0.901141130621592179 -0.0509301235424543183)
(0.916653682904394307 -0.760361926335764271 -0.0749266020571778407)
(0.991876415309071779 -0.19863230637979451 -0.230665195648830951)
(0.75277403879192395 0.6133452232436718 -0.490872507145364567)
(0.481133800910706289 2.18788411643591063 -1.22464788471602937)
(0.0284501299084928376 -0.0122106473740584039 -0.015914418298587283)
(0.0905451360942908096 -0.0157130394558353537 -0.0175288037827473799)
(0.158754559712762283 -0.0158487620176349549 -0.0197907314075518141)
(0.231556739759650188 -0.0160713090311763729 -0.0235405092582885583)
(0.299396658819683137 -0.0161480006322739338 -0.0290181382921127357)
(0.369632999329854106 -0.0165633236958100012 -0.0367742795646076523)
(0.441781686296865206 -0.0173092042434930364 -0.0475711526898156545)
(0.518202092204599674 -0.0181372472714515752 -0.0625844930897222762)
(0.593386959234812772 -0.0184833277665991738 -0.0829422364601227896)
(0.670437441362785158 -0.0189161866814892728 -0.111701973373822927)
(0.740899247841491748 -0.0177344674829178484 -0.151127416684475768)
(0.796009992538347921 -0.015103025089515108 -0.205731754415951151)
(0.828195112867862959 -0.0112360236640630939 -0.283828237278513584)
(0.829106649311294186 -0.00607746055116002194 -0.395547997859198031)
(0.749649003666050251 0.0058893253908318937 -0.554844725217975343)
(0.613961517602938378 0.0465249804647773699 -0.775148646065554892)
(0.0291399337348963589 -0.03822603617666602 -0.0159325865891658328)
(0.091407188916185364 -0.0471855518991890974 -0.0173388854274349989)
(0.157434475746304176 -0.0463454337070936945 -0.0195662624639540497)
(0.222878154081858876 -0.0465116078336884758 -0.0232298451503460679)
(0.289145052065107877 -0.0473580455686748655 -0.0286291579880010617)
(0.358155045140680972 -0.0491269025595224562 -0.0362622091048754105)
(0.429712009802029893 -0.0514011735898717986 -0.0468783752482857183)
(0.504159468732854776 -0.0537775363481002508 -0.0615325537656021479)
(0.579288630545892413 -0.0549588523497165082 -0.0817425778228650923)
(0.65480792418696121 -0.0557774080040122078 -0.10980903820062031)
(0.72581215420921108 -0.0532509329669095047 -0.148470240128909664)
(0.786378586492547327 -0.0464439365485538047 -0.203442530520908327)
(0.824430417782035296 -0.0364993576750928944 -0.280524204041500969)
(0.835460648470715106 -0.0211490606286791061 -0.392892301167511837)
(0.769239496376477705 0.0118006370506031771 -0.539024733071754358)
(0.668044009140767781 0.142853845546813241 -0.891802223565519747)
(0.0298860336495811035 -0.0655447218393031966 -0.0158212283025916181)
(0.0919139971203089406 -0.0767555123466792805 -0.0172554332330002308)
(0.156566165456948903 -0.0755358573240031417 -0.0194514552493531452)
(0.221733227299069163 -0.0760410623619707793 -0.0230472075121320348)
(0.288097542173355481 -0.0782019261977175834 -0.0283550198623862201)
(0.357159853591594079 -0.0815076122200783931 -0.0358582771495817576)
(0.428760658855974142 -0.0852488992553535191 -0.0462891347837317002)
(0.503620597503713463 -0.0891377159422094972 -0.0606714783929976562)
(0.579256116582138048 -0.0913563238738223926 -0.0805312121675638148)
(0.656048536197956333 -0.0927022889127705058 -0.107982743704614775)
(0.728895105450211078 -0.0896427221937996371 -0.145934838395448158)
(0.79119920706764546 -0.0793608580773590561 -0.200133269993488822)
(0.831674443257881646 -0.0649925909540052249 -0.274822697530845206)
(0.8489320311096894 -0.0401809459762826615 -0.387868060077132704)
(0.774634026707533785 0.0172109045797489493 -0.531596657740370238)
(0.647994762839394167 0.260190438033103044 -0.872684238295472259)
(0.0302635060311909967 -0.0929573443205319039 -0.0156402607583396684)
(0.09190096111992066 -0.105366006693183009 -0.0170684671047334063)
(0.155352018337781977 -0.104639334328308908 -0.0192198463836989221)
(0.219928543964976936 -0.105785963486225681 -0.0227244457066917808)
(0.286109737459940061 -0.109156907338076092 -0.0278973420015351907)
(0.355063877697500418 -0.113922463277548555 -0.0352130875168873841)
(0.426623029594185466 -0.119231794908524494 -0.0453698696061218543)
(0.501850469973789348 -0.124756426483631847 -0.059378566525216156)
(0.578069109649161472 -0.128210339896351194 -0.0786894465114341274)
(0.656510875210077671 -0.130649904673724809 -0.105338899837064154)
(0.73185441862972278 -0.126812926474609011 -0.142282660632256003)
(0.797006964704311316 -0.113363707832850547 -0.194923589421380106)
(0.842174931638753343 -0.0955740201178448268 -0.266630753447242741)
(0.865988134011387634 -0.0598636473337970723 -0.3765329291705794)
(0.796873206063293593 0.027614378444019809 -0.526042996179611588)
(0.64089289749603906 0.383700356192613279 -0.858179972503001487)
(0.0303350569627243612 -0.120485916560443662 -0.0153897331157705798)
(0.0914571971872115003 -0.133626549440578779 -0.0167910511232988169)
(0.153872421610086518 -0.133439099011479628 -0.0188864243173866991)
(0.217773352043562601 -0.135324755688493642 -0.0222767286889286598)
(0.283601660444101622 -0.13992186835752074 -0.027273680671834985)
(0.352336980159458579 -0.146217359757388948 -0.0343457985144170475)
(0.423829923791632313 -0.153230045330578435 -0.0441491241975746698)
(0.49942567222093881 -0.160514972330545569 -0.057687069977921307)
(0.576457931625159348 -0.165490511234338222 -0.0762671299009666098)
(0.657020028048355242 -0.16949791467433073 -0.10193679829124716)
(0.735326757958469024 -0.164883190566761595 -0.1375676637048521)
(0.8044343052797579 -0.149395522007340631 -0.187960186271746099)
(0.856234964536354615 -0.128429805449898543 -0.256625528635412326)
(0.888612736187184615 -0.080716233806665344 -0.363686146227850393)
(0.830663869831070656 0.041881976960051151 -0.517940073368455156)
(0.647581573870744664 0.513409073564695562 -0.849858608786900449)
(0.0302123277060105319 -0.147957918982045855 -0.0150689285399913456)
(0.0906782383943663811 -0.161374533901776807 -0.0164303464232378807)
(0.152088451605419644 -0.161827780471830052 -0.0184601287985623891)
(0.215206480287948088 -0.164626211979089054 -0.0217108252502442554)
(0.280514748442428852 -0.170510223876874117 -0.0264908612381854376)
(0.348900352748405973 -0.178400153154526009 -0.0332666431885686523)
(0.420264415406003511 -0.18724602002464405 -0.042651658538201867)
(0.496176475782910131 -0.196476995200887156 -0.0556231040313538774)
(0.57422768156476145 -0.203368883916206 -0.0733278022195157086)
(0.657184445795736094 -0.209474978110981702 -0.0978628725379683262)
(0.738912121445625236 -0.204272219552587703 -0.131830789669986764)
(0.813489805960015633 -0.187971416387715834 -0.179493870951339923)
(0.873616557024308293 -0.163859618021005071 -0.245025620500925551)
(0.914444880066652144 -0.102025719095073103 -0.350863307764278709)
(0.859300910645500293 0.0655754929474629961 -0.517231490402087712)
(0.654997273170181971 0.660934508287219336 -0.849026796298582243)
(0.0299456491077968769 -0.175226535797124522 -0.0146776031540442296)
(0.0896089058902104496 -0.188675736165008351 -0.0159927688704627168)
(0.149977090216686787 -0.189787091167957722 -0.0179513293204114632)
(0.212191599715782553 -0.193607922641069741 -0.0210333598319034643)
(0.276814787554003461 -0.200842235943232861 -0.025553477317827096)
(0.344705226979483748 -0.210410336913774393 -0.0319887368441284514)
(0.415840213211820853 -0.2212329615175046 -0.0409073741989327416)
(0.491978699653965901 -0.23263916904197382 -0.0532294463997537159)
(0.5711666331483648 -0.241934489543933068 -0.0699508972833286224)
(0.65672161470136714 -0.250678479630498885 -0.0931965274454279458)
(0.742417304767227559 -0.245489415542460371 -0.125135929684697778)
(0.824648341830927722 -0.229947428610797533 -0.169701431906691819)
(0.894945499241408648 -0.202595223713607664 -0.231866477798921999)
(0.94857569245065021 -0.124737580515117755 -0.333304648255062452)
(0.884027580576128402 0.0931755787941991598 -0.513919850002644174)
(0.659350116227966132 0.822065498745636281 -0.854445136615495815)
(0.0295447167288701608 -0.20218035339000226 -0.0142148543834374388)
(0.0882656403265033862 -0.215506964118188843 -0.0154872874389052895)
(0.147499861284965061 -0.217258053029892262 -0.0173753777231014962)
(0.208674865865475817 -0.22219629053098891 -0.0202509652192701152)
(0.272459188745117709 -0.23085995669041029 -0.02446570193714806)
(0.3397027725913499 -0.24220347679052856 -0.0305339026987823947)
(0.41046952044770163 -0.255140280052733093 -0.0389595336660699121)
(0.486684156815213431 -0.268994296144252021 -0.0505658528446664216)
(0.567081105986620315 -0.281206583650375652 -0.0662336664501204514)
(0.655165703887518269 -0.293205440181905697 -0.0880436976990097014)
(0.745576113545904362 -0.28929761295544687 -0.117647436703817054)
(0.838069115866742376 -0.276652188013898848 -0.158854668776233499)
(0.923858236074488137 -0.246388781894132908 -0.21580613917786845)
(0.985537064591307632 -0.145328430708581313 -0.312284104437892507)
(0.90462546599673177 0.129092144641823892 -0.504076899551245461)
(0.659860800883808718 0.994179635024397435 -0.864772532847508435)
(0.0289776932435924992 -0.228717994378966977 -0.0136786065722942739)
(0.0866056223704156636 -0.241822529284446475 -0.014931813918976463)
(0.144588269301388711 -0.244176924721346389 -0.0167591106208859683)
(0.204600849875470892 -0.2503283031604982 -0.019373528246308426)
(0.267422525129346722 -0.260510167136312587 -0.0232396368869261516)
(0.333860121051256509 -0.273719884803744151 -0.0289428562878793656)
(0.404072132620311275 -0.288895035177947124 -0.0368674985132576502)
(0.480188326872846905 -0.305484864976850623 -0.0477074999196245644)
(0.561681459005650363 -0.321101342501640963 -0.0622982470709954259)
(0.652043330135164467 -0.337208800528028707 -0.0825779978497366701)
(0.748129902572803207 -0.336458308686364338 -0.109619987800205071)
(0.854206311826021358 -0.330009980380156942 -0.146888356267309228)
(0.959765950414752655 -0.294371205302475181 -0.197977437693600572)
(1.02527890170956204 -0.160950173322007395 -0.291705890741893681)
(0.937641166786634339 0.179260269203980915 -0.483856437993255117)
(0.661006001028754397 1.17793643669280046 -0.87175833396904423)
(0.0281758609669400494 -0.254754727940367021 -0.0130664987883334673)
(0.0845313047871506518 -0.267563206071934567 -0.014362251120728857)
(0.141158510531405157 -0.270469324512703835 -0.016147097395216678)
(0.199943115037212765 -0.27794911957969809 -0.0184190676233177801)
(0.261714617260354387 -0.289743108925806125 -0.0219062739559934064)
(0.327161198767740247 -0.304880297300731462 -0.0272788517774070656)
(0.396604979251708845 -0.322408401587111149 -0.0347010853219509585)
(0.472398287455640387 -0.34199915110573198 -0.0447473996832690665)
(0.554641444625331048 -0.361513930635386893 -0.0583209433078172301)
(0.646758187380703453 -0.382890112527445425 -0.0770339281191552427)
(0.749619399922204388 -0.387699544663030415 -0.101233579638169924)
(0.872186734366132366 -0.391978890982092043 -0.133805961009950736)
(1.00000474833112341 -0.349624931827183849 -0.179764496562440118)
(1.07652910433090421 -0.176770215718769108 -0.27293935576877193)
(0.975983290141980153 0.229999663391950521 -0.458732446198149069)
(0.664362941007750285 1.36512335027407383 -0.869551625878799417)
(0.0270644370644129752 -0.28021154101913387 -0.0123812935668356581)
(0.0819407726300013101 -0.292688023474624526 -0.0138373598956519281)
(0.137174141572875691 -0.296113949591458647 -0.0155977856788774415)
(0.19474945320809145 -0.305054173295163433 -0.0174151726437441826)
(0.25537574819047254 -0.318538773763896443 -0.0205179312190252421)
(0.319602220368341405 -0.335620289236761349 -0.025616003415435129)
(0.388059003319975004 -0.355616467971716255 -0.0325327606475081105)
(0.463192306170204793 -0.378405532636160558 -0.0418075357122389968)
(0.545528294076625397 -0.402289736855563351 -0.0545399373534625892)
(0.638408282700404062 -0.430345898004824201 -0.0715932232601054763)
(0.749223129325603643 -0.443740200886291292 -0.0925430018531503557)
(0.888577854839508574 -0.464271861901623339 -0.120154054852571898)
(1.03736764267839754 -0.41142250090356941 -0.163908926341448519)
(1.13189052219874497 -0.18643561945046383 -0.263287118200224823)
(1.0054746280162048 0.29740813012461681 -0.446935299629999117)