/*--------------------------------*- C++ -*----------------------------------*\
| =========                 |                                                 |
| \\      /  F ield         | OpenFOAM: The Open Source CFD Toolbox           |
|  \\    /   O peration     | Version:  2206                                  |
|   \\  /    A nd           | Website:  www.openfoam.com                      |
|    \\/     M anipulation  |                                                 |
\*---------------------------------------------------------------------------*/
FoamFile
{
    version     2.0;
    format      ascii;
    arch        "LSB;label=32;scalar=64";
    class       surfaceScalarField;
    location    "0.149999999999999994";
    object      alphaPhi0.water;
}
// * * * * * * * * * * * * * * * * * * * * * * * * * * * * * * * * * * * * * //

dimensions      [0 3 -1 0 0 0 0];

oriented        oriented;

internalField   nonuniform List<scalar> 
20856
(
1.45289983270911512e-11
4.36948677118684539e-11
-8.29564301221712784e-11
1.4398662877430316e-11
2.95344703103795003e-11
1.74639336274365626e-11
-5.77550825593971815e-11
9.28583135514029924e-12
1.5208650287245125e-11
8.71096142412582023e-12
-3.2020325829778693e-11
4.08719114460806471e-12
6.15980172574970014e-12
3.3234821971429064e-12
-1.37635962790997805e-11
1.22235825554941806e-12
2.15607371490054624e-12
1.04884786421615087e-12
-4.69967297880009521e-12
2.53035013228940393e-13
7.08354463456002136e-13
2.95247730167545142e-13
-1.27900036298703016e-12
4.89148062660330749e-14
2.26750541422259613e-13
7.30695804522601775e-14
-2.94819992116555879e-13
1.46842401322881689e-14
7.63353548650977325e-14
1.8755395411437943e-14
-6.31440364851622824e-14
3.63839191003358101e-15
1.95269595810085853e-14
4.04453521776470121e-15
-1.34557229569942967e-14
5.03950831067008412e-16
3.18483362859292405e-15
5.6944503234391827e-16
-2.33424516645159764e-15
4.66370823017514458e-17
3.87521848153655418e-16
6.01448036736282803e-17
-2.73638375658111985e-16
3.20928145165306833e-18
3.79843311248572934e-17
5.1494565557179482e-18
-2.49062629209892441e-17
1.56173553303698635e-19
2.96765590779207093e-18
3.533277241532208e-19
-1.80531168779754877e-18
4.67265340874132671e-21
1.75629025092955306e-19
1.85632437518717286e-20
-1.00111626016456817e-19
5.95403110663589233e-23
7.07651602110716774e-21
6.76338874260499706e-22
-3.84908444093487553e-21
1.46466262430141283e-22
1.29806718166932813e-23
-7.67813143515301241e-23
5.75752603669871416e-12
1.73114397838045761e-11
9.87887572705114495e-12
-3.18890700564816487e-11
5.51342112556848996e-12
1.17234994353257626e-11
6.42640542718625377e-12
-2.1980850525902296e-11
3.51373129521251869e-12
6.13552330527558587e-12
3.22387625686927782e-12
-1.21195354468330155e-11
1.54954351968293926e-12
2.57323793932434287e-12
1.24755976453764539e-12
-5.20883656269202049e-12
4.78006041962517463e-13
9.51528945576618035e-13
4.02424920559600194e-13
-1.78340185267041136e-12
1.09320714808389396e-13
3.4275604185569923e-13
1.18448783585932017e-13
-4.91929478650966515e-13
2.80326795396527326e-14
1.18963835581671198e-13
3.29842081254363954e-14
-1.16468687271736983e-13
8.03155805494788573e-15
4.06011995193144582e-14
8.72351366806882251e-15
-2.72156073234021411e-14
1.56021465264023631e-15
8.81740610943356843e-15
1.62498325625143123e-15
-6.01369054006136786e-15
1.91627813181333464e-16
1.33883156469221667e-15
2.14236852772197349e-16
-9.14747107347873551e-16
1.76079221728187708e-17
1.61757405021047438e-16
2.26392938100447461e-17
-1.03866020748038119e-16
1.22045863683603951e-18
1.59432894574349193e-17
1.95573677878185946e-18
-9.48711341254681506e-18
5.98060690857724187e-20
1.25404180702061927e-18
1.35396491944682902e-19
-6.92877850393292128e-19
1.80064678479336629e-21
7.46848662282550429e-20
7.17309779592024744e-21
-3.87090813729125195e-20
2.30742760362032856e-23
3.0266431081976646e-21
2.63343674449740464e-22
-1.49823681289395872e-21
6.29370263176390859e-23
5.08635502994851345e-24
-3.02005313668624517e-23
2.22430956955503919e-12
6.72434344412634837e-12
3.56536705897962241e-12
-1.20084948185067439e-11
2.05774146637125223e-12
4.55331985834055112e-12
2.31006671122096046e-12
-8.1697631718449077e-12
1.29304625711949858e-12
2.44112160159416901e-12
1.16274918112945943e-12
-4.46797682513383069e-12
5.69844375270335816e-13
1.07863368555286281e-12
4.55977611552556774e-13
-1.91598761882435441e-12
1.8375832976999747e-13
4.31376728038218136e-13
1.54204669894055394e-13
-6.57383113049566956e-13
4.78097473167045825e-14
1.68988507997609295e-13
4.82786780949523806e-14
-1.86504084076876739e-13
1.41214133179152775e-14
6.48644499032853323e-14
1.46273946535001699e-14
-4.63906447342298792e-14
3.64457490120832495e-15
1.89812130813566902e-14
3.61190470854592831e-15
-1.19288608230439344e-14
5.88295510897288391e-16
3.6421392401777483e-15
6.00090772195873131e-16
-2.38484012485249277e-15
6.98850521586792539e-17
5.37990733961230876e-16
7.77160732867335824e-17
-3.38009489563210268e-16
6.44494663323075517e-18
6.51072617077711757e-17
8.26315515992436123e-18
-3.81139861626501732e-17
4.49620130593806128e-19
6.45698961269459366e-18
7.19891631236080429e-19
-3.50175103239328979e-18
2.21662884066506983e-20
5.11076912958623628e-19
5.02522812108588932e-20
-2.57572401702933443e-19
6.71128120156604143e-22
3.0613008953111683e-20
2.68305154172247197e-21
-1.44886253529935502e-20
8.64344246456506176e-24
1.24712155221476508e-21
9.92005490516921432e-23
-5.64222279568514769e-22
2.60405362363163143e-23
1.92709832399799673e-24
-1.14896246130554728e-23
8.36443446077543857e-13
2.52541615667751178e-12
1.25953288608164378e-12
-4.41143121727646095e-12
7.48628248473618733e-13
1.72579887646945459e-12
8.11074030573510653e-13
-2.95859723242946237e-12
4.62598706995422541e-13
9.67627072685462127e-13
4.09691513334831133e-13
-1.60422338107730983e-12
2.04197535867483099e-13
4.63264653930953764e-13
1.66858534685503145e-13
-6.85728641332794651e-13
6.94284962122179028e-14
2.03782117653287277e-13
5.89581455746694505e-14
-2.36965890197727387e-13
2.15150625771553314e-14
8.65073640025390183e-14
2.08486118317799667e-14
-6.96731715420504087e-14
6.42037301575870836e-15
3.22249760650633108e-14
6.33963347527699135e-15
-1.9017348426011169e-14
1.38285073319154529e-15
7.87158601452188689e-15
1.3330184309125827e-15
-4.90270423548377979e-15
2.09149812701414866e-16
1.42357849438645123e-15
2.11628806084709351e-16
-8.71090478435202327e-16
2.47561966478516452e-17
2.0890927534294368e-16
2.74031371902298051e-17
-1.20334465796261022e-16
2.29499126190512878e-18
2.53999800281253821e-17
2.93442784493109714e-18
-1.35931614613799144e-17
1.61006773647942132e-19
2.53433707141876257e-18
2.57657388218676019e-19
-1.25661079594805726e-18
7.9799404797168119e-21
2.01753158830818569e-19
1.81240610450222791e-20
-9.30410464331024489e-20
2.42829717625990472e-22
1.21485230806767107e-20
9.7470011506508852e-22
-5.26670679156940585e-21
3.14190941086585802e-24
4.97287512375338317e-22
3.62757034979521606e-23
-2.06259824603179755e-22
1.04231636962916061e-23
7.08453796218290223e-25
-4.23629618173610825e-24
-2.38112068122771433e-13
1.39057612191936301e-12
6.4088600819927507e-13
-2.5207092287362238e-12
5.18210587399608936e-14
1.28385782487669122e-12
6.41527479479610088e-13
-2.39182852242886484e-12
2.34057450907406688e-13
1.09824401686003374e-12
5.66106925199384394e-13
-2.03302840262587209e-12
3.04405769315906239e-13
8.65106172506923728e-13
4.33629329290427313e-13
-1.56268423082238921e-12
2.64069853957036583e-13
6.16543296238346387e-13
2.78238601893954749e-13
-1.03428299522542144e-12
1.60397996919726427e-13
3.81008177436926001e-13
1.44293850525831289e-13
-5.57918411853271587e-13
7.31949409379395193e-14
2.10336494018295492e-13
6.15641138620210042e-14
-2.38667931861724649e-13
2.69069954626050211e-14
9.63472061441151298e-14
2.46816501750750639e-14
-8.57740705611941676e-14
9.07982187646086996e-15
4.32107704574519317e-14
8.61675671119982965e-15
-2.67155393407892809e-14
2.52961357079061676e-15
1.36275229752521701e-14
2.36638243022524815e-15
-7.96808847261340304e-15
4.8344291714051716e-16
3.02755301049442835e-15
4.61453639990784497e-16
-1.79482132553810056e-15
7.20912675016079549e-17
5.3673804233161042e-16
7.24978482067482506e-17
-3.03383149025492796e-16
8.55790538372459207e-18
7.88712860086613332e-17
9.42943755621823968e-18
-4.16778422560913944e-17
7.9726159835682713e-19
9.64126145371776257e-18
1.01672310106899485e-18
-4.72807924692161439e-18
5.62095157413558168e-20
9.67450555437761281e-19
8.99211858256418937e-20
-4.39685289413022166e-19
2.79925934509964252e-21
7.74254412774021105e-20
6.37040726799829718e-21
-3.27539001865972947e-20
8.55792753994324161e-23
4.6848038422625752e-21
3.44922075443317147e-22
-1.86492469200754007e-21
1.11254059560382957e-24
1.92619870601157135e-22
1.29166581109875107e-23
-7.34238128374869317e-23
4.05208605336707514e-24
2.53551577319992419e-25
-1.51453622114075025e-24
-7.47397186012107427e-14
4.89921794862100129e-13
2.48932779672416595e-13
-9.51739101447877908e-13
2.79159422210264825e-14
4.0714765497265991e-13
2.29276172165749462e-13
-8.45561546945694931e-13
8.50808702512395734e-14
3.31441693510499525e-13
1.93895837167068671e-13
-6.86780315275398969e-13
1.04294978625863678e-13
2.66661550793468593e-13
1.47883879305517889e-13
-5.14093353555789746e-13
8.97242674735167909e-14
2.03700526091385458e-13
9.74636447957496511e-14
-3.3950988884915861e-13
5.61797959328175562e-14
1.36666147456790758e-13
5.18517717130785322e-14
-1.87009912062579307e-13
2.5876646526597241e-14
9.39713995877729997e-14
2.41927103158102337e-14
-8.4385927507615788e-14
1.0402989268898291e-14
4.79130429981848901e-14
9.75236255407576041e-15
-3.0726897046285974e-14
3.63969028023819629e-15
1.89726545344631576e-14
3.38915044591779724e-15
-1.03275947507235268e-14
8.74942619525833159e-16
5.15771043412031741e-15
8.10766187601825233e-16
-2.98330647758104027e-15
1.63020640557498003e-16
1.10435595088058886e-15
1.54512628180351032e-16
-6.16815819641438654e-16
2.4292029871712747e-17
1.95001670806313253e-16
2.42810468515691329e-17
-1.02596438601237676e-16
2.89440308612861157e-18
2.87751999439368118e-17
3.17474870085107385e-18
-1.41079866751773835e-17
2.70824944521655726e-19
3.5373775326790818e-18
3.44515534636173401e-19
-1.60803506068372457e-18
1.91788029335447853e-20
3.56927356405646191e-19
3.06746538635953851e-20
-1.50372168244197116e-19
9.59312000001740698e-22
2.87119325382846488e-20
2.18765186945795279e-21
-1.12655228860273352e-20
2.9455142463834968e-23
1.74543049907109645e-21
1.19204592120732469e-22
-6.44928988691529646e-22
3.84367468233433493e-25
7.20723054060085553e-23
4.48998489836069615e-24
-2.55170298215499705e-23
1.52161834049338974e-24
8.85440080564768932e-26
-5.28355825286040676e-25
-1.44561030471792965e-13
1.07605040833674596e-13
-4.05159204054163648e-13
3.52093830776088777e-13
-7.10857181018126013e-14
9.58590885309799858e-14
-3.54812662628000901e-13
2.91928615433377187e-13
-2.05219129149669981e-14
8.5668859849580589e-14
-3.08157915072229366e-13
2.54518466698768619e-13
1.19461437963636342e-14
7.40114805548746035e-14
-2.54513019048664575e-13
2.21417050281331925e-13
2.80511583858527239e-14
5.95180068270421021e-14
-1.97449065434609718e-13
1.9010677639072683e-13
3.23773924828221649e-14
4.45709287986735301e-14
-1.4426136545363711e-13
1.59489356634833403e-13
2.6876972408899721e-14
3.10859740452036569e-14
-9.43414936109393309e-14
1.27224326128295772e-13
1.75686043285303821e-14
1.85596169748577674e-14
-5.15664121264305958e-14
8.9281435798543169e-14
9.79791147771981375e-15
9.68310362361102898e-15
-2.58916943162622903e-14
5.48331341527094064e-14
4.00204357238578989e-15
3.8163228783622324e-15
-1.15752696563209445e-14
2.56531527095068912e-14
1.20968661032029662e-15
1.11541274892343562e-15
-3.90720765452177148e-15
8.70411316720906649e-15
2.81626096194638743e-16
2.58525528538968515e-16
-9.85765909332798593e-16
2.2912251586934326e-15
5.22656476928875887e-17
4.90970742401153321e-17
-1.98553628727260029e-16
4.88835984963423187e-16
7.81223167708737401e-18
7.74774188049339254e-18
-3.29500883354392351e-17
8.66516775226110034e-17
9.34978209926492385e-19
1.01935318929358579e-18
-4.54926040298791365e-18
1.28538358926455367e-17
8.78949395629710152e-20
1.11379664704553681e-19
-5.21449831448366935e-19
1.58815512617049461e-18
6.25334525604482627e-21
9.98651541228977767e-21
-4.90548700055146746e-20
1.60973877187405311e-19
3.14192133232441518e-22
7.1707439786635375e-22
-3.69671241496582966e-21
1.29998206706420161e-20
9.68954995947367795e-24
3.93209092973743935e-23
-2.12784538560957267e-22
7.92873113728910034e-22
1.27386043054151812e-25
1.48949493157247756e-24
-8.45955459572074413e-24
3.28259812384135806e-23
2.95370024555950094e-26
-1.75970368054532268e-25
6.95159644527436356e-25
4.12230408664188599e-12
7.64950790647241949e-12
3.8686457827260346e-12
2.47677161102455321e-12
3.77277971613192009e-12
1.67982118002322903e-12
1.00266200180336928e-12
1.54608756792630051e-12
5.58161898345300009e-13
2.98832021776986676e-13
5.97168149772208991e-13
1.64471631974852138e-13
7.11119049678654832e-14
2.33109822114749043e-13
5.33190878738275235e-14
1.95153097714784693e-14
8.70680560986104639e-14
1.84662628719622551e-14
5.18875532823925968e-15
2.58352584005851379e-14
4.94938254831946941e-15
8.74537287246581099e-16
4.96173755131425458e-15
8.36678010878611566e-16
9.91316167781273142e-17
6.9901916953372041e-16
1.01708639487720659e-16
8.57769647230489281e-18
7.97420760285151582e-17
1.00432908961288243e-17
5.61241512459559575e-19
7.44359705448999939e-18
8.1331566439916123e-19
2.59643745676813663e-20
5.54517708073578833e-19
5.2836484099568009e-20
7.3806310840083706e-22
3.12653307925752509e-20
2.62903951031549306e-21
8.93434564165083404e-24
1.19924559981568011e-21
9.07647229122727198e-23
2.36190962072563344e-23
1.65232680762833318e-24
1.62532189202880221e-12
4.78704369115889962e-12
2.35792857524298735e-12
1.52860735629330801e-12
3.06838178687141192e-12
1.38697908519616254e-12
9.17570702901921343e-13
1.56919900957409118e-12
6.17750226150418498e-13
3.78442135724267966e-13
6.84067639449938527e-13
2.20285614079781538e-13
1.18511114427941371e-13
2.88742890637279161e-13
7.14637151836407091e-14
3.38551223863397703e-14
1.20312332163583401e-13
2.74074645165202673e-14
9.94340660201944626e-15
4.64770162144028981e-14
9.0078530781055719e-15
2.25006130767080247e-15
1.18223975013453591e-14
2.04927549203436703e-15
3.32847166883620467e-16
2.08038724778156494e-15
3.13074137074435793e-16
3.71843350888629531e-17
2.893438583071701e-16
3.78413279049785432e-17
3.2409329291147312e-18
3.31858519450266565e-17
3.77410530388013963e-18
2.13773240999405997e-19
3.12191629128238856e-18
3.08812989295464611e-19
9.96342126022117109e-21
2.34323572648231235e-19
2.0258925372720011e-20
2.85188699237360227e-22
1.33039728468976555e-20
1.01730931706849943e-21
3.47406587300390439e-24
5.13590634425905474e-22
3.54166729474641411e-23
1.01690362333491589e-23
6.49273678919790254e-25
5.99712728452044753e-13
1.88026321418644895e-12
8.16966532348789909e-13
5.52356417543142813e-13
1.23632752540881628e-12
4.8728068062640246e-13
3.29705277079714535e-13
6.65948461337497942e-13
2.25892728200218727e-13
1.406216697655957e-13
3.175170244912667e-13
8.79653599983923445e-14
4.70637285211553731e-14
1.43161201004695424e-13
3.46208623436304146e-14
1.54038601282372337e-14
6.5486274222049952e-14
1.30551699225814924e-14
4.4389267290270248e-15
2.2012570046595824e-14
3.91712901564251063e-15
8.49836887483387761e-16
4.89412248495247457e-15
7.58917902061209628e-16
1.20718640635163625e-16
8.30182891714798211e-16
1.1235500061043413e-16
1.35197207795629931e-17
1.15455224640883772e-16
1.36573191635334792e-17
1.18698652474069787e-18
1.33322024908473678e-17
1.37527460164225902e-18
7.88559059366758009e-20
1.26348741081689517e-18
1.13612355250684845e-19
3.70002673240834225e-21
9.54941646284808337e-20
7.52190194103118613e-21
1.0657750836371707e-22
5.45659070833047068e-21
3.80981267799863742e-22
1.30568846664932902e-24
2.11893595090400371e-22
1.33678633264367202e-23
4.21556760729902073e-24
2.46645720046495888e-25
2.15772112976141706e-13
7.49417434763967632e-13
2.78592035369544727e-13
1.94046736126522786e-13
5.12371600667303909e-13
1.72373433671823541e-13
1.17079745597753816e-13
2.96864281017849577e-13
8.50701460487867015e-14
5.15204703733151595e-14
1.52589297185708488e-13
3.70105093702008752e-14
1.94805789274716449e-14
7.76193397130777144e-14
1.60367333063760834e-14
6.76774667497164852e-15
3.2632676632948896e-14
5.78068395469413887e-15
1.67433176665396858e-15
9.15838580646976153e-15
1.45776096889139057e-15
3.00669656078124244e-16
1.90357639682386684e-15
2.65310243191566225e-16
4.24802387948081582e-17
3.19720807858934817e-16
3.917286654377906e-17
4.78448804845625019e-18
4.46663315994640636e-17
4.79876857050563537e-18
4.22838418095238331e-19
5.19366294452667089e-18
4.87546374743281045e-19
2.82700303453778616e-20
4.95584720901666924e-19
4.06346727624278425e-20
1.33455156756459906e-21
3.76961758000115738e-20
2.71345737986544455e-21
3.86639011304810203e-23
2.16673267025164643e-21
1.38551686979674869e-22
4.76187651035213654e-25
8.4599719710750548e-23
4.89737512472816363e-24
1.69058594523690328e-24
9.09001471549303346e-26
-1.05181127008816289e-13
4.82534129922275785e-13
1.45712590203221114e-13
-1.5117205731231651e-14
4.43367093502033726e-13
1.45353234676246043e-13
4.86044292457627553e-14
3.84801754993845653e-13
1.31554335148620171e-13
7.53408218082826556e-14
3.08979161618342883e-13
9.98338097096849726e-14
6.72807086665034704e-14
2.25267373609309217e-13
6.30170319739003007e-14
4.14006993486119591e-14
1.37836755827785782e-13
3.32586660176635191e-14
1.97747890063020739e-14
7.82984883651601529e-14
1.66865253121617489e-14
8.07805469361920107e-15
3.90924807202769679e-14
6.9727858920771317e-15
2.56697084153818945e-15
1.37450853875960674e-14
2.23592131312818888e-15
5.82033620989524688e-16
3.5084900011717972e-15
5.01048419558641312e-16
1.02972721145872816e-16
7.12439534032844974e-16
8.99124849295876062e-17
1.45913836565639377e-17
1.19708575561273338e-16
1.33354715463470439e-17
1.65276787673975594e-18
1.68213637140705559e-17
1.64616692095519829e-18
1.46929602335008744e-19
1.96884308032002902e-18
1.6862477408290733e-19
9.88003904203842813e-21
1.8906252775851821e-19
1.4170442837456816e-20
4.69013661934900778e-22
1.44661052940920796e-20
9.53902135503005128e-22
1.3661489687725125e-23
8.36064924242726975e-22
4.90790852932896106e-23
1.69168789125404015e-25
3.28102692557434288e-23
1.7468550403585746e-24
6.58471733501153726e-25
3.26100082743249376e-26
-3.65747437534844697e-14
2.11657826478591313e-13
5.74371436929607599e-14
-3.36306963937012425e-15
1.84260326336771076e-13
5.51915022891226245e-14
1.77064803855755494e-14
1.53780911796847001e-13
4.84270960561892692e-14
2.64120343531862685e-14
1.23360115734072561e-13
3.60845921211275119e-14
2.34614850369780059e-14
9.84775182362973575e-14
2.47132039727860913e-14
1.49262390483041568e-14
6.80800704471579142e-14
1.43738101410669674e-14
7.6386333852001926e-15
3.84559514236987552e-14
6.98390918454770943e-15
3.0676059427672153e-15
1.65790130972892891e-14
2.76081494663310368e-15
8.80553621358269107e-16
5.16649453802216087e-15
7.59689311349131269e-16
1.95083845712797512e-16
1.27104993784122674e-15
1.66072030407750452e-16
3.44808390769060898e-17
2.56763786050518341e-16
2.9801843466449845e-17
4.90628187082427422e-18
4.33211921131308917e-17
4.44503477030199197e-18
5.58589915322841443e-19
6.12558628042328685e-18
5.5259764438471278e-19
4.99217210043156823e-20
7.21591750806696518e-19
5.70355836784577811e-20
3.37461808216558191e-21
6.97192997935868895e-20
4.83013297298920262e-21
1.61023968928311406e-22
5.36522372328445636e-21
3.27618821836627742e-22
4.71394228895747196e-24
3.11727400732989962e-22
1.69774655985116811e-23
5.86268491358095083e-26
1.22934162476809308e-23
6.08221332183895274e-25
2.47758494541092936e-25
1.1413010774643865e-26
-4.8333423745341358e-14
3.12464875097370086e-14
1.63774731642101455e-13
-2.71681588805125477e-14
2.91433267062854544e-14
1.45956081600261361e-13
-1.16995893066679917e-14
2.62230380148647046e-14
1.31154767243645416e-13
-4.16634622670234589e-16
2.30707961033162466e-14
1.15392598411972473e-13
5.98543629725257295e-15
1.90425312327681165e-14
9.67024994162204494e-14
8.58562752548499986e-15
1.47093017424440527e-14
7.77168165891872488e-14
8.18839318260183991e-15
1.00941278053203314e-14
5.8805446302013495e-14
5.52926820002737381e-15
6.0838213209622676e-15
3.81289749040972322e-14
2.75274213867141806e-15
2.6572829247120369e-15
1.94359283968235519e-14
1.00856626213105214e-15
8.95782492971911067e-16
7.53328084625835843e-15
2.81770714570475108e-16
2.39663017431735115e-16
2.28602219849129328e-15
6.21566494404093832e-17
5.22272736785957355e-17
5.60238802533394974e-16
1.10206568788809402e-17
9.41266274421137265e-18
1.13562253623588791e-16
1.5759989656547311e-18
1.41321289610887897e-18
1.92612703443863094e-17
1.80414959597663926e-19
1.77012654432232242e-19
2.73830957441590224e-18
1.62133849418848275e-20
1.84152096220193961e-20
3.24209183870955731e-19
1.10194954892375992e-21
1.57195395857516162e-21
3.14678552846185977e-20
5.28540317128702321e-23
1.07440799642392856e-22
2.43132422917336993e-21
1.55513353615194413e-24
5.60706345726798063e-24
1.41749697792945366e-22
1.95029467270738914e-26
2.02145537956698664e-25
5.60610286594821884e-24
3.81686285894860347e-27
1.13368279929872412e-25
9.48483840050246102e-13
1.78535528320939547e-12
5.54260876304578233e-13
5.33667367999593383e-13
9.12277620187410759e-13
2.00681337765873311e-13
2.10827738681389587e-13
4.17057981395112226e-13
6.26058715530704465e-14
6.52893098769001647e-14
1.82006551515237011e-13
2.71767601524133009e-14
1.99796520867073813e-14
7.99454883903234859e-14
1.30986882311479095e-14
5.6378431131210591e-15
2.63485683614509377e-14
4.35115708578504205e-15
1.08624968496895015e-15
5.76831814810300898e-15
8.67775552704613641e-16
1.46472234707826686e-16
9.29233391470438991e-16
1.20818516354797785e-16
1.53582852002590944e-17
1.21510812099540286e-16
1.36089679484697637e-17
1.26202732184672903e-18
1.31762074304415436e-17
1.27045502366561638e-18
7.85033657052418056e-20
1.17253769825779353e-18
9.74041319910090388e-20
3.45006529592891322e-21
8.32181842837173093e-20
5.99142757477880038e-21
9.31241318169314044e-23
4.46576932730462901e-21
2.82334577831767479e-22
1.07041765485676301e-24
1.62921247900403902e-22
9.23519481040979033e-24
3.05122990811594764e-24
1.59463320631314275e-25
3.72214116604951177e-13
1.16464611429011827e-12
3.86693672771642469e-13
3.4086509872679318e-13
7.51195407505431104e-13
2.02142863972370455e-13
1.96604357661513569e-13
4.08564377894584792e-13
8.31508178284916637e-14
8.06227108056987872e-14
2.03036963560994213e-13
3.28925037214708056e-14
2.83810441499126489e-14
9.97136652798139881e-14
1.70299650914325266e-14
9.46180341930959704e-15
4.2130013692405409e-14
6.89510104074508718e-15
2.36581640758841603e-15
1.1975244435723507e-14
1.84032806090805308e-15
4.10346861515374608e-16
2.40286888423164528e-15
3.22966314773113766e-16
5.45680625592526514e-17
3.81392723288166879e-16
4.4447605630577616e-17
5.76630131693944968e-18
5.01455613487093978e-17
5.05925322753932795e-18
4.78129406556284322e-19
5.48471621093807773e-18
4.77779059010540988e-19
2.99946323837830582e-20
4.92281687071893849e-19
3.70356880379409558e-20
1.32873365552722173e-21
3.52208962405511294e-20
2.3020402978633835e-21
3.6135844778511087e-23
1.90431766829952061e-21
1.09549789332871047e-22
4.18232910592641395e-25
6.99630117701630047e-23
3.6157854096557097e-24
1.31804506639473966e-24
6.29074052480090331e-26
1.30452660168495656e-13
4.86261827979569325e-13
1.38553995101244523e-13
1.19970822897497688e-13
3.31546513706449479e-13
7.7509203765801593e-14
7.14438397423096989e-14
1.9367427333920267e-13
3.51372399959856515e-14
3.18893101982345623e-14
1.04717542259804973e-13
1.94373245033191157e-14
1.23550022695321844e-14
5.3737304362032124e-14
8.90526257929986327e-15
3.96133068275397879e-15
1.95427051059117458e-14
3.06203914149595925e-15
8.8033166876703086e-16
4.91572895933948528e-15
6.79177201335900676e-16
1.47731442911406811e-16
9.51101336914023439e-16
1.14678900947448446e-16
1.97089726511366321e-17
1.50896714846321313e-16
1.58638669316455569e-17
2.09969274634442527e-18
1.99855729785170329e-17
1.82471908337321375e-18
1.75522734707991361e-19
2.20412413215005002e-18
1.74162929508001534e-19
1.10965158459521736e-20
1.99415269905615045e-19
1.36408243949070606e-20
4.95185897976469683e-22
1.43744984803658608e-20
8.56332364925418708e-22
1.35605855728277414e-23
7.82643068218920587e-22
4.11328462181123303e-23
1.57936474860776562e-25
2.89411595552845691e-23
1.36919956622313983e-24
5.48162766273499882e-25
2.39887855623471792e-26
4.52123073370910172e-14
2.19351419030042168e-13
5.14656919092105663e-14
4.23760212720797876e-14
1.54264113520498202e-13
3.08592213648975407e-14
2.60912033784942067e-14
9.56264200993380411e-14
1.90561546789930358e-14
1.25993681593996625e-14
5.61854323732668548e-14
9.59071541860547911e-15
5.12785465902970172e-15
2.55206140050727082e-14
4.02176693803510884e-15
1.45495385474173582e-15
7.99558160468448892e-15
1.12964942269149799e-15
3.08665395655819795e-16
1.89530803458991617e-15
2.34954242057848814e-16
5.16285729800603779e-17
3.6324623013576195e-16
3.95413705121328975e-17
6.93226400708466305e-18
5.79034499694389953e-17
5.51524822205667365e-18
7.44067946639767395e-19
7.72737747616368375e-18
6.40584051205784304e-19
6.26561561796241979e-20
8.58855632197211764e-19
6.17458515985983496e-20
3.98906367123588426e-21
7.82801319964111965e-20
4.88317084967460506e-21
1.79219255561591476e-22
5.68197669818835052e-21
3.09435960798950204e-22
4.93956469215108588e-24
3.11380054978570458e-22
1.49950380213736751e-23
5.78699131180653278e-26
1.15844003993940994e-23
5.03163269900564352e-25
2.20522490963399679e-25
8.87347579748730334e-27
-3.50022462193253648e-14
1.54600840816123779e-13
3.05004552529015514e-14
-1.07577798570556968e-14
1.44859272660477623e-13
3.01067110588752795e-14
7.49550814634511802e-15
1.27657899924002764e-13
2.761605112763377e-14
1.58391822811250678e-14
1.00445891865537534e-13
2.19500914704716392e-14
1.49619006106782408e-14
7.61326498488905783e-14
1.50841615302141133e-14
9.76937455918497218e-15
5.00122844935710568e-14
8.66433689326662061e-15
5.08215441100134922e-15
2.7128309909747959e-14
4.24460267130028091e-15
1.85139810011699558e-15
1.04028784100430839e-14
1.49473035840032485e-15
4.99920892925761033e-16
3.02645474092138878e-15
3.83366004511430521e-16
1.0496853969953231e-16
7.03507020759000559e-16
7.87581798748311854e-17
1.76225462435173916e-17
1.34922112249530199e-16
1.33196820578963041e-17
2.38140404189644531e-18
2.16398898135685209e-17
1.87308259456260305e-18
2.57332202353353509e-19
2.90888224434020282e-18
2.19505608828267776e-19
2.18137398621109009e-20
3.25640588953479173e-19
2.13525992740449601e-20
1.3977987566847024e-21
2.98848482506869593e-20
1.70413215118503927e-21
6.31939215914195064e-23
2.18327522804451814e-21
1.08946805797397353e-22
1.75229546074911787e-24
1.20374467964271209e-22
5.32369900150820722e-24
2.06536931178226332e-26
4.50382497879720233e-24
1.80000457957076191e-25
8.61529292944527554e-26
3.19455116108838764e-27
-1.25748492362923456e-14
8.21454606404472705e-14
1.63587147669248201e-14
-3.58903390909529877e-15
7.42517459375374259e-14
1.49548805802190103e-14
2.71753202185309997e-15
6.37991878365426164e-14
1.282310071233768e-14
5.56146808422822146e-15
5.16499243345537143e-14
9.6774708213706968e-15
5.57100039752375372e-15
3.76952968435828177e-14
6.50294673746732133e-15
3.77618076365041797e-15
2.34398531771077112e-14
3.68684811595690868e-15
1.79929783225599612e-15
1.07788953258441649e-14
1.57723983790334537e-15
6.26246563201644737e-16
3.83667637406628108e-15
4.98786573786443787e-16
1.66392727096093509e-16
1.08647153741479652e-15
1.25669810092312221e-16
3.49338167041318633e-17
2.51571226945487719e-16
2.58426950507125147e-17
5.89188265986975631e-18
4.84525001923128842e-17
4.3963824686595331e-18
8.00792528618323855e-19
7.82256861978067475e-18
6.22870524605625435e-19
8.70587321109074018e-20
1.05899739997610975e-18
7.35937398092781167e-20
7.42494448602952213e-21
1.19382275068468998e-19
7.22029010581164271e-21
4.78641687714947026e-22
1.10293969869082898e-20
5.8122018720091379e-22
2.17657045244514655e-23
8.10844779087718366e-22
3.74702772871067154e-23
6.06958775935043986e-25
4.49682215749720076e-23
1.84547317302535234e-24
7.18908547897062184e-27
1.69171104788930637e-24
6.28460112631560755e-26
3.25152024883189542e-26
1.12175886359441202e-27
-1.4603614955367829e-14
1.01165634383165367e-14
5.91692648912756702e-14
-9.00659770688082631e-15
9.10647792068107095e-15
5.46366395799098777e-14
-4.58437611899100476e-15
7.99059905945886221e-15
4.93921954052264124e-14
-1.18712335649846401e-15
6.84155564618837545e-15
4.34385055866092186e-14
1.05508708535147627e-15
5.6002718269945672e-15
3.63424399153262663e-14
2.05683655811275159e-15
4.17434112737845872e-15
2.84430976325617555e-14
1.98122995118002987e-15
2.5762485654908729e-15
1.94145943886780275e-14
1.27326994103678992e-15
1.27740420455759048e-15
1.08570656974259125e-14
5.8287855329287185e-16
4.99708411887179104e-16
4.81230644778206249e-15
1.99019431260183757e-16
1.55493478834303152e-16
1.68806253828632748e-15
5.27007006418669634e-17
3.91332225147462875e-17
4.77097539834772345e-16
1.11000946105971545e-17
8.08307424550724033e-18
1.10834315709592864e-16
1.88221354114054744e-18
1.38428151745469943e-18
2.14546289372999481e-17
2.57384738127561433e-19
1.97662652235504497e-19
3.48279518496817674e-18
2.81592801689851906e-20
2.35539498895598771e-20
4.74027042088308935e-19
2.41677410320937391e-21
2.33136509649271646e-21
5.37074320801349599e-20
1.56746962062867653e-22
1.89325499518959808e-22
4.98472165384653582e-21
7.16923610298521969e-24
1.23083139443824111e-23
3.67963857298282858e-22
2.01050566825259311e-25
6.10898385851653797e-25
2.04795880592455991e-23
2.40333758484076418e-27
2.0948132194214337e-26
7.7278997836571835e-25
3.76498563304224079e-28
1.49083896578935184e-26
1.93411267348398171e-13
6.56913864849347918e-13
1.05898306360535218e-13
1.73955777086661224e-13
4.28437323824305548e-13
4.28903097003753639e-14