/*--------------------------------*- C++ -*----------------------------------*\
| =========                 |                                                 |
| \\      /  F ield         | OpenFOAM: The Open Source CFD Toolbox           |
|  \\    /   O peration     | Version:  2206                                  |
|   \\  /    A nd           | Website:  www.openfoam.com                      |
|    \\/     M anipulation  |                                                 |
\*---------------------------------------------------------------------------*/
FoamFile
{
    version     2.0;
    format      ascii;
    arch        "LSB;label=32;scalar=64";
    class       volScalarField;
    location    "0.149999999999999994";
    object      alpha.water;
}
// * * * * * * * * * * * * * * * * * * * * * * * * * * * * * * * * * * * * * //

dimensions      [0 0 0 0 0 0 0];

internalField   nonuniform List<scalar> 
7340
(
4.50808769461260506e-07
3.2544919045006727e-07
1.93142211142881191e-07
9.23778012747822803e-08
3.56450786738196173e-08
1.06273153956965956e-08
2.51111347468239314e-09
5.39936571855725339e-10
1.5063751471434662e-10
3.38540349341654715e-11
4.50032543926980125e-12
4.30296140703369646e-13
3.17797655102486593e-14
1.74132055398875069e-15
6.36120384794954688e-17
1.16480056630910633e-18
1.81842571728988743e-07
1.30507427134949586e-07
7.70777928958172642e-08
3.66563600812990459e-08
1.40750023351686403e-08
4.2592415179651779e-09
1.0473829241584232e-09
2.85123898166597544e-10
8.28367568347368653e-11
1.50348358274548307e-11
1.84714853234945836e-12
1.7649025012805485e-13
1.31781431605541924e-14
7.31474312192975577e-16
2.71196753823967035e-17
5.0580120694284012e-19
7.2148039803350374e-08
5.1271449117714032e-08
3.00252864600480164e-08
1.41879890046333604e-08
5.42569403275587429e-09
1.72230585616655903e-09
4.59383818213534596e-10
1.55226223644953332e-10
3.84664987883359704e-11
6.06580806835288411e-12
7.29401424894550443e-13
7.01335943232797143e-14
5.29061423222497373e-15
2.97114835337100013e-16
1.11631103877194666e-17
2.11595573686281631e-19
2.81157512426523029e-08
1.97370083929809285e-08
1.1452189062042344e-08
5.37568815185096004e-09
2.08042230001976967e-09
6.89075351244119169e-10
2.32104087541230652e-10
7.57275877206830114e-11
1.55602004459944491e-11
2.32874527848982275e-12
2.79667820200469243e-13
2.7094207569580398e-14
2.0631471914706242e-15
1.17097103084850874e-16
4.45255276225895553e-18
8.55833926890647865e-20
1.77927619075860216e-08
1.60203431890206108e-08
1.36788834694948997e-08
1.07979982414542288e-08
7.46767698108059835e-09
4.28693239215449272e-09
1.99719228324347572e-09
8.269700546799411e-10
3.04551915656049763e-10
1.18125155551211251e-10
3.15843602896039253e-11
5.87228082787065415e-12
8.67205215980083497e-13
1.04570456937878418e-13
1.02058740975344842e-14
7.8384230102812174e-16
4.49186871074177502e-17
1.72664319239921326e-18
3.3579595201803154e-20
7.19886925301656324e-09
6.1427789851054863e-09
4.98309095449722207e-09
3.8037591384327533e-09
2.63942633926709987e-09
1.60494840508138418e-09
7.98520348233235432e-10
3.26732990250854101e-10
1.45816926549682445e-10
5.15014171135203936e-11
1.18963461119453601e-11
2.14595759171390694e-12
3.16541778868356075e-13
3.83671253536041098e-14
3.7704845176609127e-15
2.91887959600758599e-16
1.68768848693834831e-17
6.55285921459957189e-19
1.28819667309370653e-20
3.32366183744311566e-09
2.52138373436121724e-09
1.98974920062000023e-09
1.56049725901964698e-09
1.17323898016743746e-09
8.52976079772572891e-10
5.82218481850636743e-10
3.50834137050500535e-10
2.43771202521172058e-10
1.37792716816270941e-10
6.09176979188501283e-11
1.73698597886920633e-11
3.81902650547061445e-12
6.83625613713052975e-13
1.01109310092412211e-13
1.23130994364280289e-14
1.21602839988076471e-15
9.45848684411321243e-17
5.49330264406337107e-18
2.14192340348850634e-19
4.22511146335385371e-21
9.6720483834393919e-08
5.38199249606080189e-08
2.4068374186088719e-08
8.78761553748960433e-09
2.7236588661237384e-09
6.90446164009769171e-10
2.00906775323696001e-10
5.20153785599754892e-11
8.28613327019969907e-12
9.40277015172988711e-13
8.42775490028194026e-14
5.91472563337608621e-15
3.08539021033605454e-16
1.07479915608538631e-17
1.88864984030123618e-19
5.53078849311213861e-08
3.77463831408803187e-08
2.09708615062093208e-08
9.36766270331020137e-09
3.46149889619671634e-09
1.1090735253302573e-09
3.39925892195011102e-10
1.08999987092723609e-10
2.34661112458331326e-11
3.38601790114335197e-12
3.81572376681963346e-13
3.4544411995621454e-14
2.45433525946016634e-15
1.29775382530230337e-16
4.58996617418212325e-18
8.20273830125509124e-20
2.12485973620952967e-08
1.44407040280829439e-08
7.99815177574348139e-09
3.5648050435122292e-09
1.38077555653293195e-09
4.678698510051201e-10
1.77243794746421838e-10
5.13499840974012017e-11
9.47428864797914893e-12
1.32542902549109263e-12
1.50050027280304068e-13
1.37199896837637303e-14
9.85801846724277995e-16
5.27732309507268827e-17
1.89236978883407948e-18
3.43282507563235328e-20
8.05260331030013106e-09
5.43065659708568605e-09
2.99230909941308444e-09
1.3908086947219951e-09
5.40814478205542108e-10
2.33034836754208957e-10
8.76919736896979131e-11
2.08616948791377607e-11
3.6141694741480349e-12
5.03409203615102309e-13
5.73987475205009063e-14
5.29737604411137031e-15
3.84558964865767596e-16
2.0820279635567956e-17
7.55947107320752326e-19
1.38959595692908264e-20
4.78774165215135859e-09
4.44864756962453824e-09
3.87464422347108927e-09
3.01145617389775938e-09
2.00972781281324355e-09
1.14929955002271832e-09
5.4336870061860346e-10
2.61350602683338925e-10
1.18269846469016445e-10
3.64910381170946855e-11
7.84150426706819631e-12
1.33473988958263738e-12
1.86507626849042754e-13
2.14232265733141023e-14
1.99424696735219879e-15
1.46143529594735233e-16
7.99443843956702705e-18
2.93576124936780122e-19
5.46136854357253975e-21
2.0493695362828186e-09
1.80289755473537873e-09
1.5142831475484526e-09
1.17180370234713736e-09
7.97037831045682875e-10
4.49396646131086113e-10
2.48077914080061941e-10
1.31035977764435594e-10
5.14661314649832965e-11
1.37035597162509729e-11
2.84587087609192402e-12
4.83112548864076451e-13
6.78402401289924894e-14
7.84696965547415417e-15
7.36281118693864462e-16
5.44310512610848018e-17
3.00627300528847269e-18
1.11567942586414087e-19
2.09845960455767127e-21
1.01037110442160694e-09
8.23282541960644614e-10
6.72775586970035894e-10
5.43727911193213864e-10
4.11074318201855056e-10
3.02193872623479714e-10
2.4100440610433784e-10
1.74736978442584185e-10
1.11016366038592322e-10
5.27098204494469743e-11
1.72245673850936978e-11
4.36636760421733545e-12
8.98806014428754164e-13
1.52998930064641997e-13
2.16022568506318428e-14
2.51357739120110166e-15
2.37232185596823873e-16
1.76360267909445184e-17
9.79175528557200586e-19
3.6519828191419588e-20
6.89718880214335392e-22
2.30071644699428969e-08
1.19741952565395051e-08
5.01367623967169015e-09
1.80097364787017346e-09
5.80168328843355085e-10
2.0581471231762057e-10
6.0167255610100783e-11
1.10885509279744528e-11
1.46089065597972845e-12
1.539677245462362e-13
1.30859389799918621e-14
8.72868701223818554e-16
4.33107030870550367e-17
1.43699085146394062e-18
2.4103160242210095e-20
1.36376425622111401e-08
8.785754515012656e-09
4.58441577944678946e-09
1.99600223948584664e-09
7.27217532541674307e-10
2.96861081672011191e-10
1.09995115913055362e-10
2.70646437680041339e-11
4.50173922076768649e-12
5.87350205956561852e-13
6.25015667116516119e-14
5.37674519793822104e-15
3.6334552673695752e-16
1.82854941573726108e-17
6.1623390447775975e-19
1.05131258258086527e-20
5.11690339756843417e-09
3.29508770060072227e-09
1.76213216169101825e-09
7.96259583861572117e-10
3.50939517241886408e-10
1.57434179033861499e-10
5.1385387316257614e-11
1.08632028910100016e-11
1.74736773464137605e-12
2.2888198552774991e-13
2.4599306905123515e-14
2.13993733022882361e-15
1.46357001950178615e-16
7.46175486726091487e-18
2.5506640947007665e-19
4.41784282384577225e-21
1.89438745339785377e-09
1.2643716316593583e-09
6.99616598315187735e-10
3.44887870582372021e-10
1.83425895174210462e-10
7.63416673427630221e-11
2.07005373122790537e-11
4.11188009863241165e-12
6.58026228345861886e-13
8.68059990261353458e-14
9.41783746325593392e-15
8.27744304981456769e-16
5.72413506869322224e-17
2.95336953763933279e-18
1.02270070807285378e-19
1.79534867499390526e-21
1.27140298991418627e-09
1.16279435329828903e-09
9.99792432528189641e-10
7.62784789200211435e-10
4.98771375087774977e-10
2.92218261459407838e-10
1.77894297922131058e-10
9.15876381553252327e-11
3.13990874835031907e-11
7.71658903568163668e-12
1.50650224278348911e-12
2.41814609318809366e-13
3.21396066136003508e-14
3.5175874862491637e-15
3.12113074643302141e-16
2.18048642402147609e-17
1.13742969716636455e-18
3.98559043457588599e-20
7.08247723425309832e-22
5.56310971989981894e-10
4.88173358257063506e-10
4.01466535810721613e-10
2.92908183176484636e-10
2.21703168946827675e-10
1.50961091547584962e-10
9.13352947107726762e-11
3.84400536944355242e-11
1.16553593326851353e-11
2.77942590671189016e-12
5.41203086866129256e-13
8.7293552763054593e-14
1.16843640465557186e-14
1.28916613817618584e-15
1.15397495428712098e-16
8.13884440330576822e-18
4.2892121329691192e-19
1.51959856928044776e-20
2.73094656351407322e-22
3.45928017396896613e-10
3.02948047361410139e-10
2.52837170065483117e-10
2.04736874448857928e-10
1.63469135746898705e-10
1.30705947706521922e-10
1.00741245443302473e-10
6.98204721659811687e-11
3.39145369319661177e-11
1.25791701062141694e-11
3.67370163335509986e-12
8.69931557419335108e-13
1.69925574369309048e-13
2.75746068707429255e-14
3.71603557666650371e-15
4.12822090476000829e-16
3.72003911675266166e-17
2.6403989501875152e-18
1.39981179977937005e-19
4.98730051880936322e-21
9.00504444324756637e-23
7.06012176841870658e-09
4.25807797238718751e-09
2.103332465750796e-09
8.84023838866788263e-10
3.62741769988243443e-10
1.58153675046909283e-10
5.19061829284325065e-11
1.08088729141853056e-11
1.63130374436120455e-12
1.98706692823259465e-13
1.98420334563247922e-14
1.6022141199614108e-15
1.01573738617563501e-16
4.79191879637183284e-18
1.51283756612374173e-19
2.41811734413960625e-21
2.6385389260988643e-09
1.63324102041015775e-09
8.52091513588895665e-10
3.82874315697307086e-10
1.99930777470707364e-10
8.40552567037637982e-11
2.29624869676536952e-11
4.34676631480865176e-12
6.50364405993684159e-13
8.0002412598469371e-14
8.08642958761428032e-15
6.6141782825063409e-16
4.25077210074117531e-17
2.03510018578413727e-18
6.52902300736853485e-20
1.06171699961662632e-21
1.03784023315349518e-09
6.55747318434844816e-10
3.36610613849876794e-10
2.06768088806613318e-10
1.08274114398060534e-10
3.81534086309077864e-11
9.09746110963958089e-12
1.67296732792259143e-12
2.51430323809174458e-13
3.12437981478406484e-14
3.19377187895777185e-15
2.64362041109089718e-16
1.72065140983470558e-17
8.35042495887362109e-19
2.71863424995611413e-20
4.48956523456241812e-22
4.08564610747178542e-10
2.64508162965812682e-10
1.86442265449393204e-10
1.14293757244783233e-10
5.01143938462771027e-11
1.5045005518183496e-11
3.41110481772568063e-12
6.25161541762081542e-13
9.46491594924480854e-14
1.18747666854935083e-14
1.22652984646916258e-15
1.0265193732300515e-16
6.76017040407322452e-18
3.32210182420640753e-19
1.09617608141322046e-20
1.83527331413186087e-22
3.22016839841254969e-10
2.77857507864661406e-10
2.35616817116058016e-10
1.92504845792632516e-10
1.44636729838577788e-10
1.0194487885172271e-10
5.29948584869413766e-11
1.97809964067501607e-11
5.53831919787990793e-12
1.24018487529141745e-12
2.28107603022991479e-13
3.47993755866171509e-14
4.4050057037425322e-15
4.59385781800895517e-16
3.88428895391672949e-17
2.58596098492913724e-18
1.28557292636227317e-19
4.29446373749628351e-21
7.28039906561636189e-23
1.80833313161635774e-10
1.50948784102786344e-10
1.26387999358255003e-10
1.03094467443870626e-10
7.7800573651749027e-11
4.61099353555463941e-11
2.08785648051964506e-11
7.20778688827605308e-12
1.97878927919056471e-12
4.42626097227891558e-13
8.18138716287396456e-14
1.25697313235097035e-14
1.60411611583871458e-15
1.68783318907958719e-16
1.44080600413755117e-17
9.69007909081247642e-19
4.86960216637768479e-20
1.64547348570005761e-21
2.82204283414656817e-23
1.29028463095540877e-10
1.0784041015454376e-10
8.87373755154445824e-11
7.29600660634651468e-11
5.92787066253400553e-11
4.48104436040213473e-11
2.92530145472104232e-11
1.56141817127895615e-11
6.6268865993928558e-12
2.24199932066556223e-12
6.13553150322727714e-13
1.37775993397131641e-13
2.56316380290378047e-14
3.96731201067298572e-15
5.10216436014901786e-16
5.4097904857444559e-17
4.65244525419686313e-18
3.15109804334495029e-19
1.59402057520703147e-20
5.42003657822626472e-22
9.34428093979240543e-24
1.07229769285318205e-09
6.3254938731523449e-10
3.04560415758361531e-10
1.76132016262373849e-10
9.22784957669530693e-11
3.26558915975917608e-11
7.52561540587703199e-12
1.2935658939085242e-12
1.8071834733354661e-13
2.08696048990142541e-14
1.98137515961386555e-15
1.52152505983615364e-16
9.17259644241388981e-18
4.11476525069724978e-19
1.23532612895464161e-20
1.87849381722889816e-22
4.34206938839011798e-10
2.51974639291953248e-10
1.73186464743746548e-10
1.06220908982022713e-10
4.73180532426911195e-11
1.39625373996434017e-11
2.99121578470908397e-12
5.1189956374289695e-13
7.22586385111133479e-14
8.44757152606998317e-15
8.12366745038939081e-16
6.32259322003802119e-17
3.8662277529475967e-18
1.76105188922084442e-19
5.37544911186717119e-21
8.31974282540233785e-23
1.90757740760459252e-10
1.47229937599946577e-10
1.01656319444360897e-10
5.45884033448885406e-11
2.03080153856959828e-11
5.42948798938378891e-12
1.14187414177021997e-12
1.96562438764408035e-13
2.80347959998760536e-14
3.31482233106756868e-15
3.22591012597106654e-16
2.54234675281610247e-17
1.57537320961514348e-18
7.27792220870680062e-20
2.25554347124792171e-21
3.54667598954966436e-23
1.10865692993232502e-10
8.46349609502171273e-11
5.15188322993858845e-11
2.33981161542529179e-11
7.7645483089220956e-12
2.01495929449192156e-12
4.23844023514077608e-13
7.35289500456171785e-14
1.05889686193254435e-14
1.26519769403210055e-15
1.24495600717083048e-16
9.92665066678601391e-18
6.22738701482768368e-19
2.91479288541845193e-20
9.15983344436155126e-22
1.46079206895363657e-23
1.04150346729293652e-10
8.93754274935823123e-11
7.65971992818924812e-11
5.96936163211336889e-11
3.99073780628306873e-11
2.14573896331441011e-11
8.7714916434727234e-12
2.81771642531288207e-12
7.27550072901032737e-13
1.5373549332056107e-13
2.6874569432065316e-14
3.90488807307335612e-15
4.71107835905109295e-16
4.68367751176969887e-17
3.77531584097991355e-18
2.39569283914819596e-19
1.13497621722578627e-20
3.6125932027645957e-22
5.83590424489169551e-24
4.92867735105636009e-11
4.18581584691152519e-11
3.45462725827896025e-11
2.53335419801724878e-11
1.57283547592565861e-11
7.87557009680670942e-12
3.13679946743373595e-12
9.99502574507475544e-13
2.58316751800584327e-13
5.48526272671289784e-14
9.65486752770837908e-15
1.41420192063776292e-15
1.72143970909465705e-16
1.72790301008551914e-17
1.4070203392655389e-18
9.02482116515802288e-20
4.32425344287677287e-21
1.39292809824990008e-22
2.27721370102474231e-24
2.68691500688708256e-11
2.17101567743890878e-11
1.77441493843209556e-11
1.46287894880614262e-11
1.16606382635373197e-11
8.19502324929240132e-12
4.943119098027551e-12
2.4346164253705203e-12
9.6317889388583908e-13
3.07030261820282866e-13
7.97103303937394855e-14
1.70394882446646448e-14
3.02263410693369926e-15
4.46448377936639425e-16
5.48090736574652514e-17
5.54803671313599857e-18
4.55457172310244462e-19
2.94389356808555872e-20
1.42074861198163552e-21
4.6077751839448542e-23
7.57608682901914498e-25
1.25983880637122714e-10
1.01260464380286869e-10
6.9307502830374819e-11
3.86135798808082448e-11
1.40337992192776427e-11
3.55968178818432258e-12
6.97882412209704872e-13
1.11764647791849108e-13
1.48325614681368804e-14
1.63144987733418591e-15
1.47573882997567474e-16
1.07958243973824192e-17
6.19776757314442588e-19
2.64589975847466866e-20
7.552782168810108e-22
1.09091363974833512e-23
8.66577519709635782e-11
6.51983149136058915e-11
4.05806489765270863e-11
1.80901237098586578e-11
5.74207818186829819e-12
1.39772639422091304e-12
2.74529413472581543e-13
4.44452190621286893e-14
5.97108761062222843e-15
6.65173514680052194e-16
6.09699109366185209e-17
4.52261624444849256e-18
2.63489173046843195e-19
1.14279411060189923e-20
3.31871719399983509e-22
4.8821997749818909e-24
5.33889028799866939e-11
3.49589739750240604e-11
1.84683252277137377e-11
7.22595489239524064e-12
2.18821091124441591e-12
5.29872768380100346e-13
1.04857588964443066e-13
1.71531241120261094e-14
2.33055224246001616e-15
2.62707030950259357e-16
2.43795850513408477e-17
1.83209464475076305e-18
1.08216377805465476e-19
4.76282296966183792e-21
1.40511390728853154e-22
2.10131669720914918e-24
2.44064901137868481e-11
1.48942782982071741e-11
7.11383173476634416e-12
2.68082770403952711e-12
8.04917104003333445e-13
1.95669867125543685e-13
3.90316806182804496e-14
6.44603403152345884e-15
8.84918090121025994e-16
1.00852215472734324e-16
9.46807988739456031e-18
7.20221272861689251e-19
4.30904700356977345e-20
1.9224155041211245e-21
5.75373661177254494e-23
8.73125757422374685e-25
1.93768703741812421e-11
1.68373842135794064e-11
1.3776834686135624e-11
9.48979371876806067e-12
5.495355187129355e-12
2.57250979960890977e-12
9.62249636035230002e-13
2.89189295827349754e-13
7.06648761483004904e-14
1.41999718159563281e-14
2.36548351644287007e-15
3.27853796760780878e-16
3.77494257463077162e-17
3.58248323867606358e-18
2.75628374619266584e-19
1.66888931526281546e-20
7.5397773249531933e-22
2.28677472940330383e-23
3.51672005880816616e-25
7.31434824448807677e-12
6.23250236960926648e-12
5.01493395306915893e-12
3.40958652725158465e-12
1.95419119877639597e-12
9.09705130835779195e-13
3.39838465292276309e-13
1.02346724830689615e-13
2.51228369871909736e-14
5.08043940923587963e-15
8.52835789309800783e-16
1.19234947659882545e-16
1.38597194245481438e-17
1.32868514784605223e-18
1.03322472469974633e-19
6.32654845453106312e-21
2.89212430447643933e-22
8.88110186315941272e-24
1.38279472594922662e-25
3.5168252259696614e-12
2.87056103449647492e-12
2.37122872363134996e-12
1.96580126920288673e-12
1.55040864408683525e-12
1.04294690652786639e-12
5.94363618360681742e-13
2.76362671863740492e-13
1.03464931085305623e-13
3.13069034661134702e-14
7.73558268499072268e-15
1.5766843461819582e-15
2.6698658517244524e-16
3.76707404356968943e-17
4.41960674582305098e-18
4.27573927012871622e-19
3.35416716292823381e-20
2.0708201591083525e-21
9.53995788689350374e-23
2.95104253207327433e-24
4.62296813959896834e-26
2.89784926558867798e-11
1.96079235397154396e-11
9.68140827731873938e-12
3.61695862134336327e-12
1.02466649457389926e-12
2.3135459868353236e-13
4.27087663555746006e-14
6.51966009519100758e-15
8.26555497678705282e-16
8.6896693358814695e-17
7.5136321493996039e-18
5.25251419740365802e-19
2.87919161967874984e-20
1.17202526578292595e-21
3.18343351128558402e-23
4.30638746879028314e-25
1.51864200248088068e-11
8.83353545479724743e-12
4.01256810431450486e-12
1.41947676760795991e-12
3.98790448010911252e-13
9.06974381155310036e-14
1.69262433546055211e-14
2.61457199851533088e-15
3.35586697423069643e-16
3.57368636284226247e-17
3.13186359121846897e-18
2.22064214392424945e-19
1.23579829591056145e-20
5.11338963217560022e-22
1.41397970335994227e-23
1.95544550010286148e-25
6.32931879018621536e-12
3.44877522992724252e-12
1.51964202780842917e-12
5.33774040813321486e-13
1.50595385539211699e-13
3.45365802067934311e-14
6.50960562331297015e-15
1.01645767428031586e-15
1.31968388533867516e-16
1.42236848011757891e-17
1.26238385721196495e-18
9.07102228250438573e-20
5.11998093077390211e-21
2.15083887375069113e-22
6.04586716103483786e-24
8.52498636831494661e-26
2.3359663897212321e-12
1.26380085215585928e-12
5.55209018807659854e-13
1.95510313179779941e-13
5.54728306842685556e-14
1.28181627863141929e-14
2.43761365310535521e-15
3.84407108361696479e-16
5.04420223144120957e-17
5.49834606864867906e-18
4.9382199541903308e-19
3.59308813459372024e-20
2.05502855836563009e-21
8.75477236590512654e-23
2.49794447871542137e-24
3.58263349744886016e-26
1.87999382126589077e-12
1.62334829203672293e-12
1.28739715831337611e-12
8.35340693716529628e-13
4.51480156773939048e-13
1.98477210123628729e-13
7.01195105834847379e-14
1.99931760406828359e-14
4.65016183937713464e-15
8.91365401062032951e-16
1.41844916321867058e-16
1.87983131208366328e-17
2.07087929166339328e-18
1.8807860037041448e-19
1.38460872267523995e-20
8.0173514540068029e-22
3.46024020578197902e-23
1.0009621339047638e-24
1.45787637701407497e-26
6.79642637781113906e-13
5.78244946647270065e-13
4.55363645021568527e-13
2.95128623621169324e-13
1.59289817216033658e-13
7.00667980253349627e-14
2.48041751336189151e-14
7.09829853319327074e-15
1.6598183259362946e-15
3.20349877872869692e-16
5.13929242006238119e-17
6.87320430820906127e-18
7.64677411688974235e-19
7.01798503061807102e-20
5.22381454179431351e-21
3.05999373096249882e-22
1.33687081459672244e-23
3.9172757182447648e-25
5.78917519583910084e-27
3.05611683531688063e-13
2.53707613760302581e-13
2.12638841703269109e-13
1.77059244455799554e-13
1.37710147361126644e-13
8.89542729707016772e-14
4.79548994131972722e-14
2.11449425933962295e-14
7.51931179301642264e-15
2.16535986694852802e-15
5.10262970073106393e-16
9.93552154906818861e-17
1.60922411619139764e-17
2.17360100428814468e-18
2.44244092054153265e-19
2.26350860394411221e-20
1.70056691533589844e-21
1.00490749912681127e-22
4.42639080735433173e-24
1.30713223393154166e-25
1.94941317541237674e-27
2.53250835495108868e-12
1.26950911407876407e-12
4.44094556766914761e-13
1.35005753691226076e-13
3.56394443872831007e-14
7.68312871974391534e-15
1.35876585866279118e-15
1.99046819003761423e-16
2.42373262449279645e-17
2.44849101316438394e-18
2.03435544898779033e-19
1.36577235256431685e-20
7.18062821973547016e-22
2.79742922456728842e-23
7.10946932225187562e-25
3.13617379380095853e-26
8.98059574148819709e-13
4.52100602083494949e-13
1.65011862906694057e-13
5.25157063415889235e-14
1.40067088285559706e-14
3.04517063437496502e-15
5.44234829777045316e-16
8.06310847555176261e-17
9.93652500588328879e-18
1.01658057557425208e-18
8.56016535655235153e-20
5.82945086333728586e-21
3.11236842107506414e-22
1.23310334657418847e-23
3.20600285326187955e-25
1.2399461169947442e-26
3.14014019740734161e-13
1.58424911704151508e-13
6.00396365010427619e-14
1.98577335313722325e-14
5.34210505558663607e-15
1.1703803858226725e-15
2.1119124113953912e-16
3.16201941827233497e-17
3.94088348897464649e-18
4.08030529551489388e-19
3.47959717261923433e-20
2.4016818734953365e-21
1.300873657950082e-22
5.23498292189176245e-24
1.38893847631507936e-25
4.77244916092835635e-27
1.08430590945209671e-13
5.48624307597624616e-14
2.1893474264931928e-14
7.3328197604909925e-15
1.98329074193600014e-15
4.37766883618104706e-16
7.96881826366968016e-17
1.20483205240696755e-17
1.51757449662939981e-18
1.58908062304656215e-19
1.37142404344880075e-20
9.58646218013619903e-22
5.26292834150673168e-23
2.14863460636557125e-24
5.80460554067694482e-26
1.79313857992299757e-27
9.12419150633317606e-14
7.80407190866383761e-14
6.03378393692342504e-14
3.73518168297366366e-14
1.90212102508112256e-14
7.88283908099080011e-15
2.64771281602640317e-15
7.19411446600063461e-16
1.59842208332714814e-16
2.93289957883355634e-17
4.47477715436674086e-18
5.69268594362513128e-19
6.0247865785367626e-20
5.25856205256484022e-21
3.71983911408135337e-22
2.06804506290135457e-23
8.55652681822971607e-25
2.34990252845792692e-26
6.5947069746047854e-28
3.26039822515125703e-14
2.75711019448772587e-14
2.11836952394793533e-14
1.31004907519738632e-14
6.67786734361448204e-15
2.79714138528064563e-15
9.41622917181402719e-16
2.56831477331913664e-16
5.73765664382148874e-17
1.06013418554379453e-17
1.63079328550508633e-18
2.09382290952283788e-19
2.23819791968765669e-20
1.97441146438136604e-21
1.41242707755579664e-22
7.94584208136283031e-24
3.32900632190678512e-25
9.28764315207677454e-27
2.16779961869397237e-28
1.3827355543766283e-14
1.16733596389113926e-14
9.95223736949591064e-15
8.31156519825491855e-15
6.35140760371398242e-15
3.93335567409604239e-15
2.00383964752510185e-15
8.39550343339394095e-16
2.84318644256883808e-16
7.81312002811707026e-17
1.76083237295728083e-17
3.2852442834433367e-18
5.10613355550975967e-19
6.62570781185761527e-20
7.15757613061148993e-21
6.37889106442088376e-22
4.60787415782803936e-23
2.61606146297224266e-24
1.1054564979257649e-25
3.12188057651332239e-27
4.94925895580567254e-29
9.40428856576550415e-06
5.74311909637632482e-06
3.05980052995398274e-06
1.24322765568811693e-06
4.29761533765868987e-07
1.26149303134889958e-07
3.12237612720861687e-08
6.46289226221917084e-09
1.10813046796829367e-09
1.73274823570911049e-10
4.00714141603048101e-11
6.35534701890197068e-12
4.74015375566833178e-13
2.09093526041220783e-14
1.24451775136842751e-15
7.50767561616173309e-06
4.70098530539087598e-06
2.7967610433582334e-06
1.4637512711701467e-06
5.87691235310655974e-07
1.99589959875467962e-07
5.76333632547320734e-08
1.40369859230797774e-08
2.86943097364916028e-09
5.22409328258030599e-10
1.09662471365293218e-10
2.55128621815715845e-11
3.01984844116796138e-12
2.13920185354295075e-13
9.64025784731699864e-15
5.06759733354339934e-16
3.72754458187679232e-06
2.27158588244080295e-06
1.31788229066400696e-06
6.78778830894598544e-07
2.69438144652191229e-07
8.9842883362022363e-08
2.54640846933799522e-08
6.11202473711287928e-09
1.26169430018312056e-09
2.39203585658033919e-10
6.97681690864029746e-11
1.30789991495040186e-11
1.31602242866274249e-12
9.30625029755533336e-14
4.26534673624181022e-15
2.0035755971027058e-16
1.79688752293785113e-06
1.06564574399072026e-06
6.02788040043656393e-07
3.04778083411157139e-07
1.19393729769262101e-07
3.91171601156174862e-08
1.09137286237565615e-08
2.58414951545013765e-09
5.64944318738143758e-10
1.50553627389803713e-10
3.94119912683445592e-11
5.68410081857020197e-12
5.5179110953950832e-13
3.91354741806576656e-14
1.81817272854584341e-15
7.7137025762416624e-17
4.73126835356048064e-06
2.584254125047424e-06
1.46069058709067371e-06
8.45176332648210899e-07
4.87825463860842815e-07
2.68870222185063738e-07
1.33204737262915883e-07
5.14096574166419955e-08
1.65515738427817661e-08
4.55038257993552217e-09
1.11393195519910901e-09
2.75627889337253554e-10
8.99007319342771305e-11
1.82813228657446753e-11
2.33136511274179523e-12
2.24180651545884931e-13
1.59561027781819156e-14
7.49588661112669239e-16
2.8990104812278681e-17
1.94172802154110188e-06
1.0350069838974499e-06
5.71272758234191486e-07
3.22724919680189344e-07
1.81821556930599712e-07
9.78436510588203936e-08
4.80845714342256194e-08
1.94476624084984947e-08
6.51792488195049064e-09
1.85336450205552923e-09
4.77248161156741522e-10
1.5535427342612914e-10
4.46263191828808833e-11
7.50441659485525819e-12
9.26878524405478618e-13
8.89316311514424709e-14
6.350355890236342e-15
3.01321052208038577e-16
1.00359793735733946e-17
1.89416642489487016e-06
9.03794243718150116e-07
4.45635404962961598e-07
2.29500110114505341e-07
1.22432597876811941e-07
6.68579694165896323e-08
3.6408106865558992e-08
1.89399706520777297e-08
9.00780283011379177e-09
3.7894328469896299e-09
1.52395230329851629e-09
5.38129219848984863e-10
2.13455022834293811e-10
7.833257138265739e-11
1.70718599148862427e-11
2.63034268509422982e-12
3.20488021479037617e-13
3.06334147395559455e-14
2.18174709856072499e-15
1.03800021339094026e-16
2.67228899645941392e-18
7.73433365327521435e-06
4.93270275548276997e-06
2.9478376937486397e-06
1.48851931509787899e-06
5.57047105705985241e-07
1.74205812244494761e-07
4.53189310206427735e-08
9.74588124999710098e-09
1.72180910364095271e-09
2.68481796804337519e-10
5.38550402819816783e-11
9.74657797503960117e-12
7.98177319490895744e-13
3.61113778018501958e-14
2.02246728947129635e-15
6.24533376657557756e-06
3.8898418563256179e-06
2.39633577084704331e-06
1.38398968785786583e-06
6.78127264061527546e-07
2.4786818269586322e-07
7.59786128445535002e-08
1.94102125191401286e-08
4.11940647141789814e-09
7.50783322571490978e-10
1.36029121614587076e-10
3.48936976578946268e-11
4.69884896388264746e-12
3.43363711928665569e-13
1.58651898751942729e-14
7.94112403980422485e-16
3.13178121556256071e-06
1.88964926581162482e-06
1.12696442913439702e-06
6.30740744199800402e-07
3.00967348576950976e-07
1.07494214789087666e-07
3.22505798153529524e-08
8.1030273391828312e-09
1.69774224140455891e-09
3.28666029572827553e-10
8.59784522994842512e-11
1.82517812080181128e-11
1.9763058058428792e-12
1.43265508170009981e-13
6.73227832847493004e-15
3.04099520895428656e-16
1.51925517355601183e-06
8.89442191613502955e-07
5.14233989741076786e-07
2.7919000044299585e-07
1.29630553496063652e-07
4.53048926408497222e-08
1.33422835646824657e-08
3.30250059010725478e-09
7.34296681499885281e-10
1.80415935167214013e-10
5.07092398609164165e-11
7.97489438257875303e-12
7.99603579734705883e-13
5.80860274588413217e-14
2.76705065355121371e-15
1.13842830849388428e-16
4.49203538868999683e-06
2.36403197167506215e-06
1.28419183268626815e-06
7.17699017244479711e-07
4.08070202021447581e-07
2.28784031464888129e-07
1.20425979882903945e-07
5.44275340831362438e-08
1.86266137778282224e-08
5.39324703232255149e-09
1.33854185086247846e-09
3.09138956587459816e-10
1.03119285056695007e-10
2.38698436204314977e-11
3.18221076309233853e-12
3.14535478213989372e-13
2.29355383559998219e-14
1.10494746608652948e-15
4.17573175299086894e-17
1.84260029304243534e-06
9.48699592435741403e-07
5.03927326770049274e-07
2.7507521699659007e-07
1.52404987430188075e-07
8.31103716008355984e-08
4.25758133006763809e-08
1.95308892048158314e-08
6.94789715622683107e-09
2.09674809462146904e-09
5.65415710005203188e-10
1.73780257958738551e-10
5.35824208011234073e-11
9.63817555962097677e-12
1.23053505142694643e-12
1.21254280674128799e-13
8.87497811247542584e-15
4.31905833942767492e-16
1.42559157137259517e-17
1.83448792343164449e-06
8.71881250245571187e-07
4.23074804987050933e-07
2.11079787186185971e-07
1.08550245302445414e-07
5.73204840100806005e-08
3.06416031820038089e-08
1.60795156660008967e-08
7.92447539401954011e-09
3.51261091722074376e-09
1.46587812570486328e-09
5.57314128205976571e-10