/*--------------------------------*- C++ -*----------------------------------*\
| =========                 |                                                 |
| \\      /  F ield         | OpenFOAM: The Open Source CFD Toolbox           |
|  \\    /   O peration     | Version:  2206                                  |
|   \\  /    A nd           | Website:  www.openfoam.com                      |
|    \\/     M anipulation  |                                                 |
\*---------------------------------------------------------------------------*/
FoamFile
{
    version     2.0;
    format      ascii;
    arch        "LSB;label=32;scalar=64";
    class       surfaceScalarField;
    location    "0.149999999999999994";
    object      phi;
}
// * * * * * * * * * * * * * * * * * * * * * * * * * * * * * * * * * * * * * //

dimensions      [0 3 -1 0 0 0 0];

oriented        oriented;

internalField   nonuniform List<scalar> 
20856
(
1.28552898492157769e-05
0.000142000895667639782
-5.25972024699523553e-05
2.0047397176235551e-05
0.000139426400910237845
4.6818644914529716e-05
-4.96082928936947273e-05
2.60549171703153779e-05
0.000133039423719398054
4.37072439995234941e-05
-4.60521782447281735e-05
3.02768956195747051e-05
0.000123411359969746043
3.98447859010523319e-05
-4.18827378034321423e-05
3.2437041847394583e-05
0.000111797792177210833
3.5434057861168859e-05
-3.72209039063480586e-05
3.26639254523520154e-05
9.96791291562519832e-05
3.08111246163034555e-05
-3.23451417100732442e-05
3.13532492410788962e-05
8.82564549989476205e-05
2.63218746280084672e-05
-2.75930818889802921e-05
2.89694994263205745e-05
7.82145090655514386e-05
2.22203204339210564e-05
-2.32396342686225739e-05
2.59113746143039157e-05
6.97845925572249213e-05
1.86412156896491042e-05
-1.94408989602700715e-05
2.24662309146164768e-05
6.2928537063633574e-05
1.56264827951986925e-05
-1.62474968696438368e-05
1.88186846714552107e-05
5.74911747676113688e-05
1.31629965933506689e-05
-1.36448442721646444e-05
1.50773658156847034e-05
5.32869938912464348e-05
1.12109664128374433e-05
-1.15880945021419227e-05
1.13020901501117014e-05
5.01427220067529028e-05
9.72208500057059386e-06
-1.00237213931272195e-05
7.52278668770740792e-06
4.79148840156251089e-05
8.65063969629670021e-06
-8.90116961234136518e-06
3.74916068750727389e-06
4.64957444144857571e-05
7.95967092978276951e-06
-8.1789301113112247e-06
4.56905144560507286e-05
7.60017408543724392e-06
-7.80376780484948959e-06
1.22519225505141094e-05
0.000138232362193479975
4.49875678175331063e-05
-4.80514905067195967e-05
1.85197982798392075e-05
0.000135651768671577269
4.25776910397889383e-05
-4.50707518353844636e-05
2.37444591633483834e-05
0.000129895485703554459
3.96109970486232309e-05
-4.16915286985453565e-05
2.74753022264875975e-05
0.000121464291827749169
3.61070606708595022e-05
-3.7890752122763421e-05
2.9492206949417101e-05
0.000111325097540279302
3.22135196841148515e-05
-3.37577891218441721e-05
2.98664485472011907e-05
0.000100623807074870695
2.81730563103019374e-05
-2.94925426724516616e-05
2.88796983585483369e-05
9.03410157454531806e-05
2.42435810150095059e-05
-2.53421131290327316e-05
2.68885876751222978e-05
8.10964128854591232e-05
2.06249736669651329e-05
-2.15159063610927389e-05
2.42201150956723237e-05
7.31619874206347858e-05
1.7433737203611579e-05
-1.81426070736975828e-05
2.11266069654608232e-05
6.6579571628224099e-05
1.47163788527965932e-05
-1.52746556853546507e-05
1.77829969407100594e-05
6.12721713006817342e-05
1.24737934327996599e-05
-1.29128465745121229e-05
1.43017369250258784e-05
5.71146455521371935e-05
1.0681799068972916e-05
-1.10300402133117398e-05
1.07511436590231244e-05
5.39739637962627215e-05
9.30579183593700568e-06
-9.58789521650045559e-06
7.17017524100721826e-06
5.1731605030589807e-05
8.31058875974992749e-06
-8.54740700016857955e-06
3.57733554354745847e-06
5.02964196536304976e-05
7.66653790184933978e-06
-7.87527442784608882e-06
4.9461628333868896e-05
7.32998034302297881e-06
-7.52444466586650373e-06
1.16559058176139971e-05
0.000134947077115772786
4.12252829288981164e-05
-4.39766312797424359e-05
1.71480802287097628e-05
0.000132398164513144551
3.88123663147924849e-05
-4.10503410074497169e-05
2.17185582562073046e-05
0.000127181950749557994
3.59979252485413453e-05
-3.78543306290045963e-05
2.50246049231248631e-05
0.000119732330644232098
3.28036491277736457e-05
-3.43776023594344939e-05
2.68896912657323415e-05
0.000110807093351022779
2.93387254059108185e-05
-3.06868655321551612e-05
2.73496712491029038e-05
0.000101308300268276619
2.57806690440433252e-05
-2.69268893219614495e-05
2.66064791110327068e-05
9.20401948834062263e-05
2.23224088682629676e-05
-2.32788704936280466e-05
2.49342830519542189e-05
8.35516473666964634e-05
1.91201632283966769e-05
-1.99022034816894315e-05
2.25992372177938615e-05
7.61266266870145339e-05
1.62723344455060246e-05
-1.69019014131541243e-05
1.98197773390206206e-05
6.98590912566843616e-05
1.38253733717887214e-05
-1.43277635186742461e-05
1.67579939401276198e-05
6.47311238265626653e-05
1.17887702206864428e-05
-1.2188976881005454e-05
1.35256152467714405e-05
6.06665293770122289e-05
1.01492712682031083e-05
-1.0470424460514669e-05
1.01953582018960721e-05
5.75669515578048998e-05
8.8824821675959676e-06
-9.14544593307610104e-06
6.81235389553469498e-06
5.53374472917292517e-05
7.96163836243439594e-06
-8.1846089347620196e-06
3.40226362313829072e-06
5.39038522159855066e-05
7.36348028976988928e-06
-7.56160375059781552e-06
5.3048341798842482e-05
7.04953318584808201e-06
-7.23492955336267316e-06
1.10669376200924346e-05
0.00013206067341558174
3.78256705178072231e-05
-4.02968051240379163e-05
1.5905590974711026e-05
0.000129570221661104532
3.5447827894279439e-05
-3.74578233457657629e-05
1.99254893219310508e-05
0.000124822382463361781
3.27881344201019534e-05
-3.44480299635855809e-05
2.28638322550610823e-05
0.000118189249527264766
2.98660346324623253e-05
-3.12616607114425725e-05
2.45778519665945547e-05
0.000110276813193908776
2.67628635249485738e-05
-2.79480997126993103e-05
2.50821582096870654e-05
0.000101805742439363926
2.36094859555719394e-05
-2.46127011746586563e-05
2.45225678644267699e-05
9.34381808315600893e-05
2.05506759292820466e-05
-2.13889303709636086e-05
2.311000139091754e-05
8.56548644280824626e-05
1.77082754040705787e-05
-1.83981913389593885e-05
2.10600061119779197e-05
7.87362900863740973e-05
1.51642168284695528e-05
-1.57251736792708953e-05
1.85598223600143644e-05
7.28084368501444627e-05
1.29620727216745131e-05
-1.34146658608981598e-05
1.57571338413360431e-05
6.78952183542352595e-05
1.11158172052677395e-05
-1.14801353962638301e-05
1.27599792247274199e-05
6.39582316740596699e-05
9.61953329895026705e-06
-9.91475655217419854e-06
9.64278173263733092e-06
6.09288729148743592e-05
8.45657651642096733e-06
-8.70070757068177906e-06
6.45479701447981366e-06
5.8734617484446601e-05
7.6071285208988236e-06
-7.81615663972416717e-06
3.22715068960355412e-06
5.73179121317661546e-05
7.05340970852721549e-06
-7.2405209151635444e-06
5.64504407857947151e-05
6.76164832775525805e-06
-6.93722777211513782e-06
-4.49271860303994779e-06
0.000124568951574093262
4.08231193189386867e-05
-4.48760818615884734e-05
6.6400446093426929e-07
0.000128175738202577149
3.88957875266932509e-05
-4.22450030782877599e-05
5.71713040578708328e-06
0.000129857506061693622
3.68870671178515608e-05
-3.96218827216687964e-05
1.04915688523861417e-05
0.000129504058351251821
3.47437631734028534e-05
-3.69604982277614141e-05
1.47741738320425641e-05
0.000127091732872058091
3.24271930291278717e-05
-3.42304842970349592e-05
1.8327260700887306e-05
0.000122754421993485739
2.9921295333543713e-05
-3.14060384796798617e-05
2.09465290777700347e-05
0.000116810617900901088
2.72413517830081958e-05
-2.8482274953145971e-05
2.25155611593114594e-05
0.000109753859504870926
2.4447807375358035e-05
-2.5494894708136243e-05
2.3036442343945826e-05
0.000102167105593559327
2.16375708137104159e-05
-2.25207705637908023e-05
2.26147889486924554e-05
9.45985159755867108e-05
1.89196707739453701e-05
-1.96585857194587781e-05
2.14132026391900617e-05
8.7467429683501556e-05
1.63891299039055935e-05
-1.70007296163493151e-05
1.96063386385257377e-05
8.10421384949600216e-05
1.41135017494920676e-05
-1.46148839377039904e-05
1.73539602101006924e-05
7.54656971853544343e-05
1.21319927594471755e-05
-1.25401391034484443e-05
1.47887355044941383e-05
7.07900050092596678e-05
1.04602672240922785e-05
-1.07917605463909163e-05
1.20127082963257941e-05
6.70054258755329181e-05
9.0971642292427669e-06
-9.36835714971211356e-06
9.0998821201921031e-06
6.40688274696003102e-05
8.03192166093920996e-06
-8.25847296596034296e-06
6.10216623152311971e-06
6.19281981095396177e-05
7.25038531294247169e-06
-7.44616706961892765e-06
3.05533901228568585e-06
6.0540792177711537e-05
6.73932383856016689e-06
-6.91561593344852978e-06
5.96718407251279346e-05
6.46917671725481458e-06
-6.63499030249933585e-06
-3.57126583244231526e-06
0.000123493283990938531
3.81907779947242927e-05
-4.18323017727543703e-05
1.11329326772009683e-06
0.000126491444968051208
3.61460025944762586e-05
-3.91449178596382731e-05
5.66173695285906054e-06
0.000127756825271252081
3.4080298199825949e-05
-3.6526814579408011e-05
9.92890586581660024e-06
0.00012722336086445015
3.19452662641786809e-05
-3.39305297159324563e-05
1.37354231870248919e-05
0.000124901978469346442
2.97073403577873526e-05
-3.13229889538404598e-05
1.68910301014856603e-05
0.000120927551821397959
2.73513744126863401e-05
-2.86793824307341694e-05
1.92332004949097543e-05
0.000115574186527755469
2.48881530149740803e-05
-2.59936559114125962e-05
2.06664244242182691e-05
0.0001092487845866122
2.23622602657179607e-05
-2.32909355288924172e-05
2.11856440484331233e-05
0.000102428322438604899
1.98455537556958395e-05
-2.06270876142781618e-05
2.08674176866221248e-05
9.55701467702601518e-05
1.74203490575974753e-05
-1.80750652069552551e-05
1.9837665645426457e-05
8.90397537789038907e-05
1.5160791768514417e-05
-1.57051946443658848e-05
1.82384372811535922e-05
8.30880910841360167e-05
1.31221710233119207e-05
-1.35714000743419542e-05
1.62057616421637614e-05
7.78645794125835847e-05
1.13387147128169925e-05
-1.17071742011183146e-05
1.38575724769731221e-05
7.3438992341029455e-05
9.82603890591671371e-06
-1.01278908645941537e-05
1.12885884023550829e-05
6.98237102658546746e-05
8.58593926714242993e-06
-8.83534860889247464e-06
8.57077001646385794e-06
6.6997181813828867e-05
7.61202277873137946e-06
-7.82249255468465668e-06
5.75712853827165054e-06
6.49253418418720488e-05
6.89459666258546492e-06
-7.07795845524448547e-06
2.88505032336220952e-06
6.35794221995745183e-05
6.4240930295062132e-06
-6.58995344166724893e-06
6.27145526687143104e-05
6.17458247372078055e-06
-6.33084936845602301e-06
-1.14496914532300559e-05
4.02089744059157893e-05
-4.49345033446229132e-05
0.000113259320946815478
-7.08775811376226795e-06
3.78792734792984462e-05
-4.18197591809359176e-05
0.000118507905903327446
-2.76074484792874478e-06
3.56861574311112959e-05
-3.8947471931389006e-05
0.00012242815211631122
1.4976153141966922e-06
3.35730451799497593e-05
-3.62509349564240355e-05
0.000124912080008717072
5.59760082551497519e-06
3.14898047911660377e-05
-3.3672365061413125e-05
0.00012584056339037255
9.41951527081569262e-06
2.93895273702534572e-05
-3.11618895010168921e-05
0.000125175148279123267
1.2813523490406545e-05
2.7241690070460056e-05
-2.86850098437328106e-05
0.000122952502844518423
1.56249324930030664e-05
2.50310655632574782e-05
-2.62165540932673364e-05
0.000119302599655355052
1.77226343483809768e-05
2.27642705030378202e-05
-2.37487830294980568e-05
0.000114461416046254821
1.90281073066948152e-05
2.04735049604653675e-05
-2.1298330893189854e-05
0.000108767512604609364
1.95321226111977946e-05
1.82117141045640477e-05
-1.89051053985338975e-05
0.000102616105537947964
1.92897951345792061e-05
1.60408831025857706e-05
-1.66226882084286924e-05
9.63922452802154988e-05
1.83988147447923087e-05
1.40187343408434133e-05
-1.45044866861038378e-05
9.04144374590519392e-05
1.697509936742006e-05
1.21901832708902582e-05
-1.25933239822733428e-05
8.49132565976223734e-05
1.51345575523298677e-05
1.0584490022873338e-05
-1.09175005355138297e-05
8.00370677407332765e-05
1.29815504718504447e-05
9.21633100200611958e-06
-9.49152922650246293e-06
7.586654227609574e-05
1.06029989122829728e-05
8.08927044088524697e-06
-8.31892487738802623e-06
7.24312829410291112e-05
8.06757872784628933e-06
7.20009116464669571e-06
-7.39569648705520266e-06
6.97278109709558672e-05
5.42876495425176545e-06
6.54256389002336194e-06
-6.714134809440819e-06
6.77362556880651927e-05
2.73246977977312408e-06
6.11011956242182725e-06
-6.26594329523396367e-06
6.64333200274467959e-05
5.88058446000566753e-06
-6.02745043380572694e-06
6.55961959992464554e-05
1.69445084014026274e-05
0.000122443384299658522
4.26495202103859352e-05
2.22076706383022624e-05
0.000116556636859610729
3.98185214045231582e-05
2.58825873921414953e-05
0.0001083335638706169
3.62704025649760069e-05
2.7822385934790506e-05
9.88083161798548063e-05
3.22458856225813132e-05
2.81682153942492391e-05
8.90582810396443831e-05
2.80668822548225892e-05
2.72326571883097458e-05
7.99062229202884876e-05
2.40331759601573488e-05
2.53665140041487404e-05
7.18132309371629729e-05
2.03538552455597899e-05
2.28739419930889629e-05
6.49424350520662471e-05
1.7137687552666194e-05
1.9983226309477148e-05
5.92803483625170302e-05
1.4419043422033776e-05
1.68502782688870178e-05
5.47312928197795745e-05
1.21879710931387907e-05
1.35748883390555353e-05
5.11726053067021317e-05
1.04124215569526667e-05
1.02195616555523196e-05
4.84848821059864321e-05
9.05300594202601506e-06
6.82292431879702566e-06
4.65659008000781917e-05
8.07200132385236396e-06
3.40648221560572584e-06
4.53368584417880328e-05
7.43828513713712127e-06
4.46239291766208681e-05
7.10900510151345762e-06
9.84703316210077715e-06
0.000123168034204154886
4.08541754436284553e-05
1.55531958801272141e-05
0.00012051565616593358
3.87996251639427005e-05
2.02419678321697417e-05
0.000115331558165046068
3.6147420856977609e-05
2.35840272114121768e-05
0.000108134902055051564
3.29630965613090274e-05
2.54503679601466376e-05
9.97328317860590567e-05
2.94213461777500451e-05
2.59270856429920752e-05
9.09923623805953245e-05
2.57610981158881011e-05
2.52435217092967712e-05
8.26198478348683682e-05
2.22136632325773877e-05
2.36770793103141556e-05
7.50558933935749448e-05
1.8949534116989072e-05
2.14836168185198252e-05
6.85026501204469133e-05
1.60664514534764783e-05
1.88672343083603464e-05
6.30063295042004271e-05
1.36044872229344937e-05
1.59766609573064383e-05
5.85272128272812473e-05
1.15659638056434882e-05
1.29137875440587888e-05
5.49843696372291239e-05
9.93157400131061455e-06
9.74627673189199065e-06
5.22850564612973057e-05
8.67263886849517774e-06
6.51839151926324807e-06
5.03439150747303206e-05
7.7597165869116076e-06
3.25761007628830553e-06
4.90949514522660824e-05
7.16783540391814306e-06
4.83511183481867042e-05
6.85896790893964239e-06
9.23668601196681122e-06
0.000121295735998103971
3.74301658041912444e-05
1.4324711607834472e-05
0.000118854718151742579
3.5385481073749651e-05
1.85162905752008064e-05
0.000114240114720696176
3.289730866538109e-05
2.15532234292967062e-05
0.000107883591116605273
3.00169383159149149e-05
2.33240815116727665e-05
0.00010042561435869532
2.68739590635303459e-05
2.38793330294593083e-05
9.257055087430108e-05
2.36469844633134987e-05
2.33879571355315119e-05
8.49205015796040432e-05
2.05138102413648037e-05
2.20689105574167417e-05
7.78828868822300607e-05
1.76121142929013219e-05
2.01356544108780799e-05
7.16781836247866683e-05
1.50277412515879187e-05
1.77682731762569821e-05
6.63934806777256631e-05
1.28022238026783927e-05
1.51056747419451937e-05
6.20313858835677917e-05
1.09451907718232495e-05
1.22483403304067483e-05
5.85449385721334726e-05
9.44608043893917451e-06
9.2662868006392584e-06
5.58656498122102471e-05
8.28448760047599097e-06
6.20768859957693417e-06
5.39255692761030263e-05
7.43805385130063357e-06
3.10502698394306072e-06
5.2672145049255064e-05
6.8873440247120063e-06
5.19056047646506287e-05
6.59877346182975052e-06
8.67493400899283385e-06
0.000119672267818283395
3.43518683030579646e-05
1.32308549125524295e-05
0.000117406691143978956
3.23401777951661955e-05
1.69896824714734209e-05
0.000113265495714089169
3.00034775364877061e-05
1.97490111880929056e-05
0.000107607523278662441
2.7382128060170493e-05
2.14132710183421845e-05
0.000100950579778549837
2.45733629013186725e-05
2.20102837507031717e-05
9.38720470373736554e-05
2.17111571339877836e-05
2.16651016633609844e-05
8.6883956918113001e-05
1.89322666656686974e-05
2.05503153904873147e-05
8.03568703550707982e-05
1.63473953313253619e-05
1.88429037932400569e-05
7.45161978305951294e-05
1.40303646812141711e-05
1.67000289717166876e-05
6.94744386565887063e-05
1.20210299495276574e-05
1.42493696503677954e-05
6.52641410551600692e-05
1.03328167257765835e-05
1.15879615217129539e-05
6.18653683717214098e-05
8.96127197060308813e-06
8.78647465956298399e-06
5.92317426932433878e-05
7.89258380302301923e-06
5.89564165656258092e-06
5.7312631758810653e-05
7.11035535064563367e-06
2.95170599125319537e-06
5.6068530751734113e-05
6.59980541595213e-06
5.52872419464263008e-05
6.33130417189968604e-06
-6.44774990083068973e-06
0.000114041892655058271
3.62666291349192453e-05
-1.3664572031939852e-06
0.000117151202310891202
3.48550082897609447e-05
3.55436463326037723e-06
0.000118580898380901022
3.33082258272603344e-05
8.15650690725058149e-06
0.000118242416925417297
3.15725326649087177e-05
1.22496162055850988e-05
0.000116131688464320428
2.96098258604461721e-05
1.56304060968556104e-05
0.00011239169583979357
2.74144661061722394e-05
1.81384645838660929e-05
0.000107323114858448099
2.50178033972818349e-05
1.96921540606022073e-05
0.000101352031368537109
2.24928175369713114e-05
2.03050966509711547e-05
9.49559505698166956e-05
1.99404013770300882e-05
2.00700875839420682e-05
8.85712057227114249e-05
1.74660049359398491e-05
1.912329520763774e-05
8.25318658903825613e-05
1.51583081931917799e-05
1.76111821799006864e-05
7.70591543284919028e-05
1.30797211069056447e-05
1.56699766338599775e-05
7.22790889492456101e-05
1.12666746754215893e-05
1.34154915344039633e-05
6.82445233851754695e-05
9.73410039098092052e-06
1.09397368980389689e-05
6.49570220171954212e-05
8.4817378141919637e-06
8.31263487449542779e-06
6.2389949816546027e-05
7.50093530913143465e-06
5.58648999749345581e-06
6.0508707913023378e-05
6.78013252374536869e-06
2.80077611909713119e-06
5.92852019195098929e-05
6.30831836658256908e-06
5.84987163215082212e-05
6.05931374608508303e-06
-5.64500320898563967e-06
0.000113500974828605852
3.39701924578052282e-05
-9.7683747289518941e-07
0.000116205136730225154
3.2425050400670354e-05
3.50500297741727088e-06
0.000117378906849006681
3.0801508080513946e-05
7.67020978272863634e-06
0.000116969012926964645
2.90550219130616147e-05
1.13592596645120052e-05
0.000114998467450734776
2.71527162762899693e-05
1.44096855551375172e-05
0.000111603264594426686
2.50900664535058674e-05
1.66916372245932753e-05
0.000107039028376620569
2.28906801489271077e-05
1.81358143823843454e-05
0.000101660754246008165
2.06092722167289542e-05
1.87471052279403566e-05
9.58670506305742457e-05
1.8322074748880942e-05
1.85945293271228221e-05
9.00315194414182698e-05
1.61104868897413541e-05
1.77858957147365601e-05
8.44534890862488083e-05
1.40453272398744991e-05
1.64425550575981669e-05
7.93439947289084716e-05
1.21787118123500779e-05
1.46821299361247948e-05
7.48342953809561537e-05
1.05428949627357849e-05
1.26086529459823828e-05
7.0990712608160519e-05
9.15289733537377641e-06
1.03081266964825851e-05
6.78319251390804097e-05
8.01119263122484458e-06
7.848540126962838e-06
6.5348282370822442e-05
7.11296362104219535e-06
5.28261279735065023e-06
6.35191490838266364e-05
6.45038527876031738e-06
2.65028484967712221e-06
6.23274868665346925e-05
6.0154562132148403e-06
6.15404857867949968e-05
5.78503046825924086e-06
-1.38219565650715835e-05
3.51550029253497662e-05
0.000104492187570068935
-9.31784264485646473e-06
3.3442208781699607e-05
0.000109337130033304098
-4.90428210837547922e-06
3.17949390327802728e-05
0.000112979241879540814
-6.13894616221522107e-07
3.01600489089328857e-05
0.000115328736060849957
3.47320788937354765e-06
2.84954695470664141e-05
0.000116287389676312871
7.24877985769295685e-06
2.67607982778615054e-05
0.000115823527094844001
1.05815149782871943e-05
2.49272045866344178e-05
0.000113981251445113583
1.33390152203329325e-05
2.29902022406693731e-05
0.000110887134964090519
1.5415190436171031e-05
2.0966902848839231e-05
0.000106760273533394734
1.67516165008913082e-05
1.88979788087531846e-05
0.000101899339779249178
1.73476658308937382e-05
1.68408474784016692e-05
9.66405790623693943e-05
1.72545230024939548e-05
1.48581862713645225e-05
9.13056546686983965e-05
1.65576576791926756e-05
1.30063319010994898e-05
8.61613926790496404e-05
1.53577824742953107e-05
1.13283888742334608e-05
8.14049279708932107e-05
1.37564391101185633e-05
9.85234014624400418e-06
7.71672175144420743e-05
1.18466912141531428e-05
8.59251437286604581e-06
7.35233426295193006e-05
9.70812559496140669e-06
7.55301322902469775e-06
7.05056757159014489e-05
7.40583078451788882e-06
6.73169696616150342e-06
6.81186584076951592e-05
4.99264792690632341e-06
6.1235651389607976e-06
6.63524185214517658e-05
2.51617022921128268e-06
5.72313772803100559e-06
6.51932146195733449e-05
5.51088620874472067e-06
6.44285333402226402e-05
1.41157759610761313e-05
0.000106935405916404092
3.71711150163858743e-05
1.86690940587959627e-05
0.000101759940132556534
3.46103659237989816e-05
2.18705631333764497e-05
9.5016656157415443e-05
3.14701761192232856e-05
2.36518980712764376e-05
8.74599870535570977e-05
2.79766001852571635e-05
2.4132023327261972e-05
7.98147279961459425e-05
2.43924639470540123e-05
2.35398862279748314e-05
7.26217348468570788e-05
2.09501229439739111e-05
2.21320109990203159e-05
6.61923627244784566e-05
1.78094059641593618e-05
2.01375778358155228e-05
6.06535856218217643e-05
1.50546661046584189e-05
1.77369718332770073e-05
5.60194501878177563e-05
1.27148995807321886e-05
1.50617913051289155e-05
5.22438986327853526e-05
1.07852087566950114e-05
1.22041897743982702e-05
4.92537134471186482e-05
9.24262651634247858e-06
9.22880565735723628e-06
4.69709652299260693e-05
8.05721607682825676e-06
6.18112712842228249e-06
4.53261727125455789e-05
7.19931202640306576e-06
3.091972032602478e-06
4.42654433886263758e-05
6.64386805007487429e-06
4.36341809056596297e-05
6.3562829892443627e-06
7.78176613332870262e-06
0.000109397049089920019
3.56680399250296703e-05
1.2894745431921973e-05
0.000106761557855994027
3.38606736664882798e-05
1.70557723783500243e-05
0.000102233755359756103
3.15120757590341838e-05
2.00447124230980775e-05
9.62742748777869209e-05
2.87157252902396157e-05
2.17914917491298757e-05
8.94950652548061798e-05
2.56390523853624558e-05
2.23737688907276686e-05
8.25098905415309859e-05
2.24838300549370714e-05
2.19660206204651432e-05
7.58070532182777946e-05
1.9436163503634441e-05
2.07775973160588628e-05
6.96981134840312364e-05
1.66311862783055389e-05
1.90060988988398629e-05
6.43421445639327799e-05
1.41473479722184989e-05
1.68152197008544405e-05
5.97942620005316729e-05
1.20186743882672445e-05
1.43305766198743646e-05
5.60444244354115612e-05
1.02492586122850067e-05
1.16445851307825165e-05
5.30458899032808847e-05
8.82526085186075953e-06
8.82449973366180267e-06
5.07385047449077499e-05
7.72468930078873047e-06
5.91918769825162814e-06
4.90652861998812638e-05
6.92445498766154525e-06
2.96340168079288174e-06
4.79824767559333047e-05
6.40463034543083814e-06
4.73205583785731772e-05
6.13446146337584372e-06
7.17770461090483226e-06
0.000108908017908776168
3.2672613648214018e-05
1.18250338939388144e-05
0.000106584093819790148
3.09156120019614289e-05
1.56282086932247634e-05
0.000102581665018423521
2.87456985694988475e-05
1.84065988188405826e-05
9.72797141239759651e-05
2.62328364037590836e-05
2.00934391698487811e-05
9.11797518792717497e-05
2.35028516200775579e-05
2.07380728887854245e-05
8.48014405477526192e-05
2.07111249909558911e-05
2.04734884423793284e-05
7.85790585112914957e-05
1.80053654395692994e-05
1.94699234476809084e-05
7.28130236686180864e-05
1.54983275750249935e-05
1.78962257332320361e-05
6.76799914140118402e-05
1.32610882476769667e-05
1.58989423151799935e-05
6.32633260080033694e-05
1.13292228236560272e-05
1.35958532436094212e-05
5.95807098450116301e-05
9.71211459896744245e-06
1.10774728219670522e-05
5.66083319283851657e-05
8.4023524472274006e-06
8.41199689352501447e-06
5.43035171540942862e-05
7.38437793739120205e-06
5.65052059569932036e-06
5.26223891028721814e-05
6.64085299977128839e-06
2.83098780837441769e-06
5.15312553182663985e-05
6.1563589136110127e-06
5.08457799533218089e-05
5.90365382451900685e-06
6.64684217982430562e-06
0.000108483393025501519
2.99887329850045657e-05
1.08798865530164515e-05
0.000106407498747627548
2.82840570375422331e-05
1.43575836208382957e-05
0.000102839653502983006
2.62677444776588192e-05
1.69327072701804612e-05
9.80947657439749693e-05
2.39923041143102149e-05
1.8543989459601887e-05
9.25889983425071627e-05
2.15534534611130349e-05
1.92219017183465917e-05
8.67633884598120834e-05
1.9070882338353255e-05
1.90680087434773245e-05
8.10015802145668684e-05
1.66614681872276058e-05
1.82200835816128138e-05
7.55870037316987809e-05
1.44185387897936132e-05
1.68210384970234778e-05
7.07028930487387886e-05
1.2404728477292344e-05
1.50006265096578485e-05
6.64500223184666302e-05
1.06544381181043701e-05
1.28680797080760019e-05
6.28665270109556316e-05
9.17988214056510988e-06
1.05109520748354e-05
5.99482036693306235e-05
7.9784266651389839e-06
7.99731161314985977e-06
5.76690121746288719e-05
7.039809698424312e-06
5.37942735757832163e-06
5.59979205675180879e-05
6.3514805424561298e-06
2.69740784291379319e-06
5.49106229823431293e-05
5.90169276533121834e-06
5.42083255788750512e-05
5.66630032347924772e-06
-7.89127793288609487e-06
0.000104825790611499825
3.1234494341772723e-05
-2.93883593302837257e-06
0.00010738572418493888
3.01906911906753267e-05
1.79573623021299993e-06
0.000108496291204274994
2.89854291278679189e-05
6.17612448771683343e-06
0.000108104035057605507
2.75726773198008483e-05
1.00385438199045045e-05
0.000106232985060737551
2.59225183917339141e-05
1.32210484907162363e-05
0.000103030967896902933
2.40409431268129073e-05
1.56033491759482122e-05
9.87629499378057447e-05
2.19677828895196937e-05
1.7130427594251846e-05
9.37789135505401024e-05
1.97760459656192724e-05
1.78202916454235999e-05
8.84548240375807287e-05
1.75579805032799117e-05
1.77505916151519464e-05
8.31289342935941582e-05
1.54059761164008284e-05
1.70325972217073794e-05
7.80645948465851056e-05
1.33966347171788961e-05
1.57867534019974398e-05
7.34437226955155951e-05
1.15839463159415903e-05
1.41272183660140632e-05
6.93765026790817173e-05
9.99969183912697605e-06
1.21542967008092961e-05
6.5915890917286825e-05
8.65735286589579485e-06
9.95149232501682412e-06
6.30740995240836489e-05
7.55772905487462527e-06
7.58571520515609129e-06
6.08400006633439596e-05
6.69468777670216846e-06
5.10971282106034792e-06
5.91941758700822467e-05
6.05946121788611716e-06
2.56551595055698672e-06
5.81203920433056621e-05
5.64323810961949331e-06
5.74095524924210678e-05
5.42463674666843754e-06
-7.22018970041216987e-06
0.000104802018971692859
2.9248604432365536e-05
-2.62530513341894331e-06
0.000107132115319040453
2.80845692379766719e-05
1.73550151153415742e-06
0.000108128134570665936
2.68102209711141711e-05
5.74966837777893503e-06
0.000107757260323028967
2.53887724080144087e-05
9.28043789540989369e-06
0.000106059936134063858
2.37955736349014391e-05
1.21966152454556541e-05
0.000103170368932438788
2.20347114437272975e-05
1.43986589738826363e-05
9.9315332662441085e-05
2.01364451204602813e-05
1.58380739157479864e-05
9.47921511883099147e-05
1.81564838249851589e-05
1.652474192512001e-05
8.99231025105054683e-05
1.61660159696990001e-05
1.65181227640304139e-05
8.50064770486228866e-05
1.42379493872789256e-05
1.59081807055696222e-05
8.02841705069551185e-05
1.24347112654921586e-05
1.47964024982951731e-05
7.59317957766261558e-05
1.08021387327008704e-05
1.32828910874099003e-05
7.20636274714216412e-05
9.36876931274479908e-06
1.14589757013274152e-05
6.87431274278945596e-05
8.14831065652364857e-06
9.40325701719027544e-06
6.59957040818535642e-05
7.14382723581089758e-06
7.18056846912452505e-06
6.38227660811522906e-05
6.35217335256956934e-06
4.84334734882128324e-06
6.22148916204677495e-05
5.76744029370227712e-06
2.43311593335510346e-06
6.11643731251220802e-05
5.38320045884448692e-06
6.04486168951405152e-05
5.18055019489994494e-06
-1.55825088945319568e-05
2.98442299073986516e-05
9.71409747919672331e-05
-1.10051862061829246e-05
2.86031904603570097e-05
0.000101500865342129211
-6.56826910970692262e-06
2.73828989419674136e-05
0.000104776935358962892
-2.30463340574076745e-06
2.61333202546688961e-05
0.000106895989111598154
1.71468737125502542e-06
2.48170002753293704e-05
0.000107788354164427811
5.39621401295640492e-06
2.34026629940940569e-05
0.000107434544232879156
8.62759616336565475e-06
2.1869006026741694e-05
0.000105886966064840763
1.13008459297036391e-05
2.02186314268084516e-05
0.000103268615091589602
1.33332236345354295e-05
1.84743245420876245e-05
9.97754990914452545e-05
1.46826496286068278e-05
1.66784106893712117e-05
9.5662159406719141e-05
1.53536065277993631e-05
1.48857102834331868e-05
9.12068622638948954e-05
1.53915157998049254e-05
1.31535667974605465e-05
8.66728936240581061e-05
1.48691051947302962e-05
1.1532556119922164e-05
8.22804168578003721e-05
1.3871992835193192e-05
1.00611894364258853e-05
7.81958916082185908e-05
1.2487959357322869e-05
8.76462124548352092e-06
7.45342263894558082e-05
1.07997816621405822e-05
7.65608462683101914e-06
7.13659629016339617e-05
8.88070972260500584e-06
6.73990879165887375e-06
6.87265849594303736e-05
6.79281161193573707e-06
6.01494250929057438e-06
6.66274286487424073e-05
4.58834050712222882e-06
5.47744752510923822e-06
6.50666894582987109e-05
2.3158114478955485e-06
5.12310342916767077e-06
6.40385715372212899e-05
4.93622177530522256e-06
6.33400526660564389e-05
6.59362390600994752e-06
9.64136118060498863e-05
3.22678859099253016e-05
1.15467394701837546e-05
9.36018986930461965e-05
3.06183175806061379e-05
1.55329648611197117e-05
8.93109131824842983e-05