/*--------------------------------*- C++ -*----------------------------------*\
| =========                 |                                                 |
| \\      /  F ield         | OpenFOAM: The Open Source CFD Toolbox           |
|  \\    /   O peration     | Version:  2206                                  |
|   \\  /    A nd           | Website:  www.openfoam.com                      |
|    \\/     M anipulation  |                                                 |
\*---------------------------------------------------------------------------*/
FoamFile
{
    version     2.0;
    format      ascii;
    arch        "LSB;label=32;scalar=64";
    class       volVectorField;
    location    "0.149999999999999994";
    object      U;
}
// * * * * * * * * * * * * * * * * * * * * * * * * * * * * * * * * * * * * * //

dimensions      [0 1 -1 0 0 0 0];

internalField   nonuniform List<vector> 
7340
(
(0.0291001827245177189 0.230512628110680962 0.163446488423440506)
(0.0531827442215237756 0.226432676094623864 0.155023137402326983)
(0.0745208001813735532 0.215639269012074392 0.144399123431915966)
(0.0910167811564145945 0.199115384684468405 0.131514648732890926)
(0.101190860024355678 0.179169113761186882 0.116903205603363342)
(0.104822990240645161 0.158498599667906692 0.101582694592300418)
(0.102848007492410048 0.139228756952986366 0.0866787332993257109)
(0.0967419789541371644 0.122504455585160155 0.0730527917378810121)
(0.0879139560795158537 0.108643218021619054 0.0611725256898182079)
(0.0774357830264108954 0.0974951183255880205 0.0511830560439571758)
(0.0660392628406075294 0.0887326099540762525 0.0430356551051103153)
(0.0541895828245358493 0.0820045902496147755 0.0365907500754850262)
(0.0421561667338992696 0.0769998128283271854 0.0316825569916276695)
(0.0300744281735226757 0.0734674079879027442 0.0281555831314399055)
(0.0179961967566493845 0.0712222407052028605 0.0258834416835335285)
(0.00598455348711113624 0.0699634137817169849 0.0247008729217369945)
(0.0286474435656914259 0.22406357549432393 0.149496519486026352)
(0.0497405747667259771 0.219931305969964852 0.140932855886193198)
(0.0682692585920318118 0.210230033611926381 0.130789411810751377)
(0.0826793081560443927 0.195830453406228733 0.119058695510497622)
(0.0918496400861116835 0.178493899647336113 0.106132025865422752)
(0.0955396163691811379 0.160290608826222897 0.0927412477632982568)
(0.0943787245070456526 0.142953115447881779 0.0797153087223510665)
(0.0894614450840579556 0.127527785344305672 0.0677198267360032552)
(0.0819022569579339749 0.114423199052171187 0.0571498501877591575)
(0.0726114610091859319 0.103650288675564584 0.0481623737516932438)
(0.0622601944956371889 0.0950329213256347616 0.040757019349279916)
(0.0513090503741272519 0.0883287859046921198 0.0348484181263005871)
(0.040047637947289022 0.0832931702046757899 0.03031757286145733)
(0.0286389622908625775 0.0797135988700374554 0.0270446379094409356)
(0.0171636661920391148 0.0774285525818068504 0.0249282280013721005)
(0.00571193978417028174 0.0761154054716411121 0.0238216568051488158)
(0.0279985916608532365 0.218445857186680858 0.136937438224397467)
(0.0465472333930939813 0.214334784019124591 0.128423019936146438)
(0.062740872575286058 0.205567836024184686 0.118797235645471039)
(0.0753976435458536959 0.192902510237274033 0.108076866770198468)
(0.0836508754609303767 0.177700353228706392 0.0965535151067099529)
(0.0872702396368068012 0.161580871942667209 0.0847592630469417019)
(0.0866812355909528515 0.145964054813571914 0.0733067371893931508)
(0.0826958798574811138 0.131783003861822789 0.0627086459616644221)
(0.0761939613301912122 0.119485362079297955 0.0532930950230414771)
(0.0679426665263347801 0.109187352925967859 0.0452136382043973883)
(0.0585457063434276573 0.100821497919744665 0.0384980160467085428)
(0.0484434140211252653 0.0942315080339363731 0.0330983283318417171)
(0.0379306636274494083 0.0892325327695846632 0.0289310744161032987)
(0.0271879352807192984 0.085651760329368859 0.0259054282943933858)
(0.0163169330871125555 0.0833548544005976166 0.0239415797264304203)
(0.00543338317894634642 0.0820017699480214413 0.0229103820483990313)
(0.0271822072466382722 0.213513928857770929 0.125579591601101631)
(0.0435711196199727591 0.209484114368466756 0.117240488576779378)
(0.0578089460614048672 0.201528152104193947 0.108148535126063428)
(0.0689795213066250884 0.190293547377703792 0.0983276260603093699)
(0.0764051748388455132 0.176860188592649126 0.0879950911215604953)
(0.0798786201386127298 0.162515394513159966 0.0775401506215858821)
(0.0796873620678212047 0.148425999302297551 0.0674176833216488941)
(0.0764357476988117152 0.135414909324133886 0.0580227168828510581)
(0.070817602016546688 0.123937565813776671 0.0496241943421928677)
(0.0634743317398657192 0.114174594484664216 0.042363308151817769)
(0.0549411959987031878 0.106133840306048166 0.0362822978544848282)
(0.0456306188411160912 0.0997253174743085724 0.0313588585274559434)
(0.035834012449101213 0.0948164448637188739 0.0275365532278942365)
(0.0257418682238436565 0.0912735178736441277 0.0247481447574358394)
(0.0154700772052816047 0.0889907011523501795 0.0229319012000509109)
(0.00515416175166582332 0.0876105078047594299 0.0219742113711405562)
(-0.0224419617812185376 0.20013624130223262 0.137574024236189946)
(-0.00590502361630212275 0.206462033317248106 0.130331957624214928)
(0.0104851146448513843 0.209554536079827297 0.122951081087630282)
(0.0262545979436822688 0.209179316123273201 0.115277266827320105)
(0.040797152809681346 0.205257026585275532 0.10719619139271494)
(0.0533803769011933216 0.198001967253606026 0.0986397785046131959)
(0.0632818487462559615 0.187965153023858134 0.0896274582493926386)
(0.0699666374988612699 0.176019063264322151 0.0803191939242312303)
(0.0732524100283571955 0.163198705095335572 0.0710010136842800232)
(0.0733324579999881654 0.150466615377443158 0.0620122174591285283)
(0.0706582634988934255 0.138542215494800003 0.0536570914021265583)
(0.0657776804156930822 0.12786730535924265 0.0461538784030673874)
(0.0592255513019302043 0.118660144308859281 0.0396276690522774366)
(0.0514720881867288121 0.110983569679127855 0.0341266325027471951)
(0.0428967793955513238 0.104800688542286274 0.0296453141569908672)
(0.03378049495171246 0.100023105484517566 0.026147355295721042)
(0.0243179478643603258 0.0965515579750419323 0.0235842603165522455)
(0.0146355675499063257 0.0943056689581739938 0.0219092526631945519)
(0.00488161145108173891 0.0929115495978083683 0.0210232770793072482)
(-0.0188260832990971572 0.198429321230196021 0.128514997138858944)
(-0.00371770258289948891 0.203707517930856286 0.12097119772789082)
(0.0110997319660364607 0.20605885830897247 0.11348850860046561)
(0.0252390589268696522 0.205339104427181313 0.105918031683058925)
(0.0381954040137673645 0.20154675077427267 0.0981489540927118764)
(0.0493709371345654319 0.194905172144567124 0.090117814235547905)
(0.058184304675788126 0.18588378675700637 0.0818346961836445286)
(0.0642096757896222364 0.17519780640152588 0.0734158565521659534)
(0.0672884286087703093 0.163690021497779253 0.0650715154516469108)
(0.0675488978209190377 0.15216079267760152 0.0570551846603584989)
(0.065329700398807547 0.141236930346034434 0.04960132063868751)
(0.0610655454022924205 0.131335192143998331 0.0428860125050005009)
(0.0552030101896661338 0.122691904887332989 0.0370173592010874519)
(0.0481523537397962262 0.115406512285842699 0.0320439274533229207)
(0.0402576808429960936 0.109482437211692624 0.0279705710862216961)
(0.0317845396389105847 0.104868341267554913 0.0247753471428183228)
(0.0229271411369511117 0.101495357883802206 0.0224243920122347389)
(0.0138191887451487878 0.0993060039991377763 0.02088325121064891)
(0.00459847870524654825 0.0979463460863138763 0.020065485668954712)
(-0.0435421648426221816 0.181047647200385353 0.136628552433835954)
(-0.0295379725553952463 0.18995342584183969 0.127973042171628276)
(-0.0156100397795213841 0.196699407030523465 0.11989969633776866)
(-0.00181220932395576018 0.201046395129331729 0.112213648603904398)
(0.0115902399587513097 0.202759257805340265 0.104753119498757777)
(0.0242930532519621267 0.201766573115627318 0.0973654022385845863)
(0.0358718015461190753 0.198124750624422308 0.0899430851092837269)
(0.0458288450811584827 0.192043139202039304 0.0824225182747285456)
(0.0536934295294383482 0.18392355845678951 0.0748042240924423063)
(0.0591245845496338046 0.174354358700194667 0.0671701100970633069)
(0.061984351241054475 0.164022579093378029 0.0596730603950393068)
(0.0623550388054642524 0.15359300752306615 0.0525016982475732044)
(0.0604904942294191283 0.143608873105485368 0.0458362442500992659)
(0.0567370501062103433 0.134456782800170149 0.0398179518258773291)
(0.0514685541340952207 0.12637912542047558 0.0345385738041438933)
(0.0450419760773911881 0.119500120112190064 0.03004404127516834)
(0.037766683639083351 0.113855535713942829 0.02634516890951763)
(0.0298901720149515257 0.109426335967873878 0.0234302977098806847)
(0.021602496150235545 0.106170263566990525 0.0212770863505011357)
(0.0130571947534634351 0.104047632427224993 0.0198614833686101798)
(0.00434717104596321798 0.102569051729926558 0.0191093047748066014)
(0.0444491209009129223 0.197621038806919308 0.143766946571619952)
(0.0633150413336933254 0.187534242759798075 0.134258207775311972)
(0.0776721600535348194 0.173415442955665106 0.122343297103439969)
(0.0865918686472179344 0.15714682410545025 0.108757189684020442)
(0.0900975475140368687 0.140654937610215441 0.0945810698593222698)
(0.0889819435487227001 0.125355230145682006 0.0808649554716029118)
(0.0843647328421233966 0.11199110430213359 0.0683537972908601354)
(0.0773021916209357396 0.100775304204726149 0.0574337636724902983)
(0.068626150519368892 0.0916223397414324403 0.0482222238563701361)
(0.058940748989786719 0.0843254299320688183 0.0406798767324056676)
(0.048658163804645313 0.0786520659545353329 0.0346914522044510718)
(0.038039377961567894 0.0743875810809250804 0.0301164072585465674)
(0.027237846297010402 0.0713528357622383036 0.0268201773208679231)
(0.0163386399951901649 0.0694123835034487907 0.0246924020552487175)
(0.00543929581460014019 0.0683005663496419335 0.0235827947251987316)
(0.0217555741545208542 0.198745886482821654 0.137885871160163098)
(0.0411155794418544759 0.194303972258663082 0.130773407795150731)
(0.0578488512498626303 0.185475456828028129 0.121769295257948371)
(0.0707312039833203066 0.173179206262258745 0.111015368502867334)
(0.0790207151489277365 0.158878317118235302 0.0990439802837108363)
(0.0826577073607084462 0.144112402125614603 0.0866448072487781412)
(0.0821941663746916656 0.130100969343614592 0.0746131724456831347)
(0.0784854305212310255 0.117568984328191517 0.0635455821004860671)
(0.0723906362635162726 0.106812622958311343 0.0537827598422510531)
(0.0646326725804183405 0.0978641396083572979 0.0454598885510059947)
(0.0557722146403343139 0.0906227124598859152 0.0385805987575457907)
(0.0462155458137125524 0.084929679943998429 0.0330753430628224696)
(0.0362350751953008018 0.0806145363042720664 0.0288427113397030262)
(0.0260012385138273204 0.077524205886660924 0.0257782134630054199)
(0.0156182425530496868 0.0755408371474830947 0.0237930002170089125)
(0.00520282348215067754 0.0743748143166393094 0.0227531992365458749)
(0.0208374675861938419 0.195517592035257787 0.126356539795965894)
(0.0381308022575813643 0.191454311543384437 0.119237651586782858)
(0.0530427480534411064 0.183630799914183879 0.110734039569406528)
(0.0646309916793337963 0.172817895669493238 0.100967211738472937)
(0.072291487598562118 0.160161435990720941 0.0903312641481793799)
(0.0759287324148909121 0.146906875869536852 0.0794092658722573563)
(0.0759285755828498637 0.134097887585080677 0.0688036866063804348)
(0.0729427770848014301 0.122412587663287623 0.0589881568157191033)
(0.0676679573208091717 0.112191710922292201 0.0502562012623994914)
(0.0607275367095964219 0.103548287749228862 0.0427463450176680387)
(0.0526321823909988301 0.0964593631101398341 0.0364884797441893255)
(0.0437698559283829086 0.0908258179039120039 0.0314448983744960858)
(0.0344135351897409403 0.0865178910983418897 0.0275438247602208391)
(0.0247445356526171112 0.0834105383234305664 0.0247055355936166149)
(0.014881301458440634 0.0814070577010011925 0.0228602154719143025)
(0.00495961355411453798 0.0801977983944781314 0.0218892568861546073)
(0.0199333152250281281 0.192730579020755327 0.11596147702817676)
(0.0354390624249612679 0.18897204059954964 0.108939104784536708)
(0.0487856556767673408 0.181981189261417819 0.100921601849932402)
(0.0592316323356686381 0.172393244212226571 0.0920088935996913188)
(0.0662839535597507523 0.161124828035454748 0.082495442415828707)
(0.0698372965025368941 0.149194993271088761 0.072814362751769432)
(0.0701607388347137984 0.137492681474065376 0.0634228386852875303)
(0.0677511563045816168 0.126640691204245842 0.0546953195200659548)
(0.0631721801865963717 0.116998808818792002 0.0468801392658685298)
(0.0569564892627673486 0.108730102901580528 0.0401096794406638965)
(0.0495623895806636683 0.101864764614348013 0.0344279967978995405)
(0.0413539874717450823 0.0963502467189154554 0.0298191267190227489)
(0.0325992401665681567 0.0920950756235162094 0.0262340450570275399)
(0.023485576183974434 0.0890043432061099621 0.0236134971899925397)
(0.0141405698298163723 0.0870039267314509646 0.0219038771008027294)
(0.00471463185277368017 0.0857640385682487405 0.0210006308253340782)
(-0.0286612582208513739 0.182901904472153959 0.123722223705980558)
(-0.0122656407657175948 0.188235451365290685 0.118419208735614068)
(0.00377808258165022309 0.190763074064966398 0.112752942992472363)
(0.0190485870942690011 0.190300661383519476 0.106554450655564334)
(0.0329995995272523782 0.186801578929067902 0.0996996303746401774)
(0.0449893091196235662 0.180509013215579273 0.0921519359394426529)
(0.0544235192466918025 0.17194666993489674 0.0839897072922493743)
(0.0609010215635107099 0.161863328388011374 0.0754327847637283888)
(0.0643175023580697669 0.151098436585732521 0.0668042784629348241)
(0.0648597674802252055 0.140407951281112997 0.0584519992947438588)
(0.0629078233844743429 0.130356128662632131 0.0506713909676311663)
(0.0589175380371644089 0.121302709059944128 0.0436699798536689388)
(0.0533416831352207382 0.113440602676437741 0.0375686579816263272)
(0.0465874480734152357 0.106839385172043749 0.032417149004086071)
(0.0389916170798264988 0.101485192664550847 0.0282137307225499012)
(0.030812536414962767 0.0973202232037292669 0.0249267683043880098)
(0.0222398308675563657 0.0942765584411486279 0.0225137209543251893)
(0.0134076709305725409 0.0923000197335204775 0.0209344433186226496)
(0.00447497191030816945 0.0910410163259963157 0.0200967902211453414)
(-0.0255078235687289448 0.182025260700352132 0.115843054175397489)
(-0.0103649824761339188 0.186673750791936294 0.110124849707582739)
(0.00430850110508797235 0.188755439783324791 0.1042325545696203)
(0.0181668905079715587 0.188150697790454097 0.0980206134541447699)
(0.0307615715275123131 0.184883477035125282 0.0913825088944009434)
(0.0415702320115076823 0.179183524855953819 0.0842860393857174789)
(0.0501093987422386103 0.171489928379947643 0.0767893741747863179)
(0.0560529125261546302 0.162423797874523823 0.0690561037901399194)
(0.0593022149609292865 0.152682792342286655 0.0613278027217472183)
(0.0599863215889553034 0.142912561119028031 0.0538695154141407423)
(0.0583972342697630098 0.133619784807900904 0.0469142220830068638)
(0.0549047653077048559 0.125151750878439494 0.040633854246452536)
(0.0498931919214480393 0.117716061097470431 0.0351353129633065475)
(0.043721572055976092 0.111409356289314282 0.0304685388280910158)
(0.0366976296304854996 0.10624845075084817 0.0266406472446147)
(0.0290667492286026154 0.10220449378373074 0.0236329042073740794)
(0.0210172762324817748 0.0992333250147193063 0.0214159407319180414)
(0.0126877026807358795 0.0972986555675593862 0.0199605462553118229)
(0.00422307291301265118 0.0960676347779697987 0.0191856007002520895)
(-0.0514158955362970932 0.16689424242044687 0.120887552947335802)
(-0.0368768191736877152 0.175005587393767426 0.114471744879838605)
(-0.0225855200575856632 0.181170727597797704 0.108357870850889104)
(-0.00860537561396833295 0.185191971033182856 0.10237409171299966)
(0.00481876553262004792 0.186871751754798143 0.0963782233328733529)
(0.0174154724872217295 0.186151238716286083 0.0902339294520845964)
(0.0288135927739259987 0.183101098514208249 0.0838460935467530977)
(0.0385779622753703033 0.177926984511080993 0.0771829720695040578)
(0.0463152041623315358 0.171002732830580956 0.0702851402509344636)
(0.0517595903529010359 0.162844916176392795 0.0632726095890972229)
(0.0548200910604108166 0.154033571338279995 0.0563251274906810054)
(0.0555843955892738467 0.145119052907468155 0.0496442172688006528)
(0.0542771419497952434 0.136552590732634233 0.0434132136713144545)
(0.051199084067542644 0.128662653498773288 0.0377734581981887807)
(0.0466765935683614644 0.121662400743875451 0.032817415013567712)
(0.0410253585281706995 0.115667746402368599 0.0285923059650898467)
(0.0345245485007847144 0.110721028024654264 0.025110363090329782)
(0.02740445875759525 0.106818777751039776 0.0223620760391774268)
(0.0198494559657375336 0.103937273899509908 0.0203282713997586482)
(0.012015733713205131 0.102053504607870382 0.0189888485862323292)
(0.00400091104027499103 0.100696097569917459 0.0182751010870068481)
(0.0366249635496781259 0.171219952737301673 0.128190863176787767)
(0.0530157460959474955 0.162321119585557977 0.119512540055216387)
(0.0654327464642465995 0.150809200303019891 0.108741106786457778)
(0.0733409152166731027 0.138026333335128759 0.0966453642121382489)
(0.0768488454971443247 0.125231539387409108 0.0841706997989648681)
(0.0765559644874086176 0.113329389852414267 0.0721681339134830208)
(0.0732674938749869886 0.102809029677476793 0.0612237713034948922)
(0.0677577775276840544 0.0938368237865104676 0.05164297282681303)
(0.060670070469580728 0.0863916586892294058 0.0435258053632213288)
(0.052502981668109322 0.0803646393129136133 0.0368486886951477494)
(0.0436211644723513287 0.075615546243823023 0.0315237261264028068)
(0.0342768368924826969 0.0720046580915655321 0.0274395833560831352)
(0.0246380620634596217 0.0694104784735659064 0.0244879064795523391)
(0.0148170968765193641 0.0677399793860696264 0.0225785457231564048)
(0.00493846238722662253 0.0667585932849615038 0.0215872186036049421)
(0.0160386389284539119 0.17548202624531492 0.12288167612501559)
(0.0335144390386322849 0.170962176060838356 0.116691436916617305)
(0.0484090705790664946 0.163224416098057101 0.108649387094397989)
(0.0598542384451059561 0.153086283885851243 0.0990253597411174941)
(0.067384406103774816 0.141636107056995059 0.088380747010265312)
(0.0710258713921035345 0.129940046979037577 0.0774277728165168322)
(0.0712148693889865653 0.118821185607251717 0.06683593420652853)
(0.0685868427088753146 0.108778848255717764 0.0570925533032094895)
(0.0637900231670456286 0.100043915158498559 0.0484774129759214245)
(0.0573952807138937843 0.0926771934779012374 0.041108337693557595)
(0.0498683950428665049 0.0866402462502119108 0.0349957870306687457)
(0.0415653866769221322 0.0818399166118865401 0.0300866449109565004)
(0.0327426953730281523 0.0781640875394601642 0.0262992271130699576)
(0.0235779986067829392 0.075508451719598163 0.0235488726002041696)
(0.0141959944149149045 0.0737931396565831843 0.0217634983540032981)
(0.00473395477899140379 0.0727581977431708826 0.0208327498081714857)
(0.0149118449424752095 0.174639709491927364 0.112576149743510018)
(0.0307962877713513355 0.170685489136082669 0.106480689562496261)
(0.0443540099394760107 0.163876344645418393 0.0989937760179773196)
(0.0548883581331741366 0.154885398238294891 0.0903202149021393591)
(0.0619977286041148087 0.144597852616487221 0.0808770468808029941)
(0.0656622418639211392 0.133915861702126604 0.0712042346390307779)
(0.06619794124378231 0.123575450848972146 0.0618247123347367214)
(0.0641049684732985514 0.114065295643261705 0.0531385691175736141)
(0.0599248257505048815 0.105656799331254422 0.0453959669825600431)
(0.0541594071355666132 0.0984669173385025465 0.0387203127520202584)
(0.0472356078112888059 0.0925071639922408484 0.0331423315096299603)
(0.039492407889762729 0.0877226699335039994 0.0286329474827398123)
(0.031184004622388059 0.0840293949634487308 0.0251337985090643347)
(0.0224944169366390438 0.0813440957126495695 0.0225807219319642122)
(0.013557152386569812 0.0796033497043302091 0.0209177981320143938)
(0.00452252019092782773 0.07852439809047769 0.0200475669128360144)
(0.0139263327214950508 0.173909849423583479 0.103326492272274389)
(0.0283976613223367105 0.170399052226830244 0.0973664271593237818)
(0.040759940707816647 0.164354231493141045 0.0903731011521228395)
(0.0504477806662583517 0.156331112922795362 0.0825011523998447627)
(0.0571187484965024889 0.147058395576003642 0.0740650593887590414)
(0.0607298835216557656 0.137301633098543041 0.0654751259767235999)
(0.0615096696084204697 0.127714474101342845 0.0571390784185133588)
(0.0598514332802618995 0.118765186530116279 0.0493835445563186246)
(0.0562048238927349147 0.110744372832776716 0.0424269657109464515)
(0.0510058878572251864 0.103801615347179549 0.0363886642614309405)
(0.0446411563638811695 0.0979824833007059692 0.0313098401906653084)
(0.0374301420301607415 0.0932647072024622159 0.0271785473776375713)
(0.0296218148778237753 0.0895933292207531373 0.023955353059784211)
(0.0214031620469421584 0.0869083739213631079 0.0215934079510850391)
(0.0129122021741695566 0.0851631992759157297 0.0200502951713057154)
(0.00430873923307215165 0.0840514666974181285 0.0192399774827631265)
(-0.0331619852852660796 0.16775120389582035 0.108330403535862096)
(-0.0170817865794646306 0.172040476847267088 0.104425770588863015)
(-0.00155323282924130918 0.173918808454434304 0.100029602771756862)
(0.0130532732346238731 0.17327383944663316 0.0949878306029463965)
(0.0262647970286820909 0.170120657736657743 0.0891933122253538435)
(0.0375553970283634617 0.164714088559585303 0.0826452413380634465)
(0.0464614580259078702 0.157515532320422202 0.0754612636037454709)
(0.052694227428326447 0.149133581903061918 0.0678794165753576761)
(0.0562003325319075167 0.140219527112658615 0.0602120569992036642)
(0.0571446492889611316 0.131350289237319451 0.052777397756277919)
(0.0558366804382489784 0.122964657578693959 0.0458406333621982909)
(0.0526483631832994417 0.115356587038010147 0.0395887262008607632)
(0.0479561264799256912 0.108695849672289818 0.0341314703156898533)
(0.0421073112612833714 0.103055681070439387 0.0295142958291876936)
(0.035400012752330963 0.0984428356220317102 0.0257372920293216997)
(0.0280747147490462701 0.0948280527384247618 0.022775940550678303)
(0.0203183492479117461 0.092171296373758968 0.0205973594377803076)
(0.0122717855469495554 0.090440127125364464 0.0191700206615974984)
(0.0040992403592004607 0.0893051154915196488 0.0184179309412239658)
(-0.0305038402138561315 0.16770650208984994 0.101469673637048674)
(-0.0155150151158962787 0.171617246215341995 0.0971533336616221543)
(-0.00116187133972023293 0.173304129236497018 0.0925192672049828246)
(0.0122525230495980561 0.172692001383965565 0.0874435601768094178)
(0.0243399566376243104 0.169837600695943003 0.0818367372430948981)
(0.0346707354055462991 0.164970897076570838 0.0756960838334256869)
(0.0428605710567125792 0.158480793393974972 0.069110859815680048)
(0.0486681968100367707 0.150882414167554102 0.062261119384483983)
(0.0520367954957375103 0.142732663216096956 0.0553852305771589115)
(0.053085135628257743 0.134539982976803862 0.0487316312681283503)
(0.0520574376283043094 0.126709146983758514 0.042514574193699653)
(0.0492615293123575063 0.11952734623650374 0.0368917290209870644)
(0.0450216966063002669 0.113175149589292909 0.0319609267786853946)
(0.0396481753675137771 0.10774630415162742 0.0277679213046526652)
(0.0334161823724383675 0.103271230690359039 0.0243207921092636753)
(0.0265549382905279144 0.0997423519433486699 0.0216060962361603673)
(0.0192486920307854345 0.0971367146551445904 0.0196016756362470679)
(0.0116399553295374464 0.0954350040837142477 0.0182847211409460433)
(0.00387602672169743128 0.0943218537217591219 0.0175880067734985324)
(-0.057221981741332896 0.155017023583739671 0.104243909757850833)
(-0.0423733832575817759 0.162220727406165444 0.0995570948732046046)
(-0.0279310443664858021 0.167676374387123017 0.0949953163655453542)
(-0.0139664889337063405 0.171224642382189873 0.0903927927912746426)
(-0.000699111432625611207 0.17272255366803807 0.0856225681787021464)
(0.0116306724161778646 0.172132374949912015 0.0805756813620845946)
(0.0227051245347407726 0.169541045329284656 0.0751736440716109233)
(0.0321650130349964286 0.165149740530670525 0.0694120270996680111)
(0.039692859022725957 0.159291721717652573 0.0633572104916446666)
(0.0450878237121284248 0.152404030087244013 0.0571445504465252982)
(0.0482932950476936268 0.144962180686763198 0.0509556406339217588)
(0.0493941959465505273 0.137412303913579836 0.0449839911003219739)
(0.0485832720914675803 0.130123672821133685 0.03940182766720874)
(0.0461155248412478125 0.123371601145978171 0.0343406421965943842)
(0.0422704756067680265 0.117341869580771405 0.0298858183092708153)
(0.037324546408756161 0.112143829157802272 0.0260811295483984393)
(0.0315300356975406551 0.1078275537273468 0.0229393843205572545)
(0.0251030693689937093 0.104403914319546376 0.0204548107238295002)
(0.0182235735539459688 0.101864350750939428 0.0186133727724761833)
(0.011050083174856869 0.100199120381166892 0.0173996945719734133)
(0.00368047763564846673 0.0989526620552388658 0.0167575660756172536)
(0.0124070976342345526 0.153425247256455621 0.114414820423398317)
(0.0294388887113169739 0.148543744496728913 0.108745000805750072)
(0.0437767647953230393 0.141215208386812507 0.101082748465854633)
(0.054710083449338108 0.132205273871871531 0.0918320722305507181)
(0.0619264773772681409 0.122402280910665212 0.0816473502788480077)
(0.0655363165737891246 0.112611315429108266 0.0712568025023859047)
(0.0659693219226815536 0.103418951776926366 0.0612952882110060493)
(0.0637934012860069538 0.095164914395746758 0.0522005018965571027)
(0.0595746887622818286 0.0879966995298792354 0.0442075415649449688)
(0.0538143149614952326 0.081942896632591064 0.037401788885788767)
(0.0469276760861972869 0.0769643585514959427 0.0317748074852239187)
(0.0392395398528429459 0.0729867167120225868 0.0272664268462323514)
(0.0309922497828870429 0.0699256164270063985 0.0237952769250192805)
(0.0223625930008346623 0.0677043299410325372 0.0212791846403342366)
(0.0134824830988527922 0.0662638452730572591 0.0196478910543031321)
(0.00449938974275533848 0.0653942377501937205 0.0188047758978242274)
(0.011015133582902896 0.155038485941354998 0.104610098427231957)
(0.0267588167385476375 0.150865533120692341 0.0991963968400889073)
(0.0400727267229360126 0.144409417000177398 0.0922235034856788288)
(0.0503598047097512796 0.136308007576459111 0.0839963593738018155)
(0.057328819660614358 0.127320999338829066 0.0750076706630883189)
(0.0610319301792705271 0.118168166068882044 0.0658274786904057552)
(0.0617954939657409108 0.109403693714683545 0.0569736898436581513)
(0.0600814399719832096 0.101381976001461302 0.048822176603925807)
(0.0563764262028889629 0.0942982415644743471 0.0415938399576730872)
(0.0511325206347032352 0.0882376076739934539 0.0353874789028160025)
(0.0447386438845309778 0.0832059219264978944 0.030218164958908042)
(0.0375091644789866951 0.0791566052709802292 0.0260499358284125675)
(0.0296864729162085172 0.076021425690555422 0.0228230560640352333)
(0.0214523808544043355 0.0737350757549026792 0.0204736915836901331)
(0.0129461124788837478 0.0722488285016212178 0.0189459190744790257)
(0.00432227204913492036 0.0713265544000187962 0.0181534822431119527)
(0.0098611552848066053 0.156385280687326239 0.095864642714942383)
(0.0244181728064230413 0.15277225438153752 0.0906682704833235986)
(0.0367685594182435363 0.147046887435398399 0.0842641183452126907)
(0.0464121383773820548 0.139744786695096629 0.0768814796869297934)
(0.0530849268217554598 0.131514453276822374 0.0688952250512220171)
(0.0568000932782337167 0.122992465236420323 0.0607510009375525697)
(0.0578031484687124217 0.114693671953787046 0.0528660970466176411)
(0.0564705176162506109 0.106977586883022224 0.0455586979541290488)
(0.0532201410330168864 0.100070971101155454 0.0390312573428548276)
(0.0484549096444259753 0.0940943941256964372 0.0333868742547354103)
(0.0425323729463344055 0.0890836795771636353 0.0286544421009402028)
(0.0357515406025537344 0.0850170825477226527 0.024815137592321207)
(0.0283513553717333472 0.0818466475031793539 0.0218268669083462319)
(0.0205168302137842054 0.0795227614148079909 0.0196418559346228407)
(0.0123916108316046696 0.0780084473854204263 0.0182167916506525834)
(0.00413824302652680224 0.0770421563822530214 0.0174750659543605608)
(0.0088913097091206858 0.157517697987395539 0.0880238901639306542)
(0.0223590516029409381 0.154358422039852172 0.0830250493488845914)
(0.0338098853282449083 0.149252880320081355 0.0771010813014581242)
(0.0428256958115282166 0.142653696031493638 0.0704249431670285336)
(0.0491725686170179713 0.135115868517393933 0.0632845825220660629)
(0.0528403678998975168 0.127201165769009916 0.0560277988635609139)
(0.0540136983387923819 0.119386653949226956 0.0489892413529494503)
(0.0529981837951365997 0.112028502363048912 0.0424356705096565479)
(0.0501488298641479952 0.105366606140809893 0.0365471961451744945)
(0.0458204545519401707 0.0995395241865195818 0.0314236572281862622)
(0.0403397304698457498 0.0946045442421163674 0.027101515290343825)
(0.0339901148412360618 0.0905640587303388478 0.0235750429575238875)
(0.027005203247409626 0.0873926763655884092 0.0208167970408140862)
(0.0195702513319824557 0.0850578990248671285 0.0187922651125562237)
(0.0118297288341766699 0.0835341147222687097 0.0174683044108973236)
(0.00395157310878302762 0.0825334186772383321 0.0167768766242354303)
(-0.0364565051777549082 0.154524561280457801 0.0913893677702224128)
(-0.0207823146513682888 0.157910060291461068 0.0884839230895925893)
(-0.00583370277448619357 0.159244679542540568 0.08504989278324529)