/*--------------------------------*- C++ -*----------------------------------*\
| =========                 |                                                 |
| \\      /  F ield         | OpenFOAM: The Open Source CFD Toolbox           |
|  \\    /   O peration     | Version:  2206                                  |
|   \\  /    A nd           | Website:  www.openfoam.com                      |
|    \\/     M anipulation  |                                                 |
\*---------------------------------------------------------------------------*/
FoamFile
{
    version     2.0;
    format      ascii;
    arch        "LSB;label=32;scalar=64";
    class       surfaceScalarField;
    location    "0.209999999999999992";
    object      alphaPhi0.water;
}
// * * * * * * * * * * * * * * * * * * * * * * * * * * * * * * * * * * * * * //

dimensions      [0 3 -1 0 0 0 0];

oriented        oriented;

internalField   nonuniform List<scalar> 
20856
(
-5.95879820796094998e-11
5.35888698097931007e-13
-2.30360977368385934e-11
-5.91937563160297956e-11
9.27048788460985033e-13
8.16445366782932688e-12
-2.42991302796655368e-11
-6.19758251007212878e-11
4.89849376812143524e-12
1.12299013853832444e-11
-2.95052529481842592e-11
-6.59108392516552981e-11
1.08324619410894012e-11
1.50056370999579303e-11
-3.77828819830737398e-11
-7.04539165630903533e-11
2.0143702560805177e-11
2.00412632891958112e-11
-4.77317217368360344e-11
-7.25763690024006727e-11
3.3159032979051647e-11
2.6039150214245086e-11
-5.96603498222011841e-11
-7.24975567762444004e-11
5.68221168968996249e-11
3.53229098363509755e-11
-7.62563561405410558e-11
-7.12094401113188313e-11
8.69744299728253553e-11
4.51093350542468378e-11
-9.57478003163522288e-11
-6.71330927297225997e-11
1.11022081189110239e-10
5.42912184639732629e-11
-1.11560706455034983e-10
-5.50075375654690088e-11
1.30072230805190796e-10
6.02169278471592117e-11
-1.27413762632035099e-10
-3.67563712609372421e-11
1.29843188975205817e-10
5.61978850282416434e-11
-1.33053479080436252e-10
-1.59181634234910776e-11
9.97052696656863416e-11
4.02994294313350162e-11
-1.11139952278052926e-10
-3.74144317751535858e-12
5.48041114886430938e-11
2.03328741152652473e-11
-6.54427613590432442e-11
-3.25879982120746646e-13
1.75992218347042003e-11
7.11603652762331047e-12
-2.28225593225719132e-11
1.06245816073794491e-15
3.44760472286565942e-12
1.63815330658269516e-12
-5.63746296392966192e-12
1.22816430250809658e-12
3.18197355935562705e-13
-1.14256051789161617e-12
-2.56738167613568876e-11
1.02652916825399233e-12
2.51234255688821007e-12
-9.31804316811238406e-12
-2.55003061682056086e-11
1.5945872788585411e-12
3.26754567790213942e-12
-1.00039177167728486e-11
-2.67969776277155853e-11
3.45101274163105006e-12
4.55032213624285951e-12
-1.27803591208750698e-11
-2.82890208465464711e-11
6.18821232867324543e-12
6.09785888226513155e-12
-1.64590992171947689e-11
-2.99249557809829139e-11
9.84544344373005343e-12
8.06416247316131367e-12
-2.07209397327718136e-11
-3.05487304288807827e-11
1.53307458672268823e-11
1.04507639870473921e-11
-2.56293158824706427e-11
-3.02355724365596257e-11
2.49523065574827505e-11
1.40210204721547288e-11
-3.2427313661266061e-11
-2.94747491427384521e-11
3.79747147367003076e-11
1.76804633526961127e-11
-3.99635252083483748e-11
-2.77612550075013394e-11
4.75484367879475413e-11
2.10542626204618952e-11
-4.58907152265959394e-11
-2.31549459022623334e-11
5.51117619180511523e-11
2.34029337088439712e-11
-5.20216154582807359e-11
-1.60939804672738527e-11
5.53691041722833668e-11
2.21395099130693749e-11
-5.42978006587755893e-11
-7.63083031615979548e-12
4.33656738825877204e-11
1.62871877114992174e-11
-4.58106572757755725e-11
-2.19404255594035805e-12
2.47064643623648838e-11
8.47515796433491807e-12
-2.74947378968262163e-11
-3.44070007885448375e-13
8.42217003170886276e-12
3.04329277529092447e-12
-9.73090463292972767e-12
-2.11976133284023826e-14
1.77376319114071039e-12
6.82299891233773496e-13
-2.38335650229609107e-12
6.38929937526583021e-13
1.51640028680885429e-13
-5.12350262464701928e-13
-1.10097954782374024e-11
8.23318475211933223e-13
9.57452086385030326e-13
-3.68681144645972852e-12
-1.08773240959102352e-11
1.24826255210050564e-12
1.30743011912321525e-12
-4.09917416865714168e-12
-1.13928647681100741e-11
2.09925486287442075e-12
1.82236005437664004e-12
-5.47723276374685043e-12
-1.19704056792115941e-11
3.32920141291965966e-12
2.44658265748120137e-12
-7.08404270556208575e-12
-1.251026008652839e-11
4.8957565190385224e-12
3.20325012506466042e-12
-8.82333441781536593e-12
-1.25721279905927872e-11
7.0454674415600872e-12
4.0824819015437679e-12
-1.07884219209752252e-11
-1.23660379167050697e-11
1.06316918382185398e-11
5.40058357951606085e-12
-1.33715661605763434e-11
-1.20217701573043926e-11
1.58301473785511999e-11
6.79330398794129886e-12
-1.63360562414649033e-11
-1.13094721678621784e-11
1.96199734470978902e-11
8.05153312302580534e-12
-1.85334924073522101e-11
-9.62359452890615161e-12
2.2494503719199043e-11
8.95295352932160041e-12
-2.08341811079379586e-11
-6.88465966793614786e-12
2.27822601622086353e-11
8.57150098211133689e-12
-2.17440144159240359e-11
-3.48164338407964859e-12
1.82215727664436311e-11
6.44701868329898492e-12
-1.84929232185211617e-11
-1.12116455736338515e-12
1.07724507454510041e-11
3.44510734002155319e-12
-1.12825900494295212e-11
-2.13077938686653756e-13
3.94980760727218939e-12
1.27457599945462637e-12
-4.09379348900554148e-12
-1.6937026030609353e-14
9.37408556528001061e-13
2.95932589035406364e-13
-1.00587784183046268e-12
3.37055666449601026e-13
7.33101142103485207e-14
-2.27279476181701183e-13
-4.67949358114852753e-12
5.86738965906026627e-13
3.88834939880336909e-13
-1.46339293634334217e-12
-4.59086938578976153e-12
8.29220229474980777e-13
5.21760322745773267e-13
-1.71793942183642404e-12
-4.77597364899066434e-12
1.19721166978651573e-12
7.30460556392315877e-13
-2.3227800717145662e-12
-4.98500050220235763e-12
1.71916357142407293e-12
9.77982237761983729e-13
-2.99545376034318095e-12
-5.160882786627432e-12
2.34904806529065179e-12
1.26543044929903294e-12
-3.69195528601965736e-12
-5.10358382512663349e-12
3.17323665632599379e-12
1.58094807259291143e-12
-4.45930964828516786e-12
-5.00225830465835846e-12
4.40161391522779094e-12
2.04858546527291627e-12
-5.39219449424761683e-12
-4.81814224471213847e-12
6.10806995505709895e-12
2.5572325547105301e-12
-6.47490125923722538e-12
-4.54198661683156579e-12
7.51481999823367746e-12
3.01608400612943267e-12
-7.29151365438377248e-12
-3.92682765832330417e-12
8.5328908345832841e-12
3.35800926534754394e-12
-8.12835135355994803e-12
-2.88043178630953392e-12
8.75792825900824428e-12
3.25223106298801311e-12
-8.49498398942708657e-12
-1.52846423550077085e-12
7.21959021324690538e-12
2.49563405828388532e-12
-7.28074228752553965e-12
-5.2822910020808454e-13
4.48240232625286288e-12
1.36670036285518525e-12
-4.51048975348856068e-12
-1.09749669941173262e-13
1.81908020491397919e-12
5.22920240041792427e-13
-1.69021474754323828e-12
-8.87823503410027474e-15
5.06281465597389694e-13
1.34320493610546163e-13
-4.16748163558764442e-13
1.85689779577681437e-13
3.50138652033853544e-14
-1.00961009657610122e-13
-2.45481442665642579e-12
6.73045860316981182e-13
4.33345778082569055e-14
8.01175706460622247e-14
-2.26580784341789363e-12
5.47943784812088061e-13
1.06108335459445054e-13
-3.07850725050025e-13
-2.08297898676379703e-12
4.64967898189946245e-13
1.47449857530244368e-13
-5.1427808604165858e-13
-1.96515834682209117e-12
4.21879684484903481e-13
1.71788433984291303e-13
-5.9782796608301817e-13
-1.91679197949382254e-12
5.04963041956020988e-13
2.14429781525649686e-13
-7.32892209824517211e-13
-1.97656832889837477e-12
6.56773205852670447e-13
2.97640017778584658e-13
-9.78731740704954908e-13
-2.04642473339738044e-12
8.57685698577301545e-13
3.92488452735744972e-13
-1.24669472283322796e-12
-2.09952402619809258e-12
1.07872779916335804e-12
4.98990035173074999e-13
-1.52677169336496452e-12
-2.05324583027755365e-12
1.3493489983776762e-12
6.12379418642127984e-13
-1.80694813458425965e-12
-1.98008032754398788e-12
1.64901359445289563e-12
7.61228151379524833e-13
-2.11304623674824874e-12
-1.88424575944737129e-12
1.96092233630104393e-12
9.30339002956936107e-13
-2.45237045913211055e-12
-1.77830164455567891e-12
2.32562262300585116e-12
1.09020681426167805e-12
-2.74204620745215601e-12
-1.56000881834129892e-12
2.64229990763684212e-12
1.21861886122517903e-12
-3.03815999023850021e-12
-1.17303341480880533e-12
2.78041899890501503e-12
1.19722069404001205e-12
-3.19267562382137666e-12
-6.46588879474442714e-13
2.45655667889768987e-12
9.36857966041659968e-13
-2.76309681869867541e-12
-2.33694539990768638e-13
1.68334022172793957e-12
5.25599326574143806e-13
-1.74050071465614574e-12
-4.99681204253930711e-14
8.23113554478426966e-13
2.10949203805132264e-13
-6.77874226870313156e-13
-4.02735253722856972e-15
2.87709519510906469e-13
6.19928622057068897e-14
-1.78089740043783697e-13
9.95026086888201174e-14
1.67099841017620236e-14
-4.66787224107111527e-14
-1.0703816051414918e-12
3.80915111789955021e-13
4.17403461131391519e-14
-8.66792405591440802e-15
-9.64948708933277278e-13
3.22861118749459373e-13
6.88998342377609288e-14
-1.71903313366668817e-13
-8.71923357152557853e-13
2.91641250559684793e-13
8.42030317763943033e-14
-2.51123719758968668e-13
-8.16291354940264133e-13
2.81090480670693158e-13
9.03116022904147602e-14
-2.86403748757712262e-13
-7.90597060302997695e-13
2.81011738174000965e-13
9.73111677305520957e-14
-3.38073333143122685e-13
-8.00820978636116409e-13
2.79897822271441357e-13
1.28615421537775614e-13
-4.29470966795213169e-13
-8.19470068892175081e-13
3.07488433573715624e-13
1.62396258722678933e-13
-5.3225027032745719e-13
-8.34155123940195202e-13
3.45257589651658186e-13
2.00487658837952204e-13
-6.28652570261288081e-13
-8.11198058334143759e-13
3.97514130514729586e-13
2.39982437246491e-13
-7.15642327111126479e-13
-7.57247617365180574e-13
4.56883396885097026e-13
2.74692204941058499e-13
-7.87644743008463253e-13
-6.94401153214913189e-13
5.04118094777346897e-13
3.15211536399730692e-13
-8.49703518275969081e-13
-6.52863952902829776e-13
5.41626476506497208e-13
3.65666556787659045e-13
-9.32629105205894023e-13
-5.82112721282485526e-13
5.79470690710832962e-13
4.13234781897988655e-13
-1.037906849480474e-12
-4.51332489694618287e-13
6.12282271267539834e-13
4.16220393793803205e-13
-1.10592501623806217e-12
-2.57766530133812294e-13
6.23979900191089198e-13
3.36070680135966884e-13
-9.76648312269976459e-13
-9.56299084704913698e-14
5.40320800766709107e-13
1.95963485400076351e-13
-6.3180731607441421e-13
-2.12110157286359495e-14
3.45127516057631863e-13
8.60237334820108623e-14
-2.65601001026331687e-13
-1.66259392149896603e-15
1.63950890309111349e-13
2.92201190166631576e-14
-7.83684578481585871e-14
4.89054400840358224e-14
7.62270969790788371e-15
-2.04409711337491998e-14
-6.81037366502779376e-13
-5.77990307888307407e-15
4.3393114359610296e-14
4.00932137843000772e-13
-4.88082821891037519e-13
1.875711716799624e-14
-4.86268335169614773e-16
2.93885943636030379e-13
-3.9937211990543031e-13
3.52260269847580595e-14
-4.44777877330653329e-14
2.34401899787115272e-13
-3.45742088839969223e-13
4.41653539025056587e-14
-9.91743833995459394e-14
2.11618650406344185e-13
-3.09444658782186359e-13
4.70081774321715777e-14
-1.22984172262885666e-13
2.02173576764429313e-13
-2.85618637611990753e-13
4.82420140908246563e-14
-1.31745415606804625e-13
2.02759423864145166e-13
-2.6962396104678097e-13
4.90000192099302718e-14
-1.36301705134558011e-13
2.04616606082476135e-13
-2.66906252289762079e-13
5.1945980133855635e-14
-1.49194416902226711e-13
2.04825754260287032e-13
-2.68215256439958039e-13
5.75025837355049315e-14
-1.69547998220237938e-13
2.08952467504913792e-13
-2.70861685539154811e-13
6.59822345805288382e-14
-1.91251911030533343e-13
2.14035373070653143e-13
-2.65029044745559816e-13
7.58967817763770134e-14
-2.13619043493815395e-13
2.23320910289855014e-13
-2.47519579745846121e-13
8.37162324576666712e-14
-2.32009154858280893e-13
2.36717923389138801e-13
-2.2595378957246041e-13
9.21905992655752324e-14
-2.45528552270540287e-13
2.4554006993290591e-13
-2.08477631826104318e-13
1.04035542021756593e-13
-2.61133962682618987e-13
2.50217927868657045e-13
-1.85724670187629287e-13
1.17796571077951151e-13
-2.86899731109428385e-13
2.52997704948164756e-13
-1.48339297537522496e-13
1.21365576192651123e-13
-3.07018512152953898e-13
2.60248982852151249e-13
-8.84703064014927859e-14
1.03702545937862056e-13
-2.76271687410935567e-13
2.76671579619383287e-13
-3.4569259024834552e-14
6.60247581456155134e-14
-1.87915823110310898e-13
2.70473640269188733e-13
-8.5728069558352068e-15
3.25519379119103282e-14
-8.97121519478999223e-14
1.97063604382295982e-13
-6.23776044547293605e-16
1.33996001266322481e-14
-3.33674996546828626e-14
9.77832673866298674e-14
3.04202213742297728e-15
-9.15880489185955613e-15
2.48652418007668144e-14
-2.33792578721438809e-11
7.14338603950327398e-13
3.49793198955212903e-12
-2.56089012005878459e-11
2.14827123763461355e-12
4.65576412841414991e-12
-2.82320127733010665e-11
4.7787707779979698e-12
6.17861425070618817e-12
-3.03898999059901075e-11
9.22742905611591561e-12
8.16246379951069491e-12
-3.12143845029235494e-11
1.59280640628587704e-11
1.1091387064033531e-11
-3.31279547317399653e-11
2.7877726483782117e-11
1.48926994301002339e-11
-3.34913910769631077e-11
4.00293547990814083e-11
1.90930629893536293e-11
-3.06725825921196575e-11
4.88483341199826569e-11
2.21335505318109137e-11
-2.35239068406074593e-11
5.12584457364664612e-11
2.19966826206245072e-11
-1.39573777463885775e-11
4.28831934818119688e-11
1.73370360068277135e-11
-5.55641035018297448e-12
2.96121803837487381e-11
1.04121127131789849e-11
-1.32868902278568406e-12
1.57066168598702294e-11
4.54845367120098217e-12
-1.6182252064257243e-13
5.78768157780579697e-12
1.47566547443065086e-12
-5.54506731874933566e-15
1.3478631118685769e-12
3.36417763469050787e-13
4.23196609533988734e-13
8.75233182757910085e-14
-9.00644977835382937e-12
3.47508911970755646e-13
8.41061553143283035e-13
-9.53728849187637592e-12
7.5475765417801593e-13
1.27283413411143352e-12
-1.04523055459722716e-11
1.4184345864533991e-12
1.7349672162036671e-12
-1.14077404033530447e-11
2.50833754256340839e-12
2.33360768261133236e-12
-1.21803691791098284e-11
4.14512771191268603e-12
3.09486134039084111e-12
-1.2488977649464843e-11
6.66873241958318735e-12
4.09132511517291308e-12
-1.30733302580895337e-11
1.13025336552283465e-11
5.45147226415550596e-12
-1.31972045767827501e-11
1.62708287583615303e-11
6.93087838141440631e-12
-1.22481832516052808e-11
1.98169681815781194e-11
8.09329053904027295e-12
-9.66525572335858721e-12
2.07983301875470746e-11
8.16925733203266972e-12
-6.0880073159516289e-12
1.80284478686382165e-11
6.64258080667588332e-12
-2.67117347988660602e-12
1.29682766991774257e-11
4.15990003620075704e-12
-7.54430470924950671e-13
7.13334781822290687e-12
1.88864470494287652e-12
-1.26588721009758263e-13
2.7799453270755139e-12
6.36120306948071668e-13
-8.44708245011191682e-15
7.21135979010300648e-13
1.6307100946084625e-13
2.36732189380947515e-13
4.54149148157588449e-14
-3.67327299174419977e-12
4.04093115650429169e-13
2.94690543197647965e-13
-3.87086294792501664e-12
5.73128303955016102e-13
4.57517126843518215e-13
-4.23084211441004059e-12
8.69277145734832274e-13
6.31597939447543514e-13
-4.59263834996082521e-12
1.32830283337309407e-12
8.54181093935862321e-13
-4.85027532343138882e-12
1.98032846624553139e-12
1.13216609704799978e-12
-4.92175051397808411e-12
2.90300126851614071e-12
1.47942035376003487e-12
-5.1062293844728556e-12
4.55290567633453653e-12
1.96839526556292992e-12
-5.15097104642985577e-12
6.43997142151512977e-12
2.49596066528484992e-12
-4.83955465643840328e-12
7.82570816268002885e-12
2.92332073558926946e-12
-3.91443253973357119e-12
8.2938083787646428e-12
2.98751047118698407e-12
-2.58257667579490864e-12
7.41893076416657326e-12
2.49859279741502763e-12
-1.2139028234444371e-12
5.55903225535399606e-12
1.62331504161779188e-12
-3.77346756691576161e-13
3.18471012866499227e-12
7.6432250564914068e-13
-7.11077578128383444e-14
1.32417914990267282e-12
2.73400660889834782e-13
-5.212683763045225e-15
4.03590834018632706e-13
8.09490689565075948e-14
1.31829726013005594e-13
2.31679412683946118e-14
-1.49762194244193538e-12
3.4217198883071937e-13
1.12652790905394184e-13
-1.56482360797308209e-12
3.9264514246929396e-13
1.68874651450818804e-13
-1.70083860351216511e-12
5.29099276336992888e-13
2.35695015325570762e-13
-1.83535874450804949e-12
7.1623683024762176e-13
3.17795600026390619e-13
-1.92381176833299522e-12
9.71385864841675611e-13
4.18460505321344618e-13
-1.92676930300359366e-12
1.31736944710927271e-12
5.37462679129105423e-13
-1.98054357430814864e-12
1.8509193935745216e-12
7.03744174870247325e-13
-1.98945245520105236e-12
2.46982706959820779e-12
8.8297795048979449e-13
-1.88849112558871834e-12
2.95735268684017488e-12
1.03974448497862216e-12
-1.55703778397028677e-12
3.19267482997717515e-12
1.07593850390931485e-12
-1.06697239690837653e-12
2.96141405234533726e-12
9.23272017800108191e-13
-5.27743676782320403e-13
2.32885056681823988e-12
6.19872717787060609e-13
-1.73530414318476534e-13
1.4066026654867735e-12
3.03440698185657549e-13
-3.44030290557648056e-14
6.33657660184004863e-13
1.16990219962438306e-13
-2.50774980653304449e-15
2.317747313339932e-13
4.10670920824748666e-14
6.94481478474246979e-14
1.1293190417759717e-14
-6.81293772588933482e-13
2.64209259598345549e-13
3.50442180974307897e-14
-6.63282782473964135e-13
2.61705815973428134e-13
4.37650987369749722e-14
-6.34258279082420443e-13
2.61524480691782275e-13
5.07379652616986483e-14
-6.13143541523533094e-13
2.64250269885131274e-13
5.62628724211399879e-14
-6.31563235521802854e-13
2.61798287841383382e-13
6.72041552355858971e-14
-6.79870808934792868e-13
3.19550645655455732e-13
9.144420385051361e-14
-7.27918096497785652e-13
3.91659871469947714e-13
1.21132906605284899e-13
-7.57577302372672111e-13
4.837936746892815e-13
1.57331572292298251e-13
-7.51656578789299434e-13
6.02944173327634107e-13
1.9733522378249292e-13
-7.55967815158162476e-13
7.35628601543048247e-13
2.4669701973061115e-13
-7.52434741509364083e-13
8.72681170241962549e-13
3.06946327992519149e-13
-7.21838967198362644e-13
1.00847370202778335e-12
3.60659992028647492e-13
-6.03465571040537351e-13
1.11620332856351784e-12
3.79717276530669616e-13
-4.2733409977750846e-13
1.098474198736204e-12
3.33629816604809529e-13
-2.19554383585548108e-13
9.33755234959547321e-13
2.32035380160350999e-13
-7.42558866112405543e-14
6.13387161749706747e-13
1.22725916263552371e-13
-1.52850857227113512e-14
3.11937117613181849e-13
5.04086431483312086e-14
-1.06029594653348016e-15
1.30159232492879167e-13
2.09222745386232971e-14
3.38789531065233739e-14
4.97354766420935958e-15
-2.97753020815714341e-13
1.70070624860363828e-13
2.74446462123949334e-14
-2.83472898439209604e-13
1.70721484160268883e-13
3.00175747895765433e-14
-2.70079639404055608e-13
1.73950848027532715e-13
3.18429133114375704e-14
-2.54981347666901198e-13
1.79737037609637687e-13
3.34394344290610377e-14
-2.55901334748052259e-13
1.80868967731875569e-13
3.55460749197773113e-14
-2.70341233810408886e-13
1.86518909611375719e-13
4.05875394711342906e-14
-2.85941229564988154e-13
1.93947035363520945e-13
4.88383594466480546e-14
-2.95421830480556447e-13
2.12698049107534852e-13
6.12671817787734032e-14
-2.91151941387747651e-13
2.43958553293382626e-13
7.46296485245046734e-14
-2.80517426237997237e-13
2.72957825041068615e-13
8.92843054586223494e-14
-2.69812519548030603e-13
2.96843740224035117e-13
1.05681789626113685e-13
-2.60221864876030761e-13
3.21152468808169731e-13
1.22945426903890532e-13
-2.20989516410913972e-13
3.54254633454114909e-13
1.32193992390863139e-13
-1.62128129172846027e-13
3.69954904157793718e-13
1.2041909550157677e-13
-8.63701448209061026e-14
3.49455992634187695e-13
8.95789289708465461e-14
-2.96547598417548242e-14
2.61772883648963678e-13
5.03177250417692318e-14
-6.63644946451678886e-15
1.54470306537547067e-13
2.47620445508194619e-14
-4.31518415057492329e-16
6.80040808044215443e-14
9.91115133965575677e-15
1.52964238578206726e-14
2.04433409139412615e-15
-1.52418773346649875e-13
1.49233386275234007e-14
1.19663487552567379e-13
-1.30238479498003861e-13
1.7525292858399566e-14
1.11292073791381269e-13
-1.17306154807635371e-13
1.87388579964652071e-14
1.10764344982278063e-13
-1.07824604536334784e-13
1.85287082758398158e-14
1.11127057600403671e-13
-1.00822794666588899e-13
1.81856599057044407e-14
1.127404242847302e-13
-9.63003154684084058e-14
1.82326149124369548e-14
1.17194101207098294e-13
-9.47061340351320243e-14
1.90019657764241604e-14
1.24393574230317408e-13
-9.46132921301197924e-14
2.01955369004157082e-14
1.30082841386591749e-13
-9.6839731428465268e-14
2.16473887174710614e-14
1.36695728410614571e-13
-9.86156341105629113e-14
2.37365790826332167e-14
1.4616065689013473e-13
-9.67996929651249769e-14
2.61028106732067268e-14
1.58025076166317034e-13
-9.26064564456884412e-14
2.84961695832415149e-14
1.68238465244923126e-13
-8.80810047497313321e-14
3.20605959848743032e-14
1.77424010418286856e-13
-8.52632341844239092e-14
3.66560618966082239e-14
1.86488618326242735e-13
-7.24613890488903145e-14
4.06903749324054405e-14
1.9661969662318058e-13
-5.5787009735048377e-14
3.91568750674703217e-14
2.04323020364391809e-13
-3.10149822973299529e-14
3.18878251594239018e-14
1.95521944146354839e-13
-1.15793189178990117e-14
2.14733489292407596e-14
1.53316595122548959e-13
-2.7426879293722438e-15
1.10420065429232041e-14
8.99401325249239699e-14
-1.71465147710590624e-16
4.03879541165617808e-15
3.56399417348852163e-14
7.79973830291110117e-16
7.5028460259015173e-15
-9.08775894627190974e-12
1.06700951759568101e-12
1.43027546143344657e-12
-1.01470536279608507e-11
1.94218325522311037e-12
1.8592117162826621e-12
-1.12362111752114021e-11
3.24854734505384527e-12
2.42396699237767818e-12
-1.21822182337067775e-11
5.10596431150607085e-12
3.19827713477790849e-12
-1.33397015009942532e-11
7.86347641073475849e-12
4.20869406922911694e-12
-1.43391777154881566e-11
1.16307159312530266e-11
5.34052401216457689e-12
-1.38007912403204388e-11
1.47493826476399388e-11
6.32999957947066528e-12
-1.14591858966517444e-11
1.5962621478589548e-11
6.43217061058290836e-12
-7.98541201133043159e-12
1.44099840742855065e-11
5.36409561362394461e-12
-4.32195098315013498e-12
1.15148888813941188e-11
3.54530898230913044e-12
-1.64619817526365711e-12
7.76812283889520999e-12
1.77629819475404255e-12
-4.04174929051728044e-13
4.07623527616038102e-12
6.57247329644165687e-13
-5.88677664438522893e-14
1.573456509292169e-12
1.95905680448399687e-13
-3.34766464715552417e-15
4.7821502072634785e-13
6.51788522725872741e-14
1.39891937639570654e-13
2.28927706307565481e-14
-3.08434575581079946e-12
2.90093907357923069e-13
3.85365428266117486e-13
-3.45319266357639954e-12
5.02303987940300071e-13
5.13865862992767046e-13
-3.885832473983099e-12
8.23931904102604994e-13
6.66366970139809826e-13
-4.31201182625863584e-12
1.31511280119759803e-12
8.54840280365717653e-13
-4.65014765988750089e-12
2.01779542316056512e-12
1.08715700475503348e-12
-4.97030066748984539e-12
3.00577858117993555e-12
1.41132816908893944e-12
-5.30061510110328373e-12
4.42076204092758625e-12
1.78710693842923452e-12
-5.24034589091074842e-12
5.66266112832087355e-12
2.14546855574192361e-12
-4.44451184566578348e-12
6.28887882908453778e-12
2.24167574164849188e-12
-3.26267730294869133e-12
5.90426457605650588e-12
1.93888672580159835e-12
-1.88890097915891459e-12
4.90815152847957313e-12
1.34096249263327224e-12
-7.83139077161111036e-13
3.4384417075548851e-12
7.0524276232707948e-13
-2.15385839655214062e-13
1.87664216024537142e-12
2.77436528990442151e-13
-3.63289834901741046e-14
7.77052203717056811e-13
9.35084238032885879e-14
-2.34224145265791902e-15
2.71894936975788512e-13
3.94232714386476545e-14
7.70505403162404414e-14
1.20749612717331281e-14
-1.18421341045141856e-12
2.40070003526854891e-13
1.35720253115247479e-13
-1.31611114405409731e-12
3.13809851194562923e-13
1.78182556206784423e-13
-1.47798289316887814e-12
4.40963014058145785e-13
2.2772595015380497e-13
-1.6331360941213415e-12
6.23249869497573788e-13
2.91688002511604278e-13
-1.74925887317845228e-12
8.84418780996610188e-13
3.72283981970761112e-13
-1.84096325854719035e-12
1.23636942778622015e-12
4.7273787964309993e-13
-1.95936360735708482e-12
1.74120079122612993e-12
5.9605312592176643e-13
-1.96934094889416202e-12
2.21007118546117667e-12
7.20955382107373259e-13
-1.71017017380404251e-12
2.48084052277719935e-12
7.70468384761412419e-13
-1.30546676866976837e-12
2.41516337703884543e-12
6.90026401060434116e-13
-7.95978885498517329e-13
2.08667500077851034e-12
4.97303781144806368e-13
-3.50336928205730731e-13
1.52080256386002226e-12
2.75922331483128044e-13
-1.02608165236108063e-13
8.68422145910701657e-13
1.21074384722369474e-13
-1.872653828869097e-14
3.89033749351612077e-13
4.60007122658903936e-14
-1.19834248479994764e-15
1.54957314625413085e-13
2.25317913951414836e-14
3.97862157692073382e-14
5.7748008939612403e-15
-4.61234522800659766e-13
1.97011314194969877e-13
4.558552849295424e-14
-5.06334885415145407e-13
2.0397127153954801e-13
6.04154339808400056e-14
-5.6569617755926038e-13
2.57619297106441e-13
7.73287871859050887e-14
-6.21499168899094511e-13
3.31303898132838627e-13
1.00636735024396832e-13
-6.60953118670528268e-13
4.35232547143289509e-13
1.29309718739811018e-13
-6.85238373166613431e-13
5.62122198438682346e-13
1.6230026574412489e-13
-7.23011809196186513e-13
7.17522161960110152e-13
1.9996295002743744e-13
-7.29072827819930862e-13
8.84086675987677907e-13
2.40184326085658161e-13
-6.5054641160612385e-13
9.8749458593565009e-13
2.61921891415351728e-13
-5.10312860836599878e-13
9.97231397209253145e-13
2.42801057631037344e-13
-3.23922706543843033e-13
8.95234598550241317e-13
1.84546420597176207e-13
-1.48510170684869547e-13
6.81289101974866352e-13
1.1190829709409674e-13
-4.48486245601477262e-14
4.16827329782874647e-13
5.40744112802228544e-14
-8.82956930737620341e-15
1.9783265638460501e-13
2.71568672020024354e-14
-5.3664872925194646e-16
8.54313853656698258e-14
1.17957124505622587e-14
1.91537288009621042e-14
2.52256240611180643e-15
-1.86320352922977276e-13
1.18991954389118321e-13
1.76681485096230184e-14
-1.88344499509814941e-13
1.27071928885772898e-13
1.85281465497661234e-14
-1.86449719513066459e-13
1.35028792476610772e-13
1.97846789346438384e-14
-1.86480735316927107e-13
1.42654829388159638e-13
2.1542973848321842e-14
-1.97366840330470529e-13
1.47921034560695793e-13
2.41615566958268614e-14
-2.17616553023397937e-13
1.59393922242516975e-13
2.84895914793727906e-14
-2.36928211794416865e-13
1.80840427669577104e-13
3.66807096155062977e-14
-2.50236301043149359e-13
2.21961026891313565e-13
4.65294720103485917e-14
-2.56030964066289634e-13
2.69694241055971913e-13
5.76348651289145678e-14
-2.62129370039271656e-13
3.20004704347988291e-13
7.02952303595555949e-14
-2.65837843880603128e-13
3.63410813605162753e-13
8.43055735880081131e-14
-2.41513390117589253e-13
4.00640150090607966e-13
9.38619539234790584e-14
-1.93554910234020553e-13
4.18721225750131099e-13
8.9727514258776334e-14
-1.26723967768785027e-13
3.92904154027568095e-13
7.14746172443874478e-14
-5.98028727157251392e-14
3.19565292996386288e-13
4.64473759018264806e-14
-1.88354886322827155e-14
2.04777204203492904e-13
2.73531787373316026e-14
-3.980847864625181e-15
1.09984774632630714e-13
1.37839732438892862e-14
-2.3295367099876407e-16
4.32154273365213608e-14
5.48825496888605965e-15
8.73083735769578006e-15
1.03704350071188085e-15
-8.54908247541761683e-14
7.49007517227532873e-14
1.16482498872432332e-14
-8.23600653346534223e-14
7.80340129262216134e-14
1.15412817223083744e-14
-8.01410865421872114e-14
8.08429152516713153e-14
1.15651176011609667e-14
-7.97644699091408143e-14
8.65267792517802594e-14
1.20904655010354811e-14
-8.18597262226667851e-14
9.43884838271374627e-14
1.32677170259683235e-14
-8.5793578769944569e-14
1.00556272797148834e-13
1.44843506188683454e-14
-9.12085584205727393e-14
1.08461024298620397e-13
1.62142819367361134e-14
-9.52784619916173855e-14
1.19060595732593438e-13
1.85749384428952054e-14
-9.64996680373206959e-14
1.29062340067629629e-13
2.13261930387690675e-14
-9.6926572962825001e-14
1.37543203309102686e-13
2.50725436857796465e-14
-9.59055534373452724e-14
1.46866277764167885e-13
3.02601308314000249e-14
-8.75224474096390695e-14
1.57849598466523164e-13
3.41632558008367074e-14
-7.15473043318038469e-14
1.70648725900499598e-13
3.36030046618456208e-14
-4.85146245285185179e-14
1.68502838290053573e-13
2.86823112039191472e-14
-2.38274988436658999e-14
1.48749364541821058e-13
2.19246339200670768e-14
-8.12713930857656823e-15
1.07877441039649806e-13
1.35328024876243537e-14
-1.77592899085505603e-15
5.8255017909145902e-14
6.76042955509691962e-15
-1.00664699342386491e-16
1.98244549227343248e-14
2.2864942539695905e-15
3.79381612325971338e-15
4.11956937155505874e-16
-4.67589142495235209e-14
7.69388142225339226e-15
4.35401467729662624e-14
-4.26693443979646009e-14
7.49776815052062206e-15
4.52288839425291598e-14
-3.95911288806473553e-14
7.05646473982157408e-15
4.68681510832208796e-14
-3.64592621591802508e-14
6.68682757992511765e-15
4.82003472931645673e-14
-3.4527873824855868e-14
6.44048423784754106e-15
4.97069775793670829e-14
-3.37954511818174159e-14
6.48726418003645609e-15
5.27359549282448212e-14
-3.39684202085722673e-14
6.76512570459403515e-15
5.70327207196738283e-14
-3.45163198055214591e-14
7.28796759564151314e-15
6.24764549453707418e-14
-3.50887766358947028e-14
7.97267456807220322e-15
6.82022234645558448e-14
-3.52166958819308243e-14
8.75279769644231953e-15
7.43974460037634309e-14
-3.41802729405468169e-14
9.55625520274078488e-15
8.06365529710273539e-14
-3.30318662700028895e-14
1.04669298241673588e-14
8.58108550348600726e-14
-3.17716800058946846e-14
1.17153036590926342e-14
9.19777926938579285e-14
-2.97796416608464337e-14
1.30197639911867853e-14
9.84551638577508888e-14
-2.48239981377773826e-14
1.36461591528904868e-14
1.04583581792953793e-13
-1.77441842961049957e-14
1.2415839375071363e-14
1.03309356245197085e-13
-9.47397780539212912e-15
9.70387759907863083e-15
8.94871241128051209e-14
-3.41588687732640933e-15
6.34333748950977492e-15
6.2254086585627348e-14
-7.30859080098946799e-16
2.9062269066309688e-15