/*--------------------------------*- C++ -*----------------------------------*\
| =========                 |                                                 |
| \\      /  F ield         | OpenFOAM: The Open Source CFD Toolbox           |
|  \\    /   O peration     | Version:  2206                                  |
|   \\  /    A nd           | Website:  www.openfoam.com                      |
|    \\/     M anipulation  |                                                 |
\*---------------------------------------------------------------------------*/
FoamFile
{
    version     2.0;
    format      ascii;
    arch        "LSB;label=32;scalar=64";
    class       volVectorField;
    location    "0.149999999999999994";
    object      U;
}
// * * * * * * * * * * * * * * * * * * * * * * * * * * * * * * * * * * * * * //

dimensions      [0 1 -1 0 0 0 0];

internalField   nonuniform List<vector> 
7340
(
(0.0165026525719148692 0.214224892665218325 0.158431397094448034)
(0.0425038727500072211 0.207347086763675414 0.148710542805307183)
(0.0639401133657404447 0.193610369301355001 0.136386675940989438)
(0.079025998911761125 0.175315737877401179 0.122170706091435127)
(0.087326427022686906 0.155264009667761271 0.106998901006524677)
(0.0895585061473235244 0.135841705165067411 0.0919134045252995163)
(0.0870878367612508697 0.11851907378376822 0.0778049061225026539)
(0.0813631590330689963 0.103875728664605746 0.0652417788028812062)
(0.0735796622183198384 0.0919117837379335029 0.0544683531373245516)
(0.0645926027166093958 0.0823573336539396295 0.0455007349885162005)
(0.0549618940860029659 0.0748661218494927894 0.0382302936012712952)
(0.0450297621344892124 0.0691090483390356669 0.0324977517998947946)
(0.0349902861942406398 0.0648104873314093444 0.0281380900180998282)
(0.0249396381232791543 0.0617572813029013401 0.0250052265977311686)
(0.0149173358853186139 0.059797014971256654 0.0229847445836081077)
(0.00495866372588534433 0.0586768239460936231 0.0219318982988001253)
(0.0151043822419055784 0.206534640601369668 0.143543518612606086)
(0.0378217872474119407 0.200278272228184617 0.134306623836934369)
(0.0566517457125533114 0.188384143861227954 0.123140114302845965)
(0.0702389688952028274 0.172632148308909217 0.110579707291403595)
(0.0781829261597292019 0.155168513662948621 0.0973317394754069087)
(0.0809353603057973853 0.137899691280664316 0.0841776372563376868)
(0.0794836191894636307 0.12211072359314161 0.0718032125636299673)
(0.0749535296459080541 0.108425351980420276 0.0606760640352770608)
(0.0683403898431881041 0.0969865983420373223 0.051028868669084633)
(0.0604072380204907361 0.0876722846528600608 0.0429138853290945976)
(0.0516885821401842152 0.0802518699968007565 0.0362733188632320264)
(0.0425348973936979652 0.0744762694832473982 0.0309964292998296011)
(0.0331624759559434323 0.070121466202230226 0.0269580985025596326)
(0.0236936973401202823 0.0670060330371876067 0.0240422820773202317)
(0.0141938999997054567 0.0649963410664627927 0.0221554724245127815)
(0.00472175918433813575 0.0638222688381349101 0.0211682459786383496)
(0.013701266617799461 0.199807411244812216 0.130337133346668299)
(0.0336854935207361594 0.19410283027652947 0.121608930036686214)
(0.0503374258512606504 0.183713340125273128 0.111454312339788933)
(0.062606780922233346 0.170030784280558567 0.100284543278709865)
(0.0701293436969879502 0.154725466230293568 0.0886358168174822131)
(0.0731853969400775295 0.139335221098393969 0.0770986810897280883)
(0.0724935894935471725 0.124971890706290834 0.0662037214133235213)
(0.0689300115774927752 0.112255190694967782 0.0563327509164177481)
(0.0633176649876543984 0.101413204013893976 0.0476970271389502293)
(0.0563259540588483126 0.0924298746885782174 0.0403668172327245611)
(0.0484516548026901681 0.0851676544422378945 0.0343185611107561933)
(0.0400401925766991351 0.0794475706351054911 0.0294779184662107181)
(0.0313193100603244984 0.0750942460232611325 0.0257517164922788366)
(0.0224298716603786447 0.0719582126849701853 0.0230490766510784498)
(0.013457665444802586 0.0699259314289454592 0.0212945770695121862)
(0.00448039851420984486 0.0687120610914294799 0.0203728538779381421)
(0.0123177743843619694 0.193870873438112878 0.118545021073709095)
(0.0300139354310696646 0.188661741618899759 0.110334152079201248)
(0.0448271881629185021 0.17951792265274738 0.101079239960067943)
(0.0559335104394902832 0.167541428761216082 0.091097037248374424)
(0.0630066208745989481 0.154052693679712249 0.0807958722253371286)
(0.0662157323848642509 0.140303320641842089 0.0706258630223647044)
(0.0660868579948548363 0.12724981874819466 0.0609997371250772108)
(0.0633032914545870878 0.115481770580774037 0.0522280178473754214)
(0.0585428383683746778 0.105273390921810567 0.0444970780587734746)
(0.0523861791369065466 0.096682554825503586 0.0378838960615695552)
(0.0452865184340670787 0.0896443182306048691 0.0323872278710496675)
(0.0375753574620715444 0.0840390853399652082 0.0279595294389417513)
(0.029483608397369878 0.0797354889761617974 0.0245327663860308368)
(0.0211640805763463682 0.0766146741171848666 0.0220367700858658082)
(0.0127181277786196784 0.0745833958612042575 0.0204114705847423528)
(0.004237718925987022 0.0733434303798300852 0.01955424659017738)
(-0.0427277814389581817 0.180254124634884827 0.125743290000018854)
(-0.024554124512700122 0.18669667675143134 0.120673313610914837)
(-0.00640990636467698299 0.189569147152832213 0.114773520364023329)
(0.0109827319481126048 0.18860941892942848 0.107967427835060276)
(0.0267406023077656971 0.183834883253529868 0.100270882474795181)
(0.0399870449303264541 0.175733498359544715 0.0918232936502203778)
(0.0500642728259539788 0.165181571947772998 0.0828667837607985069)
(0.0566834469851062034 0.153236335676210783 0.0737136528777642408)
(0.0599418217644340501 0.14092431159337912 0.0647095207623852309)
(0.0602261456528522948 0.129066062893147565 0.0561770352430224634)
(0.0580709838623310812 0.118208239478696353 0.0483682657583702075)
(0.0540335820799541788 0.108645486937238744 0.0414446290650069341)
(0.0486139284024355994 0.100485384905265082 0.0354830238602816192)
(0.0422201051228933005 0.0937183124748290075 0.0304961189798944148)
(0.0351642596643363947 0.0882736757189570287 0.0264557312249914037)
(0.0276743923918599151 0.0840587258343552107 0.0233133009857906422)
(0.0199099468534254462 0.0809828465307252804 0.0210154342177797937)
(0.0119839346377374929 0.0789722431435856409 0.0195148749366632138)
(0.00399776818762365843 0.0777168117033159994 0.0187206874137706321)
(-0.0389169772162497041 0.177328799593638675 0.116267739350552651)
(-0.0223124877039643787 0.182759699539369047 0.110931322883857153)
(-0.00591066127631902083 0.184991642517167681 0.105012302528970813)
(0.00970251926873919035 0.183881163221486482 0.0984518171814306592)
(0.0238067847856190951 0.179503529627173003 0.0912582263820541639)
(0.035710277508629748 0.172288781638666122 0.0835372315272813332)
(0.044875041414240105 0.162939593858333398 0.0754734809651367855)
(0.0510506293958038204 0.152315120433304974 0.0673066581689790999)
(0.0542875369373479258 0.141264236584991543 0.05930357950601918)
(0.0548711962654956503 0.130491065415002161 0.0517176369619218868)
(0.0532215492897552128 0.120494561261569988 0.0447533298113456796)
(0.049796770899577826 0.111572986007996561 0.0385487280416681455)
(0.0450254046084502743 0.103865414341322362 0.0331767434329340999)
(0.039271537854650769 0.0974030898819655405 0.0286580953492799398)
(0.0328250350666920432 0.0921547253043401571 0.0249782683006435635)
(0.025906701094664801 0.0880604207186475307 0.022103542907867979)
(0.018678348423564934 0.0850547742045738853 0.0199939056734902941)
(0.0112608862584409174 0.0830829109398230903 0.0186126325171806078)
(0.00374941564483885275 0.08184905870480505 0.0178791597763417499)
(-0.0656375984560618186 0.158182022743895478 0.117576632076641679)
(-0.0507201823387786327 0.167426875277005643 0.112572984736467957)
(-0.0355656627285329402 0.174533832383981957 0.107404394439430714)
(-0.0203977927291453531 0.179051057992311441 0.101948485860445859)
(-0.00553976564876149102 0.180746468349730294 0.0961108496216867281)
(0.00852670762624277434 0.179532074559853982 0.0898394392578780454)
(0.0212064051973749751 0.175529994877444584 0.0831350340623680795)
(0.0319407883298293005 0.169097046399915213 0.0760746124030406146)
(0.0402895114623337616 0.160805550609369213 0.068798437805360782)
(0.046037290129597716 0.151355721647570274 0.0614900663214879156)
(0.0492031221281815437 0.141448389468743302 0.0543559477784993986)
(0.0499979316419875766 0.131684793309785442 0.0475957192731059492)
(0.0487528552961756026 0.122514454980948456 0.0413753152733436352)
(0.0458450133765162735 0.11422931409174264 0.0358119677452909124)
(0.0416408374147707525 0.106988345464019197 0.0309727626312279319)
(0.0364631997228697102 0.100853910911430533 0.0268826599762251039)
(0.0305786202736049069 0.0958271175243701895 0.0235366747786282804)
(0.0241979527493173252 0.0918765249728058092 0.0209123084152652849)
(0.0174826552441041984 0.0889592448465419405 0.0189801302686248528)
(0.0105678704065801012 0.0870375112954892977 0.0177120022823681472)
(0.00351928030292249618 0.0857240792304240357 0.0170363771451290738)
(0.0324190580643981263 0.177724673737846783 0.137272792474389976)
(0.0513356544309738622 0.166242203677131634 0.126343558324439331)
(0.0648219935584172097 0.151509609181135263 0.11334346342317661)
(0.072630175840138339 0.135654072979233709 0.0993607154507554491)
(0.0753872885238298235 0.120370967103459153 0.0854783085777894303)
(0.0741608011813544438 0.1066682022446344 0.0725269817287370888)
(0.0700595232660649742 0.0949502986802662763 0.0609988922474205761)
(0.064013096743444256 0.0852376577573072947 0.0510962481416079722)
(0.0567143296906506486 0.0773643609381989561 0.0428291134823498149)
(0.0486437599363393411 0.0711031984951027568 0.0361034242259462707)
(0.0401184323948546584 0.0662301306268489737 0.0307821073000335947)
(0.0313389619331713304 0.0625522833986147664 0.0267225746742323945)
(0.0224252002257223637 0.0599172076905132994 0.0237978399282672629)
(0.0134490459498964494 0.0582140480603256932 0.0219078129850142113)
(0.00447615548568839824 0.0572190875101815238 0.0209217299813499458)
(0.008007446797767305 0.179725177672544034 0.131830334420872386)
(0.0284306505747155686 0.174180717034134458 0.124146283577950087)
(0.0453820408861332833 0.164283486401967049 0.11428451785845628)
(0.0577836445847303426 0.151492861422122427 0.102853979639851795)
(0.0653689082788075082 0.137481922707088394 0.0906652777892101858)
(0.0685355045524256024 0.123663184895251049 0.0785397689379687264)
(0.0680740462578710848 0.110968494487218017 0.0671370866475633349)
(0.064870033122455914 0.0998591538055536299 0.0568805695568865774)
(0.0597150453889078447 0.0904610707342521775 0.047974485982648668)
(0.0532350371673639272 0.0827103756236598486 0.0404646624070655464)
(0.045888798171075891 0.0764592572008145066 0.0343017488746127086)
(0.0379957217103564643 0.0715391865549941941 0.0293902532754489881)
(0.0297697869223354609 0.0677937035762020967 0.0256215841914211734)
(0.021348179269310319 0.0650931645683252985 0.0228944038587682933)
(0.0128207044129033092 0.0633404910266350957 0.0211265680308255904)
(0.00426988124211366039 0.0622927679142419588 0.0202006497496718465)
(0.00669026404382258577 0.17587226475396367 0.1198511979554443)
(0.0249531198214707831 0.170981848775080381 0.112554765040969465)
(0.0402085531570635368 0.162361160108431407 0.103608560980222808)
(0.051609087678264283 0.151176068673330888 0.0934792682630641442)
(0.0588846125350427768 0.138750502604729042 0.082777632104969967)
(0.0622853085531142672 0.126263023221542758 0.0721310035968911051)
(0.0623994865550687103 0.114554696839386211 0.0620630016544217317)
(0.0599322652042290002 0.104102307211429879 0.0529316683808105648)
(0.0555511994077009519 0.0950984482491396832 0.0449303340054212769)
(0.0498126635460986456 0.0875556123780884682 0.0381241278719215426)
(0.0431449277206909926 0.0813919907845671864 0.0324945929415372814)
(0.0358606069380279086 0.0764890829936320515 0.0279779847335078352)
(0.0281796263353041657 0.0727255725272155512 0.0244933186025747957)
(0.0202511051148739178 0.0699952823943469082 0.0219609935785587893)
(0.0121789003059386298 0.068216159574165533 0.0203145350162004037)
(0.00405902529763321664 0.0671278630812486843 0.0194488641351361277)
(0.00549554945783145565 0.172425240390589429 0.109154901622022349)
(0.0219053437816920174 0.168067320667092485 0.102253348731610169)
(0.0356882781482791567 0.16050401514904164 0.0941059209306752131)
(0.0461672875963722029 0.15066120768464672 0.0850735739889844356)
(0.0530841254984877609 0.139602911344720443 0.0756197779760655192)
(0.0565938336256147159 0.128316743779217646 0.0662273706220975755)
(0.0571352048735429344 0.117550525159078073 0.0573124654782941126)
(0.0552691294955602944 0.107771850250290388 0.0491745983459382918)
(0.0515551892287752223 0.0992121209576716512 0.0419897901294339418)
(0.046482300437024511 0.091938908365197719 0.0358316373407117639)
(0.0404437454218865428 0.0859233962178212324 0.030702256649823699)
(0.0337390587194041289 0.0810904651276255495 0.0265616180861693307)
(0.0265882607008230271 0.0773512460171914135 0.0233507247087033389)
(0.01914774475432569 0.0746224391155578398 0.021008047857755275)
(0.0115318653578981717 0.072837430514176002 0.0194805302061403611)
(0.00384630134583777844 0.0717206462355379354 0.0186743704535942481)
(-0.0464558813156076833 0.161999786673599433 0.112788867681342636)
(-0.0291230682681904683 0.167539409101825465 0.10937575565061905)
(-0.0119545475706572465 0.170044077284182721 0.104999703723506629)
(0.0044150511312167906 0.169328376806592795 0.0995589543665145044)
(0.0192205661369470246 0.165413954056485402 0.0930519718077110064)
(0.0317154324275683991 0.158733326325031399 0.0856111596118170476)
(0.0413493934093326909 0.150022555104890432 0.0775156651485759546)
(0.0478854931926044614 0.140149290866701803 0.0691202339607882021)
(0.0514160558700371417 0.129943207805692101 0.0607990312040901024)
(0.0522689665039977602 0.120063136616742019 0.0528832550657344358)
(0.0508907711665755255 0.110953580263636248 0.0456217321387191455)
(0.0477489568612106188 0.102865235724848042 0.0391707648041172002)
(0.0432697898474099507 0.0959038533179760733 0.0336055210972749513)
(0.0378101290419166347 0.0900819469809800849 0.0289411682125271658)
(0.0316524565281257678 0.0853609168644038907 0.0251550014665587046)
(0.0250124955370004641 0.0816808561848906822 0.0222052236620020604)
(0.0180500684570324803 0.0789798749271424516 0.0200450710723328873)
(0.0108872386351802214 0.0772063281750633157 0.0186327736310117967)
(0.00363543110522150659 0.0760704191017236436 0.01788468225779382)
(-0.0431048245738617497 0.160246035208556764 0.104562648814947409)
(-0.0271174111768240009 0.165117646902233933 0.100767892151885724)
(-0.0114336003323739013 0.167230464920931382 0.0962458727360114702)
(0.00342852824809302542 0.166488669461332894 0.0909238020483190273)
(0.0168381097687464315 0.162962330120081211 0.0848045147533714738)
(0.0282028423751879594 0.157029829268815369 0.0779929290116516821)
(0.0370656664717314704 0.149284728561498187 0.070705521636681784)
(0.0432167650384408797 0.140443921720007137 0.0632156195563843004)
(0.0467068663124327321 0.131207164633039663 0.0558147283339946731)
(0.0477816650506748541 0.122152589991183266 0.0487669945309084571)
(0.0467975830395267814 0.113694571681675044 0.042278181640736559)
(0.0441446619255394246 0.106089630075162963 0.0364847151984613385)
(0.0401926333895314819 0.0994684409245202017 0.0314591093942622052)
(0.0352625043317953621 0.0938746756371805074 0.0272241791515192219)
(0.0296174942792604423 0.0892995324992640199 0.0237695414569702029)
(0.0234658791687683936 0.085708100046918867 0.0210666042030274413)
(0.0169677617326665017 0.0830578587830676646 0.0190804666466334455)
(0.0102500913181771975 0.0813121147975088554 0.0177787004593623274)
(0.00341498370635951246 0.0801929168724072744 0.0170866678237055272)
(-0.0696121772516025833 0.143747316966481464 0.103780853343921425)
(-0.0548898380750378889 0.15211899023729783 0.10047422633625791)
(-0.0400492485796753173 0.158626593190275833 0.0968659067199633267)
(-0.0253110914826193308 0.162858616856584787 0.0928315710051191012)
(-0.0109626606060635665 0.16462654658926576 0.08826396543666995)
(0.00256799564282159803 0.163867268547392114 0.0831084919334108413)
(0.0147536172623988424 0.160693576938437444 0.0773682417847141451)
(0.0251131083996237597 0.155416189411757277 0.0711241845570955433)
(0.0332690939192635676 0.148524420340018143 0.0645440239694568263)
(0.0390383868692594921 0.14061167608729036 0.0578387436761962498)
(0.042443414658432016 0.132266504788891015 0.0512361485918605003)
(0.0436686444012741246 0.12399289871654709 0.0449472250585757419)
(0.0429993809024413268 0.116171429716285662 0.03914164555792575)
(0.0407610637248176158 0.109056077433931031 0.0339371660864228805)
(0.0372734263873054431 0.102793655441586321 0.0294014045926494008)
(0.0328234980578774732 0.0974518676036603693 0.0255611871139488842)
(0.027654375327937717 0.0930467301570724464 0.0224147254282382538)
(0.0219648188730392005 0.0895651762378016081 0.0199434487732359084)
(0.0159133041974305334 0.0869820759683736233 0.0181218846002753065)
(0.00963864960265220332 0.0852742774340081722 0.0169252636641068904)
(0.00321137510529824347 0.0840703809885821468 0.0162873201852212837)
(0.0235825734254199934 0.151300571153025976 0.12135582782931445)
(0.0400411317020705412 0.142135153581261081 0.111762151345034935)
(0.0520460483565271248 0.130778996563426231 0.100344103962944853)
(0.0594505733907492659 0.118685678040623896 0.0881133183269936782)
(0.0627133928829693432 0.106985267661976372 0.0760062246127977265)
(0.0626016948664916278 0.0963651510999876532 0.0647112869539921282)
(0.0599300829505977281 0.0871317621977140411 0.0546319492611446605)
(0.0554099300703725789 0.0793402823375323196 0.0459389418257414237)
(0.0496006633258816304 0.0729132243613415248 0.0386485236236454172)
(0.042915825669976454 0.0677198792358972568 0.0326906760094530235)
(0.0356495852808202882 0.0636210686217191235 0.0279575026867807976)
(0.0280063090952570523 0.0604912179047485815 0.0243339682938261935)
(0.0201245770077431753 0.0582277305060376407 0.0217159576327996713)
(0.01210311821128905 0.0567542073116062279 0.0200204201888135869)
(0.00403326483118930136 0.0558713133347246566 0.0191379713429726747)
(0.00217009865535613272 0.15568921489232837 0.116554133962192802)
(0.02028418783972704 0.150891853705101442 0.110023036494282009)
(0.0353570757148451431 0.142927714401347411 0.101440590054869148)
(0.046608033385067249 0.132895064719011441 0.0914241284764016338)
(0.0538551149542952079 0.12198728640576699 0.0807356566239663537)
(0.0573960667400359309 0.111192349369589188 0.0701062916001674447)
(0.0578174982019819955 0.101174640212130032 0.060102778994396526)
(0.0557876379070517958 0.0922865175650220138 0.0510843984246619337)
(0.0519234125265115726 0.0846527088700324559 0.0432276850724391537)
(0.0467344640320653676 0.0782615900612891324 0.0365779594253210077)
(0.0406144612253561618 0.073034288745880388 0.0311004133819538439)
(0.0338549861209934688 0.0688686571419923343 0.0267199558441660913)
(0.0266666679851123474 0.0656640279223617146 0.0233486280168143795)
(0.0191982690880619367 0.0633338106335240014 0.020902972272088375)
(0.0115599531393770528 0.0618115394270674773 0.019314545503590401)
(0.00385450474120311703 0.0608772493694207939 0.0184847491277565501)
(0.000941461479735408724 0.154475715920668277 0.106104023414148166)
(0.0174293220476841176 0.150324725784243385 0.09995808462116125)
(0.0312462325654768933 0.143348964900765957 0.0922215331867854982)
(0.0417599581184092822 0.134455844426020293 0.0833629495087351291)
(0.0487674025865789673 0.124619680387179133 0.0739629259395360311)
(0.0524602827996309695 0.114698667453416697 0.0645943862345644826)
(0.0532873762422155436 0.105314856791761613 0.055720596473453704)
(0.0517935206241203691 0.0968386735348888139 0.04765421115202359)
(0.0485083254020057461 0.08944139101662682 0.0405659251562606668)
(0.0438895169158690715 0.0831627521080806342 0.0345174117179294221)
(0.0383053014981800874 0.0779684624178197949 0.029498752282546413)
(0.0320388329728129168 0.0737906999932781138 0.0254603523119756418)
(0.0253021533193941196 0.0705534066917445635 0.02233655618330058)
(0.0182505860423546433 0.0681867990723490636 0.0200616167823437844)
(0.0110030413231704521 0.0666354388480586562 0.0185799680250143817)
(0.00367114106164406675 0.0656602511825973428 0.0178030545416413902)
(-0.000103577823107228739 0.153280272956142716 0.0967630949434080956)
(0.0149435027027476769 0.149645797495343874 0.0909779273920281045)
(0.0276284611884845648 0.143507967024473132 0.0839613329036817124)
(0.0374314473082642679 0.135598433639891991 0.0760724448902990319)
(0.0441475554074776608 0.126723753599602029 0.0677585866439847917)
(0.0478986370259100944 0.117628449483858866 0.0594699216967531502)
(0.0490274040938178668 0.108882871507929385 0.0515834974987838188)
(0.0479765388915429081 0.100857253859097676 0.044367215134249835)
(0.0451976243010272297 0.0937515902370530951 0.037979474650260657)
(0.04109749286693095 0.0876440019990350622 0.032489495170060681)
(0.0360159188969774169 0.0825370217550762397 0.0279042331939400312)
(0.0302234763519701605 0.0783933127715496503 0.0241934227075850071)
(0.0239297067122009773 0.0751599976235941547 0.0213093935327532784)
(0.0172933153602081273 0.0727839587334992155 0.0192012742667525826)
(0.0104394549874692686 0.071221281574931905 0.0178246194128260267)
(0.00348552758700107794 0.0702158483631706298 0.0171001033891883605)
(-0.0488070652055688919 0.146125445946386434 0.0983297370106533397)
(-0.0323802192315894369 0.150703419567091629 0.0960267777850111887)
(-0.0162598206249641095 0.152738031142181485 0.0927418739752677024)
(-0.000995247683622121904 0.152127132181942876 0.088378664585976055)
(0.0127693457615261907 0.148916761876039694 0.0829338674688783611)
(0.0244317761120865506 0.143488117993620712 0.0765389280788930232)
(0.0335583081599548153 0.136428392510258539 0.0694728121657270103)
(0.0399548324438084718 0.128413847337405268 0.0620824860933220091)
(0.0436957153892838235 0.120088280110194262 0.0547226040418435089)
(0.0450424262222577781 0.111967625865474651 0.0476993518099215752)
(0.0443543281376299683 0.104410523364075317 0.0412398225388284911)
(0.0420148470918169439 0.0976323611322100077 0.0354870356815530502)
(0.0383828697071021407 0.0917386838687953288 0.030511879239470345)
(0.0337687355930407287 0.0867614431586017365 0.0263321419414785721)
(0.028427764169154237 0.0826894883855348178 0.0229318377307003371)
(0.0225640003140976618 0.07949098374721289 0.0202775093146737306)
(0.0163368757679904081 0.0771286289828756189 0.0183305483788844675)
(0.00987590980002083473 0.0755698072349640648 0.0170559402011955172)
(0.00330103386489664311 0.0745423394160815017 0.0163827196536412492)
(-0.0459498348244790841 0.145450070578344443 0.0912618693178864349)
(-0.0306636241750651017 0.149652175614577498 0.0885750469322648254)
(-0.015786663516923323 0.151507235978713878 0.0851199855313056752)
(-0.00176780534179586668 0.150973232396535845 0.0808286993126788866)
(0.0108535211467227985 0.148129785813135489 0.0757048350693674543)
(0.0215940775691846956 0.143309594626564146 0.0698540137986760068)
(0.0300842725317496604 0.136991150215979213 0.0634937485344905517)
(0.0361491853207516756 0.129747243836084852 0.0568944797078511644)
(0.0398307934394682983 0.122134372186207249 0.0503365812021742687)
(0.0413288235847598037 0.114615936512457842 0.0440684697689326249)
(0.0409353384816357607 0.107532315969865275 0.0382811757010511552)
(0.0389751812832833874 0.101104556995131462 0.0331013562070795048)
(0.0357633082804107577 0.0954566183663546342 0.0285977948324605998)
(0.0315809965950894431 0.0906430968265915654 0.024794645140583816)
(0.0266668018463478984 0.0866745834353290501 0.0216861523150741753)
(0.0212170920940497054 0.0835376670740773652 0.0192498591641927924)
(0.015389807045972299 0.0812095491139194908 0.0174570866989683937)
(0.00931679484238570957 0.0796692697910068165 0.0162806859791440883)
(0.00310596129163990707 0.0786544672482966389 0.0156571174120522065)
(-0.0721148885431935338 0.131675901714145366 0.0892524754008758164)
(-0.0576796180775612441 0.139086720550919279 0.08714646354996608)
(-0.0432475128854123703 0.144876165601404455 0.0846767775261458022)
(-0.0290369784050261287 0.148678149401270415 0.0817215663215953847)
(-0.015296434697377341 0.150358620096088996 0.0781767049689312127)
(-0.00239850380916049183 0.149884413116243287 0.073992147002128722)
(0.00919914287028206906 0.147369657871140702 0.0691748735158515954)
(0.0190984332340193158 0.143083850595677714 0.0638086642249741931)
(0.026989484055825283 0.137428580916099663 0.0580625962138389268)
(0.0327177255425530472 0.130889274186221011 0.0521483798252708047)
(0.0363024876870714636 0.123944955146037983 0.0462881540634815514)
(0.0378965965919487308 0.117008639165443795 0.0406833206057118785)
(0.0377378860367761915 0.110398474957829992 0.035493720077662938)
(0.036101370420968476 0.104334769716691367 0.0308300410302272815)
(0.0332625584280760375 0.0989536288197729458 0.0267568147748172488)
(0.0294749710468077304 0.0943273289947134941 0.0233014550097488185)
(0.024959804697303252 0.0904847539626072589 0.0204653485296458527)
(0.0199042980759509894 0.0874287241744963334 0.018234424674946681)
(0.0144636918726706153 0.0851495070198522164 0.0165879396837687529)
(0.00877968722750991151 0.0836366991306063956 0.01550523927799035)
(0.00292658035851836584 0.0825330252717616925 0.014929512595053691)
(-0.00149594963091496252 0.133943849949336863 0.107903331954458059)
(0.0158924450214632876 0.129368026416294357 0.101949296254814248)
(0.0303247595297824919 0.122377252695116345 0.0938835169042047529)
(0.0411563516438365126 0.113890352579872803 0.0843959214459276408)
(0.0482721730764092277 0.104851553507172318 0.0742949592471315312)
(0.0519695234369058484 0.0960068982441370095 0.064307465823568985)
(0.0527767391974029998 0.0878389914552006601 0.0549672033888405354)
(0.0512819989851197588 0.0805955430433234477 0.0465946705711527687)
(0.0480272476755512698 0.0743594245691783923 0.0393352000834385623)
(0.043465044099810321 0.0691171657415636242 0.0332143064682044187)
(0.0379523386657222295 0.0648086620993303941 0.0281873663102028618)
(0.0317615201152999724 0.0613580597669559219 0.0241764417835189371)
(0.0250971718303547794 0.0586910139975884843 0.0210947687748918589)
(0.0181111066578710338 0.0567435524451618545 0.0188618765701651439)
(0.010922523409725611 0.0554663623399873768 0.0174124962851066253)
(0.00364490727872475093 0.0546794744915541711 0.0166605989102132888)
(-0.00278027444313010824 0.135294328495463745 0.0982702244310127287)
(0.013305364628308787 0.131366544355948078 0.0927860697283643954)
(0.0267666686735072469 0.125176150537481462 0.0856046322975008156)
(0.0370587141891407304 0.117503600581366774 0.0772608013017863082)
(0.0440329026422592446 0.109159067855457703 0.0683802983754894095)
(0.0478887478464518068 0.10082396232329241 0.0595493319070325502)
(0.0490430162566269923 0.092977346864087318 0.0512203024102772103)
(0.0479896053683834603 0.085898044761253442 0.0436842601694373278)
(0.0452057450166851379 0.079712035227630304 0.0370906407330241911)
(0.0411063080991482532 0.0744467568490132237 0.0314853099199470382)
(0.0360300515965944618 0.0700750218539749059 0.0268488499561425689)
(0.030243494918093642 0.0665451812879174487 0.0231273356603523272)
(0.0239524135005460964 0.0637996936827499583 0.0202542317416608657)
(0.0173134915268732224 0.0617857348464096456 0.0181647742858691841)
(0.0104524126265432456 0.0604611394459029922 0.0168049620847835583)
(0.00348978795802699611 0.0596243244905023118 0.0160970000964351656)
(-0.00383749167211205194 0.136266866342260429 0.0896532483544273673)
(0.011048415974521747 0.132867131779113357 0.0845575729630237)
(0.0235923705959768248 0.127376004500605933 0.078111074594018573)
(0.0333310221217054808 0.120448669045009685 0.0707213844603969549)
(0.0400997949829558845 0.11277714679977191 0.0628773705752872641)
(0.0440305808109766536 0.104976427942728961 0.0550511569982401958)
(0.0454508256997276094 0.0975070210850607771 0.0476218054703803698)
(0.0447722992583040116 0.0906623646978285957 0.0408473707964353144)
(0.0424113011795921035 0.0845988395059162068 0.0348729803446416742)
(0.0387437389172809662 0.0793770447830768888 0.0297561543407678063)
(0.0340868698299525846 0.074999010383276693 0.0254956440441981708)
(0.0286977812173660855 0.0714361085927969902 0.0220565036543048237)
(0.0227803824066154618 0.0686477379873885185 0.0193890909817792945)
(0.0164938671230318683 0.066592970154790862 0.0174422580328593077)
(0.00996855707553950636 0.0652376854926743077 0.0161720269988807029)
(0.00333012559184528564 0.0643599881097580151 0.0155083057461689461)
(-0.00470926143430122623 0.136944402455458775 0.0819120235435764343)
(0.00907935171824292286 0.133990406995522893 0.0771564246554318905)
(0.0207617874419789052 0.129112563010036485 0.0713282699242416135)
(0.0299467318171356758 0.122859063456136605 0.0647415045613967399)
(0.0364670699616808092 0.115824807348559239 0.0577817099656841721)
(0.0404076138074834779 0.108560582037991904 0.0508281213870552251)
(0.0420246643531889674 0.101499466726515358 0.0441958365459085775)
(0.0416599776979150113 0.0949375828645635661 0.0381098132038368148)
(0.0396742785880291951 0.0890510252976706024 0.0327058216371530902)
(0.0364051282809389615 0.0839260072124418388 0.0280467195309817285)
(0.0321464971769091223 0.0795893543643955426 0.0241437516102016997)
(0.027143449891314033 0.0760333417195450945 0.0209765630443641757)
(0.0215955137954194909 0.0732336144674370776 0.0185092977318575408)
(0.0156622918579180787 0.0711612178979040555 0.0167023562391819258)
(0.0094770185014951356 0.0697905731778361016 0.0155204877670175323)
(0.00316793969123468607 0.0688814014041095601 0.0149007083348401508)
(-0.0502954946942917452 0.132565307590268411 0.0824964022507027328)