/*--------------------------------*- C++ -*----------------------------------*\
| =========                 |                                                 |
| \\      /  F ield         | OpenFOAM: The Open Source CFD Toolbox           |
|  \\    /   O peration     | Version:  2206                                  |
|   \\  /    A nd           | Website:  www.openfoam.com                      |
|    \\/     M anipulation  |                                                 |
\*---------------------------------------------------------------------------*/
FoamFile
{
    version     2.0;
    format      ascii;
    arch        "LSB;label=32;scalar=64";
    class       volScalarField;
    location    "0.660000000000000364";
    object      p;
}
// * * * * * * * * * * * * * * * * * * * * * * * * * * * * * * * * * * * * * //

dimensions      [1 -1 -2 0 0 0 0];

internalField   nonuniform List<scalar> 
7236
(
112.359414820259374
300.765761186872794
462.772942230351418
460.622974168908854
410.967066953065853
381.741361522427269
364.389996165688103
347.612659550856449
333.690466670517765
323.604987976074369
317.893515485018156
315.910856148562118
314.822732342321842
313.547149777466871
311.270539937507579
306.733113004311633
300.431971419587853
293.598784408186248
287.342648525993809
276.207457165142614
266.438336554043758
260.387976958078752
255.71468712812765
241.684624230028447
232.283393336471505
229.123311799931315
226.658728659978038
211.774172323614039
202.471211130769007
203.485643433430766
208.052215998654219
200.158358131864162
199.033627654397037
236.815765959868145
377.80913519992589
841.289708496166554
1724.52076312879763
2452.97006366893038
40.8831639687181081
166.626487318324223
300.764550347380236
303.634926859567656
269.816806105148146
250.104048013008509
236.46138668509596
219.800071757652177
205.70686692654948
195.330092296771284
190.403640629530543
188.984471790947623
187.951573003142244
186.432452167330553
184.124886190045345
178.83228155735975
173.310076848911734
166.865849687448105
162.057810203746897
147.854642709192547
140.120324566294641
136.607258480663063
136.520152899427643
114.021633284636238
108.021285247591237
106.226910375921619
111.053245764419756
83.1407776029089689
79.2180271625719854
83.3580113961276084
93.6652293141492578
76.8729635340320954
61.678949416685839
63.5980744761145331
99.8597848664370247
383.228007195069438
1314.99409837022245
2336.98364276464144
53.8771043349051553
100.348366722142217
162.480078779904687
158.740026835753952
143.905659254692182
136.383608066306095
126.632220032880866
109.496418225339596
91.2638343658161375
76.1653712780023966
67.8812564120470654
64.2857374156209005
62.7610924075733578
61.3263277718325526
60.1027247499795294
57.4017593484446422
55.5239766970589415
53.2450321903881445
52.0234318933726456
42.6966709740537169
38.8702352678929799
38.2197382488099038
42.3508580266667707
25.9912325581194636
23.8982436605991779
23.1126187570192769
31.5345079833330715
10.877748159803339
10.9159808066862709
13.0693164880932287
21.8479705555995594
11.9883931313950853
4.36872298806300297
3.600789353458973
9.02837960723042698
91.5983382754222788
677.302634581425878
1896.70583075141303
43.5327474404491284
74.7731753117875826
97.1135478773485801
92.5449953284864364
91.0934043536758935
91.808487220071342
84.3478666114961015
68.2117636717616591
49.5009049921213773
33.3375804866912659
21.7458695048463895
14.8597518352954605
11.7095404649809858
10.0166307257007077
8.86542592027933374
8.22078787357032326
7.96434906983905755
8.10210908897481907
7.42654426604470164
7.49583224262626224
6.73556123026611964
6.20054348343505257
5.31103920079820213
5.82185514591418318
4.95879399320392267
4.7651725250885395
4.09926190414130165
4.48203548764841386
3.87014591912613604
3.70007994282671415
3.56999340884142136
3.76584443735857377
4.01442847847208206
4.29843894591272235
5.32979461990762537
19.7860242475300687
255.214552540735099
1295.42097337330597
34.7474442125084622
60.9151608149950619
75.7901656549724407
76.0244708270660823
81.6118512638787621
84.1792659336137632
76.2760095072623301
60.5180140263363384
43.5531372537380435
29.4334183771952596
19.8887666995380101
14.3467458208178833
11.3625589395463766
9.55658992218981318
8.33110405287940736
7.50205890398871045
7.1751919964333748
6.87321400197475807
6.45839215339778505
6.27089690987159631
5.88692939119650394
5.41578707941735615
4.95273527465376873
4.80228996147648068
4.50396965647641956
4.25326645655334978
3.95143858932348824
3.81820806150988279
3.599132846363716
3.46185716337842919
3.39461171014135044
3.49808820272378673
3.74309263331875774
4.1795800562053147
4.75588040300523573
7.52056138667259511
81.12346073167231
802.030368412269809
53.2316372075909783
57.3683365695508698
63.1532636585018565
67.6425742219457078
74.5690856437733913
75.5418412495782832
66.3941026681796416
51.3404201060280485
36.3161608047538635
24.3496252075689625
16.2333001510948272
11.6440507710557632
9.16558124604165769
7.82681377274064616
7.27655505253540191
6.75647127198272113
6.38471582980548291
6.02426947575031768
5.73716230554985351
5.542082619176389
5.17115323980538566
4.74476972257261842
4.40623817735947831
4.2490495900795171
4.12093614440416545
3.93884304481569014
3.73106213853433299
3.55079697948678596
3.38385590405326031
3.25001528534900164
3.18749337624066964
3.25565264356302286
3.48087045579786425
3.95524890974514953
4.30905317957620682
5.71199541878693751
23.0872498041116501
429.476455635202626
55.9747485480451132
56.7394437995334542
57.3167988815890794
63.2040739009795161
68.3288207924736355
65.7820208255905925
54.3224812730139917
39.6243511585162622
26.6113276168990502
17.0853292980308069
10.6471976402382289
7.04057900412667159
5.66151331781868628
5.27935035139778108
5.50605968506650978
5.42920364838997571
5.0528746211136184
4.72629273171403419
4.61238715613299988
4.59470625214903983
4.34153792562130736
4.05353432496110067
3.87114638918700393
3.80528721708396445
3.78119463141542145
3.67972024761838679
3.52835819467665956
3.35567461093426367
3.1884856667445991
3.04744670816850549
2.96263890981518063
2.99186124017029709
3.18223987233563443
3.65294567975571338
3.85449823787173962
4.49224249612204929
6.1054531510263077
200.694738884364483
57.763972330015477
56.4772689027027823
57.0650028231773518
60.8013810174113658
61.1401091659934011
53.6007113806734665
40.2186855909199323
26.5184845280642776
16.0930631856494024
9.3564616083580745
5.31173807589498992
3.3108571145415997
2.78695577591768817
3.02113895247083342
3.55245252968665781
3.63080099208140261
3.51477452865985107
3.40393997687253425
3.42809582415750391
3.52127011616603802
3.50555652456183431
3.39434512333470817
3.41744753702794846
3.48548798983301777
3.5232123893855416
3.4826178367039633
3.36589351903392409
3.19932019988875727
3.02603313356059944
2.87173781969370712
2.74991102181957903
2.71848479806372678
2.88568830453015668
3.26217608789344249
3.13068650663316284
3.58314448788983864
0.257887223209888106
106.171199323050928
58.1278914786003895
56.7813412023856614
57.5397929183275068
57.6098918647668157
51.2157560591878962
39.8665453446170943
26.2503322140673063
14.7232902594250987
7.61293019213374933
3.63330204660626777
1.82360045613662791
1.1483869571904366
1.02487664582028071
1.50173014148666084
1.89207925892755746
2.10081127826746972
2.23194197736597211
2.292355778584513
2.41587546890321292
2.57108517756385879
2.70173587988343122
2.79659339398375728
2.99022924234906906
3.21667417098846231
3.33178211750102005
3.3297020501434389
3.22992794247205062
3.06589205888638894
2.87429146718080286
2.68942736711515495
2.5199116987754584
2.41405343036328413
2.57643536949596852
2.77793161605897065
2.16599895120634844
3.08651123632046165
-1.38685429898117007
80.3452401486096051
58.0986628405664334
56.9728202275682207
57.4079481468146824
51.4930557881078528
39.5753444995857251
26.5601593838054058
14.529865610820444
6.94720354060701695
2.86851611223118308
0.925133436324892422
0.283562096639735195
0.0297558393252863596
0.0618902328253225775
0.424333792424327783
0.746297204795531854
1.02505411166038485
1.20321283984021221
1.35985275810935313
1.54978146707437148
1.80875397609351829
2.03667827239872778
2.34354106824592767
57.5855832415850841
57.2472090867368735
55.8926093294434239
42.6000694162175364
28.2562122374856273
15.2688588967779637
7.07988363126972331
2.92489341952573412
0.727158014714427203
-0.254551947912504239
-0.5503997626986461
-0.656414388631022305
-0.637162851991945445
-0.413854825096578338
-0.0375543953221892934
0.244271328277434918
0.357447939794123926
0.575061419353923853
0.830614390904200306
1.12188472552534968
1.52736768834413539
1.99407840266557113
57.1174707233277843
57.4547262135580112
51.6857261085637418
32.5823989262126332
17.5640210280375015
8.04999816318770378
3.18716229519680461
0.679200241928962001
-0.498825301142841848
-0.981018154796067687
-1.11051705011762847
-1.12471305655082787
-1.17606448959744547
-1.02351377491653928
-0.721378055128589324
-0.494137155247104332
-0.326962234438688881
-0.0481119412815189662
0.258432549289088875
0.634509138032113285
1.16234181652686841
1.73198685243477635
56.9568252879451364
56.4266463860590477
42.3645049538022533
22.5237290928040323
10.197229408994934
4.12598896453478936
0.854964423104538795
-0.60522352416449543
-1.19505951028100599
-1.41861432107479501
-1.47189419230327001
-1.43871832758358265
-1.43946080758410444
-1.389052150138681
-1.21483048568425556
-1.00720206519004751
-0.755483790069724215
-0.482959595745541925
-0.12478983337241667
0.34195712828908631
0.909839826013496555
1.49259787859951309
-1.67022108722663387
-1.69536463251923775
-1.65117823090299387
-1.607081740282851
-1.54606553071009278
-1.42564151484060075
-1.22138775903456187
-0.984994358591798402
-0.699578933012082294
-0.322913478229051698
-1.79373309616060084
-1.7366030516124964
-1.65024067671639907
-1.52317646371612048
-1.34411379257316499
-1.11882894718863279
-0.83557313640903752
-0.476772334129240694
-1.73375000750135189
-1.61155730004697073
-1.44379125394855112
-1.22830951306273661
96.3468399210926236
175.907979898637905
291.758816488820059
318.100366900954043
299.663754301915617
288.858242063274588
280.154178157524598
266.750186192635965
253.145817841419785
244.830384412670099
240.41953631879835
243.186438065871073
248.27540822603072
254.123132134092032
260.730942989040273
264.363722974471216
265.198300618872679
262.479306118891088
257.829083936313566
251.532110134830106
246.553213375257684
240.887253710849933
229.373711459073718
220.93718716528204
217.907112735380906
217.320655481784542
204.000307598489286
191.28570113559141
195.27082944350127
188.672311421471449
178.108720727910537
172.105274853431041
184.244221143533764
228.087185177302217
360.462399480641977
814.579908622777452
1700.34953492017507
2425.37639911349379
57.9446018742233235
84.8446716065013931
160.899149885239638
174.439516777328521
160.602562271049322
155.318266528782488
149.841212114088336
138.37747767994847
126.763527225773515
121.60618809299902
114.654366347905125
120.11871092951651
125.623022805013562
131.467538988554963
138.521588270204063
140.942337967382059
141.465487948908958
137.761985293770891
131.650743116701477
126.136422181260002
123.55163053334681
121.672528996005838
101.789962778333916
97.5891630958413714
95.5206111167329937
101.323161478948236
78.6088978310057769
69.109204840525166
79.5594445673982875
68.8647025636086028
59.1287849934001599
52.7935834746857893
55.6745492631361856
62.8737193158245873
88.9632815621220345
355.89320890816839
1283.8717592626781
2302.01358836255349
57.950519570494464
60.1807008033892359
97.8848508829828603
99.3431939973664981
89.229536115957572
86.7032659831839112
83.7203264054762428
74.3905090983229371
61.8157553875877781
51.0015642298748588
37.8086365594365432
34.6351121089689258
33.3861296142460162
34.2146270792164842
37.9535666149159852
39.8743827140197027
41.597458559843119
40.182827018483124
36.3194331844893554
33.8675356293393861
33.9157132408356574
35.4099165092392525
21.093978796703162
20.9759298132339467
19.3743256945118816
25.5192999923036439
10.8156625912597804
8.53819811377015014
13.7363666187778151
7.4831817312625315
5.30077916268167826
4.91799824267679142
4.4557225276432284
4.89878999721524977
10.2516908355157401
87.7647710966980128
657.947532873118917
1861.85652247099119
57.6574528098745347
59.6020366144362441
74.5105538183215543
73.9891374542246893
72.5643383456656608
75.4035289958979433
74.6846136453581835
66.2174471826299538
52.1249394728768962
37.0871225637276964
25.4062379814693031
16.5933160653496579
11.5582792557655889
8.42712538596131111
6.6846082051058886
6.43546345709270007
6.94752005082715485
7.59373496184281205
7.71629715298732322
7.41202706797707656
6.93418958018783727
6.30782731633447824
6.7601858575829743
5.79854274112660129
5.48339067760008625
4.7695783916087322
5.06773226919535791
4.51356628445568298
4.10651014686407123
4.17625291779043373
4.16172986975309644
4.26556826522621968
4.65493896520984229
5.22540237421282772
6.50613500593712502
21.4948352503350328
254.631034685148109
1281.74847823234131
57.2054078566672572
58.3547519968615021
64.1628924103454494
63.5102759633613516
65.7568813550672928
69.8185525654199353
68.8641189732236114
59.7182389993774336
45.7360878248083722
31.7708788407221761
21.0223148464143534
14.0954855235510017
9.9405718126307665
7.26485905109623786
6.09133573619151392
5.88534182652067273
6.01662045778827625
6.26162947646208412
6.32252160148554587
6.24124950703116266
6.00345759090655839
5.6516284416296223
5.48463544524892122
5.15517826867846729
4.8628846001146746
4.51947239840406834
4.3732493447688503
4.15301996947908236
3.91070222330221284
3.83255816126927495
3.8289588223530866
3.98420662605569165
4.39764283247440524
5.06502420073344073
5.62095443186771249
9.79903198613085991
85.1020038793672597
809.146616317071221
57.3589713233305218
56.8867730650642045
58.8709010557731034
59.1697014469737113
61.889523803306183
65.239335147947429
62.5353657116772297
52.0252454487386089
38.2982515229207934
25.9734623550067667
17.1532398653435791
11.4361651129429767
7.76678023917672711
5.50919935707732034
4.92287005659801924
5.01329102419948835
5.31280952681467422
5.37929353293817503
5.41649507252080831
5.48718931396324461
5.42010353249341215
5.10854602983854456
4.84377221299540217
4.6418480071783268
4.44488101256837176
4.22213253128532706
4.04405083376121421
3.87987256222995391
3.69519585974542064
3.58407501220420688
3.55829960195229633
3.68075380295103383
4.06851478104071607
4.83137744129627844
4.91209547773192146
7.04503684262977892
27.1282000627096238
452.809639098104526
57.6313479469509176
57.5905488520293218
57.3338095298125552
57.7778376815654582
59.770541969347974
59.6919211982668543
53.2389426602601645
41.0664176319003076
27.9755195035483375
17.5714256576924726
10.7140316801710895
6.58948727387811672
4.1224420394903678
2.83463784172446509
2.81795792691342584
3.24709842475017041
3.96937798803294228
4.13564916471020005
4.2295751521693461
4.44974145077933692
4.57989450712055479
4.36339912161330634
4.19994842929947509
4.1383895139062794
4.06221172174007883
3.9261373436222855
3.79018639690392423
3.64692165311989225
3.49042885078402643
3.36469984745595552
3.29167630658414456
3.34354246067696126
3.68065320328262002
4.47788297052982376
4.12759001405732828
5.52669514644813376
6.60259049787943653
238.910044550040197
57.8861717030180927
57.73301969355186
57.1908305550049008
57.2394848240139069
56.5242488665159328
51.1429293126334201
40.8869119190082912
28.1563295790767221
16.9373978791719964
8.96271486086406455
4.42563937009852992
2.13318302781781099
1.04931022632072946
0.781502730848394833
1.05294142577027916
1.60702799504849114
2.45463947358376799
2.86968628335029585
3.13499322329395902
3.41897188844481015
3.59223086031702898
3.54727448560774672
3.59970139546979429
3.74412752016794048
3.76061148504539444
3.69577308575828489
3.60172224140041042
3.46817375806653461
3.32208195712446663
3.18662717879606827
3.05532716262231041
3.00931645346315557
3.29815161055454364
3.91016754661429466
2.69601294592504637
4.48412149583648478
-0.441006331802178408
155.204383045955524
57.9602206881050037
57.6565065936804189
57.224240355302527
56.1912764944062531
50.0337237573468201
39.7761659989570333
27.616039032344581
15.8721428426672375
7.89466501174697299
3.36488615368088695
1.1235588217552559
0.0678316749037968236
-0.355601447647244662
-0.303223034327417373
0.0341319782038569386
0.675197254319938267
1.36051727385071786
1.86179009736496148
2.24156593853768449
2.55425036394433924
2.79153260258079605
2.95997471738290541
3.15960623438389909
3.37531047776852899
3.49597162275748108
3.52143312510202744
3.44743981262192056
3.31721200228215984
3.16462288536550407
3.0118264058391393
2.8180522955352032
2.66939150180776386
2.91355832795274772
2.99428002272279548
0.846413982779465002
3.84239669584395749
-1.78818445113167002
132.410799328489361
57.8675083610990058
57.577240133824823
57.2430866930546429
52.3635376480264654
40.5922668361029864
27.7690454983525541
15.4190775831846238
7.23083085808857007
2.79811903215394064
0.791547279026652006
-0.149473378056147688
-0.66002958299824277
-0.865886450035890931
-0.766408233163210273
-0.413448752426099908
0.215971809714284646
0.646647500349960325
1.12159264323856078
1.49644622776598446
1.81487433513109675
2.13697487007271292
2.48706746466304418
2.86353026906818409
57.6902548694047326
57.6613921066060584
56.0483357681509915
44.3350221733007146
29.8397579247489659
16.3973805064194806
7.23055134498275542
2.80369469486766754
0.560046297162586804
-0.401006611914895839
-0.845292381847354335
-1.11537155315634351
-1.22798796044632486
-1.10097040639174759
-0.711643681508975057
-0.247282424891245967
0.0866906671527676309
0.499017308671870552
0.836130690883530647
1.19909425341108022
1.61823501585125662
2.15369666962713113
57.4753031632043303
57.6915927401354551
52.4202390972070447
34.931049598573594
18.9189237698296608
8.25202536554833443
3.0160004378612042
0.489459902998971685
-0.607059020680221995
-1.04675210884070258
-1.27078518996615242
-1.42037914786540909
-1.47541775362509675
-1.354179726707609
-1.03822167045282931
-0.766385079527708513
-0.457741260261665062
-0.10702636280809763
0.252885923648705102
0.697750056111845929
1.29157611764213298
1.92776366080295891
57.2817903478229624
56.6270117501662753
45.0984496460780235
24.9877696709184534
10.3162639748342002
3.87452287248402172
0.564349304050645095
-0.742632929890923332
-1.21361521837582176
-1.40282834263408951
-1.52843866016050089
-1.6071732093342459
-1.62419397620195127
-1.54832647806251167
-1.38551549392569306
-1.17180260320152207
-0.898998623407763375
-0.565028032599423469
-0.146200153775377206
0.396627295932564738
1.07467165392303032
1.69454308376119744
-1.60733163491195397
-1.68444450487289155
-1.73055403295406429
-1.73712043143042605
-1.69345543396727227
-1.58278280062468246
-1.38521135237257909
-1.12364955067793382
-0.793357010492377945
-0.347953702322988168
-1.83006553916409365
-1.82855183918832953
-1.77824818920952188
-1.66791894066034896
-1.48566125008526995
-1.23791405834093693
-0.909848897565973314
-0.4786356501154716
-1.84116789072468645
-1.73012205274858455
-1.55823701664462222
-1.31979048585564751
75.3739832679460591
112.992624546423059
172.62922695910774
192.380655925295571
199.948341998788862
205.948957684612765
214.295385856707583
215.552330599731846
211.112210612265301
205.892510765306781
199.264974767766347
195.934034490573026
194.500843344212456
196.835834792847663
202.04885265927669
207.345246517401335
212.477635197618753
214.658274912219127
217.395841605014596
218.577486486195454
214.542751202791521
206.282556467672549
199.615866868575381
198.953468935497085
194.996080759432999
185.135837877082309
176.208192329883531
176.372004817971629
177.938650546591617
166.985297581785147
156.65346403599716
164.232680585347623
177.187275505421752
220.732020031003401
355.737652524738394
827.369940087806185
1718.49336366640682
2421.37189486423995
58.7406958095394032
63.2857517886118615
97.1427636081503891
104.024204680163621
103.060515801702607
104.924850807352954
108.384603507097495
105.509576198407103
97.925346232845925
89.5349920412524227
80.2483623263090067
74.6285116932272956
71.1416833540236837
73.5278271128042888
78.6398790891535384
83.6060281501561349
89.2588867536618693
90.2791384978865779
94.3747368141870879
96.250338870844331
91.6020329740836985
79.0466321124407045
76.228447516888707
79.0393442280176828
74.2067608085485801
63.4579482268731851
57.0663924068920494
58.8486678611200773
60.488657291066886
53.0709301152633373
45.5501949715729069
51.4903499666760354
53.7903911459632695
59.4276408487951926
82.346278178343681
360.095304454485415
1298.83661650375007
2294.02872861130209
58.2526421601051041
58.5246031143653553
74.2793134466567864
76.1434864077105118
71.1182256826738666
70.0138909852282865
69.0705940022218385
62.8560773344905712
51.7377313388951592
38.9168710194795366
27.6818058453589977
19.5693087621982542
13.913473630379606
11.793916001638852
11.5844883920432373
12.5193838935211801
15.3453158552340341
15.9728630039741475
18.6430054769481615
19.9282767463835597
18.7906250442076157
12.0466355270903041
11.8602166568369327
13.1281540324466093
10.5818016066155671
7.29022937623192568
5.59025429496889981
4.82923385188013299
4.82523518680233643
4.80022210641295288
4.98754404693827169
5.26914926593838651
5.87355472856448557
6.75434440322516583
13.4149157158312011
97.2368233094966286
678.534550173204252
1863.72301870668298
58.0733868164281049
57.7151377646091603
63.5953923901096658
64.5867781493229671
63.409799389056019
64.3221597502890461
66.4183592557698574
62.0619143211289384
50.9669526201903906
37.6001908726930836
26.31066319206721
18.3110895366929682
12.6548790209646107
8.37820488485214021
6.07508715340370742
5.32993896660524413
5.44284037720978464
6.159640941788604
6.50585753918067944
6.87336377338293225
7.02008688801449132
7.1974192510290802
6.53965163121143789
6.16573803599894443
5.9443310620832408
5.71574870538131297
5.18432998211436225
4.84265530530694388
4.68008204562331454
4.60775786822783218
4.73118373561768824
5.05740209120201811
5.79410561555776216
6.69265741293941474
8.80107626460815951
28.8591048376265853
279.25732317329016
1306.78140041016832
57.8583067982372796
57.5245039680209587
59.2326892468140116
60.0162903829137662
60.5286325568056469
61.9700056339824812
62.5322023537951921
57.4335905015726738
46.1533262914430438
33.3181920561565761
22.8065490014134653
15.513267959098382
10.436984096928466
6.94767207654869878
4.96864530930837223
4.48940187039847149
4.78819636379842439
5.15771344072917959
5.42686596167846336
5.71218403246217488
5.94139495513793747
6.02314409247877514
5.81498806111648392
5.56057330644759773
5.30133637347984443
5.01796560956986415
4.7392672526580828
4.49887572230414534
4.3477384291598975
4.30414051973888867
4.40039303531941783
4.72043146623934184
5.47203668224060014
6.50259061759669521
7.2263593298238451
15.134788897522256
102.070585274150233
855.894474649697258
57.6305993712112326
57.5607674003416747
57.8962512567379335
58.200539280560001
58.8236179863290047
59.5447336391816151
59.0756294251197218
52.8830404923111956
41.0713585426506782
28.5407755864457293
18.7581981951471519
12.2367548505687012
8.00769539653213513
5.21322681224572371
3.50344355115625827
3.23176120229206454
3.66918599433015391
4.18672945020399467
4.51777522072448523
4.81262712834651829
5.08822340927911743
5.25116177826092301
5.13260048867514485
4.97725304655710676
4.79476525307814505
4.58526212921986787
4.36022635108973677
4.18480762582566435
4.05992689345720414
4.01425597793020472
4.07507846201696733
4.33188611950821034
5.01267056222072682
6.22372548215082144
6.48715506042618273
12.0198323567827234
40.7483436062428837
517.291061763161224
57.7283521352573956
57.6848664624478857
57.4869637288104585
57.5226677436727982
57.6757065880952311
57.3574124915269508
53.617228976569713
43.9348973076332712
30.9773254081078839
19.4231090145302367
11.3481584992341347
6.56200897903999802
3.87843599263727157
2.20328141903453201
1.22842324499477229
1.36235984873565297
2.12088914604932643
2.80502320794397253
3.33250283385773294
3.77217401591045931
4.12013585412485916
4.31119903451536501
4.35221996102734021
4.30533113968987635
4.296140282797003
4.1972344800626864
4.04513243086657148
3.92651623968352093
3.82100237465882309
3.75857522185741866
3.75810653119505655
3.90759102376813061
4.46234372558000736
5.80488414339319814
5.90402284122478527
9.91361786548026558
14.455380298993866
321.460000103997004
57.8442030893628925
57.7518283470056772
57.300302338228768
57.1612420454212753
56.6492986314323161
52.1927715429375993
43.3077583348935065
31.3628765892363575
19.4036325886163823
10.1591500362325426
4.59989338449221208
1.85483929454164809
0.449322371097668594
-0.207673317640535871
-0.323952794397373456
0.063956096236863047
0.863098633598900822
1.54252977978819761
2.24643465384012586
2.85899393173632443
3.28097671556259307
3.50444463432391284
3.69661848941723603
3.79314119145192929
3.87153358582851137
3.86790853980957516
3.81138342068053815
3.7231740476146804
3.63419697232803429
3.56043612496092532
3.49610565744027113
3.5197238210647992
3.95869308499315453
4.90022664722307955
4.47521761011339603
8.87884763093409113
-2.39032851092778742
236.29776648203881
57.8653037288266674
57.6773139687725234
57.3339175349913504
57.0135091651427075
52.7837098692664881
42.7722540328709755
31.0337324375459929
18.9152343155130183
9.32808146287733564
3.69710865762279717
0.960104160629425607
-0.296238933965234708
-0.852429295595172665
-1.05417512952464909
-0.894484755939537468
-0.481033082241795196
0.197867546294898666
0.899414753998454941
1.53593271532791498
2.15616058778890896
2.60522756798798305
2.9043726392909619
3.20355714960312898
3.45937370346753958
3.58918380900213219
3.64262471206457317
3.62549456391045943
3.55424283356024207
3.47314312830287886
3.39518272685932443
3.26160952687137939
3.16845641367005371
3.50103109082743691
3.7474284364959809
3.2256022801693387
9.13617663297361737
-8.61435036567003465
211.310460933756417
57.7767702925831159
57.5845362206413753
57.572524147903934
54.8402259405647357
44.729646078004194
31.5300481341314978
18.78259269849584
8.8814220428533126
3.25429229962095157
0.737273658430155798
-0.344991367322734277
-0.911438080056506728
-1.20617311525253035
-1.27693646742686284
-1.09663329148521438
-0.677697157565801289
-0.100077051449025678
0.557982624058046994
1.08449858100791285
1.59398640896448462
2.03874715358789693
2.44358537292131661
2.88273395328077209
57.627522892196346
57.5498757093628512
56.9543305838208624
49.154892395160573
34.7345940719507809
19.8376335834817894
8.89465403101556262
3.23338350244097228
0.666968322132806435
-0.460737383766243624
-0.953673687611895859
-1.24956340321146664
-1.42618938582145915
-1.43468445949727674
-1.23477658332088502
-0.837388238154452402
-0.323753714338884446
0.225164950127817676
0.680668645829249463
1.11943760115503999
1.61439738518482079
2.17067359492674505
57.4085072564810091
57.5296224750258673
53.1167706059686964
40.0167549148861355
23.3647855161285918
9.90484011999843261
3.29142407749933419
0.592005569566882883
-0.572586789027115017
-1.03870870973779805
-1.28317891745272528
-1.46947517643410874
-1.57628431558490956
-1.55161657683778498
-1.34255752920033089
-1.00978245307273351
-0.612622082022408421
-0.179092086908768877
0.26421070277507841
0.76025764981435362
1.38174774001730238
1.98829825011530903
57.2409105265280473
56.9891178403360144
47.2972835942268546
29.1286169025624417
12.5508131338648923
4.18753962795234536
0.598725028175247864
-0.710148264426806897
-1.15478775492642183
-1.33845202461397417
-1.48658524164039796
-1.61571363295540849
-1.6828584075618267
-1.64861703873882304
-1.48285327522281207
-1.23152649128757297
-0.925909361769498229
-0.553739800296566997
-0.0728912196804083479
0.51444589154757181
1.1893386147491869
1.7776705595363218
-1.52075860175021882
-1.62704565274920698
-1.72085735987763067
-1.76753066859064289
-1.73929664082303281
-1.6318877705083974
-1.43897209005422844
-1.15525520095385792
-0.785025529173883907
-0.282396523647889364
-1.8098265690182429
-1.84265861254560326
-1.81937871417155383
-1.73008082136225028
-1.55155410777679736
-1.28493921352759677
-0.914443160214189144
-0.44497992103172801
-1.87993387680669777
-1.78743810768243483
-1.61920589610943466
-1.36460398880893297
67.8353356050918705
83.1664248750800539
112.069392217425275
131.649604715639413
142.38141123434437
144.692734538332218
146.692092391972352
149.183773852571164
145.579593171352997
145.353660146041193
148.731715546576083
154.545572317236491
161.88398170029086
168.207384853265268
171.693270534884562
173.806797826570886
177.35895375328812
180.767590005291964
183.763077853773268
182.842597332240047
183.354700853361237
181.522015521554465
179.013254002516646
177.632261533935718
173.238768626846934
167.382535215655139
166.441742752409311
166.502199639314512
165.368494569660697
153.472816653035096
155.940944363947125
164.754785010130547
171.353988181956112
215.515976771442467
382.955759042339139
905.53397221749924
1798.65838547032195
2446.37198236536642
59.350742386474117
61.1387356228692767
71.5644387361343348
75.1822822417944394
76.6190629866288617
77.0102603853733712
76.543757764645278
73.6946432914764387
65.1167358620312768
57.0474039358580001
52.6621935418349523
52.1967089426557607
54.2897666504551069
56.3001198377810965
56.3381960360295295
55.5987021000352115
57.2300200536579098
59.8531590362705685
62.540241116545161
61.0075620660968525
61.7677221478135152
61.2076063011471661
60.0312593714320712
59.4715683601517355
56.699269756934342
53.1047636610927043
53.3110242437617217
53.4476687357816616
53.6252789171151676
43.8035468870088636
47.6094624623545712
52.9996300076491025
49.0650048583977849
49.1771128576354073
90.5895067499056523
421.087581890353931
1387.60094342722937
2322.59894380353717
58.4714161013117319
58.5925229314577578
61.6960916138678996
64.2584900628453823
65.7443379954088698
67.5230790623478896
65.3196422885021803
58.5749746329949588
48.3077202786206925
35.5815016596465554
24.8332502761209852
17.5891933305787447