/*--------------------------------*- C++ -*----------------------------------*\
| =========                 |                                                 |
| \\      /  F ield         | OpenFOAM: The Open Source CFD Toolbox           |
|  \\    /   O peration     | Version:  2206                                  |
|   \\  /    A nd           | Website:  www.openfoam.com                      |
|    \\/     M anipulation  |                                                 |
\*---------------------------------------------------------------------------*/
FoamFile
{
    version     2.0;
    format      ascii;
    arch        "LSB;label=32;scalar=64";
    class       volScalarField;
    location    "0.300000000000000044";
    object      alpha.water;
}
// * * * * * * * * * * * * * * * * * * * * * * * * * * * * * * * * * * * * * //

dimensions      [0 0 0 0 0 0 0];

internalField   nonuniform List<scalar> 
29184
(
0.999999998236451026
0.99999999810471718
0.999999997145698316
0.999999995775245676
0.999999995026622512
0.999999994548421478
0.999999993892123462
0.999999993123701025
0.999999992021924022
0.999999990347889556
0.999999988300663833
0.999999305609721834
0.999998957788205245
0.999998153291085767
0.9999967646663388
0.891751938321736715
0.999999998122185652
0.999999997260027196
0.999999995968539501
0.999999995166006572
0.999999994726325503
0.999999994669225956
0.999999993901109496
0.999999992502595525
0.999999990476521883
0.999999988058483225
0.999999985447644235
0.999998747849028757
0.999998299331098184
0.999996941885204271
0.999994511942234432
0.907674803558082943
0.999999991542749656
0.999999979709079057
0.999999976761468568
0.999999976420793635
0.999999976154837933
0.999999976108062461
0.99999997485422476
0.999999966969268295
0.999999955267587781
0.999999943864697816
0.999999937515964277
0.999997578545786858
0.99999763418637222
0.999994591526617294
0.99998975349035879
0.909926696407629576
0.999999923734051555
0.999999832201259209
0.99999981143951544
0.999999810714509607
0.999999807711400734
0.999999796090862203
0.999999773743360576
0.999999715359476404
0.999999621816630047
0.999999527589275239
0.999999467837555889
0.999992795146264934
0.999994462352892688
0.999989237195499148
0.999985720922604848
0.903609903555166349
0.999999482504561499
0.999998998934573002
0.999998877548292087
0.999998870106786786
0.999998838864578854
0.999998733327252642
0.99999852833011782
0.999998148387590713
0.999997565823997903
0.99999688442462431
0.999996413505928716
0.999990522829461548
0.999987431853163633
0.999976481575439946
0.999954755671465412
0.902006441628414146
0.999997315801407605
0.999995325098959054
0.999994786921961643
0.999994727895806457
0.999994558560412194
0.999993985541157926
0.99999283061312072
0.999990791178366534
0.999987838519096783
0.999984185098651057
0.999983727912296283
0.999973961668006117
0.999966349474825766
0.9999466079047441
0.999884070995371355
0.903009948388662553
0.999988676732781689
0.999981845290715099
0.999979879495373813
0.999979634702292675
0.999978941949094424
0.99997655920438433
0.999971625387890528
0.999962925761502364
0.99995330323124576
0.999934535388837809
0.999924832397348751
0.999914345919895697
0.999900242198697331
0.999874442360325855
0.996412421210411736
0.903033662949079385
0.999959419918308168
0.999939069273568792
0.999932924246791588
0.999932194002130181
0.999929913243646995
0.999921775321463535
0.999904199728260057
0.999872736876810109
0.999833954445674022
0.999784967955582138
0.999710877308066737
0.999692181362708099
0.999684547609173801
0.999676312281817747
0.990879876335188481
0.907458288627029264
0.999872593330235704
0.999818506986688726
0.999801572376356251
0.999800215842911344
0.999793708302914474
0.99976946704064229
0.999715838551678226
0.999616677897361416
0.999475120628168456
0.999332754926905542
0.999125032798596102
0.998928982954975231
0.999003832255641377
0.999081183962942099
0.991239204254688477
0.912776120871346852
0.999641536085654758
0.999510824530055908
0.999468875745759155
0.999468446442440817
0.99945247577169638
0.999386748134914793
0.999241623136031043
0.998965251076230132
0.998542264309797423
0.998071278796207828
0.997560483118453467
0.996888900418023804
0.99697823576661726
0.997399293499729556
0.991071765755016321
0.920883166025999622
0.999080297156535346
0.998789261287389762
0.99869479814988571
0.998703227816902572
0.99866759527318183
0.998504256289565184
0.998144102470505223
0.997453081111589146
0.996377162138705197
0.994977370795449567
0.993424783667137268
0.991545604033711392
0.989842470251860229
0.978352882375587041
0.988274236601579981
0.970007210632305217
0.997818100222394588
0.997216098930851946
0.997021541373251718
0.997063211965611984
0.99698753181116595
0.996608888863184994
0.99577904637994008
0.99419881027369339
0.991750375073001567
0.988505977584922979
0.984115481029399053
0.979103690393208215
0.97673632579872427
0.941630725319395401
0.967194785546537483
0.962280388967828193
0.995159458588242507
0.993997268906284037
0.993629769006388108
0.993760862622076857
0.993597625362913961
0.992774700499243101
0.990990687567593787
0.987623833110483296
0.982599184074259613
0.975856546877178932
0.966016754080879947
0.953511459773647152
0.947838236950930835
0.872888780203939785
0.91419717085188823
0.949626134653742016
0.989865763570451085
0.987768209283602872
0.987128864164394493
0.987452287006848284
0.987077640755085417
0.985382870534635025
0.981817249969660688
0.975115127099367873
0.965595433173085826
0.95301559235288924
0.93343203047512846
0.906739432641256782
0.656112359253680055
0.721524017459512446
0.837164448019653173
0.938099420983398047
0.979827725542054107
0.976290786444441117
0.975259249407813611
0.975920794698671767
0.97502190737358152
0.971709306146210983
0.965045271858103293
0.952697897680911954
0.935779291087853293
0.914490229039218505
0.879825925146760168
0.763796465826028115
0.385114701517270563
0.165531241450292244
0.684754206405803201
0.912625549054123519
0.961586001303824878
0.956007829014818289
0.954419930246316328
0.955526094360365397
0.953313809835115933
0.947166586097114349
0.935384370702008638
0.914212713991321868
0.886620991889516818
0.85254187061955311
0.700802780144086368
0.227869578022244196
0.074808821321427868
0.0202070654470950656
0.118287428719372839
0.874532813433638978
0.99999999831088382
0.99999999821726604
0.999999997321046941
0.999999996130236712
0.999999995522237617
0.999999995074432269
0.999999994548422366
0.999999993868200265
0.99999999288092245
0.999999991542752875
0.99999999043549137
0.999999355691368774
0.999999189152223744
0.999998317440386586
0.999996886392632067
0.874753422702126859
0.99999999823325314
0.999999997434336985
0.999999996297117111
0.999999995655870721
0.999999995271745989
0.999999995022011978
0.999999994742733822
0.999999993303339885
0.9999999915775446
0.99999998977778648
0.999999988301331522
0.999998915525610044
0.999998573210732822
0.999996930131446526
0.999994099175221307
0.89193544752663656
0.999999991806656108
0.999999980945765476
0.999999979270942863
0.999999979052449639
0.999999978560283775
0.999999977686200303
0.999999975825707765
0.999999970461510346
0.999999960833825363
0.999999954312252859
0.999999953647416007
0.99999780096102453
0.999997649208932193
0.999994113542051588
0.999988278872667391
0.901464727247318631
0.999999925336304107
0.999999842123732163
0.999999830286736113
0.999999831503610825
0.99999982503700946
0.999999811557448881
0.999999785784819961
0.999999730191903247
0.999999662689583735
0.99999960869075033
0.99999960810221511
0.999997301325501686
0.999993244848511043
0.999988534388761563
0.999977988153216923
0.895283727591576373
0.999999489806843056
0.999999053567892204
0.999998989279051731
0.999998982942473025
0.999998932615880909
0.999998797635168413
0.999998568451123671
0.999998200754942723
0.999997747814063809
0.999997358145104043
0.999997226494349967
0.999992473204858845
0.999988575204728836
0.999976793951965703
0.999951781378310312
0.890182148489996217
0.999997335606055859
0.999995557638468036
0.999995292920124568
0.999995220752638914
0.999994925137044355
0.99999420817230289
0.999992899955668868
0.999990889499469682
0.999988559215065687
0.999986477127652096
0.999984054674907252
0.999982384440730177
0.999973584650684755
0.99995135045329897
0.999889492132861601
0.892040198286270236
0.999988681522332556
0.999982660635867493
0.999981784014068453
0.999981365896132957
0.999980060891445088
0.999977061245384991
0.999971380983925462
0.9999625738279041
0.999953641129612825
0.999949664036087649
0.999937909525259072
0.999935942692323554
0.999926420907670921
0.999888505954416473
0.995657576286965273
0.894664779637725061
0.999959153339680995
0.999941519517829169
0.999939112376833084
0.999937367167777591
0.999932590501400487
0.999921982781646568
0.999901579430898524
0.999869205195977995
0.9998344194296378
0.999817915134953217
0.999788999991231164
0.999759329848032841
0.999767419013526504
0.999721439384611554
0.989119144456861887
0.900462696108738747
0.999870887376469009
0.999825015859468813
0.99981937128742393
0.999813519568513831
0.999798679885409047
0.999765861656349841
0.999701811203538515
0.999599950848019891
0.999477771214711153
0.999400917194610106
0.999331343590820653
0.999230064588173539
0.999255076689519406
0.999271027492467878
0.990612442926940728
0.90592557971964216
0.999634441412967201
0.99952650722726355
0.999514966895272527
0.999498116144558857
0.999457785883778982
0.999367534458289297
0.999187463266798193
0.998904890207845786
0.998555635834376565
0.998184953437553091
0.997895972936727382
0.997675515147705472
0.997762456799338948
0.998102002451091597
0.990978900395407036
0.912730467719259697
0.99905685691651902
0.998824320835007495
0.998803300763131618
0.998760174750208174
0.998662405118828977
0.99843564920906025
0.997977244906030347
0.997275710319514674
0.996413667169749884
0.995408733687762615
0.994277894387428529
0.993272584220530885
0.991520973601500488
0.978316458797892086
0.984448786489965255
0.961193325396541898
0.997752352869808012
0.997290163277068209
0.997254921285785523
0.997153991408165075
0.996938366409569121
0.996415589067445318
0.995337216285872906
0.993766959071663569
0.991884053586152836
0.989510173759138967
0.986308555377076401
0.982885098091091702
0.979542105910416239
0.955807249092849975
0.968375720473453994
0.966176527168601029
0.994998018295049635
0.994146793728299172
0.99408902079198791
0.99386825593894379
0.993426594976023369
0.992301413735708127
0.989978743613792123
0.986759008598594223
0.983028487133505435
0.977987720246079939
0.970081508873244847
0.96057324724549531
0.959112669458340505
0.903237530723427939
0.933139369167244936
0.953848486877249213
0.989513708644754186
0.988056730211398282
0.987954182973642347
0.987494525732442563
0.986643884130690929
0.984343901265888777
0.979718824364302243
0.973759459257367288
0.966826888573693921
0.956900401705806258
0.939776083180551725
0.917579964642659562
0.727118067961482817
0.83253379307570663
0.899672837703899275
0.945525628772533211
0.979145666027080974
0.976819425298308008
0.976605978649326745
0.975680631824866862
0.974134369630926145
0.969627754679837972
0.961051644743558975
0.950997166114400327
0.938913672178155467
0.920373202558519843
0.887804884067403433
0.791511653042824781
0.413440219723503477
0.326999802260655503
0.826676133824547854
0.929073962887981497
0.960423675615965311
0.956916502283768566
0.956394708486437262
0.954545314570958814
0.951848846483357436
0.943262768383115624
0.928428093003404897
0.912792122595670219
0.892650929399221527
0.8604089004734784
0.719958629208123257
0.263484664889614195
0.139050106056070238
0.0308292763610873363
0.468240038883388332
0.899511604468290704
0.999999998366779552
0.999999998310884042
0.999999997613757907
0.999999996587966455
0.999999995970521027
0.99999999549209484
0.999999995074433601
0.999999994519189972
0.99999999371671211
0.999999992664198034
0.999999991795295973
0.999998547088671197
0.999998106690581756
0.999997321190171151
0.999995403061327615
0.863672703593347357
0.999999998324171968
0.999999997698485243
0.999999996742392483
0.999999996153480342
0.999999995772511863
0.999999996487056064
0.999999994865741204
0.999999994110865154
0.999999992752482969
0.999999991459253001
0.999999990435917585
0.999996955827540779
0.999993887678659377
0.999995402235418385
0.999991124066150205
0.879315579304881911
0.999999993260965336
0.99999998378541588
0.99999998163775472
0.999999981249094949
0.999999980567930047
0.999999987774325971
0.999999981484113731
0.999999972747261046
0.999999968033141062
0.999999965079248598
0.999999966925933514
0.999993476723181729
0.999985372261896988
0.999991153668116195
0.999981773356566128
0.895890681855310733
0.999999940182474401
0.999999866139350546
0.999999850537879098
0.999999846292887629
0.999999837283506499
0.999999825437915213
0.999999837202493969
0.999999773056259644
0.999999721704227129
0.999999701847407163
0.999999726208877227
0.999992233780669482
0.99998792267369363
0.999982936608576511
0.999966095681159128
0.889318406179272047
0.99999959253106363
0.999999194252423562
0.999999104840826658
0.999999068136528946
0.999998991238893131
0.99999885857030768
0.999998680117330174
0.999998478972242477
0.999998149410858073
0.999997966172936681
0.999998085474692822
0.999988910903208739
0.999981615427869897
0.999966794453812313
0.999378443065607858
0.881073777321916607
0.999997872280088074
0.999996204835158942
0.999995793733393201
0.999995581402873146
0.999995145336981639
0.999994404470608167
0.999993360682131405
0.999991951010349878
0.999990457137527433
0.9999886317005523
0.999988993568232454
0.999979480668506282
0.999967967017719395
0.999937625374629713
0.998690656104969543
0.883505323945480647
0.999990948360640175
0.99998511810293389
0.999983602772166025
0.999982580681497035
0.999980666361985238
0.999977471767252934
0.999972954987775497
0.999966719504137291
0.999959778171347402
0.999956091062485619
0.999958412143052255
0.999943676897806721
0.999923215126337861
0.999864981249071527
0.996676129390190901
0.887979900093949226
0.999967230084940706
0.99994950310109465
0.999944758949175561
0.999940867147386392
0.99993368306217556
0.999922249884392822
0.99990602735509615
0.999883184452075913
0.999856320505012719
0.999832682716306875
0.999848154793853361
0.999826164937266171
0.999782942908263417
0.999668799717274847
0.995412899018234154
0.894369028420271439
0.999895859385393937
0.999847738176040557
0.999834747391114886
0.999822075058484305
0.999799022115448688
0.999763408262987041
0.999713293815674309
0.999640773362243995
0.999550430625514741
0.999439003119772851
0.999372367238784309
0.999348071983216846
0.999409120990954025
0.999203536626778299
0.996191708811790644
0.899976805654362666
0.999702757864029179
0.999584081224021759
0.999552304144821768
0.999515865331236486
0.99945053426660313
0.999352607180434727
0.99921574393669621
0.999011704455647909
0.998745262125370736
0.998435461970689664
0.998088363564527903
0.997903058709283086
0.997044909415567115
0.997002842248606358
0.995016601028906766
0.912929262022611598
0.999224503651002127
0.998955634145769933
0.998885132436998058
0.998790226368342138
0.998624290367342904
0.998383191295242556
0.998045581630334633
0.997527132424759322
0.996829528497198192
0.996005679477189876
0.995130892564085268
0.994636008126955629
0.992923825563843065
0.983533033294265779
0.989679837590030642
0.985983087557203652
0.998124929041009246
0.997561713100162395
0.997418343583624689
0.997190831106278486
0.996806848511931576
0.996271583452385867
0.995510858708098634
0.994297807225230201
0.992648176579577823
0.990643158075011243
0.988556715031608357
0.986531618695047019
0.984248753011482069
0.96689745326847143
0.979723251025783837
0.972116645481090003
0.995752673568132241
0.994658493112863029
0.994389090728865055
0.99388168721077319
0.993065115065222326
0.99197266070226342
0.990399994139001261
0.987769534737244936
0.984198372125239418
0.97980710433694862
0.974477920718592516
0.967200221723389486
0.967256079593748375
0.940521350065608663
0.964077066107116742
0.959467004764002374
0.990912472533911459
0.988938792678029754
0.988467521350599787
0.987405069136613411
0.985798252725846424
0.983727701372235641
0.980680183669090155
0.975405016709209205
0.968289482817180636
0.959497852427782405
0.947500936338238176
0.927518581194854308
0.802244384871001692
0.858703126644027259
0.945125603459151309
0.951836728018965239
0.981525812981225321
0.978216419970403983
0.977443130292292794
0.975338972051730146
0.972395410408226302
0.96872968767794565
0.963136191342207182
0.953256070078795537
0.940174430272185946
0.924013689877481337
0.900047504263507436
0.845337475600776767
0.456969931682601083
0.478258918096103436
0.848795551105292034
0.940493632437906291
0.96415970661377326
0.958962336126781056
0.957736739029250606
0.953742308716240661
0.948657411027467257
0.942527482629097357
0.932714801627068768
0.915371685289791182
0.893073551551944567
0.86557489880803784
0.764169017138802587
0.337550844209092094
0.216366552628689146
0.0758175939937759807
0.78474121962951382
0.915711243731188729
0.999999998416469582
0.999999998366779774
0.99999999759850855
0.99999999652717575
0.999999995898640748
0.999999995493370042
0.999999995188159185
0.999999994747166721
0.999999994130117087
0.999999993415891852
0.999999992810530314
0.99999695416310419
0.999997320934774336
0.999995556289497767
0.994904952440533785
0.856201953858615861
0.999999998380021626
0.999999997693338027
0.999999996665436486
0.999999996084211196
0.999999995720573187
0.999999996497912491
0.999999995861336144
0.999999994241550727
0.999999993423195566
0.999999992554451156
0.999999991795390564
0.999993261963607161
0.999990044859229377
0.999992570494329769
0.999986652753366068
0.870807895516481301
0.999999993078832583
0.99999998320426009
0.999999981061011844
0.999999980633507812
0.99999998060441575
0.999999989083090179
0.999999989575309334
0.999999977843869736
0.999999972275708693
0.99999997178108635
0.999999974674173786
0.99999021202391325
0.999969964174599157
0.999986609989010677
0.999974180927619694
0.887504958476002415
0.999999937793103255
0.999999860044707312
0.9999998445805105
0.999999842293739394
0.999999836862578872
0.999999857479792587
0.999999852490466079
0.999999817939090097
0.99999976666295276
0.999999759705650915
0.999999795096151223
0.999983153948756698
0.999971673594157506
0.999974244309478344
0.999952818441660507
0.87841831825602501
0.999999574602239982
0.999999155526394401
0.999999060541196028
0.999999039154047198
0.99999898648445229
0.999998901938270346
0.999998901866642864
0.999998649128381878
0.999998434125566105
0.999998340964277643
0.999998541675172881
0.999983722146416953
0.999973801183100308
0.999957530449262055
0.991694421405563742
0.874226364734054018
0.999997773310664861
0.999996010844825922
0.999995568761971709
0.999995405258121584
0.999995098227058565
0.999994554218539666
0.999993803608501652
0.999992824891158039
0.999991328536929069
0.99999027111009231
0.999990864935817125
0.999967860938260955
0.999958130931976275
0.999926339720935475
0.99376652875872451
0.877991504486341556
0.999990513044113571
0.999984333074793508
0.999982621220310564
0.999981814273216973
0.999980358398001035
0.999977941215016042
0.999974393929670802
0.999969521672388506
0.999962893387485119
0.999956020263879974
0.999957070109361523
0.999917293731144574
0.999854604474804454
0.999826702198804762
0.998545564424164978
0.88257258417110318
0.999965640945485124
0.999946797241226815
0.999941172343129958
0.999937864873316151
0.999932393274030384
0.999923530050156328
0.999910296092543338
0.99989151545903876
0.999867120749236893
0.999837892413268703
0.999839338078776896
0.999807965913526164
0.999481637474796347
0.999424766125694752
0.998283079054850919
0.888990992160003768
0.999890916006556663
0.999839575409695813
0.99982318524065561
0.999812158581372179
0.999794121678241554
0.999766586019792625
0.999724534005112186
0.999662924364003391
0.999591263969395016
0.999490027322158858
0.999448506358367572
0.999397651637890405
0.999099550006602888
0.998890321017579463
0.997743785493902191
0.894155542062848974
0.999689432204313499
0.999562123325080543
0.999518808138792347
0.999486832791724344
0.999435376107821627
0.999359259998290117
0.999241948522113677
0.999064267540660245
0.9988614364858035
0.998598914124781745
0.998383176554537233
0.998198349104604921
0.99742276436414512
0.997650187113303222
0.996015841985642192
0.900381026398647477
0.999193074875258436
0.998902217760880284
0.998796995663891241
0.99871415482997894
0.998583110087620573
0.998395911288244675
0.998100003889057286
0.997639147894184619
0.997105329533612639
0.996528296554893389
0.995944867862156968
0.995526847431227102
0.993097319182873695
0.989611367359568783
0.992929985376858726
0.96771175833264178
0.998059868151579099
0.997443069696214324
0.997206331857656281
0.997011082951996475
0.996707947248205217
0.996291941010438387
0.995610058007323606
0.9945172806896736
0.99325043792677481
0.991943950651474671
0.990473511467556467
0.989154260238568117
0.986744359910546986
0.973076657329734918
0.98573316651665932
0.978157390177330277
0.995634844695566734
0.994416953868925257
0.993920773037144878
0.993496361979774312
0.992850633601723098
0.99200572214384708
0.990549248544872585
0.988162264683653313
0.985419493942052638
0.982459694888453638
0.979083052581448676
0.973085177531371359
0.972022148976161793
0.957334499758085378
0.978194245530792372
0.961777846967179828
0.990727838047043008
0.988488674436149184
0.987514611000741116
0.986652026109875235
0.985373023967120454
0.983780032930039017
0.980880301464013948
0.976030229714083486
0.9705653595706214
0.964421083255033285
0.955924971143814473
0.937159743643793841
0.8554323307610886
0.891284960747255495
0.959795938456386888
0.950811354208745407
0.981281051349597311
0.977455628095305284
0.975651119163776226
0.973994320972600636
0.971616583111735044
0.968789387764064536
0.963382165373729671
0.954203173966050811
0.94403142666687756
0.932300716075907365
0.913718016789858645
0.881636322903439407
0.512527352732996433
0.594701765081303457
0.898735282011025483
0.943487261557844348
0.963897543145169067
0.957819395212776037
0.954613267915311647
0.951554659351000476
0.947341430725483602
0.942529285528828642
0.932968635855603523
0.916961858577482802
0.899021343969324094
0.878378940030099642
0.827332597823518423
0.400356676748985563
0.258271690831823053
0.15476256231725441
0.696501439950676593
0.929446312923833284
0.999999998416469582
0.999999998416469693
0.999999997732585522
0.999999996710910111
0.999999996121670454
0.99999999573737175
0.999999995484201709
0.999999995188159074
0.999999994735383702
0.999999994123085933
0.999999993664361431
0.999996467693360813
0.99999624508873608
0.99999418430911069
0.987650208545774344
0.85313227036987338
0.999999998427242076
0.999999997818537434
0.999999996846166805
0.99999999627512437
0.999999995973689382
0.999999996637358057
0.999999996019575899
0.99999999503049386
0.999999994126960834
0.999999993418851707
0.999999992810562732
0.999991669753956591
0.999988119770015338
0.999990730978125963
0.999983939264368571
0.865010739497071635
0.999999994106351431
0.999999984318826529
0.999999982035211454
0.999999981834532869
0.999999982142406374
0.999999990573394726
0.999999990779784298
0.999999982704422585
0.999999977184022226
0.999999976865299844
0.99999997975041266
0.999990220726940438
0.999954185114961369
0.999983092741377755
0.999968347067206498
0.879643927264923242
0.999999948772448688
0.999999869497940619
0.999999851758726077
0.999999852122219091
0.99999985235111466
0.999999881722310358
0.999999894998109262
0.999999844619147371
0.999999808449871797
0.999999804883718868
0.999999839883676689
0.99998119557378351
0.999972357956025126
0.99996951340118212
0.999402656286361601
0.868838556756909242
0.999999652667737049
0.999999210017489482
0.99999910242501211
0.999999095752416189
0.999999088525878377
0.999999056582173695
0.999999108893560695
0.999998937370684349
0.999998675191605235
0.999998625882233538
0.999998835239203299
0.999975736265375725
0.999967219550793152
0.999949204408556502
0.983790074178035878
0.8697470787883681
0.999998192301031041
0.999996255183189131
0.999995743910042867
0.999995684277691699
0.999995606872924547
0.999995317472540779
0.999994744958001336
0.999993900591106821
0.999992524586839515
0.999991725588080138
0.999993239873531392
0.999961012527874171
0.999949244792419534
0.99991726896109423
0.989135257704501281
0.874000353591035006
0.999992333387854093
0.99998522258453626
0.999983256272728216
0.999982903154192471
0.999982534360748465
0.999981081021552032
0.999978132049168078
0.999973512119610275
0.999966564498308452
0.99996066062975586
0.99996147215913167
0.999919391151612102
0.999721924947992502
0.9998121980241792
0.99620535839348312
0.877966858261071792
0.999972323116733453
0.999949537627050522
0.999943148550673788
0.999941749735494101
0.99994031630903546
0.999934804144547384
0.999922915386002087
0.999904294143508565
0.999878760366812669
0.999847523780581726
0.999852813649280137
0.999825276703818933
0.999617482967575022
0.999448274415793536
0.998184632860581789
0.882343533657835577
0.999912245983353709
0.999846869543471017
0.999828834696002478
0.999824523383667119
0.999820210779758578
0.999802152079540818
0.999762081391260438
0.9996978766852187
0.99961988192392115
0.999517569388188476
0.999469163684143291
0.99956250497070398
0.99935294877436609
0.999158072586803669
0.993960632487899787
0.88794270292123767
0.99974982712253424
0.999579199047328393
0.999534018256672319
0.999523323592246937
0.999512526783437827
0.999460096076348226
0.999340744678204107
0.999147465089670117
0.998940802772191327
0.998680587672861608
0.998471224772680799
0.998282039346862993
0.997962255884361382
0.998697423643559512
0.990672355050083553
0.892489938127317473
0.999346887903693193
0.998938026105700372
0.998836484833822036
0.998813894475286901
0.998791728253393796
0.9986526023680945
0.998331195660917992
0.997811562993215939
0.997266984807742451
0.99668462473251429
0.996232972254864513
0.995622651700285299
0.992797100606634064
0.994895303828251754
0.990222522050390852
0.896888245869977729
0.998415700571589348
0.997512026930255313
0.997305722463070143
0.997263463713635279
0.99722442463711003
0.99688348716993036
0.996089340333150997
0.994826704748591917
0.993548230835066937
0.992388273974071256
0.990994403476792352
0.989528581871153667
0.986423587435102278
0.979964893471541365
0.986805644992255315
0.962151101033588474
0.996388052418534786
0.994541836848219285
0.994161180885467566
0.994085246699592862
0.994021285009354938
0.993239774481763593
0.991428684724074083
0.988636927474724647
0.985944291711651211
0.983354200187414262
0.979821352090502584
0.974167112731101792
0.969075613253075563
0.962542975848622362
0.980360769789029307
0.966252720599751536
0.99219428924476305
0.988703289573343858
0.988064496212919252
0.987911734131252106
0.98779942063564341
0.986100701030266036
0.982292844780014329
0.976645842664928487
0.971483936002154325
0.965968299413480169
0.956508452146240584
0.937388450437250054
0.868589571485307577
0.916695885157824297
0.966394756081738304
0.949283089393611279
0.983913539505395618
0.977796730042199691
0.97682171751249447
0.976436554806858648
0.976201396970839741
0.97267967201919181
0.965314994150061834
0.954861977297753795
0.945644898058752847
0.934610501182594922
0.913030213122254297
0.873321975979909237
0.548650346290672553
0.679835689577467317
0.942321561207968506
0.93831112807701067
0.968248065699245042
0.95829986024693059
0.956904969519127513
0.955742856849348899
0.955208233478395785
0.948237146198027125
0.935057903328717854
0.917446611109046017
0.901841823330044812
0.880946339253105837
0.806284402492294605
0.383719853637535246
0.307412937959940291
0.230771400060407972
0.773630782595992716
0.928761283176553265
0.999999998416469582
0.999999998307975924
0.999999997482243996
0.999999996477549002
0.99999999602062184
0.999999995788751095
0.999999995658330754
0.999999995453528356
0.999999995092445082
0.999999994637328693
0.999999994240999168
0.99999448327184226
0.999994109038551016
0.999991202920141209
0.978080930728924325
0.851785557825664674
0.999999998322326222
0.999999997568311816
0.999999996607022879
0.999999996164593341
0.999999996004911074
0.999999996766589461
0.999999996085239262
0.999999995283872511
0.999999994630150546
0.999999994097570122
0.999999993664373088
0.999987056790394901
0.999977506739199384
0.999986351896506198
0.999977328353872874
0.859168145641865166
0.999999991908108399
0.999999982496115214
0.999999981363679957
0.999999982234506035
0.999999983094676748
0.999999992187657671
0.999999990090824187
0.999999983284998839
0.99999997983160549
0.999999980294850932
0.999999983288263117
0.99998843695061046
0.999924225959745061
0.999969105648644607
0.999947790066207931
0.867931166615150129
0.999999925816737245
0.999999854919510156
0.999999847932017127
0.999999857245123414
0.999999861960639613
0.999999874953076295
0.999999906534748462
0.999999857480091681
0.999999828798378454
0.999999835208010834
0.999999871157329689
0.999985521745831107
0.999981006012085505
0.999971379631573676
0.999849420289024793
0.863240329854176647
0.999999492717140503
0.999999126007909411
0.999999085503882279
0.999999135572192444
0.99999914922445865
0.99999910418656679
0.999999093570005382
0.999999023273977938
0.999998831439033786
0.999998827193398943
0.999999053222402456
0.999973985744455174
0.999973358028369397
0.999952977106625784
0.987397892515638365
0.865591947924627014
0.999997347052177243
0.999995891138663384
0.99999568575700426
0.999995901563332068
0.999995907993308286
0.999995569712262222
0.999994941657570857
0.999994171412943444
0.99999305066067512
0.999992728371011719
0.999994503763412368
0.999959552863247003
0.999949885423947471
0.999912196715951884
0.991788976104128084
0.869726155819487978
0.999988710901114075
0.99998393325799495
0.999983150453053304
0.999983867615007238
0.999983713474897007
0.999981976694559571
0.999978860925953894
0.99997452089635197
0.99996884247723461
0.999964121829196362
0.999968161790131038
0.999930639856459913
0.999773395251860486
0.999787395647558919
0.996105909681395785
0.873981309012316854