/*--------------------------------*- C++ -*----------------------------------*\
| =========                 |                                                 |
| \\      /  F ield         | OpenFOAM: The Open Source CFD Toolbox           |
|  \\    /   O peration     | Version:  2206                                  |
|   \\  /    A nd           | Website:  www.openfoam.com                      |
|    \\/     M anipulation  |                                                 |
\*---------------------------------------------------------------------------*/
FoamFile
{
    version     2.0;
    format      ascii;
    arch        "LSB;label=32;scalar=64";
    class       volScalarField;
    location    "0.450000000000000178";
    object      alpha.water;
}
// * * * * * * * * * * * * * * * * * * * * * * * * * * * * * * * * * * * * * //

dimensions      [0 0 0 0 0 0 0];

internalField   nonuniform List<scalar> 
7340
(
3.08481132601090628e-06
2.24356821792497418e-06
1.54881272998549892e-06
1.11582917210227703e-06
8.57216533684109937e-07
7.09528306526210349e-07
6.39300069890492937e-07
7.89131692110785738e-07
1.41906415757591167e-06
2.30838918871103033e-06
4.10020329279551367e-06
9.10129363821510529e-06
2.10279000021468718e-05
4.94204105363999982e-05
0.00464342584828828734
0.14507015558994743
8.99034483986116638e-07
6.5653860229631461e-07
4.60699619361595914e-07
3.40416489327319679e-07
2.7859375849445663e-07
2.49536344651680702e-07
2.82773924906289285e-07
4.7543718270741817e-07
7.8807218900949221e-07
1.41280972761205126e-06
3.30474191599629497e-06
9.10130037938793114e-06
2.45598193684492017e-05
7.81908295227124915e-05
0.00592497054678228253
0.0832676369162227425
2.58598119463619889e-07
1.92628997018799644e-07
1.4102555812342847e-07
1.12230873948804575e-07
1.00620329896589999e-07
1.08028372001127261e-07
1.64959738125696796e-07
2.82743519743475397e-07
4.73740570004004675e-07
9.89499792292910875e-07
2.81742313134922667e-06
8.8649991542108942e-06
2.48301887269973456e-05
8.37523627906935577e-05
0.00732992738920118861
0.0570876612858327026
7.4759449422556033e-08
5.8335243890632824e-08
4.62523061531859096e-08
4.1663176860162094e-08
4.31596523726676818e-08
6.10737392928752612e-08
1.02730544234028052e-07
1.64536148975266528e-07
2.99385617574844804e-07
7.64754974931332213e-07
2.41042706800198647e-06
7.7978324569086276e-06
2.17000805983717663e-05
0.000292181328143039949
0.00565745167275057484
0.00653456609458393824
2.71989814148580083e-08
2.87398450790214918e-08
2.63933907203627786e-08
2.23367709733721328e-08
1.87729546195844415e-08
1.74986669078781424e-08
1.74044913206280392e-08
2.37994894439722074e-08
3.85443814392643546e-08
6.10136692166416299e-08
1.0230144406971062e-07
2.24303420768683546e-07
6.58712669302391444e-07
2.16716909903873102e-06
6.85714116019528363e-06
1.87827030573092604e-05
0.000278152519817760169
0.00603476639810477354
0.000643901641203553903
7.91437502288913081e-09
8.20332188557428687e-09
7.90954993883382339e-09
7.35258627785188196e-09
7.08917742803631339e-09
7.30946547422629268e-09
9.75968717053572625e-09
1.45570857807693297e-08
2.36162463152667914e-08
3.84712908074158736e-08
7.74282627977581102e-08
2.11148664354428211e-07
6.76725707524552671e-07
2.1634343253168168e-06
6.67492805871679587e-06
1.72031495369056017e-05
3.35928416255064285e-05
0.00502454738367998782
0.00283076570858779766
1.73920295382500316e-09
1.78956329791000244e-09
1.80970724573617253e-09
1.84615915693404611e-09
1.88783720146883361e-09
1.92634149716475062e-09
2.17405194632583304e-09
3.16457409854361704e-09
5.79940256445274331e-09
9.32103839136940615e-09
1.4373086625956094e-08
3.00649526780603657e-08
8.33269462386179344e-08
2.53367441254881882e-07
7.53005664079290898e-07
2.08442801198965167e-06
5.637282147796299e-06
1.46881192536602803e-05
2.55656331914509183e-05
0.00422222336211275709
0.0286220233850154188
1.69820341713514803e-06
1.32135293572549178e-06
1.0179146552276231e-06
8.17524446179147216e-07
7.27005596994082693e-07
8.01268773722606954e-07
1.26584070532807045e-06
2.0919178846115056e-06
3.62363046579764097e-06
8.50231509349967692e-06
2.06819024551380243e-05
5.12250920922822575e-05
8.51952092086452129e-05
0.00522858504626375412
0.150726030266132238
6.22664798686422668e-07
5.23120810113291731e-07
4.20426354361734283e-07
3.46757279232903507e-07
3.14987515433462522e-07
3.37085031961042772e-07
4.65146711645252692e-07
7.7848511035418876e-07
1.26112992138133899e-06
2.73503331722755002e-06
8.30014919208011586e-06
2.42313959172804722e-05
6.72380990190613921e-05
0.000110569812797655791
0.00518750910416009969
0.142023404487859106
1.9149717244099521e-07
1.67078041052386154e-07
1.45431481484984091e-07
1.37298635911546064e-07
1.49779795277579135e-07
1.90054944184936646e-07
2.82410571430809168e-07
4.64510993103999047e-07
8.30928807553933028e-07
2.60581517644034288e-06
7.83110468039140832e-06
2.45653510885869573e-05
7.26308478154748488e-05
0.000122083887207420584
0.00373299825460026834
0.101378164932753478
6.17771951077314774e-08
5.84726628666915248e-08
5.81227340914934069e-08
6.57324934369517505e-08
8.18363562267824573e-08
1.07725613129271489e-07
1.64306245626823338e-07
2.8830345907150833e-07
6.36598675926494095e-07
1.9620892903410677e-06
7.14764016437623888e-06
2.17520698722127125e-05
6.64967256428345658e-05
0.000119898323254541891
0.00229472256074180966
0.0889237129540560722
1.49465010011413384e-08
1.8891699837498223e-08
2.09423662688705557e-08
2.17477900709898841e-08
2.31115701577586099e-08
2.71077361948353743e-08
3.47057365093693659e-08
4.30808546810640479e-08
6.08900567376228158e-08
1.02045067239246034e-07
2.15111124431724143e-07
5.70111983680112831e-07
1.92921102676341943e-06
6.61475659923118872e-06
1.81968147405711311e-05
4.80404024663901377e-05
9.92387443117820768e-05
0.000375312474696128855
-0.00115790160689044569
5.17785845389607576e-09
6.12580140265209088e-09
6.87745468045012918e-09
7.83424357717394845e-09
9.16005806877733585e-09
1.37116464123588331e-08
1.7400566298790004e-08
2.37722536736354767e-08
3.8380907857166219e-08
7.73343823519776513e-08
2.03762762658679587e-07
6.5564970370865731e-07
2.23255687768809799e-06
6.60050206639950672e-06
1.66116667300275997e-05
3.31874627362732416e-05
6.62246299112369898e-05
0.00067611036384793502
-0.00322173481666423664
1.28956506315621107e-09
1.34360683711055313e-09
1.41278798544141134e-09
1.54219229824589437e-09
1.75487264075269293e-09
2.21114666286041265e-09
3.50294333325823884e-09
6.43846211586226809e-09
9.75954990549489281e-09
1.45507867821846015e-08
3.0060721436329052e-08
8.38690712312241269e-08
2.82195379182402714e-07
9.42361682378878568e-07
2.88923894374624929e-06
7.59849532017634308e-06
1.6314584910819967e-05
2.53433345670386592e-05
3.77527761362570977e-05
0.00207072655516242704
0.00631640593922734063
1.13444180668153364e-06
1.07981627710653227e-06
1.04990241839689929e-06
1.07318345168396169e-06
1.1719202282250745e-06
1.38023850330380292e-06
2.09274655814721518e-06
3.28107371895875868e-06
6.63393485431599722e-06
4.20045603866027692e-05
0.000190516632746548547
8.25157232132274558e-05
0.00013947825716451853
0.00436077110197464514
0.140659004637427865
4.27642146595374521e-07
4.51731012668620545e-07
4.7752948942274897e-07
5.28924934267594813e-07
5.94272743339803027e-07
6.64954925740589341e-07
8.00246461669467057e-07
1.26292627665120807e-06
2.23103722905363387e-06
7.94891644800769591e-06
7.52863708928940716e-05
0.000221232872038603382
0.000103694217856569549
0.0001688558343592636
0.00299127653284775915
0.132817040608562753
1.82417632193551106e-07
2.11495905729553583e-07
2.52389963281347893e-07
2.8702170956837011e-07
3.14659354481490981e-07
3.35912265482763734e-07
4.63569896499496131e-07
8.35624804590917154e-07
1.79743368558046834e-06
9.04604140118414837e-06
7.241501846404784e-05
0.000202112093829914709
0.000114184425866639252
0.000201181584742229176
0.00298972596105520887
0.133585914199733896
8.79883426999296783e-08
1.11641517274396942e-07
1.32249306355806599e-07
1.37074568149383812e-07
1.488065696068375e-07
1.88731131197912236e-07
2.88023357691147077e-07
6.4221205059679713e-07
1.57975447034975675e-06
7.39416159397343418e-06
6.04395084738713946e-05
6.57584726036392503e-05
0.000104072910224833889
0.000161536763516639662
0.00198095878386308219
0.111582811307808977
1.89547179079751604e-08
2.54940678490974888e-08
3.37660580487333505e-08
4.48021590991358105e-08
5.5752234905091878e-08
5.80718840162136548e-08
6.53827809889832614e-08
8.13129690962826338e-08
1.14249427381458661e-07
2.15372347130731375e-07
5.73022897151579304e-07
1.60709235344156498e-06
7.47061796551207286e-06
3.64878080147721073e-05
5.85060380128117554e-05
9.22246068642163398e-05
0.000148938896601824567
0.00322201921748477586
0.060647011254682498
7.41231694828509387e-09
1.00937725387655758e-08
1.37673644997166647e-08
1.92360620358582937e-08
2.31089812534538796e-08
2.70750607369833746e-08
3.46085660610820105e-08
4.80496155820775042e-08
8.43402646083608516e-08
2.03983427341325315e-07
6.15002550721012418e-07
2.07451117755148875e-06
8.67987277955803138e-06
2.44020396892779748e-05
5.83518749167924954e-05
7.88168340931210407e-05
0.000108523085721050149
0.000129030688592503983
0.00330101106134450106
1.3483920629392124e-09
1.66959918728457369e-09
2.08277062053753226e-09
2.72746479720708576e-09
3.70044524247474972e-09
5.5576996928486078e-09
9.12600292794066164e-09
1.37091872467501346e-08
1.96238676687328674e-08
3.51336995624192846e-08
8.646581862187047e-08
2.83921471530073966e-07
9.93338326335642935e-07
3.77923417713447829e-06
1.2019023374821106e-05
3.23828322157294443e-05
6.53900180402171294e-05
6.95095192378383418e-05
6.75977135201832825e-05
0.000859570556069686863
0.000485829913615538271
1.43876679982509442e-06
1.72486914447653955e-06
2.00470394355338363e-06
2.13990261827779336e-06
2.3263230661306418e-06
2.20064577281215527e-06
2.33470892525943851e-06
3.28590048872138348e-06
5.88366410678826508e-06
1.35805139070265786e-05
0.000168212544755105711
0.000621670106785074221
0.00116351966195566347
0.000163496410571675841
0.00684723836359442395
0.132134070030059669
8.51900187705227338e-07
9.81962191036404675e-07
1.08289010236201821e-06
1.0490191760261904e-06
1.06848942921015279e-06
1.16333195674573334e-06
1.37141656502932276e-06
2.23694445292839768e-06
4.86907070839177195e-06
1.3245298122203347e-05
0.000201727966013278797
0.00129572351982347716
0.0016893253392525065
0.00026661613993454584
0.00133314182063935588
0.124781646048134381
4.28356388166195784e-07
4.51203069761495887e-07
4.74561721373718538e-07
5.23798269059064493e-07
5.87367738410009208e-07
6.56404708722221167e-07
8.80333599773885804e-07
1.80448080672416244e-06
4.37101654582271668e-06
1.30149018457542891e-05
0.000213425628460286196
0.00109983323574656998
0.00157011370814276962
0.000259832713956421532
0.00227711780533013672
0.117072420901036839
1.820531599544675e-07
2.10280259125054397e-07
2.49842046696487746e-07
2.82721581821691148e-07
3.31415146935467853e-07
4.26008183538959085e-07
6.70061478814534484e-07
1.60100369147251262e-06
4.1198717459161064e-06
1.33501560856593147e-05
0.000214115491430289981
0.000836925870310530323
0.000671004132344891449
0.000216928977046440844
0.00554813334307781205
0.111077443580942847
4.08000750703135637e-08
5.45871840039880132e-08
7.00798900864262797e-08
8.7820479205456542e-08
1.11125266981314321e-07
1.30919332214956232e-07
1.61612490050080144e-07
2.12362319904990752e-07
3.09277724190376296e-07
5.7381418453634932e-07
1.6321834386846405e-06
4.45115132619627414e-06
1.97543187482190467e-05
0.000184085705238005916
0.000608592175510017032
0.000343163090036207935
0.000176838307616886272
0.000904156515663638019
0.103639405871896489
1.89488938888469359e-08
2.54855204774124951e-08
3.37539883920898789e-08
4.47654157798023416e-08
5.56129964807716741e-08
7.21893701031809124e-08
9.8231621383485052e-08
1.44739684226112828e-07
2.50971456789614084e-07
6.18843941496675295e-07
1.87846130594074721e-06
6.26513471344832647e-06
4.0277985179113589e-05
0.000183235345659018244
0.000763133997783859482
0.000340980896703691882
0.000146670312174518281
0.000824282165922188715
0.0558557905975540364
4.02931160447146388e-09
5.45860613923612497e-09
7.4117286627643754e-09
1.00929301505293227e-08
1.37661310742053845e-08
1.92332460207189023e-08
2.83988409516885302e-08
4.07224759257531998e-08
6.24952999625386654e-08
1.13326455944311466e-07
2.87193786613813796e-07
9.3486470341538253e-07
3.10123518695623455e-06
1.39441258871586523e-05
6.66086707123584654e-05
0.000332364844726720245
0.0002614456791750045
0.000300641454453617896
0.000107474154725160616
0.000624860240859151719
0.00918584019066251249
2.55155339414052444e-06
2.93697308811435771e-06
3.32613441121686564e-06
3.68720879596514562e-06
4.07846637354373659e-06
4.06499788032658454e-06
4.33560824727462798e-06
5.8571448638102226e-06
1.369859242389159e-05
2.7695712311202391e-05
7.82455424580514263e-05
0.000601762949362581972
0.00317569012537570299
0.00247817591734942905
0.00685259521772109588
0.12464079692686382
1.41774002473167545e-06
1.69840785044240553e-06
1.97313322751151318e-06
2.10181104045951639e-06
2.29734766176508759e-06
2.57513845680149039e-06
3.07433233080749653e-06
4.85132482400803822e-06
1.32843757005249408e-05
2.67931174467185077e-05
7.90560647670215629e-05
0.00089062544855737758
0.00640797828937561542
0.00691592335611531696
0.00531778516567266244
0.116974434866739779
8.41956248028599801e-07
9.68372674994147423e-07
1.11984206567952612e-06
1.32176453236307313e-06
1.59695553614530531e-06
1.94896382661866202e-06
2.49576570259579936e-06
4.36414304780959351e-06
1.30025147228478438e-05
2.67431221550342953e-05
8.42892752254535444e-05
0.000572937937564558793
0.00637285837861470417
0.00538075286702629878
0.00543249148083159526
0.110320688139071907
4.75752782455903243e-07
5.83042854773474794e-07
7.29101412981889245e-07
9.31332394501310591e-07
1.19415968435563251e-06
1.5238243758547305e-06
2.08627176968654542e-06
4.12567297138962207e-06
1.13283832253076977e-05
2.70146604313755651e-05
0.000122207586321055906
0.000839243400371337579
0.00324294476558271896
0.00261649243797161275
0.00434149101690160018
0.104797462406907113
1.39486811597029915e-07
1.7567531884619979e-07
2.215570626145932e-07
2.81369045503764707e-07
3.64125164792833902e-07
4.81277660175129052e-07
6.41678528278626796e-07
8.51294102412802141e-07
1.1416851513412243e-06
1.78733217772517642e-06
4.47392371601778484e-06
1.10844170105530937e-05
3.32007854842630623e-05
0.000337898847772887965
0.00111622083514162319
0.0014725203236403933
0.0015090244312009535
0.00289411410230539564
0.0974847856462213863
7.28672944237883259e-08
9.39585256692192632e-08
1.22099393066410569e-07
1.61175695561031762e-07
2.17081958191160848e-07
2.98036692618744762e-07
4.09396562537932701e-07
5.6956284113731739e-07
8.75738652833479321e-07
1.8875132342628632e-06
5.41072565215496808e-06
1.4602646987132797e-05
5.53769830159892939e-05
0.000407653123948017928
0.00180466387076488139
0.0036345831226842107
0.00139104362466727907
0.00197416979996048502
0.084392015564197731
2.01239076845201031e-08
2.68955218905503147e-08
3.56052268297986651e-08
4.72235173260868875e-08
6.32964606747663916e-08
8.64634839981723082e-08
1.20692116330484122e-07
1.71495884576761799e-07
2.50279511576874556e-07
4.12118446828284973e-07
9.39402952978288189e-07
2.82303142420025804e-06
8.00401485454894324e-06
2.98714464675094667e-05
0.000118929073974953115
0.00136409140371419923
0.00595708459695735819
0.00622801454283312267
0.000394748090779276941
0.00147032260064029079
0.0611102987400085063
2.5383340970593144e-05
2.94785270754755751e-05
3.46240450046972201e-05
4.08294365061674254e-05
4.75222591720997665e-05
5.40197382651639736e-05
5.86795270707223993e-05
6.12897896653297506e-05
6.27686502346162247e-05
0.0001024334254209611
0.000120455501686108561
0.000158646125456985131
0.00100474476911834943
0.00343424533048865494
0.0190911101409799409
0.117785374264403692
1.72870151098030663e-05
2.03743013509519963e-05
2.45274791626653061e-05
2.98589080036747084e-05
3.63634038741481047e-05
4.33833779669012747e-05
4.83411304653729853e-05
5.03343616176377061e-05
5.1139553938587416e-05
8.17811114476667776e-05
0.000109300207986015075
0.000204564302133757969
0.000911546807462717407
0.00436891014261528952
0.0289512477213058686
0.111720175878392683
1.29357934163598312e-05
1.5698571899849822e-05
1.95664297247914992e-05
2.48489342932013135e-05
3.14410173211461172e-05
3.54944652575459797e-05
3.62481721151197461e-05
3.38046561133786039e-05
3.77061228463901457e-05
6.32568211537859243e-05
9.48124251980571287e-05
0.000197829334034414447
0.00134067076362590206
0.00474257998725804812
0.073550155224130942
0.104307426196948716
8.74895718208267413e-06
1.09342719645598278e-05
1.37786747668759846e-05
1.69479452452061218e-05
2.07980957596692165e-05
2.45877760526872955e-05
2.53881254932118863e-05
2.37780354619569776e-05
3.2653138675541618e-05
5.19505684117747702e-05
9.02948472365096408e-05
0.000353729134557148356
0.00169223439120659547
0.00917340558802559429
0.0606494713360291662
0.0974506077696535855
2.43798169223857177e-06
3.05754332578241057e-06
3.84587312708261994e-06
4.85988533566595139e-06
6.1407816300792088e-06
7.83486360358597522e-06
9.99008555279608854e-06
1.23372861748907971e-05
1.38319836558053195e-05
1.41599809680596561e-05
1.75340293582248307e-05
2.93909440307784707e-05
5.01552790901854206e-05
0.000128530576415382836
0.000585869981507693301
0.00453795432239092328
0.0225246853050850154
0.0142270147369324192
0.0911810176659737792
1.05504185957145075e-06
1.38664595897695472e-06
1.81078373450849035e-06
2.3412759661911497e-06
2.93425759576560389e-06
3.59266792951038854e-06
4.57262318171605982e-06
5.59702885654203291e-06
6.23655554566082771e-06
6.79549373558881858e-06
1.46414043854399771e-05
2.74057913877215794e-05
6.64647035911126375e-05
0.000268493796623767459
0.00142450203762615503
0.00953465980868212215
0.013494992791819295
0.00552431779569505319
0.0863660719909090657
1.86174381392943364e-07
2.63425081087114924e-07
3.62090575059682156e-07
4.93787560970493736e-07
6.74576541327999952e-07
9.1490098821788303e-07
1.21368039558503301e-06
1.54612489459500634e-06
1.68090162694637386e-06
1.63307745320155227e-06
2.83373355765499124e-06
8.04030915048070503e-06
1.65420278099335334e-05
4.59224225288742597e-05
0.000178448008584522331
0.000619667553338311763
0.00522180666914955766
0.0185763533413033435
0.00169402327993471886
0.00427579895098387577
0.0829962322281034559
0.000314477492246811418
0.000351974408655176445
0.000400313714411153242
0.00045511895536102815
0.000507691442646037772
0.000556775300087751219
0.000594707385600823607
0.000606638436025208941
0.000593358660274522659
0.000428083366932556335
0.000228088941411721462
0.000568747614666912618
0.000272772666327532277
-0.000438605480753809923
0.00933802462526958296
0.031755615989708906
0.000197157096208001794
0.000222179901589630239
0.000254079639275372213
0.000290354705377030052
0.000327956641709923767
0.000361866190756936689
0.000386856806052078583
0.000382088806683922885
0.000343579504422852552
0.000267622309021599834
0.000206259929458478964
0.000464813105927236177
0.000545529574455180691
-0.000329157365922269109
0.0202423285292261529
0.0987832134830844144
0.000132324443811628008
0.000152741288480813016
0.000176550752195554143
0.000202183760008864692
0.000227869689001337222
0.000251532996870953789
0.000264777564848215946
0.000258042514513568625
0.000246870100292672441
0.000164953212893351566
0.000262231786690426971
0.000384515862675669277
0.000424180005811569888
0.00480661530322601394
0.082410122007347722
0.0972231949039158994
7.94736560859194416e-05
9.34154135164116906e-05
0.000110281844991708613
0.00012896933656742583
0.000145848023833510866
0.000158609975770311216
0.000162310320065914564
0.000163002358457652919
0.000146364516245255186
8.91596853789797304e-05
0.000227784811203040911
0.000312878629300961542
0.000806197739021683292
0.00553586676488342349
0.0817590204866284753
0.0869231616529402562
2.24832597286646396e-05
2.73532667331347729e-05
3.30493068134593381e-05
3.99599075528792646e-05
4.86190121275464069e-05
5.92667405469666424e-05
7.09656623688793451e-05
8.09718775033354242e-05
8.45640450006720107e-05
8.21571175614175164e-05
7.88855371923766289e-05
5.36824441512696285e-05
0.000122459804337006072
0.000207072558774892064
0.000391272755186781996
0.00207186001557989417
0.0274688885651225151
0.0760714494276498732
0.0842550577695160563
8.39260296441232555e-06
1.06132523604977772e-05
1.32886502181518891e-05
1.66759854389646977e-05
2.10325791016523445e-05
2.61968976685549314e-05
3.12328466841197626e-05
3.46737097820373286e-05
3.55012035950475908e-05
2.94116660259238316e-05
2.84161223384070375e-05
6.37019001843994799e-05
9.80138305601862853e-05
0.000167385846801443024
0.000833730590981821614
0.00707365648001404695
0.0422706684545317152
0.0569426219113666893
0.0762277188353908675
1.28612094449404786e-06
1.78571213699325867e-06
2.41018327457379655e-06
3.17371079242407548e-06
4.1232747406683787e-06
5.33933350253814422e-06
6.98507110996083814e-06
8.17797917687400263e-06
8.36144076454301944e-06
7.89855270630997449e-06
8.47447557709338427e-06
1.654050611239032e-05
3.25393401630154325e-05
5.18671458100939488e-05
0.000114962034515358346
0.000456336198548359722
0.00215853675483057995
0.012185653255914532
0.027332186744283983
0.0226195975810516009
0.0457668080721002901
0.000483168682970375315
0.000559387818279287485
0.000643499325891296547
0.000701781450002160381
0.000779882699355121094
0.000849218792613832749
0.000908719199745415085
0.00095954186260565255
0.000704656426506363549
0.000253527300525613808
0.000434217000179958567
0.00065574112006636803
0.00193366215972231269
0.00101608478354136373
0.00717974170214824309
0.0319204991346044992
0.000238833473056386633
0.000263946873623084502
0.000320607579051351399
0.000395226816303917894
0.000466116666374456626
0.000530657271888514224
0.000607634516473936443
0.000450109227603884602
0.000337774681960741562
0.000359492169132620987
0.0003080058130366864
0.000636975641871529905
0.000746482899001425521
0.00115334875449549451
0.0125676303825055253
0.0833996950041244467
0.00017159893836188607
0.000192648597234258836
0.000218650190771432128
0.000247679579260040865
0.000271137301716616714
0.000303999798885805329
0.000294978397037910789
0.000292569380603428179
0.000325538690484138778
0.00027119007960905387
0.000348554287831821254
0.000904399050045666571
0.000913012218082050295
0.00143687386905954955
0.0144579419747147778
0.0640756906057707298
0.000106176008627083756
0.00012313790710333629
0.000144568795503572712
0.000171034813193011548
0.000195979164558144172
0.000208878597801847915
0.000217391813272305504
0.000227664761038671949
0.000220254324262301576
0.000183722007820209744
0.000376015583185750285
0.000710859968691410714
0.00123701630727261302
0.00537608923280147137
0.0425645511523407155
0.0356650204088344303
3.55538642705917359e-05
4.20218509311469187e-05
4.93178969952696354e-05
5.80786054082192655e-05
6.90821781372397007e-05
8.24927293221834384e-05
9.77845903611574725e-05
0.000113349859314257177
0.000124967792951734681
0.000130969127797993392
0.000132527227609878197
0.000121045351882565204
0.000200207727049990134
0.000445691581344686975
0.000658750424428176246
0.00130545036208662988
0.0104312611326576044
0.0607853649043369054
0.0340745593466219021
1.50235141635895375e-05
1.81811897383789603e-05
2.17789603979145368e-05
2.61081703064524916e-05
3.14850023083082425e-05
3.80905606087261447e-05
4.55612960081630964e-05
5.42028073545508017e-05
6.27075911435359581e-05
6.63869304976113329e-05
6.36192037516810835e-05
9.88876966326417129e-05
0.000170122959978869382
0.000365830470202601395
0.000911062757669574459
0.00354074592891069065
0.040529412636030604
0.0504039297434505651
0.0319633619878608652
2.41110873699338459e-06
3.24087706066842924e-06
4.16462671016118658e-06
5.17992780030619754e-06
6.33307587024419484e-06
7.75536903481451663e-06
9.79389292956920743e-06
1.25161982022389062e-05
1.57692104223985515e-05
2.20704666569492148e-05
2.61651394607476963e-05
3.22343465021018627e-05
5.1794350686371983e-05
0.000113322578724440423
0.000192321181462600633
0.000439952583859244391
0.00166671708490516131
0.015106312087474507
0.0382558313824044108
0.0423384593182896951
0.0236484090510746744
0.000653995758686045942
0.000547737855750860003
0.000344786811626384944
0.00020173128433015363
0.000101030608907985272
3.92054496076944603e-05
8.99053991533757544e-06
8.31639348382235113e-06
1.72972855641602096e-05
1.97846662078819709e-05
2.64716371826578239e-05
2.49778003421574852e-05
-2.88847502935963324e-05
0.011429676923724038
0.166104363543091438
0.000406949676936567493
0.000352632076991900778
0.000193621984379788615
0.000112424873857700671
5.59827785371907094e-05
2.14813562984576497e-05
1.12308972297469847e-06
6.30616694336066061e-06
8.06946850411029182e-06
9.48191139951748733e-06
1.27949713344796628e-05
1.68056865574583856e-05
3.31471459018294564e-05
0.000102663653271335874
0.0158829510425062131
0.157079832615356796
0.000260607130240951806
0.000113108052752782776
4.79753923285761483e-05
2.05404289151472921e-05
6.85034689937252198e-06
8.85315678222411299e-07
2.17565133078890323e-06
3.665881464155514e-06
4.13275674732948011e-06
5.18797003670227276e-06
7.63841916337391396e-06
1.02000488809824431e-05
4.50478138950309719e-05
9.16478613305869987e-05
0.0099522370680091253
0.0774779987339220544
4.98954489570752882e-05
1.37710059203849378e-05
8.30514469042342967e-07
-2.40463596565031859e-06
7.01300405302626078e-07
9.05460064551311541e-07
1.58229992265263699e-06
2.02756283592439569e-06
2.18993990895506471e-06
3.21413757905410625e-06
4.60619323001429818e-06
9.66427914490324512e-06
4.24175787775692983e-05
2.98987187099024854e-05
0.00652162181731188138
0.0416320158411312147
1.95844753243480316e-05
0.000104624027822944029
-1.0285338104446093e-06
-1.0402780427807922e-05
-1.41797873246156942e-05
-7.08422012262504744e-06
2.96766430403961603e-07
3.05044997413935583e-07
6.00621619774691659e-07
9.8634795638649339e-07
1.02179928092499517e-06
1.18110279029380372e-06
2.05121962584920419e-06
3.0351970531058973e-06
7.69112113951874973e-06
1.67396671529626592e-05
1.43760432429573167e-05
0.00696522937423245739
0.0791325118019049201
2.85722295108317096e-05
-4.07024735716308484e-05
-1.13432427515059928e-05
-1.78906006973238594e-05
-8.77140285863103826e-06
-4.23615879362391993e-07
6.24696096499355676e-08
1.07949950330910429e-07
3.49620965231495941e-07
4.10449804913883385e-07
3.67795345170018518e-07
6.36154040222343058e-07
1.15455339591039859e-06
1.96398423919121415e-06
4.69392775009228269e-06
3.4929828550665425e-06
6.96076242985679871e-06
0.00680661945840867547
0.106913479658308719
0.00141961661902444526
0.000157799962502033178
-0.000134104354919158261
-2.53392087433617979e-05
6.29142660591659243e-06
-1.61150730469075364e-06
-1.02961896118312357e-06
-1.583709168486582e-08
4.10864936553930298e-09
1.09361753968606866e-08
3.38978936685178808e-08
2.98219223744445286e-08
7.82668578608911799e-08
2.5813680775230546e-07
4.43409785029112667e-07
1.04667090303771656e-06
2.52122450259804152e-06
2.06034313159646606e-06
3.49367634689083436e-06
0.00622148193445417295
0.106913458293084657
0.000298632386407768856
0.000162833676343046189
9.00495505080171877e-05
4.63743406198888417e-05
2.31160682394399338e-05
8.98892363354357248e-06
1.07377104910716808e-05
1.00778080394491963e-05
1.66409453390592064e-05
2.12571487413168605e-05
2.23172267134291105e-05
1.92115876378022316e-05
-8.1986205705632118e-05
-0.0011853278463210971
0.157091185614634893
0.00011283429772572905
5.02000667147465207e-05
3.16313372801571953e-05
2.13834386139032763e-05
1.01076764460152349e-05
5.25941750772368978e-06
4.52701531503287821e-06
1.00441181988875104e-05
1.03211861128376724e-05
1.0549275722389053e-05
1.26072048309663512e-05
2.12020490374198204e-05
1.57084715990979344e-05
-3.73185625453984718e-05
-0.00144506140907076173
0.0934645217066979173
-2.50773887672288626e-05
-1.07845524196758539e-05
1.18914079021331267e-06
4.97419365527885692e-06
3.23765399495065908e-06
4.32819093643077519e-06
5.58226857067513272e-06
5.1000223982708333e-06
4.56069581897947426e-06
5.20455298311962511e-06
8.48695681610122664e-06
1.30652999591175974e-05
1.56159291679582851e-05
-6.08622099109939156e-07
-0.000449622291589916545
0.00460247485711100506
-3.72340323715395746e-05
-1.26199529274876939e-05
1.29259478789147461e-06
1.0725774704479372e-06
3.35323663485144011e-06
2.49821861395118384e-06
2.31492320986747595e-06
2.11976109753356917e-06
2.05104836124056744e-06
3.06784870499846777e-06
5.30481023150205249e-06
7.75939674164789097e-06
2.0316117121592142e-05
1.34040553314882814e-05
0.000375540530571244978
0.0310649897832911727
-8.92472658973368985e-06
-8.32128018873743076e-05
-5.65649247103012265e-05
-2.04790940637258889e-05
-6.13315150487966176e-07
8.48452863337521679e-07
1.41014155533961948e-06
1.18253446451112825e-06
1.06638284107798376e-06
1.00779335048706187e-06
9.58153827828039609e-07
1.08428991165863659e-06
2.03356753681421283e-06
3.12049976774252573e-06
5.69034827414664846e-06
1.27751539515001675e-05
9.11037970040594276e-06
0.00124830745099411221
0.0841538996265221717
-3.62844652321637405e-05
-5.4251446914143828e-05
-2.98106640659642194e-05
-3.94391896350160435e-06
7.97188642421255376e-07
3.37718896019355181e-07
3.29025246157661037e-07
4.01450103392030129e-07
4.28078014657352784e-07
3.72023976802753918e-07
3.42509479232455994e-07
6.26678188876409574e-07
1.2081665428318754e-06
1.82466491984428473e-06
3.67995097035709315e-06
3.14119282242807023e-06
4.67395643794430187e-06
0.00157171144870908329
0.106913629820981668
0.000423668886429712168
0.000105057786215284439
-1.89680316442764312e-05
2.6171205004407473e-05
-1.20532570072037248e-06
1.65118755343125795e-06
1.29379993605363326e-08
1.09079306196996208e-08
9.60734169798703547e-09
1.49379101911766057e-08
1.59408247985527324e-08
1.9376781341135017e-08
7.28482293229367524e-08
2.8190573976271978e-07
4.86180381585036957e-07
8.88048945372139795e-07
1.78636695173247622e-06
2.08478173070468095e-06
2.85424596385814485e-06
0.00193783719570473278
0.10100145739869329
0.000166598379633392762
6.60654781788908236e-05