/*--------------------------------*- C++ -*----------------------------------*\
| =========                 |                                                 |
| \\      /  F ield         | OpenFOAM: The Open Source CFD Toolbox           |
|  \\    /   O peration     | Version:  2206                                  |
|   \\  /    A nd           | Website:  www.openfoam.com                      |
|    \\/     M anipulation  |                                                 |
\*---------------------------------------------------------------------------*/
FoamFile
{
    version     2.0;
    format      ascii;
    arch        "LSB;label=32;scalar=64";
    class       volScalarField;
    location    "0.450000000000000178";
    object      p_rgh;
}
// * * * * * * * * * * * * * * * * * * * * * * * * * * * * * * * * * * * * * //

dimensions      [1 -1 -2 0 0 0 0];

internalField   nonuniform List<scalar> 
7340
(
0.662628413983549658
0.636537643695949673
0.615703396481443899
0.599475574265040834
0.587712600281495856
0.580348516046619189
0.577296228798368727
0.57951391837387245
0.5875358282957025
0.600576738963635615
0.629580499521618209
0.673846530079009853
0.636616888731999175
1.11674525000886193
5.67591189569382681
171.121712927233915
0.664839472469569204
0.640542195757170085
0.620751802451439239
0.604931059113513969
0.592987790128983172
0.584998868329170363
0.581061959933558914
0.582003499543278346
0.588346374643481052
0.599167467664268316
0.626517302724068248
0.679244246966973386
0.653810440172602925
1.16435108059937864
7.91758315248535016
108.408695589508341
0.668162951529543636
0.644597698506305439
0.62520964392331535
0.609486046300459328
0.597265760453527306
0.588574548151563515
0.58350395109728892
0.582755487592213073
0.58722066734924383
0.5957922859226783
0.619355477776136532
0.680597992127487172
0.642134418211154467
1.14173430964151335
10.5045226922479511
80.9932354152997931
0.671084881585782722
0.647995734191171846
0.628814547889295805
0.613063167936544473
0.600500473134197188
0.591063974667236147
0.58476584168929413
0.582164174560941938
0.584368056281317716
0.59046293154177576
0.607722603598678801
0.672813145820252645
0.609576270285042909
1.40689745174228853
8.77296528903145401
10.1666943558322433
0.767304869905755416
0.731464992156130034
0.700214813845773443
0.673404596691234203
0.650691504916283803
0.631634437215788269
0.615770101460544672
0.602801766675196915
0.592563745107694273
0.584974831178669552
0.58042577420520125
0.580048795881604629
0.583347518085865269
0.592216888466838953
0.657157714392559988
0.567595704538340184
1.33949761706299886
10.1340089369671436
2.37066626308310413
0.766916308034948702
0.73183783392531232
0.701263032890919957
0.6749719696334604
0.652576438720552821
0.633614120936966119
0.617618517986410764
0.604219738030030928
0.5931559415574712
0.584243238222145522
0.577627566127731362
0.574425595587859439
0.574545126933629136
0.574635126954511688
0.634603783534690824
0.531319089762518959
0.865751100950170382
8.96106103976229385
8.01323219400480546
0.847751814281464067
0.804536422423259179
0.765734421855143954
0.731421128019276501
0.701491404845477784
0.675679952379324211
0.653582397538805204
0.634718484924822413
0.618595897903194913
0.604773687563904372
0.59288226971360225
0.582628077544219081
0.573916736364432856
0.567676134916077602
0.563865059151064107
0.555821859384168948
0.603438113505349372
0.493332840034904185
0.779612136707189318
8.02404134731605367
60.2445196424901113
0.679163953023523503
0.657486518593722202
0.639586618040284716
0.625682519479656363
0.616526961451741018
0.612719611905301331
0.615506658846289079
0.625275833877338316
0.641276738343246167
0.684446749471663396
0.763761985513705444
0.701115745213793717
1.15375672039911081
6.66933752838264748
184.241223847245266
0.702691249274392971
0.678030810826402153
0.657314643942314647
0.64021062166485887
0.626857158179063068
0.617621962786423118
0.612988737748747625
0.614160975885757687
0.622018019465629513
0.635623136232848052
0.676826837479479693
0.771589280890703111
0.728555643383332563
1.2127488942954896
7.42997669330873922
187.711936672520608
0.702136945085086506
0.678267337136606363
0.658100388643239276
0.641357830231453652
0.628101894707619568
0.618439854368294073
0.612668468119750065
0.611935112728143271
0.617505764020841563
0.62867171407595146
0.662955013510820423
0.762018833063114576
0.730196876931110905
1.197665799015597
5.92398222347447856
147.312591011050387
0.70201818545915351
0.678711883607569288
0.658962269229446562
0.642463560185164373
0.629113132052320334
0.618866402168655294
0.61186962974709469
0.609072969295046951
0.611935373505926861
0.619149284027708857
0.64423754575832648
0.736040545235297272
0.691717690801016083
1.1656645737422584
4.17080690199802273
137.791876862665646
0.793401441432611265
0.758916461786644181
0.72844551104129196
0.701907945375642717
0.679092101950360405
0.659684338664707548
0.643336122373841302
0.629802883605310893
0.618923794404998562
0.610684278109824952
0.605746380431795295
0.605596531995149623
0.609360904961376848
0.623680097572141823
0.704271346007888321
0.624304300568381709
1.06673985269048299
0.993019199079400172
-1.65994496421759341
0.791459533076206756
0.757487338430325785
0.727578243716129447
0.701579166879717553
0.679208412997777677
0.660105078026487546
0.643861355215159414
0.630130487596468836
0.618615773872702279
0.60915630076230054
0.602118977469056182
0.59885759361487878
0.599047551089112784
0.602933815144344298
0.66984610418740842
0.56323801837401144
0.92802867841816139
1.31429033371111381
-4.09336782970221424
0.868570920031899063
0.826626954802107683
0.789016925662612612
0.755626681120595944
0.726294971493298136
0.700815865527128046
0.678873664241152364
0.66006312375861631
0.643925165184345283
0.630003278419052015
0.61787008243662489
0.607227734527206464
0.598205284270617144
0.591881083464836477
0.588141640950203937
0.58332877323647403
0.631197798994134973
0.51078128900529951
0.785706152523040102
4.03498580644563987
15.7655021035564324
0.712368774562884388
0.690706914291675855
0.672669989181582051
0.658693871872033987
0.649224215686882378
0.645085145218347034
0.648443447496048986
0.659898502902007245
0.682709957005090962
0.78095647275222202
1.0403306439564779
0.724879419319916729
1.14690917413796734
5.26005491286134053
179.694448400237434
0.732863761147610204
0.708809376997427631
0.688019571784790451
0.670627219665981378
0.656904887289971429
0.647055990927458136
0.641817326678585598
0.643256546968356435
0.652159724017741138
0.674279418918065199
0.812164714085436779
1.08816237116993664
0.749587529930739849
1.22641413171832636
4.28725122133889158
181.71870724298347
0.730391786526703113
0.706898240020885082
0.686695180822756379
0.669670651750539525
0.655913520488835111
0.645492926429145353
0.639064828297273957
0.638319829767966196
0.644144939012553652
0.663799717171441483
0.792637656907079102
1.05644955630067283
0.759118612682863292
1.26496683891447326
4.86808951902692666
198.649049239783864
0.72867715254171006
0.705696799766490357
0.685941444724540994
0.669206718606879525
0.655414267773452686
0.644507340373023152
0.636790120174620555
0.633710360283912477
0.636045005692883025
0.64862272172448443
0.755047926549117343
0.836292219871030751
0.737465853735536303
1.18648078800186974
3.63850825806505673
176.095301700206392
0.816178997877837431
0.782796461024732992
0.753213329844481527
0.727283654491495901
0.70479606411656559
0.685481922647266817
0.669063647183560151
0.655269692201312703
0.643851672453648716
0.63491357857191677
0.629507010798996069
0.628526459682019589
0.63660423887616957
0.694501539257486034
0.791201948258397736
0.6828929849418508
1.08707148131392928
5.39797177159985964
101.734987391142013
0.813466839332876668
0.780444358032004626
0.751313729727716706
0.725899134198802254
0.703932377950604371
0.685093821159932448
0.66899925450781017
0.655229212874679501
0.643381493122313741
0.633356959883172754
0.625878764126348353
0.622291465329444349
0.627241507295088208
0.651910103249208284
0.750835915390163144
0.624164419642694868
0.91656433628940337
-0.0565071144305301712
6.62108211752054832
0.887955494178841342
0.846943824215327989
0.810269436914977992
0.777731629326007479
0.749131809888757161
0.724268920230877966
0.70285598988572684
0.684513743562895405
0.66877298143505659
0.655095509537662379
0.642929199511016902
0.63203130820749609
0.623096969468957318
0.618810120270254282
0.622082256753986096
0.645443467841854912
0.71884461057777338
0.544845637237131197
0.738155511993556002
1.49905486833964363
3.28411637517447641
0.759385581466302972
0.736273066398872245
0.716028387116714682
0.69873340102852044
0.684877349672691427
0.674709264310945356
0.67017181498897993
0.673740043737915184
0.687734327586604133
0.722904888020529213
0.971391252189939713
1.57692410523274895
1.75978444841239701
0.824809918836620137
6.67643204757828457
176.269661334095332
0.755408504811548864
0.732229379681890058
0.712040578061438945
0.694788640298825477
0.68075779029501482
0.670333569219305869
0.664523281155559475
0.665597650994642631
0.675830316519115182
0.705563762076451328
1.00672918122087807
2.48656834754500711
2.50829394236908554
0.977162870118823634
0.958058269573311305
182.743946821756566
0.752705894574866585
0.729684311419978693
0.709774410146689849
0.692891044219729357
0.67891730814512119
0.667903550384999711
0.66062413082348459
0.658995320788321459
0.664390596928029598
0.687018253266548973
1.01461532125619591
2.29995129667572717
2.45121062037849358
1.02396843689680939
2.79765849769381658
180.15121918881178
0.750751093446598738
0.728199486421538311
0.708773241727191028
0.692213157461008533
0.678264790628357539
0.666751599932869699
0.658005910144921824
0.653517966767215741
0.654061932224594411
0.669649558853045335
1.0080511426489962
1.98113150837603391
1.23130925773164801
0.91134625155114013
8.09183626388997546
183.801724521693302
0.836188554234787662
0.803475186714013079
0.774539962975664853
0.749180918039662691
0.727202154473153062
0.708300700829560981
0.692172174570054977
0.678342075415690138
0.666370176917304491
0.656337287096681044
0.649490256275267352
0.646228244506571126
0.665580612069251454
0.950204073415731543
1.6580560170066867
0.769037070414294588
0.840451265742956255
1.19685824533103924
178.029986465071261
0.833193448618941734
0.800848357074169459
0.772374889155790556
0.747587687184665839
0.72623354869294432
0.707976930570365592
0.692372181170633483
0.678793090784908459
0.666582683042027946
0.655693664743267512
0.647237782681945206
0.643649734492398484
0.690741466921153124
0.938576433540231458
1.94768520518500377
0.767967915751774588
0.717464042267740743
1.26335208784587549
102.647692442595186
0.905877689375864104
0.865544227352691431
0.829570988776345719
0.797734587046183163
0.769840900380984627
0.745704905371464721
0.725063409904185829
0.707527381869886285
0.69255748831913444
0.679405285022781635
0.667302778125359874
0.656289019140278485
0.648249218102146085
0.65438091665363729
0.732343368743264889
1.21223907127028552
1.03599573384417698
0.765927979021127525
0.560917966564041803
0.63973260444535196
20.6339245970150458
0.777254022042057957
0.754689049701111836
0.73504841686418021
0.7183376166923503
0.704832977144891237
0.694450703399266511
0.688700339285294505
0.690716336044650436
0.709320868662998705
0.747153125951201647
0.845909738380393961
1.52533216619469858
4.16599826896633374
3.07403229726117555
2.11312275326280652
179.296339045583238
0.773523435105461621
0.750726640034605541
0.730973594476984068
0.7139353797933079
0.699831659907581449
0.688800651196140534
0.68125034461756151
0.679602877849121323
0.692848286418303427
0.719970701716327821
0.812175504833604789
1.8837956392594859
8.48943314911135083
8.88366131237404666
1.97036999399603929
182.267149913238143
0.771634292674155398
0.748871056193274209
0.729226560798933887
0.712475518467980073
0.698299295598093894
0.686440757929801637
0.676822991377013405
0.671205636551634122
0.678062677386753077
0.694531903665069228
0.791916270518782439
1.47497398480835207
8.91101339155165029
7.3284479168370833
3.12038029940027073
182.09296646081637
0.770324744549889528
0.748082034603819057
0.728982403847766469
0.712612071132581515
0.698349852084820144
0.685597184742943289
0.674136582410399421
0.665274731810858611
0.663138976242202749
0.672008515494225245
0.830129729270645211
1.90995540147112486
4.69885497901647842
3.74064159554023057
2.97806368675225253
183.497462757020486
0.854990238308765527
0.822606320362032739
0.794013284602911873
0.769052452919615992
0.747542333462842379
0.729177200986980023
0.713354669856850587
0.69919630950913858
0.685785128966367563
0.672887166304468431
0.662178904234662857
0.653312118213288162
0.663943421400638001
1.17782887364918465
2.44078605760738077
2.08560079349601857
2.29466987781206866
2.1675313580398039
178.121834532371622
0.85163320908628648
0.81975624572739525
0.791765189488761179
0.767521791435535894
0.746807850969321896
0.729271105037540113
0.714192662486720642
0.700524260091809015
0.687059407691998358
0.673707084735291395
0.662415563265572382
0.654468510042284235
0.692700069212990654
1.3285309991861225
3.78898704685130339
6.03958364041930551
2.16643429279289412
1.54885774067022575
164.241730640044011
0.922675542739777921
0.882906908656058032
0.847504522515295622
0.81624874916560386
0.788976034763686496
0.765564234509762298
0.745780164158576064
0.729221622088668475
0.715125776755855536
0.702334523295587765
0.689698616305121082
0.677950207873134314
0.66897838890462713
0.682205742964324457
0.816385707557551576
3.1777900488763402
11.8021466632782239
11.3461814747968734
0.449299608713718823
1.22286990252713079
125.820797444977984
0.808154840694304433
0.787609248523317707
0.771060073115197531
0.75858426800443457
0.749827139941071752
0.744460904054308203
0.741049756320514508
0.740971263637767552
0.747132050975617412
0.805561092116056754
0.854100714164217956
0.960257246928972741
2.23653766421129463
6.79552753521699593
19.1972945648911093
185.689468471107261
0.798938044443731177
0.777472117429478859
0.760166213219028886
0.747047659308857415
0.738070570822069172
0.732284246836286568
0.726260093566405196
0.719838968483392794
0.715152799287838481
0.746552185763792453
0.779039283074944966
0.91781091876028742
2.11546746949507103
7.99091263178026345
33.748431139438317
187.317321280736252
0.79657629517822881
0.775488179343386874
0.758746012010441451
0.746494863524455377
0.738118578461342989
0.727624484858963583
0.713133987783761247
0.69465905159888286
0.682811489279105399
0.687678141678135346
0.6995952052088803
0.851025089445576755
2.68906493009426573
8.0916870934887708
99.0292834530193318
184.564977115192107
0.794589128477668716
0.773995806600325298
0.75724919679176983
0.743318028871839731
0.731914408781032866
0.720822823652312206
0.703867172207334191
0.680040092795699547
0.662881830886656198
0.636963057863769944
0.638530946835092372
1.10073623365203455
3.31276043054395508
14.6126203536233454
86.977796104736413
181.194568765994745
0.874958824941879709
0.843237155290178286
0.815351668441797961
0.791312475740739818
0.770979540153100995
0.75423495600601298
0.740498449978942652
0.728098843074673763
0.713582446831899642
0.693577955553573933
0.671334368049486874
0.646052605157562132
0.60180009642005905
0.675445339997608363
1.59828024919626177
8.20741488862710789
37.0675955800247934
17.6168937962543097
177.946436251201277
0.869932268511889317
0.838672926116739936
0.811346178873226132
0.787921719113570673
0.768078301749607895
0.751444867688052298
0.737592573241205418
0.724430016140839905
0.708753050353920999
0.687771696415857781
0.668465362227103954
0.632410096604007377
0.609167162766843684
0.970801384058654793
3.34098525742297747
17.5401026648722826
22.9777099517705601
5.2724891400155105
177.606793733483471
0.938417234284516177
0.899231084838068018
0.86438475151216787
0.833691530267265946
0.807067864094251131
0.784486040219153469
0.765727081779267738
0.750317995216960743
0.736809808986805592
0.723287829863140774
0.709335948172630681
0.696434166807636368
0.675755520894278039
0.663273838230620139
0.830293100954135554
1.81132997751185965
10.9329547154926949
35.3265353668461231
2.06535746252887131
4.86165828503920316
177.992141422576168
1.09505101201590826
1.10681722902482349
1.13455168263913042
1.17301572201463733
1.21251347059933723
1.2518186514361862
1.2812558407452006
1.28562905277235284
1.26530310905566434
1.08132605568924189
0.881781316616678246
1.46792865492925029
1.63359268238540811
5.03438930680141272
17.7749342198592402
101.787080854099287
1.00114467125670048
1.00272168015509688
1.01648694774644777
1.03883600062701409
1.06559690989721845
1.09000433294518384
1.10436692183701934
1.08148887774270941
1.01525105934453341
0.904952337650501093
0.829750523374447435
1.26425544929488631
1.94798388103561271
5.86623016071614245
33.0720006474187045
186.168407711488499
0.953773985712607297
0.953950643243267171
0.962292023584827794
0.976242387609297935
0.992446749564920516
1.00695791452036398
1.00558028625512064
0.972514508335792227
0.924522700433978217
0.766334393911007661
0.86422029620154428
1.01000403618064438
1.82411280963344069
13.1532162473718923
123.340520786253464
187.944346183470799
0.905451682958101189
0.900886084097966999
0.904325534692519861
0.913644609311407674
0.922140041300920199
0.924219704488318583
0.908099837555715661
0.877146470255369515
0.798928289556843807
0.631868479040081699
0.744532727781930248
0.796648657077450362
2.44399040613013341
13.8329280106165893
131.038619769198789
176.976444855160111
0.922525358641289261
0.896766356911903983
0.875864916062553567
0.860561980006826266
0.851802865979210844
0.849986937792948649
0.852905162203957734
0.854593032564055721
0.844234550937300265
0.815926896477869423
0.767581904459309072
0.649127798299439451
0.641200496430930023
0.631171706333115146
1.01367490583951736
4.64514225324496621
48.9291674006000719
129.480716768940624
176.972745177634181
0.898935738716314159
0.870693718894587354
0.847086196107738498
0.828681231781738803
0.815937188738002583
0.808404891644567303
0.803537419592422419
0.796837078103759588
0.782228423742866719
0.743063839785882307
0.686047181218348401
0.64530997898165976
0.547314342572141288
0.520850098447299681
2.19634495914514805
14.0408895497054527
76.7211891369450427
103.347604376085854
167.122285899438594
0.955611054638496937
0.917520034079973401
0.883822423874890406
0.85443810617299043
0.829507273591199135
0.80930019516930507
0.794106893428587868
0.782002837989270172
0.77085356879642275
0.758810128569563425
0.742906792410344741
0.724022376612095564
0.685682570381098033
0.5986959724289872
0.555621316742583748
1.24104641319739639
5.58104010337135836
24.8984634257328743
52.1689707419931779
44.4778104251219162
113.9874956729942
1.46273149788411683
1.5372868093698091
1.63471500805970504
1.70461051376331563
1.79879170376113029
1.88119218204138861
1.94498765610262336
1.98663240691472631
1.68242372601959467
1.23372847643044725
1.73813937067731383
2.94199731916083262
5.98447059658704728
11.0405636238624094
28.402557640547105
115.465420119645501
1.17985845408487333
1.19283524041286637
1.25664385673509682
1.34937507335354856
1.43833620334435075
1.51783585067339688
1.60539718886725136
1.38128367730607748
1.22537797365003964
1.30508189765890892
1.50102670412199779
2.75892021685557465
4.11109755262016296
11.9010989222766437
36.7855810229950322
177.823203868494232
1.10628019923037479
1.11564184916352693
1.13983718317118243
1.17365546552400524
1.20201635832199383
1.24203515264013808
1.21345014231908732
1.18355486380065145
1.19864974174911199
1.13492215414322106
1.44309788172802422
2.84402015677876197
4.1789980442699628
13.6625410919632255
43.0524292555213393
149.974759471863365
1.021591266716247
1.02846848323050644
1.04857625576262303
1.08187350501091561
1.1156157720823705
1.12860863124393762
1.12263730455176214
1.09856367011224676
1.02732690470019761
0.9369170881014105
1.34556815318186684
2.22192684122181028
5.02356465572282218
21.3019542067886931
89.4561584518890953
105.883244052490809
0.988780205868884265
0.968719080419653045
0.953538255046840977
0.945192118785155078
0.945768946896405671
0.956174943603834482
0.974516825920572205
0.995982762843061198
1.0075194321647063
0.991884595924166446
0.937835006915941571
0.828450575801311762
0.866918809799229084
1.29704197439196589
1.99396726312115624
5.78422552714550608
30.4485343745126613
124.395420148084241
101.500571081890925
0.940938933496494712
0.916613300220026295
0.897044388402945647
0.883335324741160388
0.876484031296912769
0.877169646943751435
0.883620826491612443
0.894010033020589678
0.89800569159212984
0.869686444904187894
0.789067051334827352
0.729270261288313071
0.717366241024570139
1.0098073691870062
2.73857907033000236
10.9498206050278917
83.6816367789588327
111.67195411907089
95.7369741100050362
0.975558470484234386
0.9395000814357366
0.90781219895459675
0.880331666798986112
0.857421869197139475
0.839818638865496125
0.828302941839847873
0.82314648535956314
0.822799673152592725
0.828854804416856883
0.820828067682264462
0.786377554258095746
0.727709086483781742
0.690562465771464296
0.689807405855075051
1.20799628100758527
5.07499447387039382
34.5280657207250883
83.1554187482176985
99.7834896040931199
78.0132156541504145
1.7131478416045467
1.35083138901362343
0.970415155773273086
0.725746794150283425
0.566037687587660931
0.476292568267980221
0.439879587211612744
0.439320242287012996
0.452871336807963043
0.457953347833760516
0.476251762533923317
0.387902732548168594
0.638252469646786835
13.8454502813767171
205.796864181996966
1.46575523592883816
1.15698206898814226
0.815224294351594603
0.637457343340216198
0.528033686249572698
0.4659029803503415
0.43333972721301478
0.442145170171269697
0.448713733299539563
0.453028833337147108
0.460565985472076556
0.482386462918317938
0.393798590618532895
0.760312580373819324
21.0517463351648608
209.002052071969587
1.07046424007126117
0.728595997642395576
0.566885017145632553
0.494080872011151861
0.46182936339813635
0.446542623465079502
0.445408889858943335
0.449020343034874647
0.451923441587393337
0.455045467175643148
0.462576571215903565
0.489593846939384569
0.425714743313269917
0.752758360736229704
14.4355489807828228
112.585890370120794
0.64439957475170484
0.526188151266883342
0.476746468547826374
0.462293684456169474
0.461247283983066247
0.456429622048962591
0.454702790812180846
0.45497717508770974
0.456071543409748592
0.458646841233280422
0.464002936917867426
0.50131929304630618
0.44334697271975948
0.668374012737680379
10.2326394339406779
68.2714751541404752
1.14104677761072226
0.966194442487387839
0.555728782757952344
0.476234569739422187
0.456407458252690801
0.465237907730097544
0.474319956132580711
0.469328327164942494
0.464678867987922628
0.461612610110357979
0.459766650203958072
0.459763555644656263
0.461675939850551997
0.464552770790763681
0.506156459990402041
0.420135352474551249
0.64427486521387678
11.6558176619200697
137.460277203289394
0.987908284673239323
0.652127231519274653
0.472188740068499924
0.435718156984649441
0.466160648278345358
0.484782557263624347
0.481968244817735647
0.476286607599273881
0.470953800771548969
0.466368227486268105
0.463121798873417978
0.462208896904170718
0.463114413494684352
0.464047339001342873
0.5033408084746267
0.410211823869134906
0.637919974665471123
12.2273595096755709
197.567013102341804
3.61663476646383852
1.01551084614397946
0.549939563138259091
0.656096926264369329
0.51766933874422838
0.481450990052204097
0.491826651642714274
0.493774055703512516
0.488232745852784811
0.481686688478878133
0.475194402082969702
0.469503052341036509
0.465223841804309368
0.463025279235865284
0.462742914133818517
0.46231845360879642
0.49794456224097372
0.417496290719626406
0.63641155420215112
12.0649311242082113
211.140627797418318
0.931590531276491496
0.705372004819620924
0.576122789618993547
0.499320875115805141
0.459553721997080722
0.439413770972227669
0.442823799110159066
0.443938149210129862
0.455435178421155273
0.461194719035946166
0.480486627308413794
0.379404066884123481
0.622611111829455277
-1.53161524479740074
186.939125764995254
0.680997594032472953
0.561215653271584403
0.510299060817516414
0.478639046626212594
0.454788306468584258
0.44493174774948907
0.443105477462509389
0.451796914359889334
0.455136230027454569
0.458234754947320855
0.458875440032036286
0.494128031515489785
0.364477372902073271
0.625077379228107133
-1.74349770664455361
120.181163539073992
0.448900573165488703
0.458254719257759291
0.464590958523999953
0.462497988686581429
0.456217126673280959
0.454689533727974549
0.455846189556028125
0.45543804596102061
0.456091221262533097
0.458620219542205498
0.462360827692106957
0.497353357740882074
0.372105213291921144
0.656326910728457724
-0.267443938953114912
5.93306706985707866
0.421827414324936867
0.457651110199461364
0.473345212998717235
0.468213779151292586
0.467912774658913289
0.46338310763045798
0.46052891564471754
0.459114264762001623
0.45930089690797965
0.4615463009780153
0.464366076427729979
0.500448723914049154
0.396770610804870527
0.667850467499892408
0.977169026226516912
48.653612418323668
0.398408490242840641
0.307478154662020053
0.380918040037045658
0.455055682978140363
0.486829643433614789
0.484176713077693832
0.480119843029013393
0.474650812235068165
0.469703209402331234
0.465780982173880809
0.463319584872855461
0.46282722667882531
0.464450611358235177
0.464576915093396825
0.504091603426703116
0.403882166535248888
0.656229569374567112
2.3448709167784072
140.908824964925373
0.323744991345671085
0.352104676806157091
0.433271855415570895
0.493310823842729451
0.500290969078595049
0.493552239600973996
0.487182372622075088
0.480970791719014357
0.475129973837073838
0.470103955216729541
0.466442642885286529
0.465175582132070164
0.465785305548527762
0.463960009556282249
0.503147642952364138
0.402011397424819839
0.646023027550527651
2.98570255869220835
191.780665616786024
1.38671067738667353
0.633135927403188026
0.385026461774455875
0.522027204779695331
0.500641842488404043
0.513799810883388108
0.507546990566661083
0.50050418133024932
0.493229570455744282
0.485943001460719393
0.479055660071525558
0.473051118927076464
0.468362927095758497
0.46583651559150796
0.465179203862628954
0.462288337656826753
0.498156127429317974
0.411004415226138453
0.637645194450076613
3.86766275521609648
193.862429537459889
0.765159123042416511
0.596897048019724208
0.527034220509846496
0.498869150778843473
0.47719573432995499
0.469046271553350436
0.463569757534349702
0.466759476454101818
0.468177761283277705
0.464421339679266243
0.462437528514036411
0.474617826660002851
0.374378430774409299
0.631579884575764638
-4.66496149017740613
67.1782960025237088
0.535047862329941948
0.508467138895383086
0.494441990487387184
0.483771309613653111
0.475555790492488695
0.473850140157912825
0.469488714007221697
0.463049471035164861
0.46090000594324021
0.461881908674742658
0.460891222707467851
0.487826059654461908
0.35585820389655054
0.590752686988049502
-1.91449050809958421
2.97311347695437611
0.50973138283902919
0.50571109899685962
0.497956434860358788
0.488973886240097189
0.48194563656275996
0.47268817026921317
0.466038013913510019
0.463343429810217755
0.463100311568375167
0.46445987000951211
0.465536877668223548
0.496280738023394008
0.367624676917593429
0.60171427678642686
-0.997595452081980527
5.52933010282419168
0.521381275558885804
0.511523442561254371
0.505434645279194461
0.491023302615429147
0.481063284709751737
0.474524587247848073
0.47017406746401369
0.467630792300699205
0.466934342928578383
0.467412101560028936
0.468462154483323678
0.503883952921372225
0.389239317405961738
0.654121967585004627
0.0426322070010467305
46.2376687330133507
0.544397236582469857
0.556362287481914297
0.544217405036725332
0.528722696403386205
0.520682741675490002
0.504571165921336329
0.493916077095643391
0.486187803242693506
0.479775681958853728
0.474729767116988555
0.471276455057700216
0.469954336230760161
0.469837881696538506
0.469001375395034781
0.509134798911437314
0.394808360079967169
0.655065956618282041
0.367764866973085691
117.967989431129325
0.571157718743052323
0.56884146111070355
0.54844530285192683
0.536049097382975126
0.519968387697812173
0.50874449917145359
0.499521568671700944
0.491307391396098025
0.48415343680827827
0.47823435579384993
0.473787984186609112
0.471650021096971406
0.470881192752538036
0.468101505055594003
0.507732187780489008
0.397778772032957639
0.647394239150771433
1.02084684243590162
174.081883750953239
0.689444108029633185
0.614628547894523591
0.588705083772340765
0.570884673680354782
0.552214580484304163
0.53732202781412397
0.524707576455511249
0.513924274719745666
0.504155052597780817
0.495285338430931033
0.487378207799966434
0.480563281831976719
0.475119901965488589
0.471740122200245637
0.470019549931584069
0.465699090648027114
0.501593860594394148
0.404111195188569194
0.634700510758972047
1.4501728401548668
175.776170395158772
0.546269284912690001
0.518578941600229326
0.50388515270355827
0.501000544265398084
0.496118746612974004
0.497378904888697237
0.492389793107673723
0.480991060484887156
0.473238291795820443
0.469162300259958753
0.465984086863491631
0.479997706768534926
0.362572859993483598
0.641395782964298555
-1.4322622447553468
144.442629059396666
0.525191557884126525
0.517008376070928422
0.508338775329947534
0.50707646398845363
0.49758995004963652
0.484196127402330478
0.475392672528439419
0.471221864288019154
0.470182771675933031
0.470807843433089179
0.469763616152842178
0.490656181724788476
0.345643239706528604
0.59821397059111503
-2.48996982011464185
33.1020655014351135
0.53257098167947059
0.527064936790114902
0.516367655940891734
0.501344922338144983
0.489279871584929804
0.481963082820701327
0.477423174051647192
0.475073990153060177
0.474228151879714677
0.474144552182578671
0.474726737500325235
0.502477813974120613
0.369695512138522364
0.599941009605093001
-1.28058492239263466
9.0548162468232114
0.545403300401256619
0.529428524599060757
0.513467874633437349
0.502239698380000155
0.493819743248777587
0.487181589778879931
0.482198493316349841
0.479066988239501945
0.477937835838520508
0.476917703590137743
0.477398729498621999