/*--------------------------------*- C++ -*----------------------------------*\
| =========                 |                                                 |
| \\      /  F ield         | OpenFOAM: The Open Source CFD Toolbox           |
|  \\    /   O peration     | Version:  2206                                  |
|   \\  /    A nd           | Website:  www.openfoam.com                      |
|    \\/     M anipulation  |                                                 |
\*---------------------------------------------------------------------------*/
FoamFile
{
    version     2.0;
    format      ascii;
    arch        "LSB;label=32;scalar=64";
    class       volVectorField;
    location    "0.690000000000000391";
    object      faceForces;
}
// * * * * * * * * * * * * * * * * * * * * * * * * * * * * * * * * * * * * * //

dimensions      [1 1 -2 0 0 0 0];

internalField   uniform (0 0 0);

boundaryField
{
    inlet
    {
        type            calculated;
        value           uniform (0 0 0);
    }
    outlet
    {
        type            calculated;
        value           nonuniform List<vector> 0();
    }
    top
    {
        type            calculated;
        value           uniform (0 0 0);
    }
    bottom
    {
        type            calculated;
        value           uniform (0 0 0);
    }
    left
    {
        type            calculated;
        value           uniform (0 0 0);
    }
    symmetry
    {
        type            symmetryPlane;
    }
    interface
    {
        type            calculated;
        value           nonuniform List<vector> 
181
(
(0.454995792221306705 -4.04651348040625893e-06 -1.38804875042037291e-05)
(0.41807960937106653 6.9566497881589488e-08 -1.43691614789855489e-05)
(0.38163237025354968 -7.49852416347199636e-08 -1.42822327465809734e-05)
(0.345844842624368376 -4.26383394129565773e-07 -1.4272343822143426e-05)
(0.310994911524709039 -6.48020410356738626e-07 -1.38055889742306746e-05)
(0.277379517303880885 -8.61400950863297332e-07 -1.33657992480597876e-05)
(0.244666268976044959 -1.18210713206141382e-06 -1.29518024637357891e-05)
(0.212792236665297785 -1.58345011742242884e-06 -1.25448752887228428e-05)
(0.181687909212429721 -2.10620801104893542e-06 -1.22694959244314464e-05)
(0.151246821888062877 -2.7191690655017413e-06 -1.21788306894217589e-05)
(0.121338925232985617 -3.33530966187300537e-06 -1.20315742937713776e-05)
(0.0922542096872877998 -3.73299620927362404e-06 -1.17046376871811191e-05)
(0.0642073889691065769 -3.8696465579151204e-06 -1.11065355317162203e-05)
(0.0364005055959967516 -4.43212973366658492e-06 -1.0482158003866715e-05)
(0.00979795908211696272 -5.42388226533134087e-06 -9.49276580696341933e-06)
(-0.00419274211216016501 -4.12813094513492413e-06 -4.99096573388031483e-06)
(0.482872478214336487 -1.2908990101219863e-06 -9.3313702562747934e-06)
(0.445713345571301156 1.16303409052856372e-07 -9.89555985089559208e-06)
(0.408671435690568241 1.30558276014204655e-07 -9.8629609884216206e-06)
(0.371987365789401614 -1.51930683358998928e-08 -9.77892064081415875e-06)
(0.335899903224533558 -1.61130265329485145e-07 -9.66334974168866934e-06)
(0.300604372882804061 -3.31464928627579959e-07 -9.49129781131297346e-06)
(0.266119260807599067 -5.34484881509271813e-07 -9.3506490380629067e-06)
(0.232531849357509118 -7.97433812908426344e-07 -9.1878858003628002e-06)
(0.199840690974740026 -1.12197623228598943e-06 -9.01164688097592008e-06)
(0.168025443595152119 -1.50113644406543157e-06 -8.81557898846309953e-06)
(0.137071041098988433 -1.96566307038837494e-06 -8.61911981488960426e-06)
(0.106715185488656231 -2.62564214570306127e-06 -8.59925445460504595e-06)
(0.0769264548301893253 -3.1213376395179466e-06 -8.53800714748351607e-06)
(0.046671206460298667 -3.73009590691954389e-06 -8.21795040165537978e-06)
(0.0162884554405398549 -4.70216859793072231e-06 -7.64736112568561234e-06)
(-0.00280114362639561926 -4.96535709886144092e-06 -5.46865461687486683e-06)
(0.495664602036527846 -2.40293968029115683e-06 -7.56736114939001225e-06)
(0.458439265135591023 3.63749994219395393e-07 -8.16581007582836947e-06)
(0.421243079218541761 5.75892321552914579e-07 -8.1056459026537051e-06)
(0.384422697557425419 5.08066386720814227e-07 -7.99295130019458921e-06)
(0.348096542634674044 4.17809571442606994e-07 -7.98539808725190947e-06)
(0.312300850407107922 2.47847013835711402e-07 -7.93043777369492111e-06)
(0.277181693243948146 2.14979095457203281e-08 -7.83775807443162587e-06)
(0.242882285340969395 -2.43933193298811072e-07 -7.725441755072316e-06)
(0.209518963424140336 -5.70385677137269315e-07 -7.61438195851710968e-06)
(0.177148262857267702 -9.73281617304776834e-07 -7.50741405202526366e-06)
(0.14561071161330072 -1.46984720539066464e-06 -7.41524940783020403e-06)
(0.114771983762141039 -2.06557936013762449e-06 -7.32722351205625789e-06)
(0.0845292388434895903 -2.64642109416756964e-06 -7.19748753014183693e-06)
(0.0537521752428190905 -3.38345693355664447e-06 -6.94714536336686295e-06)
(0.0225716241403905553 -4.345274643296161e-06 -6.60463557583234394e-06)
(0.00164161069604890747 -4.83398101468302424e-06 -5.34318693097361414e-06)
(0.50065349321240471 -4.84268661405581075e-07 -4.78603805788911004e-06)
(0.463345578869372998 3.68290648924173977e-07 -5.45919505924428615e-06)
(0.426232465293561069 5.55999689380974336e-07 -5.34202998151422785e-06)
(0.389492166585162614 5.42231307826160396e-07 -5.30319103265111589e-06)
(0.353202924608792046 4.95449062217029897e-07 -5.31033365864108252e-06)
(0.317431797621311018 3.7904444177770436e-07 -5.33593974998214498e-06)
(0.282280054052465756 1.86640449211724855e-07 -5.32985032539124675e-06)
(0.247890899024836464 -7.28886686980141746e-08 -5.30824922388026014e-06)
(0.214399736512338679 -3.68257581922288651e-07 -5.27991808852546157e-06)
(0.181892024554298842 -6.96513301649690461e-07 -5.26142087471493673e-06)
(0.150263744249197029 -1.1548974457638091e-06 -5.24937785267437862e-06)
(0.119325880638941451 -1.79224701108152494e-06 -5.27334963462525879e-06)
(0.0889554103207916974 -2.39666144000094418e-06 -5.19245092955156162e-06)
(0.0579124563910155404 -3.1559031040616123e-06 -5.01340518172825287e-06)
(0.0263818365010022732 -4.22157189364546532e-06 -4.82905900315070633e-06)
(0.00433241514951102427 -4.8278531200135078e-06 -4.31562772083229838e-06)
(0.503358529059232396 -3.49775852866878123e-07 -3.93760106084943538e-06)
(0.466163998407842284 4.11870128209826349e-07 -4.31322098521809558e-06)
(0.429087292067392045 6.4726827573872532e-07 -4.3425755425960259e-06)
(0.392355931277005743 6.72856813109727809e-07 -4.33871437430130689e-06)
(0.356092113484444306 6.53616358797409756e-07 -4.34694723571713301e-06)
(0.320370795469096969 5.68900118253666856e-07 -4.36571070016160016e-06)
(0.285287326729969315 4.11243087478923278e-07 -4.38248552879855555e-06)
(0.250986315711201113 1.90075555622627888e-07 -4.39300576564868638e-06)
(0.217568061172319971 -8.21995125889199306e-08 -4.40538627870018007e-06)
(0.185087236192437776 -3.90305250694508499e-07 -4.41091528014018643e-06)
(0.153456111798665307 -9.82642236663049584e-07 -4.3889660454275384e-06)
(0.122389298309721659 -1.67617784068148715e-06 -4.4250495488553031e-06)
(0.0916795491763998105 -2.28131710509762539e-06 -4.30634847951868566e-06)
(0.0601614906248507247 -3.02667361326665197e-06 -4.20192375362424003e-06)
(0.0282081425735142277 -4.05816929045558572e-06 -4.08077145179450574e-06)
(0.006049014582770686 -4.76707919418369622e-06 -3.6864869882095225e-06)
(0.504543681875262329 -2.67223928842235586e-10 -2.14743774766458438e-06)
(0.467405417574400073 4.48530863665085467e-07 -2.70219357960796281e-06)
(0.4303093440961549 6.97511061435901989e-07 -2.70058169206685684e-06)
(0.393574019494197513 7.51881595662119086e-07 -2.64942914538346044e-06)
(0.357395078908068042 7.50933577854562773e-07 -2.64274523136659203e-06)
(0.321773997284129809 6.86261157997049067e-07 -2.66065340886034171e-06)
(0.286803985740033407 5.46225879827411239e-07 -2.68167479480784108e-06)
(0.252646599917354497 3.42489632583358771e-07 -2.70355312361498757e-06)
(0.219388088282004207 1.00182709950531778e-07 -2.72997603777256003e-06)
(0.187043457107488542 -3.13137086003059881e-07 -2.75969783695662864e-06)
(0.15542658403222176 -9.53264506366241417e-07 -2.7263848908157807e-06)
(0.124294524598272838 -1.65156678645509513e-06 -2.71372627942376687e-06)
(0.0934556170177027884 -2.27753592602659206e-06 -2.6263425535937424e-06)
(0.061787177135946808 -3.1496548445995856e-06 -2.52846962268730682e-06)
(0.0297985175288597477 -4.24877054611215772e-06 -2.42297665491566267e-06)
(0.00765988706666325455 -4.73723606921223979e-06 -2.27308555609639956e-06)
(0.505400278903050393 -1.1457845909662615e-07 -1.304689148815161e-06)
(0.468188884439721731 5.08988053216333365e-07 -1.63686511051381804e-06)
(0.431114154165367136 7.7252566281551764e-07 -1.62170175863905067e-06)
(0.394528369545350255 8.62527281146050151e-07 -1.61610856638017467e-06)
(0.358441941178628598 8.64333116486602626e-07 -1.63627131275563451e-06)
(0.322874478006412557 8.01697466136111106e-07 -1.66040984854594826e-06)
(0.287991684497116207 6.76452948651573212e-07 -1.68170617153796986e-06)
(0.253976047596500776 4.88883361620357068e-07 -1.70424602531952064e-06)
(0.220897176348393204 2.19639516537239056e-07 -1.73458143103214529e-06)
(0.188769320421292408 -3.43379206030114059e-07 -1.75975774610932411e-06)
(0.156961230716652023 -9.9836055672385054e-07 -1.76379092198740595e-06)
(0.125573711678512473 -1.63292283403264729e-06 -1.67005504474594897e-06)
(0.0950507476774664212 -2.17089835247894186e-06 -1.64440455504266631e-06)
(0.063746200490057095 -3.01169563036285698e-06 -1.56623569742049017e-06)
(0.0319330842614834048 -4.15014497955177768e-06 -1.41564299417827179e-06)
(0.00912272066605887555 -4.93395491830129962e-06 -1.22430885049586642e-06)
(0.505713656562658986 -1.18275064881646127e-07 -4.14496360455049912e-07)
(0.468461983486038902 5.35817871472525637e-07 -5.20905227249998566e-07)
(0.431396043750434999 8.29040388722465736e-07 -5.1376911457124838e-07)
(0.394891231924125619 9.30350026875652713e-07 -5.14844088649949215e-07)
(0.358856276327822576 9.28078409693708107e-07 -5.2201516306882618e-07)
(0.323335287217506984 8.5818994346116173e-07 -5.30955502798994347e-07)
(0.28851549803853499 7.28801587210960386e-07 -5.39330513414879921e-07)
(0.25457907405640029 5.41141967268854374e-07 -5.48803903146324956e-07)
(0.221586105134639083 2.14766272501483381e-07 -5.6099682620646061e-07)
(0.189485721023614634 -3.58691216060931694e-07 -5.64958439188677965e-07)
(0.157639383430146079 -9.98046761508062561e-07 -5.60230784512646276e-07)
(0.126202719353282367 -1.6247033363300446e-06 -5.31348789067655332e-07)
(0.0956939476141417944 -2.20783029663566229e-06 -5.22133311091567409e-07)
(0.0644680689820010533 -3.05823444752550593e-06 -5.09521952852510563e-07)
(0.03290244807162572 -4.1092783366088464e-06 -4.94605476516885505e-07)
(0.0102349530241189306 -4.64657914675271674e-06 -4.38940932500650554e-07)
(1.90114823768283563e-05 1.06153781240213612e-05 0.222686676500539554)
(1.83044872498933187e-05 -9.14734180853524192e-07 0.186460880079434871)
(1.77489007153809867e-05 -2.45136616315165078e-06 0.154766441642693681)
(1.68966834365817236e-05 -3.86698720112724896e-06 0.127214205120200735)
(1.51823736372831763e-05 -5.8131033164968323e-06 0.104177087796895218)
(1.25379622415973528e-05 -8.24675041168701336e-06 0.0830813173499653224)
(9.96440386412995718e-06 -1.04338518881272313e-05 0.0617746550464703392)
(7.94114430628295779e-06 -1.18581841149496476e-05 0.0416844826231650284)
(6.40238429360138448e-06 -1.29617929296967356e-05 0.0245720437562703328)
(4.70094765158778784e-06 -1.29032355266638611e-05 0.011604484441734203)
(2.88130960101298993e-06 -1.07029563224610727e-05 0.00381170192873040012)
(2.02311499620617791e-06 -9.64468977041627531e-06 0.000495088446464216482)
(2.99775142133102575e-06 -8.05220745742237892e-06 -0.00507299938547043239)
(4.670295906007615e-06 -8.65407377169085755e-06 -0.0248522139682764397)
(4.48713188461611719e-06 -1.06743119672016255e-05 -0.0526796836143177058)
(1.53921754647603575e-05 5.75240772614486174e-06 0.252448548761000646)
(1.47543337722295625e-05 -2.62847007196196629e-06 0.21904415242260819)
(1.38186931065525447e-05 -5.45830269819733427e-06 0.186905416301451521)
(1.18398095002290503e-05 -8.89863097262478244e-06 0.153597105705575887)
(8.43142473094372514e-06 -1.12792113145639576e-05 0.119838216267294628)
(3.73591876183129366e-06 -8.75870905579070697e-06 0.0912395721574039142)
(1.40125302293554184e-06 -6.45237603929953907e-06 0.0703572774786489219)
(2.95515459513476859e-07 -5.3732040969483797e-06 0.0537734406655881805)
(-3.3494644150467099e-07 -3.78463265695479124e-06 0.039830521686864441)
(-7.71546243414675435e-07 -2.50114552872832896e-06 0.0273402186601209539)
(-7.73949577016917967e-07 -1.35366627981428308e-06 0.0158743545178277323)
(-7.25221546098522189e-07 -2.82153825852615874e-07 0.00837858039127102779)
(-1.10537044619283211e-06 1.0306178867020531e-06 0.00273994538349120725)
(-3.06054507144678238e-08 6.43174651842061067e-07 -0.00769766011484625777)
(1.48034397891089698e-05 1.22165407975025208e-06 0.277552137110310904)
(1.36106828597507496e-05 -4.33910284850430632e-06 0.239829330294298926)
(1.21759532215794667e-05 -8.09712253325503765e-06 0.1987605891771069)
(9.45694883879590981e-06 -9.47313497008843066e-06 0.158433436587044202)
(7.20031754489387855e-06 -8.28103716416864481e-06 0.12443198107303019)
(3.68435087002296403e-06 -4.55434136045074928e-06 0.0991161776695622804)
(2.71291276114336109e-06 -4.12776834562189111e-06 0.0786088221649180463)
(1.68537374420990793e-06 -3.5574727959409955e-06 0.0587896021096720733)
(5.31542831227211141e-07 -1.62547221720923922e-06 0.0427981852709643368)
(2.58609836576171555e-07 -4.23286867696925201e-07 0.0308252471054267022)
(2.33425838376564377e-09 8.38291134099474446e-08 0.020168391914548757)
(-2.38360051417599682e-07 1.00559849093742532e-06 0.0116043049575632919)
(1.87519102148568221e-05 -2.04798065360492058e-06 0.238085782170814525)
(1.82840174995443515e-05 -6.35917016801036792e-06 0.199282725053168824)
(1.93335948594580643e-05 -9.41316205985765775e-06 0.161106499686187288)
(1.64434091535386541e-05 -8.61915035587116238e-06 0.128605063407319808)
(8.88076581975988295e-06 -4.77869733259521063e-06 0.105436488153459768)
(6.19588598292103527e-06 -3.96235211096898757e-06 0.0874951276059040134)
(5.09563611015840944e-06 -3.89676243980302399e-06 0.0668837955683156127)
(1.4245266266151491e-06 -6.96742211754112961e-07 0.0498242577712903825)
(7.89672610270491178e-07 -3.02344481853698933e-07 0.037666924645602208)
(4.5577746538352618e-07 1.12918549041148423e-07 0.0285867481576975169)
(2.76815618999868872e-07 3.83616361402909351e-07 0.022549633270765132)
(2.30683388132666409e-07 -1.33772380665000995e-08 0.017618018136179258)
)
;
    }
    procBoundary0to1
    {
        type            processor;
        value           uniform (0 0 0);
    }
    procBoundary0to3
    {
        type            processor;
        value           uniform (0 0 0);
    }
}


// ************************************************************************* //
