/*--------------------------------*- C++ -*----------------------------------*\
| =========                 |                                                 |
| \\      /  F ield         | OpenFOAM: The Open Source CFD Toolbox           |
|  \\    /   O peration     | Version:  2206                                  |
|   \\  /    A nd           | Website:  www.openfoam.com                      |
|    \\/     M anipulation  |                                                 |
\*---------------------------------------------------------------------------*/
FoamFile
{
    version     2.0;
    format      ascii;
    arch        "LSB;label=32;scalar=64";
    class       surfaceScalarField;
    location    "0.690000000000000391";
    object      phi;
}
// * * * * * * * * * * * * * * * * * * * * * * * * * * * * * * * * * * * * * //

dimensions      [0 3 -1 0 0 0 0];

oriented        oriented;

internalField   nonuniform List<scalar> 
20789
(
4.32068986484649303e-06
-4.91659792448740664e-06
-1.12575372498630013e-05
1.18534453095141979e-05
1.4937211404768287e-05
-1.14834026764503505e-05
-1.2684775576476869e-05
1.35516405328710362e-05
2.76107292682458433e-05
-1.35377107164738399e-05
-1.35156733150717072e-05
1.43798542151109425e-05
4.02488735472620779e-05
-1.34081424351280293e-05
-1.48803983303792297e-05
1.56503897039700159e-05
5.07520455384481459e-05
-1.11485091862455855e-05
-1.68841969985189919e-05
1.75295330161530732e-05
5.85400044997623573e-05
-8.33921234653236553e-06
-1.97335416066154037e-05
2.02847982517734358e-05
6.40544376089660525e-05
-5.99993776045704765e-06
-2.36645216627233596e-05
2.41500321994178732e-05
6.76857152741675727e-05
-4.22034783681378389e-06
-2.90289309875171203e-05
2.96180081587514353e-05
6.99601933264419872e-05
-2.96928972626937331e-06
-3.58936516107278422e-05
3.65884705338303127e-05
7.13140440241498197e-05
-2.60633838525780861e-06
-4.47756386213571419e-05
4.60281333910633525e-05
7.27734079219850795e-05
-3.01621503749549716e-06
-5.54997601449468502e-05
5.70566178793008148e-05
7.42995464644889632e-05
-4.87326874222401301e-06
-6.93457404592886725e-05
7.26928761672715625e-05
7.88880481449666859e-05
-7.47190958746775587e-06
-8.56093321822260075e-05
8.84927434914368523e-05
7.73927164002566429e-05
-1.14755015887176969e-05
-0.000108970419553014409
0.000121941253193631741
8.01372248939014704e-05
-1.8919326120155684e-05
-0.000133405984463014378
0.00014958079949849951
-4.55089135374423893e-06
-0.000191682698966825729
0.000276370811353606328
5.84581938020022885e-06
-1.14804881751385564e-05
-1.12693317668913049e-05
1.1987365639714475e-05
1.68343892318330558e-05
-2.34810207167315573e-05
-1.23159103936744669e-05
1.33249209296730728e-05
2.82907397488574648e-05
-2.6023011985782624e-05
-1.32085758934632573e-05
1.42375050854008458e-05
3.84875713911882157e-05
-2.45062065647675073e-05
-1.45096115790640329e-05
1.5410838988428898e-05
4.74530876261223763e-05
-2.08375910493812692e-05
-1.64811003204496033e-05
1.72046745392660775e-05
5.49539144674806828e-05
-1.64028295312197665e-05
-1.93417038496308038e-05
1.99045115357156664e-05
6.07374586940175406e-05
-1.22611092186020325e-05
-2.33289928079448276e-05
2.38066415433430556e-05
6.48409738128221107e-05
-8.83547093332304127e-06
-2.86755876607156345e-05
2.91872182743258195e-05
6.75835035475151066e-05
-6.41857508047699312e-06
-3.55796792083139807e-05
3.62864569122531614e-05
6.94229650446370576e-05
-5.57292834202671048e-06
-4.42859057893523237e-05
4.54130544789040612e-05
7.12499243537343242e-05
-6.62722452184384912e-06
-5.49982535137052042e-05
5.67823201353706252e-05
7.33865102956114494e-05
-1.00757024389290373e-05
-6.83749135743368466e-05
7.14407712218110842e-05
7.72814953031398865e-05
-1.58026896879191263e-05
-8.46329521242354503e-05
8.90687482016621745e-05
7.73507287901063577e-05
-2.28606420379084962e-05
-0.000107371072976194124
0.000118686972606513213
7.82846495688888013e-05
-4.13586171132519445e-05
-0.000130843409194711461
0.00015234876798963582
-1.11655862895155466e-05
-0.000198015017445566592
0.000282914352106776294
7.65365712192007586e-06
-2.00687782837164672e-05
-1.10734778165569393e-05
1.20080820657771535e-05
1.84808691480521025e-05
-3.54979952070537253e-05
-1.23627043833771682e-05
1.35524375418313101e-05
2.94288900001613307e-05
-3.813779395625088e-05
-1.33085026132729858e-05
1.44752472235354644e-05
3.93864813021027721e-05
-3.54556432561984141e-05
-1.45981149132015212e-05
1.55899567415243629e-05
4.81388379138597558e-05
-3.03578272861814652e-05
-1.65440443989740462e-05
1.73119312270858308e-05
5.54883833748472978e-05
-2.43174427417325796e-05
-1.9397071770905297e-05
1.99621535428982406e-05
6.11828803060271816e-05
-1.83968951889772989e-05
-2.34010498050994148e-05
2.38423559816683506e-05
6.51675774026634505e-05
-1.32704999309637361e-05
-2.87893995147886713e-05
2.92397492489774012e-05
6.7694187146974234e-05
-9.58299500607894969e-06
-3.57576774445392777e-05
3.6395504884198549e-05
6.92428626437305354e-05
-8.2030533137362815e-06
-4.45285674362346282e-05
4.56100326991253478e-05
7.0680485971156228e-05
-9.84506765511834582e-06
-5.52995902105648361e-05
5.70798229053761925e-05
7.24565073311968e-05
-1.49783777068379246e-05
-6.86696019525317953e-05
7.17962635820330191e-05
7.5831686126448964e-05
-2.38021795856862912e-05
-8.49065628491889313e-05
8.95308745739702155e-05
7.60321049556909683e-05
-3.42045233745800367e-05
-0.000107324278035540261
0.000118467734895272243
7.40795029854636705e-05
-6.00659974001457121e-05
-0.000131184126913265063
0.000151844100785516724
-2.06851657600118865e-05
-0.00019607622221055269
0.000279675297339914688
9.25557501332525456e-06
-3.04462489379003087e-05
-1.08478663017066952e-05
1.19697367551603657e-05
2.00300354508573542e-05
-4.74531733858248367e-05
-1.23810437269451627e-05
1.3561736283968249e-05
3.06068470776455265e-05
-4.97757854856162581e-05
-1.33722540220581219e-05
1.44334201782497162e-05
4.0279727967415608e-05
-4.59716390210699027e-05
-1.46453013336463588e-05
1.5488413906400678e-05
4.88356012501641267e-05
-3.9510731349876255e-05
-1.6566887301032101e-05
1.71639250958432672e-05
5.60623677202863084e-05
-3.19209414478722488e-05
-1.94222571762132897e-05
1.97990020623350419e-05
6.16523041395606079e-05
-2.42262406537828425e-05
-2.34714065717276018e-05
2.37108305442615035e-05
6.54438329535620035e-05
-1.73110444509655159e-05
-2.89477992586021859e-05
2.91968301057567358e-05
6.76123898478453195e-05
-1.22181186729155434e-05
-3.60384736702335661e-05
3.65050548760358955e-05
6.86610818626196549e-05
-1.02303376476618004e-05
-4.49383915483995541e-05
4.59169970127990467e-05
6.94947996385535561e-05
-1.24721620227737886e-05
-5.5815053029752959e-05
5.76084403837817498e-05
7.06981887638521306e-05
-1.94351065354855957e-05
-6.92076096866067324e-05
7.24609557373341709e-05
7.33571693507626842e-05
-3.1371070642281997e-05
-8.53880287565265007e-05
9.02979395313506338e-05
7.35445187159342593e-05
-4.56193237512081184e-05
-0.000107505462545973645
0.000118732908837439985
7.05354570105898142e-05
-7.74695130855815762e-05
-0.000130922318833474627
0.000151334889509288666
-3.07305674299994299e-05
-0.000194368687469124182
0.000274949540256778902
1.07952689001069735e-05
-4.22609370349678258e-05
-1.05466346953432001e-05
1.15660317175722119e-05
2.17393320975443392e-05
-5.91745011273003141e-05
-1.2183145434859102e-05
1.29603885253813836e-05
3.20718722640351829e-05
-6.06685549616852243e-05
-1.32348393625846121e-05
1.37950574779712665e-05
4.15272332621325954e-05
-5.57686081492291146e-05
-1.45573511820816208e-05
1.48989582371022055e-05
4.99690027278855669e-05
-4.80725185508327289e-05
-1.65230310318618311e-05
1.6643055637517515e-05
5.71352593134268115e-05
-3.90147646911780577e-05
-1.94352018633627659e-05
1.93627798428606794e-05
6.2627151691727371e-05
-2.9543067726547147e-05
-2.35729015689572978e-05
2.33978489838606263e-05
6.61569875778162455e-05
-2.07284980156684267e-05
-2.91766285191921495e-05
2.90642586102196798e-05
6.78106010253810512e-05
-1.40663820916196191e-05
-3.64270654009373669e-05
3.66217269486249946e-05
6.81183636434773507e-05
-1.13770118748080569e-05
-4.54946468861859972e-05
4.63335690423268682e-05
6.80912412932154116e-05
-1.42971234555039125e-05
-5.64941549468552374e-05
5.83462474025474233e-05
6.84547565513893177e-05
-2.32769537893286675e-05
-6.99129144297679133e-05
7.33912514178074876e-05
7.02593925920822626e-05
-3.84952215697911975e-05
-8.5985350668015944e-05
9.13048656494129692e-05
7.01342795287298373e-05
-5.69215618528328332e-05
-0.000107728805812892984
0.00011915615326843017
6.64395795611098837e-05
-9.41516312645388653e-05
-0.000130426026518001229
0.000150802839587138403
-4.15263441394524241e-05
-0.00019285396150926559
0.000270089313140241271
1.2557475723462683e-05
-5.52880898842385645e-05
-1.01052367486169053e-05
1.057489496203543e-05
2.38228927774597582e-05
-7.04517938277239667e-05
-1.16545503361171968e-05
1.16664084413750241e-05
3.39045121992372805e-05
-7.05806203370767558e-05
-1.28036735705201447e-05
1.26341109199640889e-05
4.31387385069661441e-05
-6.46835623404812726e-05
-1.4267655661657997e-05
1.39483835709212725e-05
5.15195359916405222e-05
-5.5965722086980389e-05
-1.63615831660162278e-05
1.58739956882326372e-05
5.87027261500256699e-05
-4.55745852118124415e-05
-1.93932965472809013e-05
1.87699365894519185e-05
6.41377758589599904e-05
-3.43302815349909768e-05
-2.36648417441861963e-05
2.30170160805280563e-05
6.73643010686692363e-05
-2.34714230634472366e-05
-2.94320822396133656e-05
2.89484915822825381e-05
6.83449701871789619e-05
-1.5000341325982034e-05
-3.68776193201573928e-05
3.68309180669194205e-05
6.76792572985044971e-05
-1.14876294530978331e-05
-4.61427479196019019e-05
4.69190862926275532e-05
6.65144440466935603e-05
-1.51347600228885074e-05
-5.7294019316851623e-05
5.92964756713443096e-05
6.57738134385535167e-05
-2.63552583202288627e-05
-7.07348837326062901e-05
7.45538225230244519e-05
6.65162153974999511e-05
-4.50748297054656103e-05
-8.66670104140820202e-05
9.25042166003462683e-05
6.57998359386071925e-05
-6.79190293133203916e-05
-0.000107918550520583228
0.000119632394851336058
6.09773117500021043e-05
-0.000109843064325130887
-0.000129796976016311691
0.000150310929696179704
-5.40924027674981962e-05
-0.000190135236165580359
0.000263678602822076536
1.46235261178811358e-05
-6.93605833095246107e-05
-9.45094078966988454e-06
8.89989271269198605e-06
2.60995731097581391e-05
-8.12448834415340084e-05
-1.09794897996293637e-05
1.02965189349677147e-05
3.57925054257380042e-05
-7.96430082291311992e-05
-1.22773123196312654e-05
1.1646761821425576e-05
4.48095304531017833e-05
-7.29999977220567028e-05
-1.38816547874654997e-05
1.31810660242383562e-05
5.32489679928881864e-05
-6.35700261723134649e-05
-1.60943463555514599e-05
1.52592186229327802e-05
6.06129207500060262e-05
-5.20321139800603339e-05
-1.92450199661986497e-05
1.83386037016314197e-05
6.61163060799102256e-05
-3.90018307660066347e-05
-2.36505324240844846e-05
2.28187039219202012e-05
6.90553970750298343e-05
-2.58502494607917265e-05
-2.95827027660220718e-05
2.9022444792769305e-05
6.9225189240971623e-05
-1.51426788531363038e-05
-3.72416116030242455e-05
3.72141627969598319e-05
6.73558096758937496e-05
-1.05266765338729181e-05
-4.67474368934911162e-05
4.76558689264940344e-05
6.47937748444476249e-05
-1.48420773611795194e-05
-5.81009180647767368e-05
6.03702746779353444e-05
6.27201602544623111e-05
-2.85066621586432456e-05
-7.15725759403698978e-05
7.57975967524709309e-05
6.2174071681428674e-05
-5.08958077969528567e-05
-8.73568763302236191e-05
9.37239429729994457e-05
6.06379205240567288e-05
-7.84177377260871059e-05
-0.000108063815880319073
0.000120098673928593975
5.47188010000814894e-05
-0.000124593220824989443
-0.000129087905494471321
0.000149757179314262206
-6.91531743261573846e-05
-0.000186852879666800332
0.00025663244948580027
1.66713662897979823e-05
-8.431732903294973e-05
-8.7646666491356419e-06
7.05003437116757076e-06
2.79449180779506227e-05
-9.183429753394704e-05
-1.06386357990697024e-05
9.95448869152063378e-06
3.71670072852123488e-05
-8.85005152950405069e-05
-1.19675553651689282e-05
1.16029694990746424e-05
4.61277199211612398e-05
-8.14457285104453729e-05
-1.35181413225314632e-05
1.3003160871402922e-05
5.49090799456987416e-05
-7.16829734754404309e-05
-1.57326014915960846e-05
1.50641933852897545e-05
6.2752991449956596e-05
-5.92521859050603426e-05
-1.8953159486196354e-05
1.83293254888379529e-05
6.8553646562360325e-05
-4.43947819727175173e-05
-2.34234983024113025e-05
2.30157994324694405e-05
7.12902987909026813e-05
-2.85185549492611665e-05
-2.94481140844555394e-05
2.93797714062876339e-05
7.05160037776678085e-05
-1.47956578340127586e-05
-3.73009009255606677e-05
3.77281783714260706e-05
6.71482561990086377e-05
-8.43366487792894336e-06
-4.71235665525185929e-05
4.83983056851721821e-05
6.29045741835499285e-05
-1.31761131336169433e-05
-5.87894716459225287e-05
6.13671920182903168e-05
5.92586751634735308e-05
-2.94221841041991443e-05
-7.23862007062334606e-05
7.69476229393512327e-05
5.72254353354849612e-05
-5.56771448255165109e-05
-8.80965401722409128e-05
9.49111169718607454e-05
5.47139356172511712e-05
-8.82617036381886906e-05
-0.000108271210031570404
0.000120626675026590309
4.8019901745589002e-05
-0.000138628711170101854
-0.000128442895042900812
0.000149172418228375096
-8.76813987376288419e-05
-0.000183026414695915769
0.000249574538966713456
1.80963578713005741e-05
-0.00010066373625561612
-8.79031590831437717e-06
7.04035725796158381e-06
2.86432667217400821e-05
-0.000102816025416578496
-1.08787940013171195e-05
1.13136074926001288e-05
3.76360138808991396e-05
-9.80448430075683049e-05
-1.17426005125387064e-05
1.22941793574545504e-05
4.69834137742270201e-05
-9.07946883459864913e-05
-1.29519520357866044e-05
1.29535135149337575e-05
5.65488489116764293e-05
-8.09905676365726425e-05
-1.50971705466943762e-05
1.4839332863261473e-05
6.52717509143407643e-05
-6.79604067806779282e-05
-1.83656876774521914e-05
1.83510100550310818e-05
7.1602449802744608e-05
-5.12168746170165389e-05
-2.27575115439157869e-05
2.32489081192689327e-05
7.41903175995680162e-05
-3.20422023762709427e-05
-2.87082285032902507e-05
2.96440101846377294e-05
7.23335675443589893e-05
-1.4206580347321895e-05
-3.67574169570477737e-05
3.80250911880002619e-05
6.71259187951549538e-05
-5.03473892998622282e-06
-4.70728405428752307e-05
4.88815648368997544e-05
6.08015743986134335e-05
-9.67828432200085024e-06
-5.92835114716179561e-05
6.21100281126146802e-05
5.5299387962533112e-05
-2.86817412165894407e-05
-7.32392276485178289e-05
7.80009715061439225e-05
5.16836342270198603e-05
-5.92224104455655389e-05
-8.90650964805841168e-05
9.62261156585679517e-05
4.83116251996122673e-05
-9.75475107514256159e-05
-0.000108722469013319847
0.00012138028515061248
4.15443644711962053e-05
-0.000152554385739223471
-0.000127996542950932572
0.000148689478187192885
-0.000109411268108021895
-0.000178911638413687172
0.000242185871220664336
1.74698943054234455e-05
-0.000118272566728092401
-9.71490664503555782e-06
9.85383816220188241e-06
2.68112122735576568e-05
-0.000114433097363031422
-1.06034129854435335e-05
1.28791643459564976e-05
3.58715431477056202e-05
-0.000108693595928619803
-1.04169150273006608e-05
1.20053367122352687e-05
4.60701190847667171e-05
-0.000101598600992917811
-1.10010484017496749e-05
1.16063865009541616e-05
5.67022080015101336e-05
-9.1536594889108161e-05
-1.28470398465943714e-05
1.2760980279392812e-05
6.67572849823029992e-05
-7.76142801250858261e-05
-1.56504732857317906e-05
1.52492715296379643e-05
7.42306660366685248e-05
-5.87965261110070386e-05
-2.00863262956910388e-05
2.01925979785293394e-05
7.72162268995801258e-05
-3.60685398738641409e-05
-2.6129201598358365e-05
2.7169978958099274e-05
7.40201476944613832e-05
-1.25635031267809548e-05
-3.48562449429450091e-05
3.64092474161832204e-05
6.67447173537920194e-05
1.99170825703642211e-07
-4.62857437480326993e-05
4.83272646086200494e-05
5.79546008050910833e-05
-3.67048712597708516e-06
-5.96531706374761673e-05
6.24354899000613623e-05
5.05891271179729807e-05
-2.62165648471468873e-05
-7.42588378784436894e-05
7.91591347536529981e-05
4.57280435481943e-05
-6.18861438391814613e-05
-9.04051980592290914e-05
9.79300147196487101e-05
4.1837118985065818e-05
-0.000106608960538173936
-0.000109487342117415334
0.000122439716912437169
3.54708777267999102e-05
-0.000166936162036090372
-0.000127856883128064144
0.000148604901294842594
-0.000132386762617677493
-0.000175049105247615836
0.000233495477261903486
1.14164894598162279e-05
-0.000133284799830925456
-1.04843581126928438e-05
1.4080099528127958e-05
1.71579168509931356e-05
-0.000122996550744347913
-7.30913402050854015e-06
1.01311595065913407e-05
2.46460082005120612e-05
-0.000112703571969047234
-5.47944849517727537e-07
-2.93016952395570347e-06
3.48953849480221183e-05
-0.000103641613303230053
2.33900008343291214e-06
-1.05453626520153274e-05
4.58823220460595168e-05
-9.22517118742234229e-05
1.43278947077839214e-06
-1.17046077014250721e-05
5.6919388218103052e-05
-7.90224346142193862e-05
-2.78544110994982165e-06
-6.84346932799362556e-06
6.76783488324343989e-05
-6.21135974930471513e-05
-9.89431179164411897e-06
2.45242306812521164e-06
7.44604904456185404e-05
-3.87296102929788472e-05
-1.98303020178266395e-05
1.5709230894892627e-05
7.1647084823375456e-05
-7.9969737652148612e-06
-3.11375012376972663e-05
2.93843773265582281e-05
6.26606170849810411e-05
9.15094960195921882e-06
-4.49716439504644174e-05
4.50063323629481873e-05
5.21462954707009577e-05
4.64096500592898944e-06
-6.00848153507549057e-05
6.2287683899088831e-05
4.3260252658916957e-05
-2.22606884548000252e-05
-7.59166499626735223e-05
8.08468154031750257e-05
3.82515896799341242e-05
-6.52061948502110923e-05
-9.25937902417685874e-05
0.000100922503927210975
3.42992392555352901e-05
-0.000116485791918017362
-0.000110999820947387624
0.000124829003549056469
2.89826013687746472e-05
-0.000183411796004220461
-0.000128774460839764174
0.000150566733733212515
-0.000155764483547269657
-0.000171285699606542997
0.000223646022389457618
-4.21878647368437775e-06
-0.000133457982824197101
-8.53014637649587464e-06
1.2922116325503308e-05
-8.60827618049723355e-06
-0.000112168891661127231
8.5683598527374858e-06
-1.50065222502966481e-05
-1.00401833831970677e-05
-9.04240539596088083e-05
2.54172242896344699e-05
-4.62648265107818015e-05
-1.14513646834120791e-05
-6.66464015753789191e-05
3.97182884177829578e-05
-7.53023093676902569e-05
-1.35008066144533846e-05
-4.37828162517041894e-05
5.00132542521359775e-05
-9.6432700019370406e-05
-1.43906817800813953e-05
-2.92768509413542273e-05
4.66710301502172779e-05
-9.55267341157684256e-05
-1.56700634853566649e-05
-2.02750146114077782e-05
1.77661902419928394e-05
-5.83253895446719182e-05
-3.32192850591102361e-06
-3.26370671187455313e-05
-1.63635619759082651e-05
-2.07711544178616303e-06
1.66930961154656003e-05
-2.1065325179208446e-05
-3.54671327324438285e-05
2.85204592661619165e-05
2.87482813781515627e-05
4.98329677558291204e-07
-5.08200275473864077e-05
4.74174605415019173e-05
2.94102471264876133e-05
3.99672142986195588e-06
-6.54063714065521639e-05
6.53886472937178576e-05
2.32694217960282098e-05
-2.14081284633797406e-05
-8.16470783792605737e-05
8.69353423688335673e-05
2.00840200017483311e-05
-7.34185523274009455e-05
-9.91015115995282428e-05
0.000110499270724616865
1.94427986589854335e-05
-0.000133934785446009497
-0.000115945300310314663
0.000134035516258492349
1.82306605164039552e-05
-0.000208125781145840832
-0.000132721025897060435
0.000158647150569401796
-0.000184042644740794456
-0.000166640667548483061
0.000213149490370364826
-1.68561138701922663e-05
-0.00011975470230188366
-3.02688219438467173e-06
6.17972832197355005e-06
-3.21649936601414924e-05
-8.34384197631013631e-05
2.28623492285400266e-05
-3.62839120457848408e-05
-4.2432900029189106e-05
-4.87755404792953587e-05
4.76984613537089283e-05
-7.90790365693295615e-05
-5.45911184252722263e-05
-4.87017507291436251e-06
7.14677687591561448e-05
-0.000121085744649305729
-7.37115295179068301e-05
3.78354259260163593e-05
9.21884964449294148e-05
-0.000154686302612857233
-0.000103974533109279734
6.83868737789305363e-05
8.84760795514281462e-05
-0.000155876785673964171
-0.00014952137092592632
7.72644734816676213e-05
2.98885452876529987e-05
-8.18811857806722292e-05
-0.000185766049826531867
1.03743236621649465e-05
-3.05097117652478542e-05
2.37430068866527771e-05
-0.000182499764335304062
-3.54526621334441011e-05
-5.96237890038485652e-05
7.07448417287004382e-05
-0.000141084749689401412
-5.27951369691838368e-05
-7.83227366969845842e-05
9.02011853828389482e-05
-9.38290656223894794e-05
-5.75208057175843716e-05
-9.45950182480036515e-05
0.000108856858411042148
-5.73220066067439582e-05
-7.5412027687551432e-05
-0.000105410778662622874
0.000122907617545002745
-3.15923757942592956e-05
-0.000120926396162082564
-0.000116817994087224663
0.000138596207247929944
-1.37375355738215258e-05
-0.000179426851321583432
-0.000128276149971346353
0.000155913376914056697
-7.54853765090105312e-07
-0.00025448016994169089
-0.000141137014791964177
0.000174508723470423709
-0.000226074523712406061
-0.000159493253520963553
0.000200770280471922289
-3.02694856068802766e-05
-8.7012256054475501e-05
8.72227559965522447e-06
-1.11952034756534478e-05
-5.46394240090682158e-05
-3.49116127426110905e-05
4.4727656940261488e-05
-6.88844617917088624e-05
-7.04743109980619147e-05
6.70873819975286237e-06
7.37199089751496966e-05
-0.00011336923485287069
-8.30679324627948946e-05
5.76509323595605612e-05
9.89194154578908473e-05
-0.000148846837260112645
-9.71369545810457191e-05
0.000103604164306523769
0.000113668765380716796
-0.000165368432176390479
-0.000122108968970129696
0.000152842961627227972
0.000108558201798463478
-0.00016804224136050816
-0.000165366632577098113
0.00016872298309874556
6.03840613386753328e-05
-0.000108584878911465664
-0.000202891691168728417
5.08387079310585453e-05
-7.45252219055205926e-06
4.51321994161388762e-06
-0.00021707470672768404
-4.11510894187186991e-05
-4.05287781250615386e-05
6.04102279932720339e-05
-0.000226472611792178031
-5.84390990951365839e-05
-6.95887691038652692e-05
8.46306331530355833e-05
-0.000208907693585147687
-9.1336986536587686e-05
-0.000101074799434347159
0.000117326058956939138
-0.000163898757289492855
-0.00014004411336770127
-0.00012035324874397021
0.000139976396998759539
-0.000110383492823714241
-0.000200253911228299476
-0.00013368676155881275
0.000159499012590704479
-6.53804964205252658e-05
-0.000257235158512132429
-0.000143771352670350825
0.000176576664867450983
-2.89793369596092983e-05
-0.000329996229859935057
-0.000150670443397976829
0.000189785345870200739
-0.000291244613792117737
-0.000149557509461108911
0.0001857482649133239
-3.79542310388824322e-05
-4.0599083707009093e-05
2.28908087157459504e-05
-3.13496789020056859e-05
-6.75197484047455947e-05
2.51485964598272319e-05
6.83296804233080046e-05
-9.88242505853950188e-05
-8.4668929158750601e-05
6.45733411905493986e-05
9.86487167687838742e-05
-0.000139364023689866342
-9.77015223647944778e-05
0.000113127903936266309
0.000120502609913446915
-0.000162946883915316939
-0.000113244845960266399
0.000159125145921695007
0.000126006971935884598
-0.000165984547316014899
-0.000145656650205319493
0.000226912563265266526
0.000104630554174614963
-0.000146288286448757407
-0.000180632768549472098
0.000242126724080717862
4.74295994977009486e-05
-8.5857163073522989e-05
-0.00017610992262062083
4.79408593455760067e-05
-1.22480133652056863e-05
1.06230612064393408e-05
-0.00017164321269760055
-6.64704495140076195e-05
-3.79095764408723902e-05
5.87622391210341824e-05
-0.000189297033944276264
-5.47451618850881578e-05
-4.46502038963220008e-05
5.86100867369699653e-05
-0.000214983089029051382
-6.12778269624752125e-05
-4.72438215308584389e-05
4.28707127307633524e-05
-0.000208286785002345155
-0.000109721573932490524
-6.9293222366857189e-05
3.2274376367908027e-05
-0.000172830783386425699
-0.000221873396449004628
-0.000113503300392786181
9.96667859272852108e-05
-0.000122130836012373557
-0.000321465869238568005
-0.000145344383892831989
0.000158875150277950023
-6.04047459256691865e-05
-0.000430118021107869959
-0.000155057346469075438
0.000193453050903593656
-0.000382353967007015034
-0.000141881593178795531
0.000172586203393752569
-3.45680138267389804e-05
3.03164156290292123e-05
-3.65523797684764572e-05
2.05018694017825801e-07
-5.87833495068023951e-05
7.59688841862757791e-05
-0.000102709803032164266
7.61050353696880039e-05
-7.51710924306000009e-05
0.000100663878448808766
-0.000131023442871865207
0.000111320812816901281
-9.21678253310986303e-05
0.000116689549469406586
-0.000148333981414544444
0.000161769219139657459
-0.00012165391211489923
0.000117186376764730226
-0.000147049291890952877
0.000218474275141899033
-0.00016575089249944321
8.64774810404544915e-05
-0.000109176598965834341
0.000293708773327094202
-0.000186349570970327619
2.91858784050272294e-05
-4.23878586807326441e-05
0.000275927485481710906
-0.000145861783771954651
-2.24627412879041776e-05
2.47854802786115459e-05
5.13040290708280562e-06
-0.000130382358142514058
-4.76253189792683382e-05
5.61262544766950375e-05
-9.04507897669906864e-05
-0.000131721980835995222
-4.5698196431920475e-05
4.97194538187101259e-05
-5.7426797841632132e-05
-0.000160268050880160875
-6.52235686413596893e-06
-6.95070506756309656e-06
-1.9258700455019688e-05
-0.000180096496680478353
1.86594592538199085e-05
-7.62696383695184448e-05
-3.22829431142323674e-05
-0.000184748278155687706
-3.35100801470142247e-05
-3.99088274069796193e-05
-0.000143802686916799486
-0.000156016379784130148
-9.25768994582749943e-05
6.53570694996719048e-05
-0.000322977920106787319
-9.00083402686286451e-05
-0.000141157067694262323
0.000137521128326440362
-0.000143623840303085093
0.000165693381033534952
4.02698437132992854e-06
-5.04717728953481811e-06
-1.02373645820204915e-05
1.43298924339161354e-05
-1.14209754481008997e-05
-1.15667338473017693e-05
2.65991533001892888e-05
-1.33356119503385271e-05
-1.24493379571335431e-05
3.86477494716180246e-05
-1.30745863461375069e-05
-1.38544128732227047e-05
4.8336868874090602e-05
-1.07307463404475167e-05
-1.58425652502618548e-05
5.51311808466680559e-05
-7.94815321362033812e-06
-1.85796895046153392e-05
5.94830732121195532e-05
-5.72707299569300017e-06
-2.22893276063539706e-05
6.18078138709345537e-05
-4.11051778228904257e-06
-2.72431401473073062e-05
6.25661935750367883e-05
-3.08810963545111157e-06
-3.35639086330922598e-05
6.22143432905508773e-05
-2.88046178120809096e-06
-4.15433145244053524e-05
6.14169213399634925e-05
-3.50792644015799165e-06
-5.11944013286929733e-05
6.04635407849505051e-05
-5.3424909586283677e-06
-6.3049861552466358e-05
5.96387114853096876e-05
-7.67058132384347964e-06
-7.71139189279244544e-05
5.69675996335900539e-05
-1.16883904388700579e-05
-9.46109198464748993e-05
6.00604496361636063e-05
-2.02303990651135124e-05
-0.000116268441295979365
-7.92153673183376061e-10
-0.000131621464046372975
5.55500805937593427e-06
-1.17419681403955445e-05
-1.01295813744532049e-05
1.62059878895628118e-05
-2.32750616219354561e-05
-1.111283283972778e-05
2.72196638369430858e-05
-2.55079218276800038e-05
-1.20499558627343615e-05
3.68475667892581069e-05
-2.37739024238608789e-05
-1.34381980846623939e-05
4.50934232770570576e-05
-2.00108066530212887e-05
-1.54468857077249605e-05
5.1696278384416323e-05
-1.56621125872017382e-05
-1.82305837418132827e-05
5.64073134430916219e-05
-1.1778769223650039e-05
-2.1988314920950808e-05
5.92762729452569516e-05
-8.73067789743650814e-06
-2.6924371286543826e-05
6.05932803846347747e-05
-6.77259124320304975e-06
-3.32121902569802616e-05
6.07997577354354172e-05
-6.35229916929470732e-06
-4.10205316492608671e-05
6.05438863692671201e-05
-7.75060748373145032e-06
-5.04996884362951388e-05
6.00652224017498163e-05
-1.13139617995567984e-05
-6.19247697024667058e-05
5.99634726074962644e-05
-1.66913211044765417e-05
-7.55104595556801858e-05
5.67512750832753105e-05
-2.3554432517420979e-05
-9.22928364561412522e-05
5.64178589198413506e-05
-4.01213987934617586e-05
-0.000110618999687430713
-1.92601797584665173e-06
-0.00013967193840606703
7.36811574062227079e-06
-2.04056692674847262e-05
-9.77791875541403602e-06
1.78305262263036891e-05
-3.51307373470103844e-05
-1.09694622857155616e-05
2.83321313521962359e-05
-3.73166664873450632e-05
-1.20013739476644842e-05
3.77125197032301111e-05
-3.43009968883562202e-05
-1.34514079718908761e-05
4.57265100396764165e-05
-2.90683931356201988e-05
-1.55004389947852365e-05
5.21608353486851373e-05
-2.31783885981592365e-05
-1.83151079178916233e-05
5.67684754049927934e-05
-1.76879975280203621e-05
-2.20994480421788511e-05
5.95093416690961483e-05
-1.31982199756058118e-05
-2.70627112927515452e-05
6.06195181714589033e-05
-1.02581350624524388e-05
-3.33822986939112185e-05
6.05497427822016034e-05
-9.58833111642013932e-06
-4.1222749161339883e-05
5.99571899830379502e-05
-1.17297894762331334e-05
-5.07278454425263685e-05
5.91600732791484787e-05
-1.70267609282100488e-05
-6.21596789429826714e-05
5.86854052921214356e-05
-2.53838755665611388e-05
-7.57393380010928544e-05
5.54890298341208815e-05
-3.52024458623627563e-05
-9.24798914071904733e-05
5.2721091968455467e-05
-5.73246188162840039e-05
-0.000111212973537090412
-6.87417042579844115e-06
-0.000138406981851910122
8.96787537830295021e-06
-3.08015860757556741e-05
-9.41984762074638548e-06
1.93709916415142534e-05
-4.70013040494653733e-05
-1.09136128401745735e-05
2.95049487678727418e-05
-4.87384485977141105e-05
-1.20844377010887336e-05
3.85886517813895859e-05
-4.4436132263142251e-05
-1.35938674176672725e-05
4.63767336966633111e-05
-3.77672292613587371e-05
-1.5656124452568172e-05
5.2653559879274282e-05
-3.04066697104331906e-05
-1.84707907204075919e-05
5.71274250183041987e-05
-2.3370061125914458e-05
-2.22631968470690643e-05
5.96597333722469696e-05
-1.74262169948059253e-05
-2.72521007540163726e-05
6.04227964692083879e-05
-1.34411930429437168e-05
-3.36184699828585956e-05
5.98909032913702208e-05
-1.24751847679029023e-05
-4.15196362084297563e-05
5.87677536415678414e-05
-1.5337532333449503e-05
-5.10841524863498418e-05
5.74803255366657581e-05
-2.24088229631728346e-05
-6.25381136291366615e-05
5.64719372173851496e-05
-3.36621468503812244e-05
-7.61013669584950121e-05
5.32937046965911056e-05