/*--------------------------------*- C++ -*----------------------------------*\
| =========                 |                                                 |
| \\      /  F ield         | OpenFOAM: The Open Source CFD Toolbox           |
|  \\    /   O peration     | Version:  2206                                  |
|   \\  /    A nd           | Website:  www.openfoam.com                      |
|    \\/     M anipulation  |                                                 |
\*---------------------------------------------------------------------------*/
FoamFile
{
    version     2.0;
    format      ascii;
    arch        "LSB;label=32;scalar=64";
    class       volScalarField;
    location    "0.600000000000000311";
    object      p;
}
// * * * * * * * * * * * * * * * * * * * * * * * * * * * * * * * * * * * * * //

dimensions      [1 -1 -2 0 0 0 0];

internalField   nonuniform List<scalar> 
7236
(
59.548118969807696
201.102124250041072
321.20863971443498
327.740113235884337
306.156975731650164
297.272950732356549
293.713605584181835
291.166654211385719
289.394481410553112
288.901346826241763
289.97001477328331
291.844211072778933
294.605008845824671
295.525521208823022
293.124978945511373
288.167189610071489
282.588453476610084
276.571426419668001
270.826277206638792
259.334450526553439
248.714810567295217
245.769961458663147
246.671063220129724
233.297151174889962
218.946379917380682
213.68226970826754
215.80879641181329
206.076038322291225
195.709597874953943
185.496471694244036
181.401815162786363
177.433570804664015
166.599574807696399
172.203835312846962
294.090502229011179
695.338763042208257
1576.75968099194097
2504.43925848949357
9.78586837443208424
93.3266089910692216
179.761790816253438
186.184649984074156
173.977572237831936
170.547371151816435
166.419475784635296
165.904067364277495
165.152933220635106
164.884085008521168
166.395410559017051
167.71086194679711
170.629250073863489
170.68551213400346
167.222459212759816
161.226777782615613
156.186636444338319
151.661517552266417
148.18411674348738
132.708044482446383
122.15180129638145
124.810984223210653
130.816635376449483
107.596155899886639
91.2524618980255013
90.7430888891433369
99.8825774184530815
84.0295655507256356
77.2300392548531818
64.4645444625943753
60.9056091505463542
57.9501191906590805
47.0955254464295763
34.2332849046807297
60.8121172732939499
267.419532444795834
1091.27911484641299
2296.42776927026716
9.99928036624436345
50.4521767852788514
95.3804300047397788
94.3582563917962318
85.6244518202407221
81.4983251111398488
73.0535126427516275
66.2504835408198858
60.3781147541238852
56.7095606583164908
55.6413831870322326
54.8802280162947511
56.294404854516273
56.0283570000990494
53.6278391525603695
49.7039363631496087
47.0062912117995211
45.524637794248008
45.3001928858298015
35.003902159586886
28.0004006413646209
32.3883491871617082
39.6680904514907127
22.9527220595190897
12.9766640879358945
14.6843838062953438
22.3465983965738388
11.8959427998371581
11.0594089718866897
4.67764829380624647
1.6312233457301728
0.686346543255478281
0.682052381468879254
1.1966036140220242
2.73235474291502145
46.6302717989634701
458.803618807576242
1691.33880669901419
0.410080223654556875
30.926252048751671
53.1879810843585901
54.0803407444273674
50.9325813155197693
46.5904872028949697
38.859600517238448
28.356224902393997
19.7696645192341549
14.4288400074372198
11.1338369385129283
9.08802020578994707
7.86908730689765434
7.22374840197704415
6.72639934443615317
6.29081835197653128
5.53107959513142511
4.89045826889586444
4.173870122045785
4.35118603694762562
3.88985700963799763
3.10899934809911782
2.3316879972756408
2.75822321963587358
2.40599615328045946
2.05532420587380571
1.75780443002365638
1.99436798084581923
1.64626043172894865
1.60180780612835605
1.34925754329689296
1.28148776821497035
1.32979199260673653
1.56091732240428316
2.10602783430492968
6.00252216406822736
131.852793910284561
994.406541500822868
-1.77912380520644708
24.3752369877834312
37.6155605136311024
40.4222390033150276
42.1570326639810347
39.8692494635303873
32.737867209401287
23.5684358227105797
15.960566462635196
11.0732699707896352
8.1149642076650359
6.31655432986458809
5.30459616096680175
4.92617829750340341
4.63869095769330464
4.18472757972951559
3.66860907014869309
3.30531507324196516
3.02446979072660715
2.92616367683375378
2.7738703156579847
2.50198981568072121
2.15009731694403827
2.04576706540456676
1.93403658665932587
1.81441927189626684
1.67808721873437827
1.62495643047557881
1.47699578899994366
1.34243079167839641
1.2150506087852051
1.1494299514740618
1.19201082079425102
1.38858785017507236
1.70908230572614994
2.70947524945708196
33.6238420816120112
528.34152797326783
1.45224771671615871
22.1849422419479509
29.6263316498440581
34.0041136355044245
37.7256108401000674
35.7403820714625056
28.6857928327074276
20.2532248589301851
13.548158009626011
9.34851788817342211
6.73285815057616244
4.96096399538870614
3.96607708915943613
3.68752713569583523
3.52616910213265644
3.16965736281821897
2.80153388393705738
2.57465592134840859
2.42456278069536069
2.34899376907729529
2.29949972115236756
2.1491098072292214
1.9123467817587334
1.76554784568188272
1.69867937984638662
1.63231716192804122
1.5483195107067238
1.46719541615911142
1.3517705237903348
1.20868254372586703
1.0774088949393068
0.999281179720805879
1.01902936091523255
1.17091154095964578
1.41190669041840122
1.91399024529036343
7.58126212690052981
266.687447490337377
9.71934824951716614
20.4809150967282108
24.1416980924007483
30.0829935723146882
33.7923823677480968
31.1399704758710314
24.0455488785374172
16.2535728654730818
10.421178853540976
7.02290743758697378
5.09977205009480183
3.80580922565175639
3.0750600952890137
2.88126706880418659
2.78872130012915331
2.52661028642922636
2.20787274827930124
2.05616743764829346
1.98282967410558864
1.94584498816900675
1.91166466867567086
1.8060697619088617
1.65613084848519265
1.55933560631721324
1.51783667847723036
1.47876490745111244
1.42316307842494716
1.34696320345610454
1.23479168705979103
1.08447567904048459
0.934961766180701481
0.843460623152439859
0.849796889708163805
0.968236545366335966
1.13558268726932887
1.34027986525157594
0.853593991190108703
129.94062659790643
16.9972064263061071
18.9627399394716569
21.2826397770761666
27.0779690958316728
29.3115233867647618
25.5191765586754045
18.3329306824722025
11.447545457307303
6.70862768572629342
4.32494089780849666
3.23617646570916584
2.63268193617348345
2.23291497542334305
2.03698518969642173
1.95344662025070992
1.85510326667413761
1.70084748547924836
1.64842803889116629
1.64094486823743946
1.61976383172829275
1.5592256529660653
1.48210018548059663
1.42408118544906714
1.38959592042469926
1.36902822105910849
1.34723485178931224
1.30944853002612538
1.24560718628448308
1.13853441301188063
0.974928153531426922
0.793102726412354908
0.676483873812376291
0.676237112923146033
0.778019920429909972
0.858701350199073454
0.951073221495297272
-0.25968730699116449
68.6817903433685615
18.6017676855359326
18.2950374878930546
20.5470414167961408
24.4625136852115403
24.1767076839563124
19.069102064051787
11.939402011261059
6.3148900559875969
3.22610163757847079
1.9820547363252139
1.63960195318492818
1.53164042620479268
1.42097692331091352
1.20129415627857483
1.1604280420556492
1.19371646128710918
1.25354108443367585
1.30822499147894478
1.35405992165405786
1.35501261631355097
1.3087523138981787
1.25657972960549724
1.23526610063037601
1.23276857389480599
1.23038692585376053
1.22526265384816369
1.20446262721552477
1.15202797185808747
1.04400179946662175
0.857899478050413
0.634060814627992464
0.482455568164991133
0.493303907042335288
0.59483292343442562
0.599271547579042663
0.653665160306738491
-2.24491118210642071
47.6631682859096486
18.8763495182983903
17.8048956038803858
20.0254436810201213
21.5142574331168888
18.719544524576488
12.6382823557393955
6.15261285099099808
2.35198906136955976
0.959535480040785593
0.533239283846271839
0.528180258641642197
0.60446631093447678
0.647982659457609245
0.540224687004075221
0.60614289950682565
0.761068594747750016
0.924017702675790531
1.03802560941511146
1.10596675726345395
1.12643462666796101
1.10908280390627856
1.08487618041808842
18.4384298671007407
17.7318058912602687
18.4839836548824152
17.4922775043339342
13.5146217895002891
7.14413615259845258
2.4221975048576887
0.269721112269256658
-0.317846539286497531
-0.380890271420842641
-0.288711550264969752
-0.14636209429835656
-0.00446868984645920619
0.0973318732557331145
0.241076248758421929
0.463145211424969006
0.656297553439842307
0.796594924316854636
0.879772966735609119
0.91676811873828945
0.924602381295660081
0.925824363436596132
17.5498081116485949
18.0096631976741364
17.1561650872507201
13.3790804093382221
8.45797718412427457
3.22100874857211217
0.428309897359317127
-0.791240492624982306
-1.10630078387841113
-1.05628169339898337
-0.89081856797924619
-0.697454892083376077
-0.47495664022620776
-0.249339446393263664
-0.0283487497537988631
0.20890465129916036
0.417645171387088787
0.570779793541675629
0.665802013724845487
0.71743037516527064
0.743997848432540909
0.762072633593520399
17.1156172696427546
18.1691705940162507
15.8213770603670127
9.7437130781428607
4.42773796453914059
0.993599847083785903
-0.76149619834072535
-1.42468229518656297
-1.56894218435626387
-1.47633226108745319
-1.28155109318832494
-1.04881976421510692
-0.799381675001854974
-0.530485813899108205
-0.266663313582620187
-0.0165599338334150303
0.195892861687594122
0.3535076215638977
0.456391338787611067
0.520265710988453645
0.560159583410182016
0.589520457746950832
-1.70341088163002663
-1.52145436899905762
-1.28517674540506111
-1.03286147611380752
-0.75471555198824225
-0.479480067379249419
-0.227597008622697716
-0.0178996003165177164
0.140493645797161948
0.250259451333031624
-1.44852376713288877
-1.20510460395969665
-0.937955637843745693
-0.671101304688292322
-0.427878695480595761
-0.22503914196234498
-0.0684158652156130476
0.0449878908097247621
-1.08854120052351622
-0.840805198239238605
-0.61377893548459439
-0.422397942371259605
49.4211722562079458
109.004653679687721
180.342049058867389
200.243386325718973
197.848455342169672
204.863671019162012
210.441323239401243
209.600654193870582
207.970105309271105
207.64309196874072
209.330544545593227
213.439856064659722
218.749825550629112
225.363798306917914
230.02254897754915
233.945364294125227
235.538575593329881
232.949271408359579
227.889777095165527
220.298372989370023
216.153957993779386
213.930815038371634
205.153608563807552
195.071975169428157
194.453899026524937
193.63400868825056
183.086381005116863
169.301534808278518
163.915634040736194
165.091104839524576
167.600125540527472
163.113303219617734
155.69972761587681
168.744979244642053
271.649182322287913
632.460108269740545
1494.19335537115012
2424.26528936675959
19.1695282680163963
38.2411143666537399
84.369583405679407
93.5369214343104005
89.199757492313239
92.2748333928899598
92.9534174644165461
89.2662861171514521
84.9314248130030194
83.465731980336642
85.2151607284957038
90.2256808067988345
95.366939096547469
103.642511591979286
107.876074422514563
112.82081267307376
115.441087203930323
111.18999351694751
103.248118269342058
95.6049948172210122
95.3555976702737098
93.9103700306619089
79.6508394283109453
70.7898200633294152
75.8951901882721813
73.8065762610473826
61.6584954262554277
52.117402824398539
49.8887455617863509
52.4361999489084667
55.1280576064530408
50.7582747494334967
42.5090575906263126
37.7794077915323783
55.0241950984573407
224.106169457411312
1003.88337135739278
2204.42941499191056
19.2279688607985371
24.8202308662718991
50.5177042741687075
50.8989416874344869
46.6370872251688553
44.4552554906717887
40.1890851303342345
33.1321439167292198
25.5558594359822422
20.6768403205742928
18.7835933154361108
19.0012872178108267
19.5652890447882726
23.2212128112006724
24.8492092500597579
27.3038901943360628
29.0835756802139827
26.4160148287946726
21.6634237280597404
17.8150128925794249
18.470843742924103
17.6667355959583432
10.1847967809939561
6.97648462059275687
10.0116733891524206
7.56109995443490135
2.86472749801936466
1.76441654061716724
1.70020362483949938
1.44597131000145751
1.29554606459676602
1.25613496172685468
1.29518077481996929
1.5744827415454743
2.72355491014012152
37.8044430668170364
404.672511615205849
1596.19523549529777
19.1991563263646619
22.5973032134325571
33.1599467115771205
34.1759999265349563
35.2816947597861486
36.1429231634867421
33.1650181601599954
26.4790114165441004
19.0280802441735375
13.0990747392176186
9.38967658879126787
7.07821919359375151
6.06278151278224886
5.36477096283422039
5.48456336633185604
5.10670312612329891
4.68129042387488248
4.42539932006062209
4.28717059562196123
3.86229784294636724
3.31187353579042076
3.11183336703511682
3.34261462720859281
2.81328088662081388
2.23029316970853486
2.155071376156251
2.2219635636858488
1.94377743673785419
1.78522936121851705
1.5703730847951467
1.42899439074685963
1.3959867233426535
1.48397443462852285
1.81381347814217175
2.32646773639641635
4.8094004349140187
111.526952488457113
919.760985075114604
19.0548315570977458
20.8725493972127047
24.8364567999727655
26.4767341801576599
30.232443945615092
32.6072854407571384
30.0815924068139466
23.637227727773432
16.5620621300971393
11.0939064632614937
7.5503258781202911
5.35902261819799985
4.25204902263036022
3.74216946381136006
3.74816563526989999
3.66282375745697708
3.52725335221935499
3.31665009475186467
3.12044934589544987
2.94349819459480244
2.73044580612655885
2.60140455838161699
2.52602652582177267
2.32766369186360489
2.06834065803280431
1.94098098754083459
1.86129740035002111
1.72805558089534772
1.56787596687335262
1.41460596142441997
1.28646415450025908
1.23211324591737625
1.30653199412200682
1.59445148495287725
1.95319110573985699
2.84102932968327471
27.6577254061763185
481.399362791032331
18.5645838927962856
19.7538610448268166
21.0448821061897569
22.745703644462079
27.2502989819541206
29.7533456705363832
26.7911199754446763
20.2762467111476674
13.5412886090356643
8.86548158467067182
6.10905433308514123
4.36305355476772228
3.43911302887604098
2.97166869365353392
2.89258731843823735
2.9674135010352507
2.92175581225622638
2.71023443191169067
2.55284272178000027
2.45614746369791082
2.35475118778021386
2.26234795457664539
2.15255508351270564
2.00557611629396026
1.8482833211971299
1.7461682872545472
1.65918439521120664
1.55480713869807752
1.41616759088070632
1.27197742452939266
1.13905098982660213
1.05426293659968406
1.09101858963660803
1.32920705313581555
1.60558153537857207
2.07144294225957282
6.1488029133869766
247.798131395492533
18.0680587039208014
18.9452596325345013
18.8793750201317572
20.7402660995202055
24.9151184350932944
26.499179784068069
22.629840773043405
16.0743953301393674
10.0264693859691469
6.05244516522236431
4.01411687760509572
2.97500640593678023
2.52227177747024855
2.28940398454189298
2.19575348575984997
2.3730646412678249
2.38276937070489847
2.27145939104167383
2.15998084623426267
2.08603628133830821
2.02041571591572655
1.94043775508115357
1.83484666351668491
1.73798912564284946
1.65361098598574752
1.58360132808424359
1.50971439613907532
1.41464316043389537
1.28711142484547092
1.1409348696388486
0.997259443352779495
0.885785579185301764
0.882877841434383859
1.07521117679289979
1.23369902324497982
1.35387324538294695
0.256477349265079368
132.748700321027684
18.3775844258343639
18.4892529825248815
18.2896213456781069
19.7280953907791385
22.8140637636088073
22.2277990487134574
17.198937492355455
10.8474813248193271
5.76235428786447912
2.87248297798661412
1.77114179854249132
1.53199501246898251
1.5785942841302516
1.67236758293496113
1.70319698073844616
1.76431156217049079
1.83776511453823588
1.87138043650205788
1.84433517657489965
1.79616058606838513
1.73440283365909531
1.64576318068010941
1.56285239265929876
1.51738094879712015
1.48554479789517968
1.44234136338013608
1.38537560815862881
1.30282499330587065
1.18223588112264855
1.02652156873732769
0.856657645698222114
0.71265522446093521
0.687059325436954027
0.840640022118499086
0.834922608766245355
0.82675300967362042
-1.03718350411465465
92.380021397479652
18.622676562208472
18.409269105820858
18.3563182016984356
18.8437385347548556
19.7743151853538173
17.0573024620366134
11.2475263317670233
5.61595343550497361
1.95998888334111676
0.551389380837860266
0.236325357177245898
0.462767473328203671
0.776561688152289875
1.06132343411886554
1.22286893788586504
1.30288936209429096
1.44751986572170965
1.55157720991130033
1.58389379727003599
1.55561254540946914
1.4998085398496892
1.42886738523048251
1.37118722632949841
1.34376035100193136
1.33362798346258238
1.31439724884998244
1.27271720843416003
1.1975934493361402
1.0755422661914138
0.907507122691125101
0.703029638466532658
0.514487415776742951
0.491121082182205182
0.624586528510618244
0.515873518259580166
0.549895120456962871
-3.38728406735452836
84.4615545549954732
18.6133920801483015
18.3260151958856419
18.5669484130617874
17.7468695420509661
15.6515189253725353
11.6849594291100942
6.00011873388639927
1.87804016135771157
-0.184780888128274867
-0.698371275093928823
-0.607246446662359496
-0.221248561465035021
0.185811948028568263
0.540036820250939797
0.81430782437166993
1.00285250350394062
1.16034030651950393
1.28807114367394471
1.33625665134105276
1.3253574024910455
1.28882150065490619
1.2477579173836375
1.21786314885971114
18.4404950296290515
18.2617259674361385
18.4203642969869854
15.6888650598649733
11.685889570941292
6.67583865421552503
2.22851171810062887
-0.181893924640000648
-1.15749491064392718
-1.33055924124930103
-1.09546897630514417
-0.679959042462640939
-0.243511454327740129
0.136643844487725818
0.472378507170822193
0.718573352224968875
0.90163257698132182
1.03185229064507622
1.09316021759487225
1.1020558645323173
1.0885484727166701
1.07258205029049081
18.1918785931659173
18.3037543470928306
17.337211183225655
11.966007742849456
7.6420509587740213
2.86064544981032753
0.148860411551685168
-1.21204560951214502
-1.6597438274167573
-1.66523984130979508
-1.40363842118800353
-1.00205437488146987
-0.568902431073611714
-0.17922120972333877
0.168054776506589842
0.439490514385998399
0.638534786689282541
0.77687510936643478
0.85250415964756332
0.882230790104242546
0.890317212699980987
0.893522649917032341
17.9986627961235186
18.5226681880058273
16.4588530100231196
8.22601921721927454
3.89495843287465959
0.557647158869720272
-0.999066234151430255
-1.68424168478401204
-1.87884378181032385
-1.83076899805454274
-1.58812593196156393
-1.23071185693783436
-0.831103048620041474
-0.446017804318417088
-0.105163544284750277
0.172230369731252608
0.378816271493803702
0.524695235643525715
0.614392589603754535
0.663188886778906639
0.689865276347201295
0.709295206871609185
-1.90028504578771407
-1.69874284898812244
-1.39411874855003504
-1.03992445563322478
-0.681137782418277382
-0.35835961176768949
-0.0847400559212978521
0.125455840049951695
0.278282422330429657
0.38050812339730955
-1.5128788802994837
-1.20673739234711253
-0.884545883253170961
-0.586608546520281937
-0.324666543511395567
-0.115559665604118011
0.0413519873381149594
0.152888927407421882
-1.05395140669021825
-0.782796953747850077
-0.540374263458868409
-0.339470837649143764
28.6830040015760659
57.6410713086710587
98.929335082844517
112.957395531891521
115.8135474977706
118.450678346449479
125.650360154345378
132.563020758589715
140.985940275639024
150.490869866009859
159.7262663066615
168.682364019426245
174.477498612448386
179.726313327638366
183.590229670648796
185.463378281206303
187.239281849836118
185.352757822486126
186.959552499256745
183.227936315687032
180.230615871451903
177.825147559965757
171.789350148598004
169.208384395761385
171.361018744768842
170.216389771003179
158.193399863195793
153.295911842716066
155.466614191355688
152.624980318094714
147.899347834263864
147.293019002552853
150.09017662402465
167.73245726865008
245.789900088702154
581.134724660515872
1437.18926161197282
2355.61402293977835
20.3353407250103508
26.020878369414234
46.5375433705040891
47.2327396739901957
44.7601479359919097
45.583448205075868
48.1562293578508758
48.2913261970971988
48.0601359465075433
49.4582446066470425
52.1994428770545937
56.1328299932233961
58.4672234440923546
61.0737698122297843
63.3549319729937395
64.7394639477092824
66.0689863381365967
63.5783761373862717
65.098241306611925
62.6334021050400054
61.0621754040148517
59.5989671943473525
55.4303302067352206
54.2570092540787527
56.4356098348005446
56.2973776417579757
47.2380926838752941
45.4597260402298673
48.6372366048133244
46.9743737281279152
42.8705370270899095
42.6241611702611607
42.2352354296141073
41.1665259376343755
46.4303183744003292
191.686330136372817
944.958048841601226
2131.3215844826168
19.4482184012473525
20.119371623931265
31.4599144520915459
32.6124670354459738
32.310395766176164
32.8730426348762848
31.3577730144534925
26.3846397381292697
19.2002523828883334
13.0083227846455198
9.04884785907720612
7.04596702521988583
6.41854035716256099
6.15026224534056531
6.01931121242658485
6.45800712248331266
6.7003270699337083
6.53398927428688836
5.5047834213365876
4.94973227407308425
4.6813662178553006
4.27422005182797982
3.48449936399322358
3.15552287173515467
3.16554900719980026
2.6597588824305145
2.22932157381662632
1.91660124325493064
1.74362050970018512
1.71636781595581511
1.75652890654419558
1.66939220072618832
1.72919293410072106
2.15272485396140834
3.47787291380740138
34.3600904930342494
374.279511415007846
1531.69064475847813
19.3375281197952944
19.2831799280160396
23.4774006112049953
24.5050187215870032
25.7534527900319539
27.7508885623755219
27.5709041051264911
23.457702364955324
17.0867662368114281
11.4089240103821652
7.63822908953870794
5.47397757301213694
4.62284462330879542
4.37202245057919825
4.31734480206233684
4.43290416130352671
4.48899268099474291
4.32116796923535063
3.86994849196625301
3.5522660269557198
3.37070588478998712
3.20506848593866867
3.01408362801775453
2.81598335806032107
2.65275273563197622
2.40356469490394131
2.17710459115424415
1.99448471004680772
1.84192102939940661
1.70734969236704792
1.61081075601114221
1.60608084563955833
1.7592363334624741
2.23313323326245605
2.88357561740823964
6.10265138702433241
103.773796185132937
881.672402962265096
19.2128031832409825
18.9623737372325216
20.4739006423297596
21.0809178428486312
23.0366604867810132
25.8192523507607667
25.8839203239869811
21.6830206571535733
15.4245623424829184
10.0984284998805229
6.63598117452309655
4.56265105822893258
3.64513824799305075
3.29752528595345229
3.21232010813945301
3.3131074777122369
3.47036130345970006
3.40718644241630431
3.16789798759362551
2.9530148390451112
2.79405175192118449
2.694495729301293
2.62578008518423189
2.50422881298803457
2.33224386356183633
2.1470870621126914
1.9827250215350869
1.83082037737034176
1.68224863916655387
1.53865385799939913
1.42409274829773635
1.39066736702055271
1.5439442022166785
2.01259853775257458
2.43831320434833065
3.69886169370348794
27.1874466489833182
474.032195659457102
19.072486245033712
18.9129904769337216
19.2875325818305754
19.5573800083205569
21.3207941291825946
23.9505106023665633
23.9973731360859013
19.4911984729393382
13.2804068574742367
8.21595370996879737
5.07434293876180753
3.43541068089272583
2.80819283579664924
2.59716425234520987
2.5215008221495685
2.60009855568982085
2.81000150275883698
2.82314317536585246
2.69663790692918726
2.53187197919498308
2.40287190000491213
2.32581364110588229
2.26424390273593712
2.17362167367856252
2.03471204978444131
1.89507269796699296
1.77335095694687706
1.64662952460430034
1.50966034736868071
1.37683936835312903
1.24886998021132545
1.16465444262215967
1.26702572020790827
1.71128003704404508
1.97131056651633729
2.57335523720790915
6.15650994040149779
271.564453049158828
18.9466094281435602
18.8440709164198061
18.7242536241868684
18.8122131112589166
20.0639069011747289
22.372273224111332
21.2854663223563705
15.9418852355874243
9.88803075592319303
5.44902266046871908
2.94756277350905505
1.92827612099515688
1.79803789453735829
1.87802191446355771
1.99966108468048054
2.15383358569650873
2.25262876438302584
2.31887502701617221
2.29086346767531923
2.20299054805872352
2.10691166432801591
2.02081446494054262
1.93388286434967083
1.8515156080928219
1.76234550042136018
1.68110335008162193
1.59540858484768577
1.48909646858860656
1.36402727297759419
1.24074626299219926
1.10913351341948951
0.977684080765979235
1.00814362994117523
1.39953847289806355
1.33599816583004305
1.62053081996718351
-0.549927431926434451
182.479284983896264
18.8099823225418632
18.7818704278665507
18.5171155189507921
18.481720114170006
19.0903589803624953
19.9022707884168639
16.8623587234840215
10.972709096255981
5.54042456124756022
2.12166543455872691
0.675077009946737583
0.45626269388671048
0.806122442142690243
1.2103020554334738
1.52730921345244175
1.75663428477539885
1.86474376896212002
1.95437445147741151
1.97615678342899481
1.94154750622049455
1.86810934680475604
1.78151729894570776
1.69859655446169455
1.621999396808812
1.56847322272972622
1.51835523712227993
1.45512787254938747
1.36657938368963228
1.24883857807375298
1.11854462951620093
0.969189134935370733
0.79906314900690667
0.797261529323966434
1.11160797636129471
0.603122711967133851
1.06875154535442363
-2.9651362670283774
146.952584724240751
18.7588501271648163
18.6908690881852593
18.430357174902543
18.4656890851895454
17.910355580981598
16.01765368645734
11.5608413304744211
5.98326738684272996
1.69164455115200951
-0.364217690757485002
-0.796004653105289783
-0.494319497609791991
0.0946474385061955026
0.659559156840459071
1.09458813072413563
1.39583842332560404
1.58818683945215078
1.68897502642583941
1.73294628678488993
1.7084183228723393
1.64621830333831709
1.57496910872836726
1.50913788838331486
1.45811847621109747
1.4219208348225898
1.38546842582009599
1.33388568296318466
1.25221028829518666
1.1335393991691789
0.995997619672267964
0.819414039752171641
0.614943294631584036
0.63254936455693267
0.838107262464470981
0.228675423097350894
1.28679402230113382
-6.90272812916083822
137.774871411790173
18.6642162605540953
18.5355035846501686
18.4629067336145489
18.1673332712662869
15.585799312259411
11.7246574245491431
6.64104274953738383
2.08744273899729116
-0.558029012413452374
-1.49102307795681011
-1.45190862422385591
-0.999139611302674258
-0.369686024761314069
0.232527944537642028
0.714228014192169525
1.06552049049186959
1.29784889114077462
1.42688554833166048
1.4806916512143411
1.47337642174625993
1.43061590187563414
1.38151942597153554
1.34201614197802477
18.5275348248276757
18.4276298919461716
18.5102539349794704
16.844428473499562
12.3489053586172801
7.5547334283229759
2.60702885011573215
-0.235461899959033438
-1.50457935604938253
-1.87281628037334391
-1.72084194705193028
-1.26161467619826473
-0.671050457011024948
-0.0951553523859072214
0.383433801546929187
0.745196110964326808
0.994667660850461877
1.14555048065953335
1.21963049760236109
1.23513859487341682
1.21706709540195268
1.19138008421818298
18.354651442128322
18.4465765206957109
18.1443159263146576
14.2880288109942271
8.65882291011137539
3.56483791106604286
0.151290645812814262
-1.27508314942824663
-1.87219177531307679
-1.98536259626129996
-1.80984613695927776
-1.40237190080424545
-0.878576118483961999
-0.356231419534525529
0.0930029643227021641
0.445298176517843425
0.698426109515354332
0.864375669437055683
0.958140965918462317
0.997096589434557812
1.00322154409862518
0.998843778338968091
18.1710619076315574
18.5266311586932062
17.6159671510667266
10.6832293577174653
4.67384206536962665
0.663460653669748268
-0.999716205975987648
-1.71717385649697407
-1.9762570626645497
-2.00131719473192549
-1.83448856892304635
-1.49007800177116456
-1.03995936796889232
-0.576691267377122507
-0.165528616134850592
0.167551756846698208
0.417489719379026125
0.592386372955099327
0.702384863156076067
0.761900168327094951
0.789456499401012479
0.804588575719410004
-1.98890529125040105
-1.84204509762057889
-1.55615813165958561
-1.17595830485510477
-0.771825507353526286
-0.401089751976236197
-0.0900328736813702513
0.153768937406611572
0.33312809578119551
0.454993223192817542
-1.61193109815389035
-1.29336602604656203
-0.944647337740086135
-0.613849439937037777
-0.325795144280404125
-0.09144685569967681
0.0880133099833428911
0.217451165852999839
-1.09507864022025769
-0.801407011290059312
-0.538675077699176219
-0.318086565685178124
25.4881494284873149
33.6993771598617329
49.6698196750610776
63.6407694641942996
77.8773146312067439
86.2219919985524257
88.5898619673641718
87.9314995226847884
84.9268450484280066
87.5903578167545191
94.6579234348389491
103.658231034179863
119.331137744421397
134.984915994169626
145.79987619520108
150.992708237955156
153.198830102921391
161.292123130968946
166.556702099475388
160.707087166912117
157.195384111555825
158.813560041635213
156.389731033731977
155.543318122240919
157.113524396504204
150.035746635625827
146.326016578819321
146.357487701809958
145.138741024485341
134.636050706875096
134.963754615230016
137.24932684394156
142.228091527995389
163.719341571031919
230.21124955161244
580.883162112894752
1435.11104480199606
2313.25896965122138
21.0174546361877965
24.799526344622457
31.9209111286868534
32.4670961417334638
32.3729787928996018
31.8687389450815743
31.0876371937073941
27.9587074114197485
23.0967824017104348
20.4733690011577494
20.4757175539474794
22.2074484944070605
28.9480727329729888
36.7598147389691832
42.4053261321736557
44.818227725475964
45.019571765153259
51.0272270100163325
54.8617037731560231
49.7450357543266648
47.2387568703742886
49.294146890151012
47.9771053785410118
47.92170500465906
49.8775575569875969
43.7375930056509503
42.5348247608136347
43.5601781241066988
43.7551786281167239
35.0968641558977907
37.2002563115019598
38.0940711653263548
38.1268238475680903
42.7200456192266813
36.1274854720504095
194.178221312482037
944.498688193466705
2096.73042515007592
19.7845933363079531
20.4733705332775777
23.7823863419695414
24.5041892616475359
25.4521902264435802
27.2467993355444555
27.1921617126513446
23.676380691123974
17.8375732662249611
12.1127199385414492