/*--------------------------------*- C++ -*----------------------------------*\
| =========                 |                                                 |
| \\      /  F ield         | OpenFOAM: The Open Source CFD Toolbox           |
|  \\    /   O peration     | Version:  2206                                  |
|   \\  /    A nd           | Website:  www.openfoam.com                      |
|    \\/     M anipulation  |                                                 |
\*---------------------------------------------------------------------------*/
FoamFile
{
    version     2.0;
    format      ascii;
    arch        "LSB;label=32;scalar=64";
    class       surfaceScalarField;
    location    "0.600000000000000311";
    object      phi;
}
// * * * * * * * * * * * * * * * * * * * * * * * * * * * * * * * * * * * * * //

dimensions      [0 3 -1 0 0 0 0];

oriented        oriented;

internalField   nonuniform List<scalar> 
20390
(
0.000188680293741460073
-0.000155465365801113551
8.4460757834240241e-05
-0.000117675685894836127
0.000300005952616487373
-0.000157873819224308343
0.000222420013888565809
-0.000175871848943291449
0.000372120269691330664
-0.000118707764219308753
0.000252931335121608274
-0.000206337887849146565
0.000419231668720877932
-8.50344254389318586e-05
0.000263098499470596739
-0.000225175471266727178
0.000454784682164349491
-6.61320332231846029e-05
0.000268864033106736868
-0.000238285011413805745
0.000483751873721217592
-5.39397473743033408e-05
0.000273390261786565173
-0.000248417704824251226
0.000507826996032584386
-4.53573109995216063e-05
0.000278011446397294446
-0.000256729260033709762
0.000528446997154322345
-4.00262723093312926e-05
0.000282893396089245323
-0.000263487128042487169
0.000546579794406117547
-3.67834992233966813e-05
0.000287451107314516468
-0.000268800406653459578
0.000562811925117130013
-3.47298466554644657e-05
0.000291322582224559038
-0.000272824866732638909
0.000577736351287243353
-3.35923563731970178e-05
0.000294347668253508281
-0.000275679739062895059
0.000591794266905926809
-3.30705108274617719e-05
0.000296388629666969683
-0.000277376035183250107
0.000605612385708643032
-3.35591941545491698e-05
0.000297420408965741922
-0.000277679334436114729
0.000619323831140881995
-3.4209832518225782e-05
0.000297147973844358716
-0.000276649589018510141
0.000632809179179179759
-3.45998347650345269e-05
0.000295647910272519535
-0.000274533427345246574
0.000645906395231199242
-3.4457966225136507e-05
0.000292997618756305552
-0.000271636873001039635
0.000658694276885451232
-3.4386459086741359e-05
0.000289689691626659573
-0.000268091118945282909
0.000670994322245140246
-3.42510117434164822e-05
0.000286014068107002747
-0.000264063106282215975
0.000683326968814242531
-3.4736193390492755e-05
0.00028221937796840701
-0.00025981583447331146
0.000694690071781172455
-3.33637831049573441e-05
0.000278050247772155125
-0.000256049568655692577
0.000705190895047404535
-3.21501428195545858e-05
0.000273709547692223732
-0.000252060226409164768
0.00071546285256284274
-3.22652229561398414e-05
0.000269522613288134373
-0.000247529344325262063
0.000727027783175384127
-3.47814779376992212e-05
0.000265934790523431768
-0.000242718239409298731
0.000737649065509666103
-3.32425562355214197e-05
0.000261470534704509052
-0.000238849257833483204
0.00074745635389546108
-3.15561542012124551e-05
0.000256123335294077795
-0.000234374467364553446
0.000756452289035753895
-3.04969410381435824e-05
0.0002510143103511419
-0.00022951330267422307
0.000766546547785867775
-3.25461510720725049e-05
0.00024714625770173496
-0.000224694363791366444
0.000775906802456978613
-3.1605250354021273e-05
0.000243215918750606811
-0.000220970921943010724
0.000785499711752858415
-3.12782276420793347e-05
0.000238716188765142334
-0.000217030870206369095
0.000794629856615243512
-2.96773399091909605e-05
0.000233459652810759756
-0.000212912458554929702
0.000804017664842195481
-3.01907550936769203e-05
0.000228063995938838562
-0.000207261050394010803
0.00081349827622304049
-3.03577126436242448e-05
0.000222780543063278027
-0.000201903442923068659
0.000818572711014873438
-2.48797998581469165e-05
0.000217403628888193764
-0.000197598264251103476
0.000809243962071698529
-8.30288478666669225e-06
0.000212306772278010879
-0.000194675138475674668
0.000760497863900257381
3.03845087097992191e-05
0.000209571657200145734
-0.000191210067854880901
0.00059787266003792736
0.000142211899112244642
0.000208841173386704166
-0.000188427869686800539
0.000276409569132063338
0.000300601038682030944
0.000205074201756246958
-0.000184212153929272653
0.000262185496168973649
0.000138571405411167052
-0.00012434734326560536
0.000250830752820884254
-0.000287650905219642163
3.6548980219210423e-05
-0.000155194171871188388
0.000342239316785171216
-0.000318018564934581635
0.000273320015840255179
-0.000204583826439766031
0.000397955683786304563
-0.000261642279774160192
0.000316587476555392001
-0.000229369321970857899
0.000436724756391859887
-0.000202098807308564538
0.000317911514925494753
-0.000239616197680728751
0.000469021892939781057
-0.000165196388553367644
0.000311754486794667968
-0.000244987266065893768
0.000497189617451246476
-0.000138025560299887874
0.000305333923940190875
-0.000249415842555365547
0.000520617931861413683
-0.000115427601214235898
0.000300885008337389891
-0.000254243038995870686
0.000541335073225633666
-0.000100793408770451877
0.000298413746636099007
-0.000258363754212661135
0.000560070675345518301
-9.10352329076580832e-05
0.000297143996110553834
-0.000261627865725088142
0.00057697448683796562
-8.37947970412344223e-05
0.000296249878864552425
-0.0002640887412635771
0.000592459296520989227
-7.87812101003919758e-05
0.000295400289408723519
-0.000265696246540558529
0.00060642438003474298
-7.48044581408701954e-05
0.000294278533574573173
-0.000266509673139627811
0.000619831539350547455
-7.40611094562220753e-05
0.000292994253253015381
-0.000265899504854691035
0.000632774514461278601
-7.38468168376253686e-05
0.000290496142344460876
-0.000263802143565931488
0.000645301147916189964
-7.36301691790712629e-05
0.000287011024159788204
-0.000260507334977468444
0.000657107492611752803
-7.21000028715992707e-05
0.000282334294748477223
-0.000256498615295124824
0.000668563946262548626
-7.12626565114525112e-05
0.000277284976618646017
-0.000251865244652245391
0.000679402859299164225
-7.06518901061745834e-05
0.000272406043617475131
-0.000246844086703339898
0.000691349382329996503
-7.2976109151152066e-05
0.000268118381507339307
-0.000241824990868250047
0.000701799482756878764
-6.88773097773223898e-05
0.000263315692405126421
-0.000238252261223359833
0.000710395783869950128
-6.51113817110714904e-05
0.000258646409431258228
-0.000234281462082905334
0.000718248880525042851
-6.51009847664853403e-05
0.00025472980323859465
-0.000229747127889581637
0.000729273265673007257
-7.32556604413215343e-05
0.000252630170723346158
-0.000225180365013207874
0.000737771388969325954
-6.71211857748182954e-05
0.000248576276132698331
-0.000223195763407555927
0.000745324588874212747
-6.31859243204901553e-05
0.000243928813523179051
-0.000219852237793289733
0.000751024114872327021
-5.98090597370078982e-05
0.000240139306316006793
-0.000216526708819251564
0.000759147307252552666
-6.60123700025868552e-05
0.000239055697938497205
-0.000213712668166659333
0.000764677838529271257
-6.07147088179253226e-05
0.000237386283248416523
-0.000213807355546661253
0.000772189008851321642
-6.20758057971383562e-05
0.000236546779790840916
-0.000213260374360324615
0.000778176690627555034
-5.62322221262870087e-05
0.000234912662780821616
-0.000214345466331688795
0.000784324321895308999
-5.75769315150944901e-05
0.000233385030924765884
-0.000212146489263501076
0.000790745923739516118
-5.78375335911833184e-05
0.000231545694278510137
-0.000210487476822260853
0.000797402485949619418
-5.16977625273422293e-05
0.000229489136466028241
-0.000209327736215033364
0.00080041270511710665
-2.84897664182491009e-05
0.000226110652512912994
-0.000208933991001475366
0.000787387693035945867
2.60157767671187262e-05
0.00022335375432365256
-0.000205960015537224326
0.000687821637313394251
0.000223025383341936441
0.000223694434069255478
-0.000204941875214739564
0.000416023657880614417
0.000553226312734365292
0.000226464607580267272
-0.000207291921285831875
0.000653888091213376951
0.000237144674439514848
-0.00021282362760772922
0.000287395021956390016
-0.000352831174506024713
-4.84805915426298178e-05
-0.000173734155293857459
0.000359494934561895832
-0.000451028944509157374
0.00029964840106395989
-0.000238737924557553253
0.00040417628911166469
-0.000399967781339937453
0.000354728056723305966
-0.000261083902826372209
0.000437348289050231722
-0.000328600986776196851
0.000362690897884958806
-0.000269360717530131349
0.000467486012675345666
-0.000279001539917047669
0.000355452766622620065
-0.000271785341585070749
0.000495263730446315973
-0.000237792518932517254
0.000344155032889387896
-0.000272165797404729588
0.000516555180645900287
-0.000196239227534782048
0.0003311226977808665
-0.000271602527043201473
0.000533852975248551753
-0.000168922709377356613
0.000320446528110452235
-0.000269615027134903224
0.000548433376098757036
-0.000150989732587592938
0.000312989174631138334
-0.000267615077863723842
0.000560679239971172507
-0.000137329556788569731
0.000307490232336563886
-0.000266201336135898664
0.000571359567051822398
-0.000127894784510669025
0.000303700583957884065
-0.000265267338446636568
0.00058039764293359847
-0.000119551412346526195
0.000300407729111417656
-0.000264698856201019757
0.000589321134509379076
-0.000117572347079037635
0.000298246465352850821
-0.000263658727293979275
0.000598095183747898826
-0.000116963749398915737
0.000295898362059168296
-0.000261555488010789994
0.000606576849976678831
-0.00011656036832112201
0.000293814452036256072
-0.000259365929711124284
0.000614176854627573052
-0.000113375209607572921
0.000291421934168759316
-0.000257746743389249675
0.000621556751491922615
-0.000111950070220804849
0.00028972141313636713
-0.000256413906402657452
0.000628438987455586092
-0.000112064171549673165
0.000289273304528308759
-0.000254743265234420836
0.000637033096210583511
-0.000119076555407037388
0.000290616914234865923
-0.000253110577053133488
0.000643673004751505709
-0.000112029519453020346
0.000290243968656284448
-0.000253731662269054362
0.00064829157923954289
-0.000104027634524663144
0.000287879656626665421
-0.000253581970429723785
0.000650754567352907951
-0.000102496661091240984
0.000286973260304056296
-0.000252040564363407982
0.000656784894733246794
-0.000121702964488498841
0.00029354650873813739
-0.000251129525195988696
0.000656520085017697373
-0.000104874521646245757
0.000294701642938160037
-0.000256683490332830879
0.000655788476300605216
-9.522284383900421e-05
0.000293337014343132978
-0.000260568479655742455
0.00065261516619138189
-8.80429762547351282e-05
0.000294828811866624618
-0.000263421580142960429
0.000658891089378641089
-0.000111954254010199206
0.000307266283952631098
-0.000267600320400904592
0.000656533011122858437
-9.06969635814552141e-05
0.00030941829197988417
-0.000277077959278515594
0.000661014554142986838
-0.000102362243504581889
0.000316706031604543404
-0.000280901140661272844
0.000658924146063645413
-7.96902853499730792e-05
0.000317549331136987166
-0.000292000867255637364
0.000654588230752660904
-8.0673585863386455e-05
0.000316240661692975228
-0.000288808102975526533
0.000645379050613797945
-7.44227062294635137e-05
0.000309815228172619919
-0.000284020886305032141
0.000634813361386425364
-6.75999327567771455e-05
0.000300847721565483932
-0.000274379867985202047
0.000648718762507301066
-6.51630300383677073e-05
0.000288808060902223738
-0.000266040200942470719
0.000648654113212085025
6.87806995547977451e-06
0.000274541246802501992
-0.000255338903413469169
0.000563853757826570387
0.000291360751166750928
0.000247456541955228427
-0.000230991577336794472
0.000367774235423084801
0.000731579926204891425
0.000241337922128274506
-0.000223612027370751024
0.000999543103465687062
0.000250781406593330995
-0.000228662188948489098
0.000264136085239915868
-0.000419937685881733517
2.27037775776810794e-05
-0.000219733338783093435
0.000321361083525454824
-0.000555887536926756771
0.00032740775878960281
-0.000279774160888072879
0.000351125148091129024
-0.000518163282030108556
0.000389299393367177116
-0.000300867952521340954
0.000387741233877723869
-0.000452290021419834976
0.000391318468948735892
-0.000304245518583005231
0.000432945674418040629
-0.000398275888693687126
0.00037056208224795032
-0.000296492177195515727
0.000479152618517621014
-0.000336848162191221389
0.000336802337674489802
-0.000283953657148889975
0.000519422121139788157
-0.000266998513413434495
0.000300975112632454996
-0.0002704853522317828
0.000548007541058571088
-0.000207597481611440979
0.000273240178754070688
-0.000263150844162120603
0.000564958423735681804
-0.000167039914612894329
0.000260356567782617471
-0.000261257276353681349
0.000571470545376907076
-0.0001399215962702086
0.000259433193136352717
-0.000263353279838718737
0.000571430035336764489
-0.0001247556931791979
0.000266487594331539317
-0.000269586186343384669
0.000570213596968267757
-0.00011705970846644437
0.000273697206697895391
-0.000274972489177586631
0.000569592981568170227
-0.000117311181716349611
0.000283556839304857677
-0.000283197409627281862
0.000570134188597705947
-0.000123258938321093437
0.000296488631437118763
-0.000290734672148991588
0.000571234705351716379
-0.000128209486527847881
0.000308698711070039212
-0.000298150137783303765
0.000573011804505345161
-0.000128918514413676262
0.000320040734011925194
-0.000306274560554610747
0.000574948638553543414
-0.000128806524634245145
0.000329858732065681389
-0.000314939140716005879
0.000576749595292886373
-0.000128284738874262115
0.000336202448931448403
-0.000321782855729382431
0.000575123567314836468
-0.000129135829445432913
0.000337877936702125632
-0.000326192636070207569
0.000572378013591721296
-0.000120699160316315132
0.000340121103059405443
-0.000328705896228650041
0.000567476292914241391
-0.000107862170506405346
0.000342124994974529327
-0.000333388718440774429
0.00056181032087095897
-0.000101784476866751598
0.000343394131061787791
-0.000338440319519203541
0.000553641770091791992
-0.00011263635611561288
0.000343326181146428558
-0.000344224210195268922
0.000551699674059969846
-0.000104633220352285815
0.000350454850092117565
-0.000348754019619806324
0.000549962251647296077
-9.50997905531294888e-05
0.000356789729110010962
-0.000355175322484629387
0.000549787552248556387
-8.96493390109459653e-05
0.000357606943219263387
-0.000355825849855374431
0.000544654228686603393
-0.000105949919143807911
0.000353902253382928965
-0.000354773248443922458
0.00054339471798041817
-9.53828222571659904e-05
0.000356786938456522883
-0.000350841571139387911
0.000530586996414726978
-9.76073108276530473e-05
0.000351260186181580835
-0.000343207427745038061
0.000521202701179881425
-9.14728584403483005e-05
0.000338160864773013453
-0.000316994082112399855
0.000503746743653078147
-8.40626977868883657e-05
0.000310901515349958492
-0.000290056613546297659
0.000482687032005362209
-7.59862801693504073e-05
0.000278493067787646961
-0.000255869978430674141
0.000456952370010749306
-5.81745019504769539e-05
0.000245645208599911498
-0.000229336067678819947
0.000415547137307737823
-3.31035865587286557e-05
0.00020246176600217098
-0.000193115985099440439
0.000375703565284308801
6.26304507301379072e-05
0.00018970516247395218
-0.000205614138173648535
0.000378675446374924683
0.000273791955335385894
0.000247739575731754447
-0.000233142837280149277
0.000262320994687691015
0.00083168278996346393
0.000249356123433344603
-0.000233104548072017386
0.00124086530895228375
0.000258093356824295138
-0.000237094570364069536
0.000239809872525405341
-0.00050820080813365363
0.000103884279862181996
-0.000255431016129507968
0.000277413720433628127
-0.000631331197658057948
0.000347368281015999667
-0.000309528472700074391
0.000285945695184318762
-0.000602344831648360954
0.000403814421877165316
-0.000328164834557341295
0.000320157697133672625
-0.000564599210882198036
0.000396188522810528982
-0.000318091338980407438
0.000389803180743335481
-0.000525280899249411519
0.000341190331228713895
-0.000283830823015907105
0.000477127843387238832
-0.000446005804285979095
0.000265923638645605741
-0.00024409072340710622
0.000557341554774414276
-0.000326837273269580916
0.000194788785307671802
-0.000215163804475511719
0.000611119645389779083
-0.000205860947140206228
0.000147699541662617154
-0.00020321422160138577
0.000634308633351749287
-0.000117278077711229322
0.000134873118268867499
-0.000207823971212798734
0.00063484087791236142
-6.9811728411423409e-05
0.000150062758639038323
-0.000220704897449246326
0.000624131774609168466
-5.55853988478581667e-05
0.000181317257785079292
-0.000239778489267453599
0.000610227033440906047
-5.62176570581905175e-05
0.000216541889397547796
-0.000263479255209647038
0.000598044985062542653
-6.78053249175470697e-05
0.000249569159116660761
-0.000286893031390347657
0.000591224332019224508
-8.67940088920609795e-05
0.000279347729956278359
-0.000308992081004309121
0.000588917375959592017
-0.000103219304756725066
0.00030327026070215942
-0.000325953583949759181
0.000587821122147875346
-0.000111250335456754897
0.000320169795197712288
-0.000336741829562620955
0.000584240339960973411
-0.000113144879489336609
0.000330976354588711174
-0.000343057308361087606
0.000576957249246039185
-0.000109816777498059323
0.000334201544758442627
-0.000345386459897588209
0.000564894866478911654
-0.000104050759759502607
0.000333529612854108009
-0.000346552290615406927
0.000551375385309300415
-9.26497496899417178e-05
0.000332291797791075356
-0.000346821675629867189
0.000539283436702061984
-7.86695170051681303e-05
0.000329891401324850701
-0.000346992026128970042
0.000531751196684692199
-7.16286607788587667e-05
0.000327139038131724232
-0.000349762507551133381
0.000525358509848377567
-7.67504493519016848e-05
0.000326876726730675454
-0.000356369805408016094
0.000524655256919475993
-7.70672400919903691e-05
0.000334669230307794649
-0.000361531774418745824
0.000525697919551109728
-7.53035274382042033e-05
0.000345543221831284809
-0.000366381961439618987
0.000527290566300543163
-8.02364609309988089e-05
0.00035149837226233912
-0.000362503765062783276
0.000520721179999476184
-9.67916283523033915e-05
0.000341908165294339719
-0.000344497038994300226
0.000513277974715477736
-0.000102130258108986224
0.000321504250561829494
-0.000307313689644739133
0.000494043415147909864
-0.000102101651803763297
0.000281760577863195323
-0.000258031934344117955
0.000470952188109555723
-9.87545961660687787e-05
0.000229707049166791598
-0.000199334632947352827
0.000442579311904065854
-7.9038540271188557e-05
0.000177309096056770779
-0.000153961120967292835
0.00040604888135369738
-5.26023044139836332e-05
0.000134959850664746089
-0.000121813893208852931
0.000363990555941344409
-1.87662854561346206e-05
0.00010607899022029157
-0.000103428980338300704
0.000297357635601429012
4.19158135175615778e-05
8.08691230543056243e-05
-8.92558914909119332e-05
0.000228752802101510761
0.000166997344164094495
6.78683745629588909e-05
-0.000103631364231344722
0.000204955037031549233
0.000291024798263270397
0.000219894920441514286
-0.000213330275894701093
0.000138198104509600756
0.000883583105316065832
0.000249317231983540869
-0.000234460627252499617
0.00135848344986740218
0.000261603174275609252
-0.000241023211624835914
0.000219223639639113077
-0.000569390522096588966
0.000131640536469396446
-0.000289674451212092393
0.000226241792425564258
-0.000648466633163615608
0.00034856516901597066
-0.000338447887082910675
0.000209050344730904182
-0.000625035641629548017
0.000379116696552386279
-0.000339234425006592797
0.000252482559264173871
-0.000646536200338770168
0.000327160523810294949
-0.000288655770298285356
0.000367121792330071871
-0.000649505357870706033
0.000220034756938048754
-0.000210449582596749656
0.000509600517661827493
-0.000565132120962860696
0.000115260518200924856
-0.000138613084493653443
0.000640040672124780234
-0.000402389894081403544
3.58535060089257092e-05
-9.07411737704211794e-05
0.000729910210315364038
-0.000208927233127159748
-6.50405476889110952e-06
-8.029931673823995e-05
0.000763618595413875626
-3.99040308034639762e-05
-8.22610200422263326e-06
-0.000102856407620518332
0.000754058641215500235
6.12650687021701774e-05
2.38442022456775695e-05
-0.000145361125747836778
0.000725007832692981902
8.25872706883361805e-05
8.21594747824810141e-05
-0.000191281435259026724
0.000691980708535419489
6.44084305167959433e-05
0.000147233553225496343
-0.00023483264089835067
0.000664315786469683498
2.86042714332863385e-05
0.00020145915461152505
-0.000270203965993115469
0.00064655808058675557
-1.81794131251056953e-05
0.000243952010223850166
-0.000294809072847980187
0.00063417083849874763
-5.41131132274851154e-05
0.000271776818303596482
-0.000308495992643128549
0.000620316048290726657
-6.959611766013431e-05
0.000285892165142675948
-0.00031369183009994408
0.000602201113817806217
-7.02759675930985132e-05
0.000287382743102903519
-0.000312136899885468572
0.000579757220023928411
-6.12390390723430725e-05
0.000281023160270301245
-0.000307157074203804519
0.000552163291893389388
-4.61502432375524517e-05
0.000269945494027938355
-0.000300252044173555423
0.000522809316584578378
-3.04181059520410783e-05
0.000259029924134000962
-0.000291907468684461245
0.000501123935969438909
-2.25945929792554479e-05
0.000253698541541241547
-0.000288087886330373809
0.00049278318324810712
-2.49852685162958635e-05
0.000255997338784249293
-0.000294299692564322062
0.000491425066699016405
-3.30949632793850487e-05
0.000265734449813022442
-0.00030803142736230717
0.000490557937368024427
-4.1179252979241769e-05
0.000279146526956456904
-0.000314166896046456164
0.000483773765927591104
-5.126291519767723e-05
0.000284710735127665748
-0.000301966771523630223
0.000464075348598594751
-6.31298299694047518e-05
0.000269709116879340383
-0.000267117170419175934
0.000426145528830054027
-7.59365660763974533e-05
0.000230011039188596938
-0.000212936401719956097
0.000378758068397957418
-8.15489914957111755e-05
0.000174621192564718559
-0.000147815335304931695
0.000331128036968928493
-8.24738715897631531e-05
0.00011493504363532182
-8.69334692265426334e-05
0.000293054794285166234
-8.20917920823370002e-05
5.97012841244351641e-05
-3.82919572333976867e-05
0.000267166271068627447
-6.15613927893963342e-05
1.76865102036018735e-05
-9.27623511328449721e-06
0.000239030481009726184
-2.1052420012005706e-05
-7.75569096156814974e-07
-2.63895314832942121e-06
0.000202807130589442849
2.62727909814827373e-05
1.74693370034450695e-06
-1.05626733149318956e-05
0.000163537435561814185
0.000101703715525556935
2.11779270270215164e-07
-2.07304724513590879e-05
0.000109395888094092195
0.000283680628806370764
-1.99862285805211303e-05
-4.25566468689973426e-05
7.82760227684527936e-05
0.000328438465666598125
0.000176510384940602698
-0.000182804330125008418
6.30559000839964428e-05
0.000884733121852674829
0.000244427926015347
-0.000230357815414722577
0.00140194719576174076
0.000261278923973302317
-0.000241686768922699211
0.000198345265499004427
-0.00054403818602861303
9.08765834412716565e-05
-0.000314574201234197031
0.000180506148965280035
-0.000603439056278780891
0.000291110005936317975
-0.000318298445498087917
0.000159792921673114474
-0.000612706001069104628
0.000293298628573832086
-0.000284915026153742318
0.000252630253582949559
-0.000727059524199415706
0.000180786211179672301
-0.000193100272134774707
0.000401888875710939295
-0.000775187777130162945
6.45361547942469396e-05
-8.81124458530632763e-05
0.000543185219900911348
-0.000688059682036491174
-7.44627344265725286e-06
-1.09227103876856521e-05
0.000661761455133091448
-0.00049407017247901587
-4.80429146884187218e-05
2.11468090324353108e-05
0.000751013626594277794
-0.000240594894328954216
-6.38581621289808246e-05
6.27352930495859115e-06
0.000804523282568445986
-2.36155681369393461e-06
-5.87223570269369973e-05
-3.23299010005600985e-05
0.000819030493395922639
0.000156373617466811258
-2.51929695032851774e-05
-8.44229325712535092e-05
0.000800061110116077954
0.000216175244488717936
2.67364130471907458e-05
-0.000141355161269230166
0.000767797356718347645
0.000205191568825670073
8.45354521209121229e-05
-0.000193055006718829568
0.000731857727586008189
0.0001546300834686968
0.000139977780601271994
-0.00023006416057000644
0.000698529538679868432
8.16125711788168672e-05
0.000185235128358893241
-0.000251699198201714403
0.000667201864793701789
2.14771078063765624e-05
0.000215856125860844914
-0.000260119029541203096
0.000634688266145003177
-7.09590536792643444e-06
0.000227519405944137383
-0.00025750638193438387
0.000597244550244698793
-8.77051594396466132e-06
0.000220986350704697597
-0.000245048336007697024
0.000556340763898926865
3.5420834399508183e-06
0.00020221696738122885
-0.00022609438860508841
0.000511255423347348778
2.81384525455119359e-05
0.000178657334023881207
-0.000207860628106493092
0.000466847876792241131
5.07099545036539912e-05
0.000162261203288218179
-0.000198981522745450968
0.000438916968201719885
4.82295443309313239e-05
0.000163224864112739216
-0.000206117756724232015
0.000432421120209898675
2.44364468878334413e-05
0.000183626455327471277
-0.000226551839799912628
0.000432766188448472657
-3.36480255722331877e-06
0.000207920685793030764
-0.000237995268880693712
0.000421023030650200284
-1.7565686491846637e-05
0.000214707486197129611
-0.000226577144203067804
0.000388752889799466117
-2.95503199929905198e-05
0.000197318978173221632
-0.000186761008889835018
0.000335146081603275115
-3.73317544347183909e-05
0.000154295496981430007
-0.000126486845128536253
0.000271323821979102477
-4.60275879427307947e-05
9.40922171401114942e-05
-6.0179405387908837e-05
0.000216344848488361915
-5.75401984646688405e-05
3.29402223181757568e-05
-1.97058861979816818e-06
0.000183694221663194181
-7.22562334877686641e-05
-1.71714983735970657e-05
3.96037819080460483e-05
0.000171834750740590484
-7.99217798995118835e-05
-5.66360025370399051e-05
6.63244838927339037e-05
0.000168173030382784183
-5.0883890715778255e-05
-8.81943086639587888e-05
8.11778102846101189e-05
0.000149804963396951344
1.64116047865499953e-05
-9.48267526086418061e-05
7.57308026134911124e-05
0.000110752324182444086
8.08493189066304034e-05
-6.89897728089219718e-05
5.34660525440406849e-05
8.35787648024493901e-05
0.000154696503416252109
-5.94234034049911778e-05
3.36039971660707134e-05
5.62453835298316196e-05
0.00038700743464065027
-6.88949850455480677e-05
-7.09872420844684211e-06
2.28263057632665546e-05
0.000370747037524205253
0.000145644632606352207
-0.000154534014497771779
2.60819730338814515e-05
0.000865956801370373138
0.000240070238470552628
-0.000224549538016276463
0.0014094687851264262
0.000258583161588415826
-0.000240022776446156285
0.000178852854241339952
-0.000369484885523521807
-5.59268639530947811e-05
-0.000297479330313297292
0.000155857405388199567
-0.000517034747667613785
0.000206196935764175961
-0.000269605725768516918
0.000183980778835291273
-0.000613039591349949812
0.000164159256078325413
-0.000191948994725873014
0.000325151520493141186
-0.000828568991421480732
2.52412616218841072e-05
-6.49026052605618134e-05
0.000450623854444781515
-0.000881744707545594223
-3.94930665335733517e-05
2.05775595451070796e-05
0.000547698656082786081
-0.000779384710855642515
-6.29367316919354698e-05
5.71868022674646375e-05
0.00062720735642775088
-0.000560069595042815647
-7.25713520566068966e-05
5.90619585055616059e-05
0.000695592911006995729
-0.000267399665490705544
-7.14100840585356268e-05
2.98292030057039644e-05
0.00074655427214184375
2.24415765909793052e-05
-5.62896075456131793e-05
-1.94750043621007336e-05
0.000784608929657027799
0.000209884605602941789
-2.06394536218944521e-05
-7.09263396380065126e-05
0.000793981436604049599
0.000301438166037036614
2.18006549475985538e-05
-0.00011643623420229293
0.000776217593743238655
0.000317800019393573796
6.41470914223479306e-05
-0.000158991855212547436
0.000741982971625276952
0.000275604417081755457
0.000104037314525884633
-0.000190777232349467675
0.000702792227805742304
0.000192993277017444384
0.000136331604287151737
-0.000208521876503137409
0.000658713536983347443
0.000117927657343951133
0.000158096468197110976
-0.000210468737941596533
0.000605127928370648703
7.97935902333782451e-05
0.000163037835543179395
-0.000196342128336464487
0.000541478169663756536
7.71489684379843472e-05
0.000145499141500490575
-0.000167769141003101948
0.000478495536320095707
8.58686733516284413e-05
0.000113948770382440241
-0.00013329283796881784
0.000421851377264368613
0.000109407511897278571
8.25978581576970934e-05
-0.000107222724357597041
0.000381562709749441406
0.000129364476328140807
6.75428933198425082e-05
-0.000105908530555985216
0.000364111491034790273
0.000115423206675231368
8.04127323498331496e-05
-0.000130154758195572489
0.000360484857462329276
7.07833651751346954e-05
0.000112665962068638981
-0.000155385656599261714
0.000350585877219217396
2.57138859680150326e-05
0.000136871489055927941
-0.000156050441962956004
0.000317791052955561045
9.11242013570544469e-06
0.000128544873369953799
-0.000122427313561234417
0.000260646189217491134
3.44091516836702988e-06
8.71132826538673571e-05
-6.29595132147234499e-05
0.000193353407113322089
-1.88880711880331695e-06
2.86807400785311833e-05
3.16842629449261309e-06
0.00013348547693554813
-1.3554622918163602e-05
-2.94665268593711351e-05
5.6860428542271562e-05
9.44253695261938015e-05
-3.55505474895905998e-05
-7.46492549681124017e-05
9.1719119043289895e-05
8.62208937363544798e-05
-7.24667314568412028e-05
-0.00010378089132337497
0.000112195585692810893
0.000100701503363245519
-0.000100318708347765315
-0.0001244826436020803
0.000130398618930483085
0.000112600207230563262
-5.63214588727375896e-05
-0.00014813048062978614
0.000141669197938212589
9.76999649260005529e-05
5.10712860628378932e-05
-0.000145408012676879485
0.000125648940009992683
6.60028679184964675e-05
0.000129156966718649313
-0.000106300121747539251
8.96900227222066881e-05
4.89307213572675193e-05
0.00020532285849514197
-0.000105056428015832675