/*--------------------------------*- C++ -*----------------------------------*\
| =========                 |                                                 |
| \\      /  F ield         | OpenFOAM: The Open Source CFD Toolbox           |
|  \\    /   O peration     | Version:  2206                                  |
|   \\  /    A nd           | Website:  www.openfoam.com                      |
|    \\/     M anipulation  |                                                 |
\*---------------------------------------------------------------------------*/
FoamFile
{
    version     2.0;
    format      ascii;
    arch        "LSB;label=32;scalar=64";
    class       surfaceScalarField;
    location    "0.179999999999999993";
    object      alphaPhi0.water;
}
// * * * * * * * * * * * * * * * * * * * * * * * * * * * * * * * * * * * * * //

dimensions      [0 3 -1 0 0 0 0];

oriented        oriented;

internalField   nonuniform List<scalar> 
20390
(
5.44637918798041782e-06
5.97906158351613306e-10
-1.29315739754132775e-09
-5.38146474752582808e-06
9.52804119688317925e-06
-3.39055544299978784e-10
-4.88500130666453793e-09
-3.97666160545618138e-06
1.09329672238214445e-05
-3.45163063524383469e-09
1.06751375585039394e-06
-2.2315323596256214e-06
1.13508068809241309e-05
-1.50976669222832034e-07
1.11422224509574434e-06
-1.63286639131824343e-06
1.15789076500521296e-05
-3.73351828580291425e-07
1.1823584934742584e-06
-1.99490117560681131e-06
1.20888302367332088e-05
-5.07310201174735746e-07
1.25222431083315679e-06
-2.36839812718928236e-06
1.30837736143636179e-05
-6.8470626444027761e-07
1.33235494641798512e-06
-3.4222887484361886e-06
1.62018584210999597e-05
-6.45607830210725848e-07
1.14966730233646261e-06
-4.17738860083769881e-06
1.91280225066402152e-05
-9.54491132326489216e-07
9.02755080155951536e-07
-6.18561350340296584e-06
2.08334416170842323e-05
-1.08910189028580242e-06
6.89235399437103182e-07
-7.41775817733698503e-06
2.29130922379627501e-05
-1.19149589035633794e-06
5.7743396019868261e-07
-7.54259199948956036e-06
2.29700828826691002e-05
-1.28656628407045343e-06
9.58692329636392207e-07
-6.90234115915624357e-06
2.18270911489942018e-05
-1.28457832269882027e-06
1.37653183724499756e-06
-6.54716251253823452e-06
1.94546412790413441e-05
-1.22833677714002117e-06
1.67801564151000505e-06
-6.24412245639712822e-06
1.678298469260819e-05
-1.10927080260183182e-06
1.7569773709755786e-06
-5.48365157491004245e-06
1.4105360599008752e-05
-9.75697250155012759e-07
1.74710059492918287e-06
-4.79578671757835483e-06
1.15915424404567605e-05
-8.24469162811471911e-07
1.65536829689825032e-06
-3.99081402985287656e-06
9.06896689764778496e-06
-6.6727849044435026e-07
1.51761584950722015e-06
-3.20464206017724449e-06
6.91839417700106478e-06
-4.79246538156961288e-07
1.26997311217990217e-06
-2.40963933149620019e-06
5.35956274066619845e-06
-3.18061813412854171e-07
1.07381916966017406e-06
-1.87680029462384186e-06
3.826428207599833e-06
-1.95200041843265865e-07
8.54897872646219827e-07
-1.42046153427916407e-06
2.57711863206458806e-06
-5.01080300660040141e-08
5.85747645230823567e-07
-1.02409037953151614e-06
1.86822011338432889e-06
2.73069701528035902e-08
3.94690363834072009e-07
-7.69455893017084006e-07
1.17261795805213925e-06
4.79722942943097192e-08
2.65995050353750568e-07
-5.50333616257863954e-07
6.2722925019711909e-07
6.08772883879868914e-08
2.13991622355230828e-07
-3.28454555319855217e-07
3.59494558059943955e-07
6.25531198897875433e-08
9.90563929432779688e-08
-1.80815164006973286e-07
1.85321739355971846e-07
5.54331761917340543e-08
6.12710425525580389e-08
-1.27677736120003057e-07
7.83660023425990016e-08
4.3359941208303279e-08
3.72922282176238942e-08
-8.1856922529829218e-08
2.65220166741595307e-08
2.52687542966070298e-08
1.9937157837420363e-08
-4.88978869028960694e-08
6.79815429427678973e-09
1.07613948335099482e-08
8.45399402372561672e-09
-2.40823278311068669e-08
1.32519057937408044e-09
3.60454402995137874e-09
2.76718040946461347e-09
-9.09352001618616047e-09
1.99090511511776385e-10
8.8019255868842311e-10
7.00649118483711105e-10
-2.60702084739591365e-09
1.98131410436273258e-11
1.68730700559770038e-10
1.45152691522445769e-10
-5.84921235047517083e-10
2.86279685733661309e-14
2.92156892460621435e-11
2.52334157695148374e-11
-1.08103498702624916e-10
-3.80917586467605619e-13
4.14627428755162519e-12
3.55336916671191942e-12
-1.61807956590828775e-11
-5.72029784262504688e-14
4.39790951435291477e-13
3.77929208318974483e-13
-1.86455499873617448e-12
1.70479238609508251e-15
3.28196668549730431e-14
2.86916957631277258e-14
-1.56823535389269291e-13
1.35334352559235997e-15
1.40143583724838385e-15
-8.11473839248626247e-15
-4.90838606662344265e-10
-1.07483794759245179e-10
-3.234568060214911e-10
-1.29604604782868019e-11
3.52577795634227434e-10
-4.09825857962242561e-10
-1.69187782697342411e-09
2.55722350467979899e-09
8.52286287722834202e-09
-7.42630588644155324e-09
-4.48211109257052418e-09
3.41148266916886422e-08
4.33392629266892458e-07
-1.54930137599098455e-07
-8.70923343127202956e-10
-3.70419648663821201e-07
1.09792198364833354e-06
-3.53861770185377007e-07
4.58762403611333346e-08
-9.27332991109628857e-07
1.28983454916875881e-06
-2.59648508526099271e-07
1.15792000529354083e-07
-8.41556642927387225e-07
1.24010936723653288e-06
-1.8031333017270855e-07
1.40808809161289971e-07
-8.13238697954608759e-07
1.1450571783310778e-06
-1.46099598910977147e-07
1.59840741630500616e-07
-7.18150799888578108e-07
1.06692976940529128e-06
-2.02948745071446701e-07
1.70320323508750659e-07
-9.78320568766290468e-07
1.08137532317325391e-06
-2.72887648343984998e-07
1.85669339174142991e-07
-1.14592396026593954e-06
1.13893225115570838e-06
-3.13724417124111041e-07
2.05346260054612272e-07
-1.25921339071347726e-06
1.18631873890210086e-06
-3.2764559376477959e-07
2.46046725815088199e-07
-1.35606179000257214e-06
1.22341442862045951e-06
-3.23525363328911311e-07
2.72162445194716938e-07
-1.36055779115292442e-06
1.22887149390183834e-06
-3.02848828322268375e-07
2.9309319805260508e-07
-1.30685051152783523e-06
1.19832544824018531e-06
-2.6519370113595031e-07
3.02868976640384228e-07
-1.19473497807116242e-06
1.11671944387449984e-06
-2.18468551319223988e-07
2.94914302328584118e-07
-1.02231045808921371e-06
1.0387243324151936e-06
-1.72092459395760369e-07
2.75033877322866596e-07
-8.30671444215522038e-07
1.04013733523827758e-06
-1.44266714018741926e-07
2.5457500988352995e-07
-6.86251006554150279e-07
1.11207387322637178e-06
-1.27303856405361533e-07
2.77408878463124899e-07
-6.45883619895477312e-07
1.10776894067280229e-06
-9.35709421493283742e-08
2.76612134365348179e-07
-5.97752628333510243e-07
1.05204404382904731e-06
-5.64488980332151582e-08
2.68255360929032193e-07
-5.36096012296048367e-07
9.67172622597336773e-07
-1.01729584853269007e-08
2.37074716367543609e-07
-4.58063954035009152e-07
8.63458157097237915e-07
-4.38528426484503128e-09
2.14808740977118823e-07
-3.83408566036900358e-07
7.10200093144904904e-07
-4.5811818794233759e-09
1.81150401481189441e-07
-3.27539801822543001e-07
5.25327536990620611e-07
5.76639298524861982e-09
1.39249379655538336e-07
-2.50150529052962389e-07
3.47010440460801689e-07
3.21704733954528011e-08
9.22160666201041762e-08
-1.77790445788264748e-07
1.98514993403730421e-07
4.47777026642341151e-08
5.71624623493041991e-08
-1.23236854445603976e-07
8.46104899020765776e-08
3.52321678871531039e-08
3.08809091552383201e-08
-7.55337374053092809e-08
2.45086892653075354e-08
2.26846240782230793e-08
1.3958782611944673e-08
-4.08956329392219614e-08
5.91382296552011093e-09
1.17053259869008928e-08
5.17307508509703616e-09
-1.86316983203544854e-08
1.46640918320783203e-09
4.79014873854269534e-09
2.32738694781490069e-09
-7.42370763622366039e-09
2.48000535618458673e-10
1.52198889493736234e-09
6.82464284718790955e-10
-2.47409908885532911e-09
2.62302416857997873e-11
3.22958458753819376e-10
1.52929699423295328e-10
-6.07843244656789035e-10
4.65643901866580967e-13
5.95094993732794539e-11
2.82271520404367885e-11
-1.21274255020472687e-10
-4.07510364301354769e-13
8.82666825913792662e-12
4.16622254956812837e-12
-1.90782531651725297e-11
-6.5954356228722505e-14
9.81309587142780912e-13
4.64276438030857779e-13
-2.28830533127822986e-12
2.662061054958707e-15
7.89734310113554548e-14
3.71336437105362146e-14
-2.01166262933952968e-13
3.68893988552543537e-15
1.95807535892011697e-15
-1.1231639827014098e-14
-2.0641853951916002e-09
3.03468030061793235e-10
-4.05887419973032946e-10
2.16731040477078544e-09
-1.08560739958789764e-08
5.13244325837487605e-10
-2.31700681103382739e-09
1.1100320292950166e-08
-5.01455547595866567e-08
-3.93206248174506039e-09
-6.38158794255504181e-09
4.12713037211488959e-08
-3.70103028909888954e-09
-4.44413013689280199e-08
-4.33347261927717279e-09
-1.62851187690836389e-07
3.75558848533510305e-08
-6.55903600081025874e-08
8.98147458251062275e-09
-3.87842485046642583e-07
2.4027441017149306e-08
-2.30435073200873677e-08
1.04211415592871827e-08
-2.66261519028204246e-07
2.24075911051520629e-08
-2.16390026794039624e-08
1.13869327400099252e-08
-1.89388368028544997e-07
5.29791756229500637e-08
-3.8360384069457738e-08
1.1281885861669059e-08
-1.75405838374901968e-07
9.68541281995128562e-08
-6.01322879310920147e-08
2.00986681223427988e-08
-2.35258871535554565e-07
1.4250062705225649e-07
-7.72760747781431095e-08
3.29380330667802306e-08
-3.01040425451397259e-07
1.7598655246538014e-07
-8.61685308315029402e-08
4.36175440687852369e-08
-3.29470331364586943e-07
1.94002472032630684e-07
-8.72601020672841561e-08
5.12462730747382354e-08
-3.31123254015219238e-07
2.02699493746967541e-07
-8.09944455445776419e-08
5.33049955418617745e-08
-3.19490362047494197e-07
2.03239600723237405e-07
-7.11193727119917179e-08
5.3546027827025156e-08
-2.99420524894548543e-07
1.9688034885666463e-07
-6.08771726511529634e-08
5.26262951806575384e-08
-2.64072759881751462e-07
1.90285424088255264e-07
-4.82258324595354816e-08
5.27238706489831126e-08
-2.32622495818225462e-07
1.8200387665845339e-07
-3.4257411421203626e-08
4.9412710267512732e-08
-1.96026270523224783e-07
1.74962791927509004e-07
-2.45102679566287022e-08
4.32126598672112557e-08
-1.58746906010059961e-07
1.7045236604830989e-07
-1.38228622696585551e-08
4.17193164931406754e-08
-1.30608341108807622e-07
1.52821528965485871e-07
-3.47694144997691487e-09
4.06125251881530881e-08
-1.18122092301027006e-07
1.44626889943838208e-07
-9.54987311461320471e-10
3.89812003258330684e-08
-1.08413071445525009e-07
1.48308189706155729e-07
-2.94078502606860134e-09
4.15292983846357653e-08
-1.02924441942576835e-07
1.25804731440568925e-07
-3.58454640516109302e-09
3.86134134566768795e-08
-9.82375991465138404e-08
1.04998416894276169e-07
2.17672224499113208e-09
3.89655323386341863e-08
-8.44296694938109961e-08
9.27907703972870525e-08
9.63206727694344862e-09
3.84384696976911692e-08
-7.32687067402203172e-08
7.90982405115530763e-08
1.52212024062516386e-08
3.53679157811552763e-08
-6.18440982911668668e-08
5.83127382513293298e-08
1.74430725953533222e-08
2.80042096023031267e-08
-4.93669701226467096e-08
3.5392583847421928e-08
1.35281570297781555e-08
1.82181445179450244e-08
-3.58433143307522372e-08
1.69391350508049869e-08
6.18817861129516822e-09
1.05485330305529953e-08
-2.25450127580120426e-08
5.76865896604290813e-09
3.90323614391750301e-09
4.19100401936201237e-09
-1.23347863894715747e-08
9.64252120857894437e-10
2.81492651474120807e-09
1.19246695804449873e-09
-4.76841178431028447e-09
5.64149138731360287e-11
9.08385278770011244e-10
3.02559921689839046e-10
-1.47024890371573401e-09
-2.17290855775354977e-11
1.93056599358903649e-10
6.09372187236405622e-11
-3.30046268759664533e-10
-4.86263716205492185e-12
3.11535331668797863e-11
1.23727543415603912e-11
-6.05212511490994797e-11
-7.90349777929707558e-13
5.22470621242480057e-12
2.00627010611654276e-12
-1.00007264049068841e-11
-8.20187515171552393e-14
6.44836557109188966e-13
2.4447034274480043e-13
-1.25645415114139165e-12
3.68376197236280374e-16
5.61521788335777491e-14
2.08920947310716894e-14
-1.14383183268222908e-13
2.9624192504336154e-15
1.18366680527211949e-15
-6.90373659608313863e-15
-1.18608564203153118e-09
4.47887271578100942e-10
-2.18436127648240008e-10
1.23822627864874313e-09
-4.24705014298227597e-09
3.80815774308033e-10
-7.81502659561432251e-10
4.68765475883460855e-09
-2.70971558431754773e-08
-4.77718555400871634e-10
-2.03956873444146994e-09
2.40842414796696095e-08
-3.96256910227374921e-08
-3.7630342255641323e-09
-2.54645776710072255e-09
-1.98042733918469085e-08
-2.25418037919973531e-08
-7.40246624465250525e-09
-4.75863006708417163e-10
-7.13714488004420802e-08
-1.33252791358816059e-08
-4.64591992053386782e-09
1.30880661004393937e-10
-3.02426914446424206e-08
-1.13488101141293751e-08
-6.21477004640924375e-09
4.85191088894137434e-10
-2.09840196145575094e-08
-9.29924221456270216e-09
-1.10289475907497771e-08
5.12526631314246962e-10
-3.31916632229684586e-08
-4.57355138217262269e-09
-1.70933001622332785e-08
2.52949760102422999e-09
-5.48527281310763444e-08
2.08299983565874155e-09
-2.1703027170102683e-08
5.02947268275184332e-09
-7.17955476408455148e-08
8.92881412881216192e-09
-2.268544789922918e-08
6.89138515692439325e-09
-8.08721776989582652e-08
1.40870146585809942e-08
-2.02860688483435047e-08
7.55231208046768059e-09
-8.22107662317296249e-08
1.68479645259419755e-08
-1.66041340025840964e-08
7.07071314589339779e-09
-7.50550826653815692e-08
1.88725674039762877e-08
-1.35884047998530288e-08
6.41558652242238889e-09
-6.62146247605289666e-08
2.0783790345817283e-08
-1.05405285148573733e-08
5.83556659626777689e-09
-5.57789451976684774e-08
2.33703232810136628e-08
-6.47737520779136923e-09
6.82726132238204601e-09
-4.55325979019131007e-08
2.29120730295678096e-08
-2.64868812758288356e-09
7.12228171705839369e-09
-3.9020963878976122e-08
2.14935613380203257e-08
-1.30746738847481387e-10
6.97687189322130193e-09
-3.06273752780388534e-08
2.0006843987829197e-08
-5.16984647441491323e-10
6.46833231335766703e-09
-2.39930811050624905e-08
1.95089666210328327e-08
-6.57909142871869292e-10
7.335324017847444e-09
-2.25349451603141195e-08
1.74964322974851596e-08
-1.09742588419215264e-09
8.38673111222603343e-09
-2.13956328112464077e-08
1.48377605078450322e-08
-1.2763668586818884e-09
8.17281966754911915e-09
-2.40805224081781054e-08
1.52171899636639683e-08
-1.26859013751946139e-11
1.00042797717580617e-08
-2.2040215967818426e-08
1.60649221182937298e-08
2.33624540047153871e-09
1.25881872844036106e-08
-2.34898351698786326e-08
1.62949065816453168e-08
6.33053981614740212e-09
1.40028035133873193e-08
-2.62788354303599211e-08
1.60136195656952267e-08
9.5824448407645861e-09
1.43267043442277491e-08
-2.64506537920440927e-08
1.41312681923286133e-08
1.09036706262534856e-08
1.22124869598653193e-08
-2.38778232785216255e-08
1.00410323266656848e-08
9.35462207793488142e-09
8.22741283442797084e-09
-1.87357092986247475e-08
5.25700103431828169e-09
5.27620531966820561e-09
4.375595809878013e-09
-1.17092532213810874e-08
2.06983048891399291e-09
1.73647914149714116e-09
1.94299590669777566e-09
-5.85716893487897051e-09
6.05122560722880276e-10
5.33021737825049846e-10
7.53829378149264754e-10
-2.40527752216931787e-09
8.24043775831685044e-11
2.20685048352058176e-10
1.76843156953790085e-10
-7.95657395205090435e-10
-3.8634310039853368e-12
7.64322068555966787e-11
3.46790845545579137e-11
-1.78763954698904681e-10
-2.64207887423858241e-12
1.72223594493081666e-11
6.2438966492953162e-12
-3.16463853630285447e-11
-4.62619182225152272e-13
2.84972868509381466e-12
1.01777462704793729e-12
-5.11837617179652948e-12
-4.73860927725094442e-14
3.85473635392506874e-13
1.27488558326132077e-13
-6.51342752441375011e-13
4.68938623202573806e-17
3.66067014078508466e-14
1.2113152536882168e-14
-5.96918388510874206e-14
2.0347844369850662e-15
6.88642701890992075e-16
-3.71619805558439947e-15
-4.80289870593765177e-10
2.62908044395872054e-10
-1.27207158825185343e-10
7.97933720250240417e-10
-1.45807433161488358e-09
1.8482632862549296e-10
-4.63721258713929523e-10
2.43293392123087151e-09
-2.96053572944200422e-09
-1.11578758357564625e-10
-1.06825417541096979e-09
4.50461222094577245e-09
-6.31276140767577292e-09
-7.41685412244181094e-10
-8.60772604865288405e-10
4.01302770936954908e-09
-5.21268468195999288e-09
-1.29540883423370077e-09
-1.49133812432889448e-10
-3.7304905588298298e-09
-5.21101809232787281e-09
-1.1111064478903623e-09
-7.94437334535156412e-11
-2.39372876957561733e-09
-5.70103838724484424e-09
-1.81599562316925015e-09
-2.04801950745585301e-10
-2.68053605340263672e-09
-6.14388338394936458e-09
-3.52194457295544377e-09
-2.98681852079689862e-10
-6.65650186372321142e-09
-5.92446136473757882e-09
-5.37951250680778675e-09
-1.91670381746116786e-10
-1.21707692368401772e-08
-4.81379364266303257e-09
-6.07593606875299305e-09
1.26535801961608923e-10
-1.68002740504660604e-08
-3.71455390031527716e-09
-5.48892034224244939e-09
4.59608246264528856e-10
-1.81438746670800959e-08
-2.73594296639514664e-09
-4.1674874906890996e-09
7.49051495155180276e-10
-1.53600119205265683e-08
-2.00865904582958166e-09
-2.90255051679883162e-09
8.41188538381997372e-10
-1.16823188553705809e-08
-1.27717673558174843e-09
-1.89380358481068024e-09
9.39732099042205364e-10
-9.54192696833641643e-09
-5.49884335509236522e-10
-9.27510371394620546e-10
1.10810936270230668e-09
-9.10404280367956116e-09
2.39181462483665324e-11
-3.84808319649170937e-11
1.30474432956983241e-09
-7.61043056627627319e-09
3.51841639326995682e-10
-1.43280696788681749e-10
1.43691077687607705e-09
-6.08223676983407684e-09
4.28483251518241991e-10
-2.05076127490665934e-10
1.51485345886214534e-09
-5.38948617036619065e-09
4.71781139108127049e-10
-2.91736553886871865e-10
1.49049938919371474e-09
-4.84516658782817778e-09
4.4082839730020286e-10
-4.28905288699739625e-10
1.60915060133955795e-09
-5.30360866037614785e-09
3.56800064006105249e-10
-3.51915329758365386e-10
1.80226551679732719e-09
-6.66135324094596656e-09
2.41730735312047132e-10
-4.45450265282890588e-11
2.21246786493179753e-09
-5.39452997970890594e-09
2.69191090744313994e-10
5.90832226773128233e-10
2.81181597645184371e-09
-5.91701350608449936e-09
4.98366595360736502e-10
1.52017799254323292e-09
3.69704318671144486e-09
-7.19065925285902512e-09
8.77143337260048823e-10
3.17846567832891926e-09
4.51463735921576522e-09
-8.66592460889894346e-09
1.43777912959303626e-09
4.60509802980275533e-09
4.96848234793928476e-09
-9.40998401391172314e-09
2.07814861754610332e-09
5.26941325225526586e-09
4.65617771725091871e-09
-9.20967005729747599e-09
2.23569758887120148e-09
4.70894780064366075e-09
3.49802427166304919e-09
-7.90181242924978472e-09
1.64073276837443264e-09
2.85482515702613815e-09
2.05453813984080476e-09
-5.39687178172211504e-09
7.57383880060775276e-10
1.14597708951419669e-09
8.53758169240229719e-10
-2.81879113468793963e-09
2.26774119524266027e-10
3.46710955564283433e-10
2.91182326337071687e-10
-1.09455445257727836e-09
4.03358690129678911e-11
9.06717283793918012e-11
8.41698228671766103e-11
-3.45700081841038777e-10
3.57826906930618518e-13
3.29227476419214075e-11
1.69617589876726433e-11
-8.34531732172616597e-11
-1.27265902018748116e-12
8.3532770700220348e-12
2.93382143973115343e-12
-1.54893857977752627e-11
-2.38818065006211024e-13
1.46894888653861224e-12
4.6481311449367198e-13
-2.34073236172345554e-12
-2.19403337870648827e-14
2.15262493403920672e-13
6.15652266883476418e-14
-3.03233100715239997e-13
-3.75945251158344955e-17
2.30559035028479937e-14
6.88451653881303958e-15
-2.89209817167934679e-14
1.24434412431479233e-15
3.58896754839345732e-16
-1.77989805145141882e-15
-3.91141294372431961e-10
1.73096876464919844e-10
-9.79176431609348117e-11
5.93415604229326958e-10
-8.25826835518509787e-10
1.4364438562994185e-10
-3.44499939981525274e-10
1.52324056700978558e-09
-1.73722945323306359e-09
2.20798831207321414e-11
-6.76241356749165193e-10
2.26158769615234781e-09
-2.62118615549930406e-09
-1.56669237010105904e-10
-5.56222071535981843e-10
1.20364958168823868e-09
-2.42900709942097975e-09
-2.79471932356939778e-10
-1.7485293971774337e-10
6.0280780678748142e-10
-2.31101329265417675e-09
-4.35102132054342398e-10
-2.57929416995186139e-11
4.88261870315603508e-10
-2.44496334144861059e-09
-8.02117374201613449e-10
-6.17911073489994686e-11
3.58086622327070707e-11
-2.8486841501449843e-09
-1.22189146078175609e-09
-9.1924975120922109e-11
-6.84129810517027355e-10
-3.11152235201346633e-09
-1.52872828983350549e-09
-1.34432212980688873e-10
-2.1507324814576415e-09
-2.91143470647761249e-09
-1.47627244814718105e-09
-1.03019275934995319e-10
-3.37717640232043829e-09
-2.45075903162827437e-09
-1.12056056125031278e-09
-6.19361387205939848e-12
-2.81131296560864421e-09
-2.07555835912745013e-09
-6.98393241150945581e-10
4.89902754256614183e-11
-2.01828314833938566e-09
-1.88322992898224051e-09
-3.33194722407222658e-10
7.1645800186206794e-11
-1.52782438169661141e-09
-1.68355400354934606e-09
5.09746568679188576e-14
1.22332006097074156e-10
-1.40155894543560409e-09
-1.6835715777476234e-09
-7.84555670402019598e-12
1.96429485743946979e-10
-8.92144520986456572e-10
-1.51140032751021344e-09
-1.11704349523742985e-11
2.92096039409091787e-10
-1.30299936229732519e-09
-1.27679929437498009e-09
-7.39026440176223585e-11
3.43403708641297845e-10
-1.34772487375092696e-09
-1.12801898768813363e-09
-9.11817247722499541e-11
3.84219782596877693e-10
-1.12439000566459703e-09
-1.06549048846324599e-09
-1.07099062168197728e-10
3.86094432273169554e-10
-1.39607664581833417e-09
-1.01907260070935978e-09
-1.25492306398729203e-10
4.84317006431901789e-10
-1.51860594425473573e-09
-9.85922143597193689e-10
-3.17451247647125238e-11
6.18316728163964066e-10
-1.55966209769153373e-09
-9.66706795137564433e-10
1.45380735382130389e-10
7.8362626988288895e-10
-1.83248058162704768e-09
-9.34946047191670478e-10
4.13878818648804128e-10
9.74914309161983596e-10
-2.16828598386820224e-09
-8.41183766228573112e-10
8.2555103816318495e-10
1.29776469548373295e-09
-2.56091900571481464e-09
-6.93439358846035357e-10
1.51084046156631416e-09
1.62560083824175592e-09
-3.20237653988811653e-09
-3.68562983177510983e-10
2.09168830791052808e-09
1.84202943956219593e-09
-3.61271502806423224e-09
8.53852495567210053e-11
2.35811129167835442e-09
1.80914143110349573e-09
-3.67593683695481689e-09
4.48102215555645679e-10
2.14411021031912572e-09
1.41658335975298852e-09
-3.29773165971571653e-09
4.83626055787799596e-10
1.34926821604590934e-09
8.40250629942993797e-10
-2.33173793643913675e-09
2.7895549786293882e-10
5.74109717719007884e-10
3.7553284705510759e-10
-1.22167855791998762e-09
8.91092194888786552e-11
1.89779344425997885e-10
1.24898287025143657e-10
-4.87297765442069135e-10
1.62155121818663211e-11
4.70341105342500814e-11
3.45882930165555324e-11
-1.41966460910511486e-10
8.37423000858228961e-13
1.34586925921178389e-11
7.58075751743514884e-12
-3.68134780622944529e-11
-4.40156370521308013e-13
3.73803541421458978e-12
1.36846803736306263e-12
-6.96616432761033276e-12
-9.52898565099286042e-14
7.57673811993952087e-13
2.17708130734115735e-13
-1.07038984164663132e-12
-5.15001740309391532e-15
1.19048745934628189e-13
3.27504072620661767e-14
-1.39194949600616653e-13
1.60443424742364289e-16
1.4240916472562588e-14
3.95274132357347933e-15
-1.48351564442396139e-14
7.25541356724357745e-16
1.8078106047934828e-16
-8.49523743650391977e-16
-4.44284362604811678e-10
1.45954444260522295e-10
-9.09628646943238263e-11
5.95931115997708169e-10
-8.55989401995854338e-10
1.41630838869528575e-10
-2.84676530100847941e-10
1.31024736719211532e-09
-1.28083201628236362e-09
9.24200519857723708e-11
-5.27898356294797621e-10
2.68386022555646378e-09
-1.67259890304533393e-09
4.88596735917122501e-12
-3.45898959606165801e-10
9.04927516540386687e-10
-1.86211473249338735e-09
-1.01745807444095758e-10
-1.26829382977036383e-10
2.11846344414529421e-10
-1.51214764873990001e-09
-2.3806439021340181e-10
-1.56474738420827276e-11
3.52434633005815568e-10
-1.67347956203036403e-09
-3.56315382289829456e-10
-5.05206754090799803e-11
5.10875453359226164e-10
-1.69852208621230838e-09
-4.61427378132337784e-10
-8.81621820296986034e-11
-4.34447057207976144e-11
-1.56823315358013162e-09
-4.70772875167241346e-10
-8.59497941499376612e-11
-3.99494032881532669e-10
-1.40154630485472968e-09
-3.73339786869245842e-10
-4.95020268441728574e-11
-4.50521721789032248e-10
-1.27310435950418304e-09
-2.27876842852431663e-10
-2.92698558175163704e-11
-3.33060895548270397e-10
-1.12869137946548944e-09
-7.13218244716970416e-11
-2.44819599765441463e-11
-1.90094785690625116e-10
-1.01188299059485691e-09
6.21791511223039267e-12
-9.20112407265023333e-12
-4.69504319687178587e-11
-9.9420389882237785e-10
1.29555865791149802e-11
1.69340537814273855e-11
-4.3440423720799705e-11
-9.26433199452366793e-10
1.53149595391755841e-11
4.69762998409101353e-11
-1.99725104593953067e-10
-8.30186547380754449e-10
-9.3385522487509376e-12
8.62334063729011473e-11
-2.95235452761905404e-10
-7.45578393667851689e-10
-1.71644208082023243e-11
9.81260716815098818e-11
-3.50950294585707142e-10
-6.70093398138342306e-10
-1.10244080132718184e-11
1.00455647145029159e-10
-3.77845340955403757e-10
-6.37947381623183409e-10
-2.52329066561801077e-11
1.42501985722246575e-10
-4.15110188834480954e-10
-6.31253793051700679e-10
-2.37908481057572912e-11
1.87166108856915262e-10
-4.77162162203822399e-10
-6.29052281746487884e-10
1.25808837637040092e-11
2.41123010215689525e-10
-5.78076147688585067e-10
-6.13241132919204974e-10
8.89275446196204733e-11
3.0070300140223278e-10
-7.31438241026092038e-10
-5.79704792405757009e-10
2.20572349981837356e-10
3.73511024694874684e-10
-8.62548963844239286e-10
-5.15471340381880702e-10
4.01561159466012423e-10
4.92591554204755023e-10
-1.03125827270590709e-09
-4.39675543482532133e-10
6.91537436822991218e-10
6.17714628882712544e-10
-1.28512198028964839e-09
-2.93484349185886251e-10
9.24962929388609201e-10
7.02967917639970417e-10
-1.45383804200192098e-09
-9.29593499790733202e-11
1.02447445434686106e-09
7.0363420927872065e-10
-1.49241831490197883e-09
9.73235491172449353e-11
9.27826375666903897e-10
5.71408843371461201e-10
-1.36171459898666825e-09
1.60476376372147291e-10
5.96260555414738493e-10
3.48914810279329805e-10
-9.85867848245430151e-10
1.04925172804172814e-10
2.67391811201639581e-10
1.56157702317402085e-10
-5.28479578320571076e-10
3.71694315906964613e-11
9.13010972774887264e-11
5.35632942045337726e-11
-2.08805123618226553e-10
6.46526650791516605e-12
2.46335014297254963e-11
1.47739358548286151e-11
-6.17253449186675156e-11
4.11773127527390139e-13
5.65030173168062087e-12
3.27491217402498415e-12
-1.46790819267559627e-11
-1.24687465352487254e-13
1.64365739711121247e-12
6.06915642481160893e-13
-2.96950873847919849e-12
-2.48869767410815947e-14
3.75595158299816935e-13
1.05504183424663026e-13
-4.76998987657524702e-13
2.75182869336079124e-16
6.75786332145317211e-14
1.73246892079368972e-14
-6.59299343344221338e-14
1.28156554159306471e-16
7.79796422098916475e-15
1.91199663523632707e-15
-7.62729546841859967e-15
3.75524740817285408e-16
8.41080738113071405e-17
-3.8626841148146471e-16
-4.3646191455445639e-10
1.18758821046528389e-10
-9.37880713220011962e-11
5.92197344793699132e-10
-6.71366055474294437e-10
1.51099339941498615e-10
-2.80933049796226249e-10
1.07762943949138248e-09
-1.41128820096103357e-09
1.13744915213482249e-10
-4.10652744006383255e-10
2.78180040268470791e-09
-1.48565432291273532e-09
7.78583913152880443e-11
-2.78138347916561398e-10
9.97311539817632087e-10
-1.51079886364315952e-09
-5.77157912934700156e-12
-7.35331591216047249e-11
1.12232757353472272e-10
-1.18709466423608762e-09
-9.7216842062167897e-11
-1.60659363532395277e-11
3.39611040634375575e-10
-1.07890447855551742e-09
-1.51678076470663999e-10
-4.18672895016498529e-11
2.84922169280016498e-10
-1.01325352540802057e-09
-1.78301863762090459e-10
-5.1685291973173532e-11
1.36010429869159136e-10
-9.21075721950702142e-10
-1.48315379372760037e-10
-5.36196893839859253e-11
4.42817173949067038e-11
-8.04457087904545948e-10
-8.63643150876448161e-11
-4.7378530291626131e-11
1.72152779649802952e-11
-6.8714093073858096e-10
-2.4187459043476551e-11
-3.80878464946011169e-11
3.94727511905390754e-11
-5.84594955062396397e-10
8.10945435731190991e-12
-2.79163288229795485e-11
1.02487545045073263e-10
-5.12714187366100833e-10
1.66881225242933717e-11
-1.85200101683470522e-11
1.06476860038332623e-10
-4.72920961187760525e-10
1.82320699280418273e-11
-4.74086802508091572e-12
3.89674022207357137e-11
-4.33095283937230356e-10
1.56819317343712332e-11
9.92782838466951759e-12
-9.5981898213526398e-12
-3.88461479693819713e-10
1.29507168360722008e-11
2.09624925670186762e-11
-4.53138650983114738e-11
-3.49319219580754497e-10
9.19494339101768444e-12
2.88313820389654367e-11
-9.20841055319448123e-11
-3.11700297714767366e-10
2.52875391681619203e-12
3.9450596025379903e-11
-1.26596679208904111e-10
-2.96276267395620978e-10
-2.16524440598338379e-12
5.17394515127399229e-11
-1.49817568018474663e-10
-2.98295823221990066e-10
4.29207370037698476e-12
7.00521523307300036e-11
-1.80193019971850047e-10
-2.9760545209991055e-10
1.94193401336506892e-11
9.18051638686013944e-11
-2.33234392736088622e-10
-2.89069999290359597e-10
4.90652794799336942e-11
1.19502437707005828e-10
-2.94454324883588169e-10
-2.73211126054322214e-10
1.02321298453273703e-10
1.49588228172567746e-10
-3.59730940996000015e-10
-2.39305331511319833e-10
1.77613060412066048e-10
1.92357886409467512e-10
-4.30120820981223038e-10
-2.01401635290128938e-10
3.02688941140454124e-10
2.38073837601978361e-10
-5.32470209455369114e-10
-1.3676625879402262e-10
3.98818468810859247e-10
2.69188267779556507e-10
-5.96585906011288747e-10
-5.37583473561183395e-11
4.34374563185228796e-10
2.71538886104561488e-10
-6.08410774536903978e-10
2.57402105470178783e-11
3.90695511550025379e-10
2.24322314854389929e-10
-5.54230741155880729e-10
5.68726731497219123e-11
2.53954534168400614e-10
1.39845726436090047e-10
-4.04147805508610444e-10
4.02077604676602679e-11
1.18666098697060112e-10
6.4307472841442237e-11
-2.19929790045439647e-10
1.4784708785043331e-11
4.19878985773584224e-11
2.20068571253109724e-11
-8.77385303293268812e-11
2.61286536998000576e-12
1.1356867157363348e-11
6.20136658486348409e-12
-2.57019572665317212e-11
1.95731483517766956e-13
2.63509725176134579e-12
1.32642064664034222e-12
-5.85784067696874276e-12