/*--------------------------------*- C++ -*----------------------------------*\
| =========                 |                                                 |
| \\      /  F ield         | OpenFOAM: The Open Source CFD Toolbox           |
|  \\    /   O peration     | Version:  2206                                  |
|   \\  /    A nd           | Website:  www.openfoam.com                      |
|    \\/     M anipulation  |                                                 |
\*---------------------------------------------------------------------------*/
FoamFile
{
    version     2.0;
    format      ascii;
    arch        "LSB;label=32;scalar=64";
    class       volScalarField;
    location    "0.179999999999999993";
    object      alpha.water;
}
// * * * * * * * * * * * * * * * * * * * * * * * * * * * * * * * * * * * * * //

dimensions      [0 0 0 0 0 0 0];

internalField   nonuniform List<scalar> 
7236
(
-0.000477107142210145621
-0.00047465489245629883
-0.000429647135531848292
0.00154812875458393826
0.00427548311752152556
0.00543272592703738719
0.0114966529796772902
0.00908147729651742966
0.0223908033343329024
0.0355912096860456495
0.0386058095970034099
0.0455280627944058894
0.0472204989442707168
0.0476829546346309863
0.0418463370225410913
0.0359642462718948869
0.0298266056497968508
0.0241562923096215118
0.0180592206054990163
0.0131951445678618537
0.0105903142339360927
0.0073698861213284091
0.00447400357460745086
0.00380723768997864517
0.00240906965699365675
0.00114631907601586008
0.000724799019980232676
0.00041885385981058602
0.000214008320026587494
9.45628054795823322e-05
3.14878687272246495e-05
8.26721259193284147e-06
1.72945630815622128e-06
2.82026746806833127e-07
3.41430626846301192e-08
2.77698085919558026e-09
1.39799139827435719e-10
2.71288215492001624e-11
-1.14205661062622389e-05
7.09802960494957548e-06
0.000103059104954324424
9.71349140105908551e-05
0.00101489005254128215
0.00142605705305917305
0.00120758217512816806
0.00104559977901571102
0.00108918565252697093
0.00115685300251550994
0.00117913200675090306
0.00116750755207411876
0.00113843771074309411
0.00109568930073151126
0.00105162425838240285
0.00102797038936583299
0.000969922085484331759
0.000916532663450164557
0.00109849508901516341
0.00159441830027362303
0.00178588567465734938
0.00184062628915242135
0.00178914439657522698
0.00173214527409835213
0.00150801346259334156
0.00117318178683425761
0.000878433272751006971
0.000643679386857334878
0.000344944739025856702
0.000119605838291075313
3.21173086123534502e-05
9.09684748683104051e-06
2.00651629662641179e-06
3.39934113283708754e-07
4.26456174163770353e-08
3.6135105871832972e-09
1.89176187325587377e-10
3.68643740056087828e-11
-6.89282792355130374e-08
2.60618487649937962e-06
2.38009257463804078e-05
7.2792999729316804e-05
0.00022939982546131679
0.000182943747015046446
0.00015869657079145387
0.000211856910356557132
0.000265087375810599876
0.000304485757842763651
0.000336722680201710731
0.00035077239975814592
0.000340348093197719048
0.000334016920896748853
0.000331300490886983707
0.00033115317064410241
0.000312714756060191953
0.000340953391010936479
0.000291215117864633793
0.000258703193391619606
0.000285004112748749462
0.000430841213406068916
0.000531791989311570807
0.000395655873836129343
0.000273106742384528049
0.000266242158660685748
0.000280586309743747239
0.000242169239974383604
0.000180786133815022973
0.000104221473994221467
3.97799535679288759e-05
1.03281046397918571e-05
1.83246587535592157e-06
2.29027759957098212e-07
2.88957493925213532e-08
2.45830079674351682e-09
1.3028015325476989e-10
2.61696604752838333e-11
3.48404614998042647e-07
3.58129120678519403e-06
5.63319968546054297e-06
9.27309855138478306e-06
1.71691247316489574e-05
3.10869794851407886e-05
3.56497977233565254e-05
4.55635122004060281e-05
6.23884072459652623e-05
7.95274289198268607e-05
9.29627449206988374e-05
9.85118924924321645e-05
9.56426782075048759e-05
9.78615973152793816e-05
0.000102368619443792707
0.000103736930627034823
0.000115564805116929038
0.000114489003536383637
0.00010911789779660852
0.00013582582962311151
0.000142702905413624775
0.000143802837775334732
9.75785819618670632e-05
8.47086344940617452e-05
8.81270892221763509e-05
8.91674117887231513e-05
8.51893502925725639e-05
7.40682743217700078e-05
5.03257488461998357e-05
3.56425207558856539e-05
2.0736777689654915e-05
7.02530672876492173e-06
1.3325091291089849e-06
1.46367132925337099e-07
1.64993441267932997e-08
1.41319080083268302e-09
7.56187771358680649e-11
1.53681185021698665e-11
2.4224391354452692e-07
1.10098355884892712e-06
6.41318367813877888e-06
1.21911794701099082e-05
9.43450616734592325e-06
1.06804063068144443e-05
1.29453413521868924e-05
1.62927594728680746e-05
2.03103943101663804e-05
2.45417057486009115e-05
2.70980831330483143e-05
2.73730481001291352e-05
2.7591534087711371e-05
3.03901961744206432e-05
4.02276900908344787e-05
4.70488669245369191e-05
5.9947825835249388e-05
5.68732261554691102e-05
5.07267712518592e-05
5.24279177605360973e-05
5.46911489766915197e-05
4.43384247876014374e-05
4.04571344687694754e-05
3.78608042272829203e-05
3.93922012071896068e-05
4.01396581947161064e-05
3.91187757278773062e-05
3.49343658175309859e-05
2.45710021448016388e-05
1.3232484622213068e-05
5.84217214982259713e-06
2.21999875311508039e-06
5.7598345694478128e-07
8.85443167881769921e-08
8.53715827035169431e-09
7.48879238194113585e-10
5.25512831648761401e-11
8.3476372788194768e-12
1.8597534799000124e-07
7.42549328889545835e-07
7.81382322326722334e-06
1.47086611065494436e-05
1.24727720004233457e-05
8.9363519410846539e-06
8.0260350784200702e-06
7.38110281507267806e-06
8.75228440006218936e-06
9.57753532682227907e-06
9.99923694560368503e-06
1.13844272003279773e-05
1.42452624541246597e-05
1.60081431424587692e-05
1.91820087771123211e-05
2.45591151903617588e-05
2.25458495820735308e-05
2.05171615671622372e-05
2.03351960667258984e-05
2.03707665174039858e-05
1.98932636388684919e-05
1.9803509928273638e-05
1.9171683841137237e-05
1.72661059340107093e-05
1.78027364058672682e-05
1.80619236160721417e-05
1.76993496524333033e-05
1.60022758213138007e-05
1.14434590708245897e-05
6.2441741800687649e-06
2.72529605283816753e-06
8.60097724327022832e-07
2.46094705917912052e-07
4.41322082154565427e-08
4.68204839038064871e-09
4.32110373557264286e-10
5.52473319970961964e-11
5.17631056752490826e-12
1.41831797435479465e-07
1.14919365824720616e-06
8.34814686970558801e-06
1.16212061100306771e-05
1.33705547680560386e-05
7.14793421462041142e-06
5.0115637555415551e-06
5.29328907774819593e-06
5.36240542421903497e-06
5.75851157272959358e-06
6.28492206162652236e-06
6.66042433060507943e-06
6.95404439646054403e-06
8.32886967143894749e-06
8.9821179777869091e-06
8.89091801020418468e-06
8.71577893254390682e-06
8.38925580120521189e-06
8.09598998030450976e-06
8.48378858184022361e-06
8.93089028386778686e-06
9.11055274747712886e-06
8.70430403161117635e-06
7.90172742809526246e-06
8.04628415797747471e-06
8.07656468176258714e-06
7.88283127178231347e-06
7.11697662742068296e-06
5.12697884140862564e-06
2.82680684071362104e-06
1.23543883908888279e-06
3.84361203850206732e-07
9.70554465246174472e-08
1.91796134813122078e-08
2.51085229105174809e-09
2.87686459580658012e-10
4.72530178610172191e-11
2.99649703663947237e-12
1.5955183147149559e-07
1.49910284158452918e-06
3.91750800020214228e-06
1.04582308715343541e-05
9.88311600518537381e-06
4.62445351533449541e-06
3.47360710791160706e-06
3.47930947329019247e-06
3.48219868757707199e-06
3.41653916861025761e-06
3.29713531887048534e-06
3.27323244171695971e-06
3.27770431729136691e-06
3.43642078191687138e-06
3.58509490330703422e-06
3.53506015440294408e-06
3.56846916857269653e-06
3.51964517811505537e-06
3.38774601225916267e-06
3.57481951399993596e-06
3.82399544788127366e-06
3.93444596138334608e-06
3.84566828147504054e-06
3.54882994379631568e-06
3.60946190744912515e-06
3.5720418824455342e-06
3.45257450754723045e-06
3.08712502003849487e-06
2.22387645040295212e-06
1.23535381792482671e-06
5.39849146512088994e-07
1.72704694987836146e-07
3.82818187903920392e-08
7.9257138958708938e-09
1.22672285605264159e-09
1.94676526451118784e-10
2.93057698073157995e-11
1.52134495238326576e-12
1.74994685975292458e-07
7.16168126700492665e-07
5.02379531552224338e-06
9.27680952195346939e-06
6.86722953508050981e-06
2.84339228525568497e-06
2.41108134063020284e-06
2.32906957577912433e-06
2.17562789476830943e-06
1.94474046841064331e-06
1.76537381832683885e-06
1.62199990661364908e-06
1.51528776585511036e-06
1.44687404422369795e-06
1.45251228928709998e-06
1.50556340902873493e-06
1.53979283663882792e-06
1.49657699074010685e-06
1.41613075846484391e-06
1.51756734604568198e-06
1.6202459727382634e-06
1.6553301985406549e-06
1.6215745999584823e-06
1.52393816797344372e-06
1.58189219257381135e-06
1.55805025661812752e-06
1.48579457106429121e-06
1.30922003488333883e-06
9.38339337367146696e-07
5.23697919087178463e-07
2.28546072742966993e-07
7.17637108940306896e-08
1.60465366997676492e-08
3.20520743742399135e-09
6.05707828600282006e-10
1.21300971887591663e-10
1.51825218344392557e-11
6.96477065171904953e-13
2.0433791694484712e-07
7.09210605838164995e-07
4.67069905854104716e-06
7.77062092904726082e-06
4.79617156659692731e-06
2.19088407501337846e-06
1.75269267867179208e-06
1.55415914954814173e-06
1.35540491145190341e-06
1.14339807745806826e-06
9.60520065596588808e-07
8.34015715559527645e-07
7.49332965053675852e-07
6.93341677990623754e-07
6.7587573636273935e-07
6.62694285899030546e-07
6.49511849433920984e-07
6.28363112041959692e-07
6.12829896164962111e-07
6.52136028164387396e-07
6.92507275797367978e-07
7.04792838355430243e-07
1.7684772433585775e-07
2.03347903594360864e-06
4.30786489917162298e-06
6.04183019709519006e-06
3.13711526053133433e-06
1.5723116287597479e-06
1.31613301110760917e-06
1.07910945043520759e-06
8.5814505950520154e-07
6.89281479356688387e-07
5.51460882190678246e-07
4.56319181276355927e-07
3.92440719005780417e-07
3.51427998163780022e-07
3.29979639509416158e-07
3.10505316708678104e-07
2.9114841531732266e-07
2.77642881466544171e-07
2.70867904741930515e-07
2.81899366869109252e-07
2.95919964410421868e-07
2.98466738445099109e-07
1.18822655505981137e-07
3.82916532062384156e-06
3.50632517976440378e-06
3.80779531270830391e-06
2.32285845280167675e-06
1.21586594673787073e-06
9.55021740517554756e-07
7.7001164097676866e-07
5.93227331070938829e-07
4.48116173708802894e-07
3.36737365725382082e-07
2.62437206261289113e-07
2.15418993464313186e-07
1.84042709816044173e-07
1.64299905746924143e-07
1.48364171495835011e-07
1.35603882082125717e-07
1.2582387878704701e-07
1.1968279284766723e-07
1.22074314202045958e-07
1.26010753134873248e-07
1.25478031753087822e-07
2.75749051565670641e-07
6.68238262140883498e-06
2.55893210796540482e-06
1.89691350221482413e-06
1.73842492254566682e-06
1.03157322754081441e-06
7.4907236723921839e-07
5.81763124616815261e-07
4.37065692457292202e-07
3.11845831224335665e-07
2.18134647294881978e-07
1.57866044078663122e-07
1.22555652335684885e-07
9.94499420831516712e-08
8.36835839843669315e-08
7.18214857225928397e-08
6.31047172317542634e-08
5.68757431540073121e-08
5.29303621319084552e-08
5.26894690972175681e-08
5.32770341809442755e-08
5.21670463812716861e-08
2.28154954708065452e-07
1.54936587829712384e-07
1.03011255278132341e-07
7.07988691320823197e-08
5.49487177226236964e-08
4.34569203382995238e-08
3.52599932009400516e-08
2.95928235809022417e-08
2.57482319421579178e-08
2.34353266784028512e-08
6.85180403485009641e-08
4.28480748120313668e-08
2.93775424778967032e-08
2.29356802128938813e-08
1.76095783412586239e-08
1.41184124619605099e-08
1.19029812685551374e-08
1.05819807731148654e-08
1.69212767781673936e-08
1.10206204211988487e-08
8.26451637574344925e-09
6.03526112134804562e-09
1.98494275147017106e-06
4.49190202864714109e-06
-0.000116317613563436174
-7.66794779963426369e-05
0.000748053250484909116
0.00107163206431180619
0.00103812738827606431
0.00123587399778734034
0.0011210438712875052
0.00101380890638351419
0.00121846304827491025
0.00245484320097148247
0.00380909845625815747
0.00655219868447538649
0.00823356542726796925
0.00912547047974218359
0.00956206925835880947
0.00983205637256190021
0.00868155417400720726
0.00708803166601086262
0.00554058120529710672
0.00395759519791322959
0.00296627681648638274
0.00213799356591483055
0.00164150657754606223
0.000627818900351193054
0.000297609905917967056
0.00015787022990388337
7.32660529034089209e-05
2.92431161515241807e-05
9.78849920750257911e-06
2.50953160352927345e-06
4.79995486296294342e-07
7.16034932558376702e-08
7.94971164382698596e-09
5.96958076775248689e-10
2.70023974234389428e-11
4.27955641423220339e-12
-4.4761022354000746e-09
5.46540148910674903e-06
5.19141412779549632e-05
0.000232615374691727902
0.00028249859224762535
0.000336681352413322615
0.000343551182637340084
0.000358334642444708734
0.000504258266446173877
0.000529308778236856721
0.00048490528275675881
0.000469381174455112192
0.000481897342895099153
0.000415302694287924992
0.00038058080206906117
0.000376501896309961424
0.000364719502631484017
0.000351960474855769951
0.000505203930853904558
0.000733379310040517714
0.00101650004006104827
0.00109279393975205362
0.00101871560316347631
0.000992894953039282066
0.00083874021576709726
0.000632855249992521568
0.000484008144958479917
0.000277407083700481085
0.0001028520366511813
2.64950083832220235e-05
9.73130715738497131e-06
2.81195262876475305e-06
5.61033802960044946e-07
8.65584544114458495e-08
9.9423380399076769e-09
7.76689929097732824e-10
3.67533814419264404e-11
5.7804725767659391e-12
2.93170113703505766e-07
1.2506266050167488e-06
1.80857515390545508e-05
3.10195927257207548e-05
2.85336100658384358e-05
3.2197214951888737e-05
3.99586858581706239e-05
6.03214426716714482e-05
7.71832862581772739e-05
9.09658970352697076e-05
0.000103429236389059167
0.000106883547024049213
0.000108566462501561182
0.000113427262590108847
0.000121716699426673545
0.000125514253847177807
0.00013156932958899943
0.000136311979098129358
0.000136713068110791099
0.000194015902647347619
0.000228653250985465559
0.000228517516509588647
0.000157553866865272246
0.000129198727302882815
0.000132023199604139172
0.00020091360948399457
0.000190628742021970864
0.000142031930273530825
8.33799985119501412e-05
3.29356126495886081e-05
9.8622110616982732e-06
2.46297401315662024e-06
3.96979957013366128e-07
5.81773560404332498e-08
6.73382696311780607e-09
5.28817753258959002e-10
2.53370968085309505e-11
4.27797001869482205e-12
8.3632566750240857e-08
7.18412456640499263e-07
4.54356626087016288e-06
1.09530771522438781e-05
1.68864098202383943e-05
1.51331953772990991e-05
1.69887800532673145e-05
2.04846433504806661e-05
2.56357002626628934e-05
3.17585302468587058e-05
3.6050210292400432e-05
3.84048998095243288e-05
3.94025732800023335e-05
4.30180925395724816e-05
4.78194419603447971e-05
5.55869234960593747e-05
5.91646368865665341e-05
5.6050268472409743e-05
5.35129700541440862e-05
5.47559659157649477e-05
5.33646552345312642e-05
4.50742881528136039e-05
4.46286634873810779e-05
4.90038672197615631e-05
5.26815919275345682e-05
5.38305229570816354e-05
4.65601751276200894e-05
3.13888699325706123e-05
2.16461536291385981e-05
1.62125623541216026e-05
6.55416205705220409e-06
1.56393725382324053e-06
2.51268752594851676e-07
3.2967805865115779e-08
3.85071933489058319e-09
3.16913143611113029e-10
2.73584247948557072e-11
3.11881659694280578e-12
4.76177968691985863e-08
2.72631619376727456e-07
4.33188014336563665e-06
8.37524610283326573e-06
9.57353729417244901e-06
8.84704944731244215e-06
8.74609545005196146e-06
9.31829665486658007e-06
1.03541355477688264e-05
1.27235777784875768e-05
1.54425278326157761e-05
1.78301812827581771e-05
1.83676591274994665e-05
1.96500585446490243e-05
2.0538407395129898e-05
2.06519569295306879e-05
1.93746410324406585e-05
1.94592092940377057e-05
1.94808800016948456e-05
1.99726899788569823e-05
1.97956454524994648e-05
1.96125644525896233e-05
1.8841006532130588e-05
2.02555958701370882e-05
2.19022552242816009e-05
2.27585806379096313e-05
2.05249108952526606e-05
1.45660020731963839e-05
8.49734143617212462e-06
4.1290721374169647e-06
1.83534233357815966e-06
6.44937425014967052e-07
1.33946633951900676e-07
1.78748601846326201e-08
1.99461776448987126e-09
1.78327450949609503e-10
2.74920556598462921e-11
2.0856268140420299e-12
3.27656297285213858e-08
2.78067865346609415e-07
3.2626318228684285e-06
4.91821942322582113e-06
5.2422829347031372e-06
5.12918388358075293e-06
4.76439817070406691e-06
4.84873515821902716e-06
5.19489876563776296e-06
5.70694823646149278e-06
6.16371140326872197e-06
6.09935776014928159e-06
6.0530322597473462e-06
6.68181495280677024e-06
7.19520348805009957e-06
7.43127324747038656e-06
7.68080220701723232e-06
7.63280208356736389e-06
7.61967530370866668e-06
8.25004132294551871e-06
8.64275009509047454e-06
8.62012288979035986e-06
8.06706631445357154e-06
8.51034664581423432e-06
9.1573024661688516e-06
9.55427582960358682e-06
8.78189399492822927e-06
6.45788499131014864e-06
3.8639755953088844e-06
1.90826818045951134e-06
7.55631555146837741e-07
2.5500963107693234e-07
6.14889911006581754e-08
9.56686877857107901e-09
1.08371015485111094e-09
1.41721592286397862e-10
2.37564912429983097e-11
1.22775950077804548e-12
2.90650128093510187e-08
4.06304736476136443e-07
1.99310659971438582e-06
3.05331007388998097e-06
3.29255162751272853e-06
2.82702774760891352e-06
2.33741491274431892e-06
2.18474470604092332e-06
2.30104286993867688e-06
2.50650862624961744e-06
2.48827887884076935e-06
2.32930104059256418e-06
2.3664404829466525e-06
2.55478378229273281e-06
2.74859232940131685e-06
3.00263433921404862e-06
3.01630027163371708e-06
2.95824463048066262e-06
3.11850525206731612e-06
3.44081905116724996e-06
3.65359695303445085e-06
3.67318592695255273e-06
3.47819058678211714e-06
3.60281901789510238e-06
3.83254284243903361e-06
3.9468881938770968e-06
3.67425623169714863e-06
2.76455597461962189e-06
1.68905359732987547e-06
8.45744841866361325e-07
3.40575383768162299e-07
1.07679188192546803e-07
2.59939364086554564e-08
4.53240787668434343e-09
6.23771517220465268e-10
1.07321368357540598e-10
1.43407044000457116e-11
6.38173063337577973e-13
2.92878577021733012e-08
4.93733181959544558e-07
1.71590553671704274e-06
2.06189897520110796e-06
2.35656973751264068e-06
1.63694488512366515e-06
1.33097375456321817e-06
1.16486865062431119e-06
1.04788905545238628e-06
1.01401222387034068e-06
9.86156554955829807e-07
9.82161027598637857e-07
9.98041164600400084e-07
1.05884574589823731e-06
1.15608907275800597e-06
1.19623024006179241e-06
1.18801576066264837e-06
1.17752556137838362e-06
1.20468771953449611e-06
1.3547256880442015e-06
1.47774217818891266e-06
1.54263574983544409e-06
1.49624177696437083e-06
1.52150005170190744e-06
1.58530309310653894e-06
1.60189672230334456e-06
1.50979364253991103e-06
1.14993301866643781e-06
7.14832382856642285e-07
3.61939610485704612e-07
1.44983850657881155e-07
4.71662933074712701e-08
1.05872751662453292e-08
2.00685230537771857e-09
3.58719087412218556e-10
6.96248443641930502e-11
7.38106398703536556e-12
3.01795643570413501e-13
3.61804978411030549e-08
8.0518631428191146e-07
2.111185348355825e-06
1.74276455055615549e-06
1.73814612034723262e-06
1.12642766206189111e-06
7.79647422807477874e-07
6.04512391414880598e-07
5.33754086073558641e-07
4.89519268402908424e-07
4.57350244641447768e-07
4.40901037393082196e-07
4.34579671503937317e-07
4.41469748580363134e-07
4.68242994651292551e-07
4.86706991531652815e-07
4.90496970748158393e-07
4.81444415897498353e-07
4.72423939788759025e-07
5.27959273702629851e-07
5.78041934143749519e-07
6.08119492167959995e-07
6.0721416359675812e-07
6.10911844830828282e-07
6.39341462835570278e-07
6.44882766020319172e-07
5.99658091403903182e-07
4.67234320409743754e-07
2.94439607591442435e-07
1.50341197256754542e-07
6.02925885410523903e-08
1.93374209844405721e-08
4.44277712198344203e-09
9.13502048826304672e-10
2.07663043716114285e-10
3.81757292087635659e-11
3.38416586287020992e-12
1.35398278057530985e-13
4.66024777878446928e-08
1.00716025657975922e-06
1.63280546858897101e-06
1.45787920278254303e-06
1.19068046460863548e-06
7.34295631255717802e-07
4.82276222765891169e-07
3.67079943863294637e-07
3.03841529285380263e-07
2.459902508480469e-07
2.10163779010875924e-07
1.92501186623357722e-07
1.81155658822030825e-07
1.79620759041071956e-07
1.90584606209313629e-07
1.99915921362334258e-07
2.02628620351647851e-07
1.96341786593502556e-07
1.91807940488469197e-07
2.11805977269846413e-07
2.30230692991000424e-07
2.38859548091119951e-07
2.36231840392955124e-07
5.29052570915294626e-08
7.13384492163041973e-07
1.14543238397551823e-06
1.17746221903571177e-06
8.26535855866894904e-07
4.73898392876397481e-07
3.0605321134734986e-07
2.2586929305212294e-07
1.71739387944392821e-07
1.36155715981294383e-07
1.13591844556183928e-07
9.79922274422140091e-08
8.76228640938576293e-08
8.20770759413420804e-08
8.10613635589707072e-08
8.09408245544932115e-08
8.16095976644553079e-08
8.07538414355984079e-08
7.94381098091765018e-08
8.6023693936139822e-08
9.28896522712236041e-08
9.58073783772122135e-08
1.70704136519322923e-07
7.07907752500318634e-07
8.35905440788361041e-07
8.30781210034811122e-07
5.22208686353243034e-07
3.0091884030272428e-07
1.97804493239455133e-07
1.39988653154345453e-07
1.04422687876857253e-07
8.18559092084735383e-08
6.52257656121189199e-08
5.3195301147598483e-08
4.53465551830421683e-08
4.04680172803748912e-08
3.79499881315220501e-08
3.59391362837101176e-08
3.45395466208346692e-08
3.35241587167417242e-08
3.32518353397923185e-08
3.51900155360174583e-08
3.75180181292108044e-08
3.83228746274511019e-08
3.45848394918623524e-07
8.35807967271977305e-07
8.35960517642025297e-07
4.4067686089894727e-07
3.59677455393088067e-07
2.07057109869949739e-07
1.24913246441771272e-07
9.60261874533020621e-08
7.31751331535147801e-08
5.40037244431862361e-08
3.93869247125289091e-08
2.99043535371204971e-08
2.42312818189982948e-08
2.05695280877077007e-08
1.83571417081410196e-08
1.67225516397384444e-08
1.54206826200972506e-08
1.45121577910835342e-08
1.40946517311317559e-08
1.45098673313350289e-08
1.52003877264768668e-08
1.53136378879957128e-08
3.70104563169694614e-08
2.49531128043469182e-08
1.76745399649724977e-08
1.35008666730023089e-08
1.08222745095362136e-08
9.12544168689015426e-09
7.92028188736879618e-09
7.06661413068857105e-09
6.48397493143888909e-09
6.13249392299280881e-09
1.10332953136401869e-08
7.63310518028483836e-09
5.93856547493403349e-09
4.7210047147502462e-09
3.90854431870840177e-09
3.36559023274829326e-09
3.01097257785172128e-09
2.80812326836028391e-09
3.27124533211437449e-09
2.44955001574918849e-09
1.91777460048539321e-09
1.5171131320965747e-09
4.65855055292643874e-07
2.10756541575399184e-05
0.000113150088773832333
0.000137535467515901579
0.000290953618561984068
0.00051845157946832528
0.000643614544198216907
0.000688206444807638006
0.000714397073148300213
0.000741314285609537618
0.000809404631332137289
0.000874505424295008338
0.00092943354142327266
0.00100391957415347588
0.00121703514597804648
0.00137798095074953921
0.0014809072900164148
0.00149631481887472074
0.0014778523706310187
0.00139450375570113324
0.00122277421156474341
0.00117109903438164043
0.000870390544625427079
0.000479740251498897267
0.000264443180787405393
0.000165412939708867857
9.23696551102696302e-05
4.51924612441114104e-05
1.92284091352626389e-05
6.9935138452216289e-06
2.12638399805719152e-06
5.31205736245125665e-07
1.04074014706531854e-07
1.42063771988013188e-08
1.4494022989706828e-09
1.0367503015501128e-10
7.37433527863068671e-12
6.75088636883745622e-13
1.95235685157508646e-07
2.30000291145333338e-06
4.56474131155683367e-05
0.000141907800638542262
0.000238167688331476004
0.000291870448140695189
0.000338615913068390328
0.000377957412749978456
0.000410416548470456371
0.000433118467715610459
0.000443066735114353602
0.00047494179562377535
0.000515432805091323274
0.000554679694746914166
0.00057953194943744131
0.000584389956777996503
0.000579971822669620883
0.000583903809776750954
0.000676588528299659655
0.000719653672199033418
0.000733905284264694765
0.000645780999133789254
0.000569234162328696117
0.000466475174243467252
0.000373122014848338958
0.000255754400841199932
0.00014567080524409366
5.08411147097265773e-05
1.63350411232617125e-05
6.54873291043034846e-06
2.16483726552884161e-06
5.78092096145596431e-07
1.22613292174292396e-07
1.7291145978388086e-08
1.82251518691955221e-09
1.3213881938377933e-10
6.3809109070341927e-12
8.51608868617981587e-13
6.95935375915187178e-08
5.9259157166981806e-07
2.65590417292077579e-06
1.27574407637942846e-05
1.70088377486449205e-05
1.26906707483074709e-05
1.68523212792389719e-05
2.23029910641807589e-05
2.99709602481229151e-05
3.80832873544511549e-05
4.59271259268266877e-05
5.44890433733845683e-05
6.25261236186933566e-05
6.94408625917688322e-05
7.33703557353984246e-05
7.3011603656759368e-05
7.09444143851617676e-05
7.22500108707376811e-05
8.47857380495501409e-05
0.000101605169180274581
9.88680274382903036e-05
8.7164988304868466e-05
9.24447257912296995e-05
0.000126863935721388023
0.000128901833468491223
0.000110280810981622956
8.18092440840558123e-05
4.67089104556025662e-05
1.86858033997469383e-05
5.41923405523799181e-06
1.62548549122690354e-06
3.70163638502626269e-07
8.04284953285618762e-08
1.16124654451945012e-08
1.23566098317885352e-09
9.84504559497505467e-11
1.2837370920479422e-11
8.42100188872182497e-13
2.46401709244756531e-08
2.45992612896203097e-07
1.21593384055544314e-06
2.88970181737134493e-06
3.18483889611799851e-06
3.48291818850439293e-06
4.30144200955582497e-06
5.6032842455926568e-06
7.62914376725399425e-06
9.8944195927622674e-06
1.15334228567733693e-05
1.24811894774420926e-05
1.32514924302768823e-05
1.42813517707479296e-05
1.54414345395545128e-05
1.69902337347775027e-05
1.82879112800002746e-05
1.95947892916641884e-05
2.05241336709648291e-05
2.01656764524683275e-05
2.14122137261938483e-05
2.40905900328160371e-05
2.68720995672629389e-05
2.86475622450663736e-05
2.70705458951325645e-05
2.17775841467477933e-05
1.53051911367728926e-05
1.14598656919029536e-05
8.17303967607616676e-06
3.432195533605987e-06
9.80679954422348954e-07
2.03909624696133806e-07
4.45389092040442417e-08
6.59188636956481473e-09
7.08740255620882051e-10
5.98344521713813536e-11
1.12903658390224604e-11
6.03976736431378223e-13
1.01491804391391459e-08
1.65313638550197587e-07
6.76287320829880473e-07
1.29836360337719979e-06
1.89122114770777856e-06
2.138122608293589e-06
2.14334773260968353e-06
2.36546980517405521e-06
2.96436641049642723e-06
3.60798135824093338e-06
4.17021637392438008e-06
4.70649127534791748e-06
5.0797363329655819e-06
5.55122322233827792e-06
6.07041799716367757e-06
6.52337489251387632e-06
6.66402773469060383e-06
7.12298035598893661e-06
7.78913079677452015e-06
8.1124115856382889e-06
8.36861212757189236e-06
8.82918662008680336e-06
9.9604058152754839e-06
1.07703418497783027e-05
1.06080771948059512e-05
9.11424753035455376e-06
6.7590040583133879e-06
4.2300171277368053e-06
2.25455261227840028e-06
9.98271531888933126e-07
3.88747606528597457e-07
1.04870359552945944e-07
2.2440486909609181e-08
3.39226530196814564e-09
3.94874215833680093e-10
5.68171155764538899e-11
8.63231824556782321e-12
3.56040746494085491e-13
7.01900389808911793e-09
1.46844090873319553e-07
5.42373222490389348e-07
8.207957703146081e-07
1.06774929908542175e-06
1.2233763631405733e-06
1.16882827816579909e-06
1.17996860660113099e-06
1.32604126911114468e-06
1.43480261993895813e-06
1.53542864556646365e-06
1.70119457867382099e-06
1.84289754081562998e-06
2.04555085713907718e-06
2.26907373993064329e-06
2.37693321718211649e-06
2.49805015073662693e-06
2.64604275774847954e-06
2.87935195581452913e-06
3.1089840122313783e-06
3.27301056820604632e-06
3.34851902825876792e-06
3.77251237249079108e-06
4.04263642259523063e-06
4.10246407742350983e-06
3.65842456881123581e-06
2.84629371706614707e-06
1.84512125322473948e-06
1.00769729924277208e-06
4.5402843309035854e-07
1.64061225175317739e-07
4.95487400177399527e-08
1.07183075175729037e-08
1.69289416030439653e-09
2.31688270730134439e-10
4.6773304329786924e-11
5.09837895243060493e-12
1.91361186656287042e-13
6.63933935031619532e-09
1.34835407711554339e-07
4.78702966967404618e-07
5.77651187522016299e-07
6.23980207940300979e-07
6.37254351956039655e-07
5.55622172770728288e-07
5.66388321788564462e-07
6.35943706856520205e-07
6.61640472700981603e-07
6.38908474970475047e-07
6.11254809006941486e-07
6.52644478782925356e-07
7.23226174223281898e-07
8.2316385887479465e-07
9.0139123063636528e-07
9.57555550548616739e-07
1.00780884438456186e-06
1.08783070337885081e-06
1.20813082165346752e-06
1.29219744270648088e-06
1.32846738431171905e-06
1.41708509598333366e-06
1.52284875766440862e-06
1.564698961945326e-06
1.4269518668247627e-06
1.1560103066650199e-06
7.76878157758127195e-07
4.3283288827133545e-07
1.98196404649031525e-07
7.22647951703338951e-08
2.14814005673842793e-08
4.90807519013708962e-09
8.21639411739666424e-10
1.58541727305448045e-10
3.02556183796031136e-11
2.62241668740615837e-12
9.5974438941206092e-14
7.72088010429021355e-09
1.43676577652259201e-07
3.30942491065801603e-07
4.06759149321540702e-07
4.13543491324429336e-07
3.49575293250246841e-07
2.92263180672835955e-07
2.98934721869733976e-07
2.86981922757217309e-07
2.78232079010266405e-07
2.66069871699872998e-07
2.50723937912897487e-07
2.56720630993325325e-07
2.7667199905004673e-07
3.02534481685834318e-07
3.24590200828586642e-07
3.55576876079547731e-07
3.85295542510953532e-07
4.2127704130860548e-07
4.72860517520050367e-07
5.1355691172626375e-07
5.34830265537957124e-07
5.35309915566758907e-07
5.77040938577228494e-07
5.79582918962398308e-07
5.45754123949729816e-07
4.57088954039387233e-07
3.17715686208127308e-07
1.79970126301162005e-07
8.34946072480641713e-08
3.06510224938248154e-08
9.12330388074042884e-09
2.17236066831353674e-09
4.3740205960413197e-10
1.03585106091686954e-10
1.62384847827762042e-11
1.23305749319813943e-12
4.54758885306066334e-14
1.08903600654021924e-08
1.47421585058229477e-07
1.87630893883538906e-07
2.90748702520719311e-07
3.11819229772957803e-07
2.21385437342280102e-07
1.77007027084332966e-07
1.55730088985126059e-07
1.25385995320067721e-07
1.11218687258387388e-07
1.06976251335851239e-07