/*--------------------------------*- C++ -*----------------------------------*\
| =========                 |                                                 |
| \\      /  F ield         | OpenFOAM: The Open Source CFD Toolbox           |
|  \\    /   O peration     | Version:  2206                                  |
|   \\  /    A nd           | Website:  www.openfoam.com                      |
|    \\/     M anipulation  |                                                 |
\*---------------------------------------------------------------------------*/
FoamFile
{
    version     2.0;
    format      ascii;
    arch        "LSB;label=32;scalar=64";
    class       volVectorField;
    location    "0.179999999999999993";
    object      faceForces;
}
// * * * * * * * * * * * * * * * * * * * * * * * * * * * * * * * * * * * * * //

dimensions      [1 1 -2 0 0 0 0];

internalField   uniform (0 0 0);

boundaryField
{
    inlet
    {
        type            calculated;
        value           nonuniform List<vector> 0();
    }
    outlet
    {
        type            calculated;
        value           uniform (0 0 0);
    }
    top
    {
        type            calculated;
        value           nonuniform List<vector> 0();
    }
    bottom
    {
        type            calculated;
        value           uniform (0 0 0);
    }
    left
    {
        type            calculated;
        value           uniform (0 0 0);
    }
    symmetry
    {
        type            symmetryPlane;
    }
    interface
    {
        type            calculated;
        value           nonuniform List<vector> 
104
(
(0.0004355041560114798 4.18935680567342411e-09 -3.23029364581614191e-09)
(0.000430570317049285174 -6.95038312743936587e-09 8.28421149538946767e-10)
(0.000477543564367865732 2.35385291302388242e-09 -1.62580311625921092e-08)
(0.000525512387670108152 5.38579759786645409e-09 -1.7714009340417127e-08)
(0.00058344390707137689 6.24946638601416836e-09 -1.91638286711045848e-08)
(0.000639773881829203898 6.41223266565103258e-09 -1.96640831809139985e-08)
(0.000697111039994848729 5.85353665181875613e-09 -1.94412811644336379e-08)
(0.000753090001420987447 4.96821938465947299e-09 -1.92747738252569074e-08)
(0.000804148294921529011 4.2743103936231617e-09 -1.86947484083293337e-08)
(0.000850032713650381651 3.80089881940137114e-09 -1.82842000661367868e-08)
(0.000893001462570215568 3.67880545563804262e-09 -1.75914410569096127e-08)
(0.000935192835023306306 3.85607320069082908e-09 -1.6931106800607831e-08)
(0.000978503693894530952 4.33871810582527502e-09 -1.60983317967365007e-08)
(0.000391902313476990096 -1.86673059167198303e-10 -1.27514632333172683e-08)
(0.000427196380855184108 1.54077122499125983e-09 -9.8023270802264219e-09)
(0.00046859055548185768 2.96468561974442141e-09 -8.38303285912759336e-09)
(0.000512158820224504607 3.08311728286681887e-09 -7.66378261184062413e-09)
(0.000557069117102805306 3.25900036407029437e-09 -7.99548517489475965e-09)
(0.000602326321579939035 3.41388003646219316e-09 -8.7579970787118407e-09)
(0.000647725507658354844 3.51877656396902899e-09 -9.52784752902316907e-09)
(0.000692695572877055914 3.68590350105518151e-09 -1.0071509302077512e-08)
(0.000736931064777061775 3.89303495016222674e-09 -1.02484887813831924e-08)
(0.000781062163307204359 4.18385914509244434e-09 -1.01173345895287649e-08)
(0.000825632722539746105 4.63492486775748641e-09 -9.76519566348022537e-09)
(0.000871109375077731363 5.37660602995240031e-09 -9.22995313732225908e-09)
(0.000919053358896029294 6.34926601373945747e-09 -8.51684539655950746e-09)
(0.000378892384531119705 -1.65556468856755668e-09 -4.81326062186787542e-09)
(0.000416386538910641787 8.63173973715798536e-10 -5.65563391739939371e-09)
(0.000454969577927895699 1.64686619450575568e-09 -6.17844884807904916e-09)
(0.000494311188285146796 2.19553393230274602e-09 -6.85747523659802625e-09)
(0.000534596497714001878 2.72649409849953058e-09 -7.25111187305753712e-09)
(0.000575756333631203144 3.18160191982594644e-09 -7.45663726574761589e-09)
(0.000617744956059027234 3.53381861794181929e-09 -7.51638259641390285e-09)
(0.000660447459147664321 3.87984973338465374e-09 -7.42213243133115008e-09)
(0.000703714230751661626 4.29868703786257834e-09 -7.213222513779721e-09)
(0.000747626869960432076 4.83954066422851303e-09 -6.92799226127559844e-09)
(0.000792598978496491993 5.53210737992869553e-09 -6.53968396750251509e-09)
(0.000839200372566704174 6.53716588704846424e-09 -6.06396672910645242e-09)
(0.000889242055661844974 7.68932961154864514e-09 -5.51496044447191049e-09)
(0.000365204541872266128 -1.0236346948493355e-09 -4.3842315946326268e-09)
(0.00040375802560872672 8.54646929752160883e-10 -4.49058632930229413e-09)
(0.000443070030064385929 1.63806316250336807e-09 -4.39982318136052507e-09)
(0.00048290799779951405 2.11718046146183194e-09 -4.36787060950507939e-09)
(0.000523170258281499588 2.55039204004023149e-09 -4.40628294676196088e-09)
(0.000563931946153568408 2.99422213914040181e-09 -4.44723424912838269e-09)
(0.000605256358230510882 3.46219018871290555e-09 -4.45373229504567906e-09)
(0.000647220368374747373 3.98197824530431507e-09 -4.40763226481753767e-09)
(0.000689948320684931099 4.58335334813513178e-09 -4.29693765644113583e-09)
(0.000733648263013135407 5.31060095809607381e-09 -4.11709229763329917e-09)
(0.000778756204740485873 6.17997056444237774e-09 -3.8668907102782335e-09)
(0.000825795434515923395 7.35509330200180965e-09 -3.55547629034881051e-09)
(0.000876600668775427672 8.59462173896732264e-09 -3.19695359079284339e-09)
(0.00035672333553138163 -9.3172665443900232e-10 -2.89622945986420229e-09)
(0.00039528146446264731 7.53064419581540315e-10 -3.12164085843702827e-09)
(0.000434419662874771582 1.42229888997693547e-09 -3.07456545730880024e-09)
(0.000473968374851389633 1.93561498414425216e-09 -3.09873674926694984e-09)
(0.000513966490529921619 2.43819211510518868e-09 -3.11720249728536851e-09)
(0.000554505389988082359 2.96792062950202108e-09 -3.10462799971647396e-09)
(0.000595636089742571638 3.5325243692500416e-09 -3.05885307957286224e-09)
(0.000637440457824372565 4.15222650648118174e-09 -2.98069207821316759e-09)
(0.000680061248148767844 4.85347632426087994e-09 -2.87050026480118942e-09)
(0.000723715460419371241 5.67783296645399482e-09 -2.72593748477424469e-09)
(0.000768852169031737599 6.63933771856550062e-09 -2.54957680948080133e-09)
(0.00081596880391005119 7.91166830965518972e-09 -2.33922929714725154e-09)
(0.000866883669383786831 9.21302402020591691e-09 -2.09928914326412955e-09)
(0.000350525961312453491 -7.82111751877750387e-10 -1.97767150889025424e-09)
(0.000389193103247493263 7.44202884247377006e-10 -2.07379107407643678e-09)
(0.000428370723502449811 1.3722565590898889e-09 -2.01589018396153973e-09)
(0.000467955706600761939 1.90067049554621553e-09 -2.00121185548076363e-09)
(0.000507961623471669282 2.43319627091805588e-09 -1.98952437128722931e-09)
(0.00054846657915892346 2.99928577005949607e-09 -1.96583502560541139e-09)
(0.000589532396342785448 3.61104557959069078e-09 -1.92713325521522523e-09)
(0.000631253641077000752 4.28419819798976499e-09 -1.87076707917440878e-09)
(0.000673787706602691416 5.04184698620676224e-09 -1.79551538773118747e-09)
(0.000717363346594681174 5.92613588402676839e-09 -1.70032142822475164e-09)
(0.000762427140710479493 6.94340509932963029e-09 -1.58322007369345422e-09)
(0.000809463041958797722 8.26776807012438745e-09 -1.44770589906890637e-09)
(0.000860279415939323383 9.60974430357165264e-09 -1.29866992351913246e-09)
(0.000346694300965990395 -7.04295248496405752e-10 -1.13717105645782782e-09)
(0.000385358859340374663 7.41738563654463743e-10 -1.18785542306069786e-09)
(0.000424526027143456964 1.35682296351182985e-09 -1.14873272373693828e-09)
(0.000464099681470161269 1.89497057604025934e-09 -1.13717151719056424e-09)
(0.000504087241336694187 2.44525040615431033e-09 -1.12668145548656444e-09)
(0.000544563396886839769 3.03612065988458938e-09 -1.10879496798709699e-09)
(0.000585590190713593771 3.67381363345861088e-09 -1.08252573438240018e-09)
(0.000627261763855589943 4.37646397111557228e-09 -1.04782733537486079e-09)
(0.000669732214898370831 5.16714157529859906e-09 -1.00296015289460861e-09)
(0.000713225594437688691 6.08392928669171434e-09 -9.46390187749715419e-10)
(0.000758183655881985931 7.1324880510455917e-09 -8.80350757557976653e-10)
(0.00080509620133690455 8.48518543134859086e-09 -8.05955109364251324e-10)
(0.000855766935371130152 9.85705812104289957e-09 -7.23736985717613649e-10)
(0.000344824202447820962 -6.73971325625438921e-10 -3.72906881908251664e-10)
(0.000383497704628418985 7.39220348787790971e-10 -3.88223288234506236e-10)
(0.000422660152011706874 1.3518395562808521e-09 -3.74956602731024233e-10)
(0.000462226616897226542 1.89780036101406693e-09 -3.70367554141393607e-10)
(0.000502200482497219326 2.45574422229173638e-09 -3.65609604029090697e-10)
(0.000542658191923507042 3.05497770209775053e-09 -3.58824543994721186e-10)
(0.000583662328256972368 3.70501346881590518e-09 -3.49956625379186012e-10)
(0.000625302561007052334 4.4223776335615814e-09 -3.37946289443564207e-10)
(0.00066772796784475444 5.22779429725958074e-09 -3.22585080858276475e-10)
(0.000711162857390048708 6.1586831743326814e-09 -3.04001879977690302e-10)
(0.000756049999463036596 7.2222830133769946e-09 -2.8255352101417951e-10)
(0.000802883839141885864 8.58707637580632922e-09 -2.58521248684453389e-10)
(0.000853457355381223104 9.97385006540770122e-09 -2.32816853570451399e-10)
)
;
    }
    procBoundary3to0
    {
        type            processor;
        value           uniform (0 0 0);
    }
    procBoundary3to1
    {
        type            processor;
        value           uniform (0 0 0);
    }
    procBoundary3to2
    {
        type            processor;
        value           uniform (0 0 0);
    }
}


// ************************************************************************* //
