/*--------------------------------*- C++ -*----------------------------------*\
| =========                 |                                                 |
| \\      /  F ield         | OpenFOAM: The Open Source CFD Toolbox           |
|  \\    /   O peration     | Version:  2206                                  |
|   \\  /    A nd           | Website:  www.openfoam.com                      |
|    \\/     M anipulation  |                                                 |
\*---------------------------------------------------------------------------*/
FoamFile
{
    version     2.0;
    format      ascii;
    arch        "LSB;label=32;scalar=64";
    class       volVectorField;
    location    "0.179999999999999993";
    object      faceTraction;
}
// * * * * * * * * * * * * * * * * * * * * * * * * * * * * * * * * * * * * * //

dimensions      [1 -1 -2 0 0 0 0];

internalField   uniform (0 0 0);

boundaryField
{
    inlet
    {
        type            calculated;
        value           nonuniform List<vector> 0();
    }
    outlet
    {
        type            calculated;
        value           uniform (0 0 0);
    }
    top
    {
        type            calculated;
        value           nonuniform List<vector> 0();
    }
    bottom
    {
        type            calculated;
        value           uniform (0 0 0);
    }
    left
    {
        type            calculated;
        value           uniform (0 0 0);
    }
    symmetry
    {
        type            symmetryPlane;
    }
    interface
    {
        type            calculated;
        value           nonuniform List<vector> 
104
(
(1.39361329923673605 1.34059417781549642e-05 -1.03369396666116592e-05)
(1.37782501455771267 -2.22412260078059753e-05 2.65094767852463002e-06)
(1.52813940597717068 7.53232932167642508e-06 -5.20256997202947578e-05)
(1.68163964054434611 1.72345523131726527e-05 -5.66848298893348051e-05)
(1.86702050262840569 1.99982924352453348e-05 -6.13242517475346544e-05)
(2.04727642185344871 2.05191445300832694e-05 -6.29250661789246838e-05)
(2.23075532798351439 1.87313172858200071e-05 -6.22120997261876011e-05)
(2.40988800454715868 1.58983020309103045e-05 -6.1679276240822077e-05)
(2.57327454374889797 1.36777932595941453e-05 -5.98231949066539942e-05)
(2.7201046836812206 1.21628762220843861e-05 -5.85094402116377094e-05)
(2.85760468022468483 1.17721774580417154e-05 -5.62926113821106644e-05)
(2.99261707207457484 1.2339434242210632e-05 -5.41795417619449614e-05)
(3.13121182046250368 1.38838979386409017e-05 -5.15146617495568801e-05)
(1.25408740312636824 -5.97353789335034531e-07 -4.08046823466152569e-05)
(1.36702841873658909 4.93046791997203113e-06 -3.13674466567245524e-05)
(1.4994897775419449 9.48699398318215005e-06 -2.68257051492083028e-05)
(1.6389082247184148 9.86597530517381937e-06 -2.45241043578899961e-05)
(1.78262117472897885 1.04288011650249526e-05 -2.55855525596632571e-05)
(1.92744422905580359 1.09244161166790108e-05 -2.80255906518778716e-05)
(2.07272162450673658 1.12600850047008988e-05 -3.04891120928741561e-05)
(2.21662583320657713 1.17948912033765729e-05 -3.22288297666480143e-05)
(2.35817940728660025 1.24577118405191379e-05 -3.27951641004262478e-05)
(2.4993989225830533 1.33883492642958188e-05 -3.23754706864920415e-05)
(2.64202471212718581 1.48317595768239453e-05 -3.12486261231366985e-05)
(2.78755000024873834 1.72051392958476688e-05 -2.95358500394312094e-05)
(2.94097074846729845 2.03176512439662949e-05 -2.72539052689904645e-05)
(1.21245563049958172 -5.29780700341617567e-06 -1.54024339899771843e-05)
(1.33243692451405238 2.76215671589055244e-06 -1.80980285356780406e-05)
(1.45590264936926483 5.26997182241841311e-06 -1.97710363138529402e-05)
(1.58179580251246787 7.02570858336877848e-06 -2.19439207571136573e-05)
(1.71070879268480569 8.72478111519849633e-06 -2.32035579937841141e-05)
(1.8424202676198469 1.01811261434430112e-05 -2.38612392503923289e-05)
(1.97678385938888579 1.13082195774138135e-05 -2.40524243085244726e-05)
(2.11343186927252225 1.24155191468308696e-05 -2.37508237802596384e-05)
(2.25188553840531958 1.37557985211602643e-05 -2.30823120440951296e-05)
(2.39240598387337977 1.54865301255312216e-05 -2.21695752360818893e-05)
(2.53631673118876977 1.77027436157717938e-05 -2.09269886960080114e-05)
(2.68544119221344868 2.0918930838555048e-05 -1.94046935331406143e-05)
(2.84557457811790826 2.46058547569557013e-05 -1.76478734223101398e-05)
(1.16865453399125152 -3.27563102351787342e-06 -1.40295411028244048e-05)
(1.29202568194792544 2.73487017520691467e-06 -1.43698762537673411e-05)
(1.41782409620603511 5.24180212001077893e-06 -1.4079434180353683e-05)
(1.54530559295844472 6.77497747667786053e-06 -1.39771859504162522e-05)
(1.67414482650080121 8.16125452812875273e-06 -1.41001054296382969e-05)
(1.80458222769141852 9.58151084524928427e-06 -1.42311495972108225e-05)
(1.93682034633763656 1.10790086038813066e-05 -1.42519433441461856e-05)
(2.07110517879919032 1.27423303849737983e-05 -1.4104423247416111e-05)
(2.20783462619178428 1.46667307140324523e-05 -1.37502005006116634e-05)
(2.34767444164203454 1.69939230659074435e-05 -1.31746953524265644e-05)
(2.49201985516955427 1.97759058062156037e-05 -1.2374050272890345e-05)
(2.64254539045095438 2.35362985664057868e-05 -1.13775241291161914e-05)
(2.80512214008137617 2.75027895646955074e-05 -1.02302514905371274e-05)
(1.14151467370042137 -2.98152529420480772e-06 -9.26793427156544885e-06)
(1.26490068628047148 2.40980614266092905e-06 -9.98925074699849098e-06)
(1.39014292119926974 4.55135644792619605e-06 -9.83860946338816496e-06)
(1.51669879952444608 6.19396794926160358e-06 -9.91595759765423368e-06)
(1.64469276969575007 7.80221476833660816e-06 -9.97504799131318399e-06)
(1.77441724796186229 9.49734601440646056e-06 -9.93480959909271023e-06)
(1.90603548717622817 1.13040779816001275e-05 -9.78832985463315377e-06)
(2.03980946503799121 1.32871248207397749e-05 -9.53821465028213142e-06)
(2.17619599407606046 1.55311242376348393e-05 -9.18560084736382097e-06)
(2.31588947334198769 1.81690654926527795e-05 -8.72299995127758169e-06)
(2.46032694090155735 2.12458806994095766e-05 -8.15864579033855355e-06)
(2.6111001725121632 2.53173385908966007e-05 -7.48553375087120344e-06)
(2.77402774202811919 2.94816768646589477e-05 -6.71772525844521831e-06)
(1.12168307619985019 -2.50275760600879913e-06 -6.32854882844880818e-06)
(1.24541793039197723 2.38144922959160417e-06 -6.6361314370445915e-06)
(1.370786315207839 4.39122098908764271e-06 -6.4508485886769248e-06)
(1.49745826112243652 6.08214558574788292e-06 -6.40387793753843652e-06)
(1.6254771951093423 7.78622806693778156e-06 -6.36647798811913617e-06)
(1.75509305330855314 9.59771446419037699e-06 -6.29067208193731016e-06)
(1.88650366829691185 1.15553458546902004e-05 -6.16682641668871495e-06)
(2.02001165144639927 1.3709434233567227e-05 -5.98645465335809834e-06)
(2.15612066112861411 1.61339103558616504e-05 -5.74564924073980407e-06)
(2.29556270910297844 1.8963634828885648e-05 -5.441028570319202e-06)
(2.43976685027353035 2.22188963178547825e-05 -5.0663042358190456e-06)
(2.59028173426815167 2.64568578243980312e-05 -4.63265887702049855e-06)
(2.75289413100583369 3.07511817714292793e-05 -4.15574375526122272e-06)
(1.10942176309116913 -2.25374479518849838e-06 -3.63894738066504912e-06)
(1.23314834988919886 2.37356340369428404e-06 -3.80113735379423293e-06)
(1.35848328685906239 4.34183348323785627e-06 -3.67594471595820298e-06)
(1.48511898070451553 6.06390584332882729e-06 -3.63894885500980429e-06)
(1.61307917227742248 7.82480129969379852e-06 -3.60538065755700872e-06)
(1.74260287003788572 9.71558611163067776e-06 -3.54814389755870702e-06)
(1.87388861028350062 1.17562036270675584e-05 -3.46408235002368191e-06)
(2.0072376443378861 1.4004684707569819e-05 -3.35304747319955171e-06)
(2.143143087674789 1.65348530409555351e-05 -3.2094724892627513e-06)
(2.28232190220060449 1.94685737174134924e-05 -3.02844860079909024e-06)
(2.42618769882235297 2.28239617633458722e-05 -2.81712242418552279e-06)
(2.57630784427809223 2.71525933803154681e-05 -2.57905634996560184e-06)
(2.73845419318762007 3.15425859873373184e-05 -2.31595835429636693e-06)
(1.10343744783302689 -2.15670824200140403e-06 -1.19330202210640513e-06)
(1.22719265481094064 2.36550511612093087e-06 -1.24231452235041997e-06)
(1.35251248643746202 4.32588658009872632e-06 -1.19986112873927761e-06)
(1.47912517407112443 6.07296115524501184e-06 -1.18517617325245919e-06)
(1.60704154399110299 7.85838151133356196e-06 -1.16995073289309102e-06)
(1.736506214155221 9.77592864671279328e-06 -1.14823854078310686e-06)
(1.86771945042231224 1.18560431002108999e-05 -1.11986120121339559e-06)
(2.00096819522256553 1.41516084273970487e-05 -1.0814281262194045e-06)
(2.13672949710321713 1.67289417512306822e-05 -1.03227225874648612e-06)
(2.27572114364815681 1.97077861578645861e-05 -9.72806015928609351e-07)
(2.41935999828171511 2.31113056428063619e-05 -9.04171267245373606e-07)
(2.56922828525403268 2.747864440258023e-05 -8.27267995790250137e-07)
(2.73106353721991768 3.19163202093046867e-05 -7.45013931425445477e-07)
)
;
    }
    procBoundary3to0
    {
        type            processor;
        value           uniform (0 0 0);
    }
    procBoundary3to1
    {
        type            processor;
        value           uniform (0 0 0);
    }
    procBoundary3to2
    {
        type            processor;
        value           uniform (0 0 0);
    }
}


// ************************************************************************* //
