/*--------------------------------*- C++ -*----------------------------------*\
| =========                 |                                                 |
| \\      /  F ield         | OpenFOAM: The Open Source CFD Toolbox           |
|  \\    /   O peration     | Version:  2206                                  |
|   \\  /    A nd           | Website:  www.openfoam.com                      |
|    \\/     M anipulation  |                                                 |
\*---------------------------------------------------------------------------*/
FoamFile
{
    version     2.0;
    format      ascii;
    arch        "LSB;label=32;scalar=64";
    class       volScalarField;
    location    "0.179999999999999993";
    object      p;
}
// * * * * * * * * * * * * * * * * * * * * * * * * * * * * * * * * * * * * * //

dimensions      [1 -1 -2 0 0 0 0];

internalField   nonuniform List<scalar> 
7236
(
-1.39356891023167684
-1.3307887491540622
-1.39477173795783216
-1.15186674081924334
-0.60275137665924583
-0.338726249536396795
-0.043014041344457743
-0.0742846540641828312
0.568284926026901172
1.36092296283037228
1.6286927732362102
1.99334730554017936
2.07233732608823962
2.11212317382255499
1.8608724364922935
1.54190645428959749
1.19566078045278634
0.858813236484836873
0.499441876032894916
0.269371965311574812
0.160742612688789754
0.143598732909152371
0.23589811194877619
0.461737338151356314
0.684715996835579821
0.875399864406449568
1.04567599995393268
1.15406581880584502
1.17595026052489127
1.13230491119999455
1.06099571972575135
0.98783125064910049
0.923805231145110817
0.872125286715351611
0.83242541384966795
0.803782169296107352
0.785216877680362746
0.776076862415264079
-1.37782651961097913
-1.46643976478628835
-1.51014801605257953
-1.45583810434526839
-1.25904824473239785
-1.0770192727987471
-1.0365909249075127
-0.980434734572021016
-0.971143330802896276
-0.964495493858339992
-0.936844963849360557
-0.938100458171401863
-0.93562482977715522
-0.918371668209267522
-0.874941468003768152
-0.843117358841979359
-0.817894383762542199
-0.810376219431826694
-0.796163336670005384
-0.741759923796977194
-0.673529953776363821
-0.549177746640053921
-0.356342510343736318
-0.122489676156138705
0.159761419390894943
0.456681410992155368
0.715682475406026475
0.898245399126042399
0.977616830897477862
0.970913063930309406
0.919035462220075816
0.854343851533403642
0.793633132011160147
0.743496666466889056
0.704913063985663668
0.677107150289681492
0.65909703249828
0.650204812788544584
-1.52815289161600032
-1.57636220230944235
-1.60131090733361514
-1.55964770729612634
-1.45327354964380784
-1.33779631540534516
-1.28921405113866849
-1.25765847028285616
-1.23798627302544695
-1.21656826934712825
-1.18719469201027383
-1.16616961932719931
-1.14752723445205573
-1.12157166686282128
-1.08872244969859455
-1.05334640824799997
-1.01598733358460547
-0.983746386616424884
-0.955860705720519399
-0.914195913414236117
-0.847090011849046753
-0.737912696930027368
-0.576172117240678627
-0.369403258938859502
-0.122782341080326374
0.145925634199017606
0.403547846524246301
0.608682328068197109
0.730986819051224646
0.769124188585665225
0.74871028022206898
0.702066484550382564
0.651447463081972211
0.607062863152817989
0.57187940051900954
0.546092304080931124
0.529243041314369611
0.520888506750709968
-1.68164945374495156
-1.70698396902378113
-1.703375472567904
-1.652015688740468
-1.58189286283316832
-1.5045252338616526
-1.45542183233433375
-1.42175642754483667
-1.39526983439116004
-1.37082020225012902
-1.34484285188933783
-1.3182035469769684
-1.2907850017879432
-1.26041086139224801
-1.22495337901597945
-1.18545407253258706
-1.14398643331705241
-1.10471939282431419
-1.06324307201702672
-1.01071258682017495
-0.936267858114192886
-0.831872706050853061
-0.686684165379367051
-0.497908248307269707
-0.276047526948083655
-0.0403771863169712919
0.186259781367835386
0.375794343358082428
0.5030936317746455
0.561605537473056082
0.565385405318683198
0.538216410143881996
0.500666741634628654
0.464364229289610964
0.434056931675448621
0.411185107542776429
0.396004432195681211
0.38845092715660634
-1.86703028035251872
-1.83039846289890162
-1.81582146004246736
-1.76148263750353529
-1.69862058123072468
-1.63980659365342563
-1.59852550322010822
-1.56685521449396292
-1.53828917410173283
-1.50924195356818158
-1.47857403359177786
-1.44630081225752738
-1.41252442729395522
-1.37703892602732947
-1.33797625360972461
-1.29526163363817615
-1.25110627656008311
-1.20570776043929517
-1.15575805387482511
-1.09551748072912991
-1.01514858341205771
-0.908891595598304791
-0.770045555187140796
-0.598239643084826689
-0.400779673421030547
-0.192982859741317514
0.0061086352155337309
0.17561075750171018
0.297278897267903908
0.36324007193452057
0.381698223715739138
0.370065395519133533
0.344890578161762162
0.317115343986650644
0.29232177176805485
0.272890208133873102
0.259719653988060961
0.253127116818631426
-2.04728811980007519
-1.97824669715850843
-1.94458290853847582
-1.88449690895694588
-1.8269787265584605
-1.77723503847498909
-1.73861054430673478
-1.70511260147594568
-1.67274609458388368
-1.63894104167690813
-1.6036216960517613
-1.56640739532708473
-1.52747586325485241
-1.48742197117230068
-1.44497156674041083
-1.39927976984157443
-1.35133280580920645
-1.30079311966826805
-1.24456078091076172
-1.17765121427862374
-1.09333700684216151
-0.986645865454429893
-0.854455196684623552
-0.696843978625504179
-0.520321491190082086
-0.336675485836478217
-0.160922775221338354
-0.00938930712563335046
0.104026354211439021
0.172545656342566356
0.200734769686225389
0.201000661523721424
0.186445627785486678
0.166725799662381657
0.147520519483297696
0.131739317887035745
0.120756891280185963
0.115201029787894593
-2.2307689530507524
-2.12491015140700856
-2.0793671525619799
-2.01826857268674287
-1.96359209453116756
-1.91634248436418164
-1.87723422059435441
-1.84138581371176802
-1.80520811004415638
-1.76699117803410211
-1.72652266664455478
-1.68433380182115999
-1.64094656916825299
-1.59648408807730657
-1.55001098391478109
-1.50091878664445888
-1.44916673772194438
-1.39410086102996766
-1.33305422796288342
-1.26168202849331612
-1.17523992233916164
-1.0701876165773363
-0.944725836360784332
-0.799642988632177087
-0.640511069200319527
-0.476933882542063425
-0.320863543844987109
-0.18495291277997461
-0.0799182476022110011
-0.0113764134566309849
0.0231763461085973121
0.0325160977276930385
0.0268138206147758851
0.0143185782603513223
0.000430406673691541286
-0.0117264887388277561
-0.0204783769759231404
-0.0249716445541954268
-2.40990368738965399
-2.26758961752215527
-2.21770733348491023
-2.15750128729892054
-2.10424038399153535
-2.05708738006320413
-2.01617973468748302
-1.97721613940039553
-1.9367862485024343
-1.89377416575433211
-1.84842934557406258
-1.80154534574240444
-1.75348498536539732
-1.7044596996132082
-1.65393044060394434
-1.60140259746581393
-1.54642161980221848
-1.48780186280408233
-1.42316531778666278
-1.34905842172438861
-1.26198209643450054
-1.15943204980675563
-1.04052950827927959
-0.906595695536915103
-0.762394462711126319
-0.615667116193113095
-0.476048107320033664
-0.353473470009325386
-0.256294687051630277
-0.189092208485698188
-0.150562579767167581
-0.134478661886614836
-0.132998292170074417
-0.139236891689410114
-0.148274320598810072
-0.156994590504879072
-0.163577514571491278
-0.167027271575128089
-2.57329249055125509
-2.41260543840566832
-2.35966107522636914
-2.29924378473668112
-2.24682581850903684
-2.19880675131326297
-2.15533883810490012
-2.11244661194337047
-2.06742344767306552
-2.01951064510571943
-1.96922988588162129
-1.91760611819452609
-1.86507019555595077
-1.81184002690151114
-1.75760263184345256
-1.70188572118895465
-1.6439865720238358
-1.58254258195405706
-1.51539741657148319
-1.4398010267534338
-1.35315494783827073
-1.25373292640968836
-1.1412636075436744
-1.01726905863080974
-0.88588599466630602
-0.753434126961159523
-0.627668164608696344
-0.51648773862475017
-0.426477098643036623
-0.361358493474189357
-0.320520412780344044
-0.299520678151587338
-0.292331133498905271
-0.293286220246921858
-0.298031036095292801
-0.303602355963281112
-0.308151044448239708
-0.310611417320908023
-2.72012458925187728
-2.55639721589604418
-2.50316758175992282
-2.44307199440361966
-2.3905265385741532
-2.34100047652007781
-2.29423753416043485
-2.24681602292576255
-2.1967299233161599
-2.14377237189086411
-2.08867331546577129
-2.03242903120239093
-1.97563284095100222
-1.91860190972349431
-1.86110034520402534
-1.80259556072496263
-1.74224243147174884
-1.67866255061116432
-1.60993097232570448
-1.5338292293541036
-1.44840704386717145
-1.35250692283887908
-2.85762640887589559
-2.69880405049063432
-2.64864720498892803
-2.58905837480027179
-2.53541582745708638
-2.48343560916204442
-2.43255248339343311
-2.38004360997425479
-2.3246591708788551
-2.26651576439297653
-2.20649077509721225
-2.14575491048923084
-2.08503861800783419
-2.02467377938764814
-1.96439168941026798
-1.90359977780529932
-1.8413608471810301
-1.77632588162563509
-1.70679531577175103
-1.63095718229835396
-1.54733209110269065
-1.45515855582195019
-2.99264139867396128
-2.8437656538310252
-2.7979533498592839
-2.73764867341682594
-2.68183364564311377
-2.62604120168143096
-2.5700576272336253
-2.51180168269062509
-2.45069724119745747
-2.3872086949154383
-2.32238144898558208
-2.25744355361201343
-2.19324903338876531
-2.13005155794568601
-2.06751081952808091
-2.00496482831641565
-1.94141542750879359
-1.87556002815166867
-1.80588906376077696
-1.73090807080860065
-1.64948285897818736
-1.56111397972046673
-3.1312405763301836
-2.99459456451248718
-2.95208526162699325
-2.88939161885973395
-2.82964137277953487
-2.76849210796928524
-2.70634118112747224
-2.64169346939264615
-2.57456602057099637
-2.50567700673176663
-2.43621821691308904
-2.36746791799920953
-2.30024211593107042
-2.23472776021413999
-2.17048796435787761
-2.10674272146161945
-2.04244177864525112
-1.97632953603476524
-1.90705908657297374
-1.83338748474372615
-1.75443563486911236
-1.66986152550435984
-2.62177351479895826
-2.54794278419756282
-2.47577376964994222
-2.40605064068050734
-2.3387862647415667
-2.27340210895238393
-2.20899096150319174
-2.14445069181177983
-2.07856682666612969
-2.01013523846576936
-2.58244426587195131
-2.51078704694175858
-2.44234369614207747
-2.37635007421762889
-2.3117657338644233
-2.24743748268174537
-2.18218979270407054
-2.11494354790096972
-2.54551796896036464
-2.47940260845979221
-2.41508468611383709
-2.35135379132862177
-1.25410096920250314
-1.31065718247043073
-1.37417198859688106
-1.2321723300143741
-1.07474074483373228
-0.963517228429410455
-0.896012213968536919
-0.830427677792099139
-0.748717072085630653
-0.690760811428498211
-0.66256302200684547
-0.581559071005174455
-0.487171230329442539
-0.326142842579432268
-0.221121227381770091
-0.160103301100408935
-0.129809861139670746
-0.111300898206551979
-0.136000508194871528
-0.138694957176207001
-0.0850366892803835484
0.0234457996102749311
0.196118720765779242
0.401670341591209845
0.614250167052888596
0.772597682999347279
0.88470020925340398
0.93829177907370187
0.946446719097850941
0.928064344695082699
0.896448472239240735
0.859710898470939955
0.823961995931394076
0.792710898810600639
0.767466839470567375
0.748640915910431137
0.736183572198183533
0.729959695965182287
-1.36704104418187877
-1.41305872258713472
-1.44412658639431313
-1.39154399030782838
-1.31143632695338619
-1.22324611787969384
-1.15998162047546205
-1.1098150847409991
-1.05655028470003964
-1.01296755088151191
-0.984809780251418188
-0.965389945002472438
-0.944612855156881093
-0.927347718529609732
-0.905245807776696498
-0.880024348298743653
-0.85390091967492987
-0.83003213470205317
-0.79027321659228944
-0.717404329479139569
-0.616979924476478425
-0.480557628598917874
-0.293826223762495231
-0.0579920754197308375
0.197244462938677478
0.454046330312452673
0.646470881864492197
0.752700749576718953
0.790563497785071845
0.787319399021549127
0.762749927310072628
0.729344243407528237
0.695279379000720121
0.665174419907541115
0.640792068735466236
0.622583835328924029
0.610527566805424304
0.604474753246643681
-1.49950561280175854
-1.52783560464362456
-1.53595474783362484
-1.49429514484170056
-1.43403047505231718
-1.37201085703390802
-1.32339366052449381
-1.28043348569818338
-1.24433722074423225
-1.20958894501216951
-1.17629247904160361
-1.14840892671134043
-1.12115001400326086
-1.09039765514983955
-1.05574948178744266
-1.01931996470434427
-0.980580808197445641
-0.941868616195018049
-0.898894594678628867
-0.837084446619185574
-0.752629838473956481
-0.634342496955616619
-0.472352223239794367
-0.272610199977288192
-0.0495188097450271481
0.18194847145845966
0.385685844591410254
0.52497435633703049
0.598313341349362871
0.62057587702570105
0.611119705246222278
0.586731583147235503
0.558308394155794696
0.531783012472184402
0.509681043375561083
0.492895738378112513
0.481671211028638524
0.476004857570234308
-1.63892677896779415
-1.64866349280374669
-1.6415543481646977
-1.60511705443698305
-1.55570655633047328
-1.50328326752857433
-1.45692492297566556
-1.41690353536120672
-1.38244159598983618
-1.34978350235828115
-1.31619187795638393
-1.28329960216715233
-1.25047377569122542
-1.21470950307363879
-1.17527686584177182
-1.13329448060511107
-1.08902706403073335
-1.04315572776349619
-0.992143151101330667
-0.927819589494620511
-0.84250945772199215
-0.729246630813918606
-0.580973290686624622
-0.4027590996091161
-0.206586497004314723
-0.0072345483289371626
0.175728028627574195
0.315187553279496324
0.402492732275976206
0.442661173413202769
0.448740131717496715
0.43568657858626908
0.4149955994322716
0.393520256819956449
0.374656165831453114
0.359901828486859698
0.349873051462178675
0.344792857038758171
-1.78264203986430925
-1.77394114753278265
-1.75756343520868463
-1.7232117963203939
-1.67922852036645009
-1.63256768649182327
-1.58921744258095421
-1.55009841339041232
-1.5144542674024235
-1.47895607567273113
-1.44303715513811515
-1.40620300065648385
-1.36838659861058276
-1.3284596173128389
-1.28556966835016051
-1.24005790446210273
-1.19186574128902389
-1.14070638601952679
-1.08343910906035967
-1.01438983922889081
-0.927662786006113183
-0.818140137801431466
-0.681598273231710294
-0.520998765601528135
-0.345815262363334264
-0.169097752574983995
-0.00677131481161485915
0.125472633594937322
0.215766946492335965
0.265234079424000346
0.282808998477812157
0.280093236823720559
0.267320027158030493
0.25141657293229247
0.23629897801147659
0.223967291771345001
0.215391159964009371
0.211020696987478718
-1.92746689418859596
-1.90495012126602159
-1.88166440503141374
-1.84736706534977357
-1.80647384369676423
-1.76300913794415837
-1.72107459328291901
-1.68145003246204383
-1.64334111285001372
-1.60496333174368333
-1.56565894766811375
-1.52501156340900068
-1.48306656304538986
-1.43942438626278757
-1.39339679599534816
-1.34470130831706758
-1.2931672348918688
-1.23804343676233009
-1.17649269615443508
-1.10430555940170239
-1.01708909972741002
-0.911026262843182777
-0.783608704857191141
-0.637617404714804326
-0.480193660519831256
-0.321661564697764191
-0.175244590182419668
-0.0529070485489554487
0.0361466169152908634
0.0907665689682980448
0.116527883529580989
0.12232460761081243
0.116804106699814114
0.106410845649559382
0.0952010988342737452
0.0854866796663629191
0.0785114186300845951
0.0749120039271367055
-2.07274598857207426
-2.03827474132924324
-2.01162376694180889
-1.97696254342452216
-1.93728344182267076
-1.89511904149097754
-1.85334579423968515
-1.8124159488434648
-1.77161472722591817
-1.72990472798710204
-1.68687321551297331
-1.64250099990037501
-1.59689406994202399
-1.54981129269706641
-1.50071693795533667
-1.44919687896439431
-1.39484288388934985
-1.33661397890084599
-1.27211979719555401
-1.19803873591622967
-1.11088155515028997
-1.00808920855019113
-0.888626944966700694
-0.754769200324209133
-0.612206333491099208
-0.469265803207902843
-0.336365452752774186
-0.223371222375281953
-0.137364889703040505
-0.0802997578151770641
-0.048789522879930991
-0.0361862180167424885
-0.0353942499769904773
-0.0406651420792971674
-0.0480571200829237322
-0.055124110582925212
-0.0604452591434107012
-0.0632464715609464267
-2.2166519677664227
-2.17419276981863163
-2.14604872764178722
-2.11080000097518772
-2.0712189867801345
-2.02901313982324538
-1.98634838397078228
-1.94337156053723747
-1.89948536407455282
-1.85422490906064974
-1.80750587666267304
-1.75948467248081153
-1.71033482884604582
-1.65995013963298188
-1.60793062628438399
-1.55383089174587985
-1.4970363661167605
-1.43639099372118029
-1.36984829377428974
-1.29474513628757437
-1.20844451105176454
-1.10920451756603256
-0.996726186731863306
-0.873070414109460624
-0.742977718564772571
-0.613298782747303761
-0.492243616527119066
-0.387708434792973122
-0.305502049451292446
-0.247731767838794248
-0.212375696335705189
-0.194506951322024002
-0.188413590601555048
-0.189116269230257483
-0.192944195427162013
-0.197456942408262393
-0.201148111603202229
-0.203156973821420728
-2.35820714338191362
-2.31296954458539084
-2.2840389841221258
-2.24789560582394898
-2.20760245264594523
-2.16436903816067794
-2.11989502064524959
-2.07419213686792414
-2.02691075311060409
-1.97790601438952507
-1.92741451955216636
-1.87581457653301342
-1.82330807718324173
-1.76986177746088802
-1.71516245852875171
-1.65873852892729357
-1.5998741286386795
-1.53738649179059261
-1.46949570002887331
-1.39407666057699942
-1.30917058953770638
-1.21359698110130032
-1.10744442139082699
-0.992648087084698982
-0.873210916127194592
-0.754796369780628806
-0.64400657037031328
-0.547160154255691644
-0.469040173611810829
-0.411672512565275595
-0.373890393416055122
-0.35205942263531731
-0.341633102496425312
-0.338383818788958957
-0.338995101297167367
-0.341130863351581937
-0.343274315954655518
-0.34452417180207362
-2.49942835316122958
-2.45393113588608269
-2.4249280511421234
-2.38756653921617756
-2.34582325816115844
-2.30075019473304643
-2.25362558868188501
-2.20456522880548222
-2.15351377945908418
-2.10065774608178302
-2.04643808402340399
-1.99134341320966013
-1.93566668670820219
-1.87943031065142696
-1.822352107014658
-1.76392874688370083
-1.70338723822451454
-1.63957376089828499
-1.5709425425498651
-1.49578546105145849
-1.41263699792735631
-1.32073003088425578
-1.22040124612474821
-2.64205600034457522
-2.59737371393429362
-2.56867499614552308
-2.52960157988902745
-2.48567221861381338
-2.43770551039895533
-2.38713457143769636
-2.33418866654367729
-2.27909491786787566
-2.22228040147828887
-2.16434204479252879
-2.10588327198716385
-2.04727020590382569
-1.98854767652425402
-1.9294254198947911
-1.86936057884621531
-1.80754868405004609
-1.74288956601287093
-1.67403802986770556
-1.59960673437349454
-1.51849169617482538
-1.43022083171003977
-2.78758328083347884
-2.74463925385006746
-2.71590530857428547
-2.6741343410179117
-2.6268452691217119
-2.57497411703169732
-2.52014975147693665
-2.46278407892707651
-2.40336268529295793
-2.34250815677729385
-2.28092969001908141
-2.21929949297225138
-2.15803092265685237
-2.09715582961740132
-2.03634654208789456
-1.97501390278270561
-1.91233519591180934
-1.84726900695617524
-1.77863625333563702
-1.70529914530126314
-1.62642151757066888
-1.54173226533976315
-2.94100754505394413
-2.89781712094502364
-2.86745691255541102
-2.82130031223872102
-2.76911969726699336
-2.71223094454449454
-2.65235884923655352
-2.59007068637692672
-2.52608937657444832
-2.46115894559130588
-2.39606009782599427
-2.33150401749326175
-2.26790128700556082
-2.20523255525789041
-2.14311027717091829
-2.08089058433841245
-2.01773429608593968
-1.95265437722921731
-1.88461007663761326
-1.81265721237055155
-1.73615893147273148
-1.65497369291878837
-2.57807801132539982
-2.50964124139793121
-2.44245623444398685
-2.37687755374010568
-2.31279259542581483
-2.24973619494120003
-2.18700267252575786
-2.12373322360585171
-2.05898724943911171
-1.99184071873611557
-2.55216076511655476
-2.48499048244433984
-2.41987692754748274
-2.35626245860136763
-2.29337115036812866
-2.23031983724389526
-2.16621068752320722
-2.1002155903477373
-2.52653922260272257
-2.46272296657936707
-2.39999902352334482
-2.33746247682332786
-1.21246876404955484
-1.23099671405437383
-1.22649786583766085
-1.19605189725821459
-1.12331084584305518
-1.04321784713087062
-0.984526096525851768
-0.929209562455912574
-0.878050534240819913
-0.831082253571481577
-0.781952728110500983
-0.730030240349536452
-0.680662916212661284
-0.63375172133290214
-0.587978442604696783
-0.540558677049923442
-0.48561683220654972
-0.419653963504638017
-0.332693650734327218
-0.230498328700235428
-0.115496091069594686
0.024655417962178211
0.183246718593724572
0.337912173425436002
0.482289985049948799
0.600714843268026266
0.684609133260464686
0.736744126966015989
0.764062171653148492
0.772982826613734075
0.768526812724731667
0.755861688941328769
0.739961464399584212
0.724142056757187125
0.710314744291152933
0.699448447904142068
0.69200904958337861
0.688209943869585783
-1.33244941333372968
-1.34659997819304933
-1.35207136370209358
-1.32946802885125326
-1.28286627799488606
-1.22892539469052764
-1.18056521414490012
-1.13637288862607511
-1.09323632231209533
-1.05234931772536977
-1.0121880859015735
-0.973183367445057845
-0.93496667655953325
-0.895641735142636897
-0.857076851028893971
-0.818558469851282444
-0.776401302876263411
-0.723983881886920311
-0.652036227275219371
-0.558680439652678107
-0.443772112693057608
-0.30479578740157226
-0.129788919782869577
0.0640678998253534915
0.247701348698440349
0.403326025318181625
0.516797907036922632
0.588125098593057727
0.625598784078618353
0.639802917364941215
0.638270071525831595
0.627346760471292342
0.612562826136217375
0.597570060851533524
0.584345486354887589
0.573903649937566485
0.566745018129723888
0.563062194701851704
-1.45591351427273508
-1.46452774273643183
-1.46671219431565936
-1.44669167874346205
-1.4078716653706953
-1.36343904618597622
-1.32147925545863676
-1.28105305725413854
-1.24098654563242317
-1.20146334944592192
-1.16199712055710958
-1.12442194292126896
-1.08723168353989275
-1.04808277762752455
-1.00664130072634395
-0.963099401681421607
-0.916368215122554952
-0.863327546979496097
-0.799408924650584884
-0.717650833085143325
-0.615370063488908547
-0.487538257585060308
-0.331083883716477401
-0.153434591446300395
0.0261203195768066054
0.190128977258065324
0.322502108575308033
0.414117028721543157
0.46738218806143117
0.49200865037098912
0.497226068045733549
0.490921625531211936
0.479328723711058002
0.466523408877350831
0.454781267563793334
0.445310644007553602
0.438734848712204473
0.435320580153146008
-1.58180510471911306
-1.58656816632602848
-1.5832633318753373
-1.56293006905488663
-1.52804543445066754
-1.48703359773116128
-1.44619215504089316
-1.40591022542684096
-1.36597184947566519
-1.32615905983213045
-1.28623533341150242
-1.24681936865707543
-1.20704004149297783
-1.16501613959257355
-1.12021549482152372
-1.07281804848521101
-1.0222642784157383
-0.966479583257229824
-0.901852191557062088
-0.823280075669421407
-0.726803839198711055
-0.60898739370368693
-0.468441559085693016
-0.310972783241085016
-0.148103152205719624
0.00564164169460767972
0.137750215197674275
0.236273331976146084
0.3003877277852392
0.335252542477027182
0.348629459690221966
0.348489134274537371
0.341341669156999761
0.331627581271220551
0.321987045785556203
0.313897412516737639
0.308159193699223399
0.305163670460841308
-1.7107176488707212
-1.711915367587026
-1.70466810912966649
-1.68370820981373526
-1.65127230539331848
-1.61272794890701254
-1.572582840754849
-1.53193955381076519
-1.49120132603723432
-1.45017280390208558
-1.40856845830606403
-1.36652573997473481
-1.32359817583944239
-1.27865233781300569
-1.23111862001135508
-1.18092288695492686
-1.1274394079760075
-1.06910095546438155
-1.00292163165659942
-0.925006620069930618
-0.832178695679940073
-0.721757788052609373
-0.592970493663335096
-0.450145761497130259
-0.302448274403749939
-0.160166934681717943
-0.0346606459119247479
0.0641511829016085944
0.133334666632349386
0.17536674853459544
0.195965446654571052
0.202018120047981364
0.199695863518629446
0.193513779809748709
0.186353170821050074
0.179927831049457865
0.17521464417324395
0.172731722628794548
-1.84242938523882493
-1.84050835105411137
-1.83048207086288794
-1.80883998396276424
-1.77749324609470394
-1.74011026246340172
-1.70012372051168525
-1.6588193844044965
-1.61670254251319667
-1.57383647565284068
-1.53009564075987647
-1.48547238840355877
-1.43968536066232811
-1.3921000759772113
-1.34221716606633601
-1.28973943248875011
-1.23401378576887177
-1.17364561702311465
-1.10620205525145954
-1.02866550813333069
-0.938394325462335921
-0.833610182652348097
-0.714119078802547103
-0.583330886930809034
-0.448238966237131553
-0.316934197597727008
-0.199086463422226967
-0.102732903761881378
-0.0315874956384535333
0.0151065365230983462
0.041415495350075604
0.052998997095741518
0.0553554423322618616
0.0528023215251840483
0.0482932211538682488
0.043694496586513587
0.0401231657898196703
0.0382000393088504087
-1.9767940838865885
-1.97209335619533421
-1.96012147091586098
-1.93769917605662356
-1.90646838665218299
-1.86926715013172817
-1.82877712048862584
-1.78629165781212285
-1.74242109737169315
-1.69735318964705151
-1.65117128822356651
-1.60394679100344018
-1.55551108329565202
-1.50546735606811799
-1.45340616258573307
-1.39893201827552627
-1.34135832616918194
-1.27941891365726002
-1.21112041671091308
-1.13407548066789809
-1.04617851497856718
-0.946201138648226747
-0.83437183182349095
-0.713499675637070285
-0.589034593260532313
-0.467785129533646982
-0.357515781799900234
-0.264959441101076498
-0.193825798609558175
-0.14433164511880392
-0.113711878773860908
-0.0974593962165088978
-0.090846053947564176
-0.0899100372062576758
-0.0917655636709830969
-0.0944852714769691682
-0.0968623590488930652
-0.0982009761901803113
-2.11344364718225108
-2.10638649338227735
-2.09311153399331973
-2.06973504334431935
-2.03789016693484815
-1.99999817960744353
-1.95833823333353263
-1.91415760063788909
-1.86814042408619652
-1.82063209653310576
-1.77187089659470809
-1.72202336115177412
-1.67105136570374579
-1.61870287564436199
-1.56462959101842269
-1.50839047913032775
-1.44927845714369519
-1.38614073596522225
-1.31731546398208899
-1.24089937327335154
-1.15526856376823828
-1.05958337099744004
-0.954301969011942419
-0.841836189500206444
-0.726618419914300095
-0.614339063338668057
-0.511298067511791299
-0.423096628896172888
-0.353184882885439588
-0.302286351548868182
-0.268579265308900306
-0.248548216197163163
-0.238228008609338904
-0.234089322168531289
-0.23341295841527776
-0.234290215121240264
-0.235475867651007253
-0.236228540539639931
-2.25189889344893768
-2.24326954363071929
-2.22913022028162233
-2.20449277591173853
-2.17136550769919845
-2.13201519569702969
-2.08853017895849025
-2.04214718347470292
-1.99362108580407105
-1.94344350969182988
-1.8919989176242118
-1.8395514712522516
-1.78615698153166558
-1.73166326162039441
-1.67576024711480698
-1.61798544073445694
-1.55762744047466795
-1.49362729039827902
-1.42457954731960434
-1.34896436527139385
-1.26554612470479788
-1.17379305084735952
-1.07428610736396002
-0.969145727440657079
-0.862055619595455624
-0.757751150413631169
-0.661429139998792714
-0.577742141568750256
-0.509770813265016609
-0.458469358181245568
-0.422679299889698434
-0.399697841140928656
-0.386256343625562382
-0.379279080054397144
-0.376273732429148855
-0.375410895893599772
-0.375451835662906519
-0.375637830669430794
-2.39242078029384242
-2.38290324623504102
-2.36802796766192936
-2.34164894089684239
-2.30652221891332676
-2.26498375300812782
-2.21903372730096793
-2.16995287859640751
-2.11859264689257731
-2.06556995487917261
-2.0113799615331196
-1.95637350269929788
-1.90068489360770299
-1.8442213895159465
-1.78668987171836036
-1.72761339414671644
-1.66628709658229912
-1.60173679814406933
-1.53276337624194881
-1.45814449936638857
-1.37694802397753113
-1.28887385026394985
-1.1945734235212071
-2.536333333451815
-2.52592930725855114
-2.50995430214299198
-2.48104344326539206
-2.44312646984923099
-2.39858634494500711
-2.34953403471867706
-2.29729778949285057
-2.24281826143167695
-2.18680903040037311
-2.12985055020591973
-2.07236231604388976
-2.01453296857041098
-1.95629521999860545
-1.89735395900474035
-1.83721813053354976
-1.77519494859224802
-1.71038752815444584
-1.64176385246317968
-1.56833216675679465
-1.48939423175384689
-1.40481536228556103
-2.68545960864891686
-2.6735208421672203
-2.65536563608233722
-2.62267862776444538
-2.58092784671498698
-2.53254086228176689
-2.47975019269003205
-2.42392563191333288
-2.3660777383291367
-2.30698414666209572
-2.24727997979549166
-2.18742509133163265
-2.12763411589447493
-2.06783871835633803
-2.00772397849740303
-1.94678163794677239
-1.8843304050020182
-1.81954054509203678
-1.75151531892426515
-1.67944256675549242
-1.60280206334991226
-1.5215713356842091
-2.84559713920545754
-2.82748684019734764
-2.80491289842462921
-2.76659428060044643
-2.7197202425491156
-2.66656180049855784
-2.60940120203396209
-2.54959119722930705
-2.48817745079026231
-2.42594792095360567
-2.36356353747590786
-2.30149669844845883
-2.23995382017803024
-2.17883606280715236
-2.11779796980232504
-2.05630815828512192
-1.99369127040408478
-1.92917402074563205
-1.86196946226774518
-1.79140378374494147
-1.71709222754580582
-1.63908145201873223
-2.54357067489818167
-2.4786229896347618
-2.41453816981295244
-2.35148031495686594
-2.2892923661768072
-2.22758958388162398
-2.16581069754246824
-2.10327933666544498
-2.03926844326315182
-1.97308057994341723
-2.52653267744560184
-2.46222100239940289
-2.39922931425673891
-2.33712626059452955
-2.27530982199284848
-2.21309965695712174
-2.14980610410564177
-2.08480435048300583
-2.50867907140984858
-2.4464311415871034
-2.38481673659527038
-2.32314480761093378
-1.16866168415656424
-1.17432876220770077
-1.16768687141232363
-1.14186877403847054
-1.10332818500766194
-1.05696662641565542
-1.00231991570791368
-0.94450800209320529
-0.888153279855159239
-0.832118254006455782
-0.775359459455702504
-0.719035527273510722
-0.662727001952898687
-0.605795965350191867
-0.547842333872759712
-0.488692057669280144