/*--------------------------------*- C++ -*----------------------------------*\
| =========                 |                                                 |
| \\      /  F ield         | OpenFOAM: The Open Source CFD Toolbox           |
|  \\    /   O peration     | Version:  2206                                  |
|   \\  /    A nd           | Website:  www.openfoam.com                      |
|    \\/     M anipulation  |                                                 |
\*---------------------------------------------------------------------------*/
FoamFile
{
    version     2.0;
    format      ascii;
    arch        "LSB;label=32;scalar=64";
    class       surfaceScalarField;
    location    "0.179999999999999993";
    object      phi;
}
// * * * * * * * * * * * * * * * * * * * * * * * * * * * * * * * * * * * * * //

dimensions      [0 3 -1 0 0 0 0];

oriented        oriented;

internalField   nonuniform List<scalar> 
20390
(
0.000267407591701283561
-9.69851628274498543e-05
-0.000113603783899663365
-5.68186529840666225e-05
0.000338326265500824247
1.78672458477528376e-06
-6.43320104748232827e-06
-6.62726401551814461e-05
0.000372400693607621207
-8.89648654224833647e-06
8.20264363585701035e-05
-0.000107205072702471323
0.000391411740875615127
-2.14986583458623597e-05
0.000127955479535222339
-0.000125468187989894104
0.000415439973776683723
-3.25480468267660712e-05
0.00015382707108652137
-0.000145308298212924866
0.000443429076653264098
-3.62445168501315687e-05
0.000172598445916549253
-0.000164343141838276728
0.000478054458524295736
-4.78560211027638342e-05
0.000190610977313688249
-0.00017738019442704712
0.000508662728558868186
-4.44719545712812065e-05
0.000202429291431594416
-0.000188565824662381752
0.000540476869707600879
-6.15269887106290546e-05
0.000214269275624513913
-0.000184556677612368912
0.000569624296053060993
-7.15081164015789889e-05
0.000223684839063060983
-0.000181324267202971515
0.000590599948466382827
-7.09607479347599819e-05
0.000230928076183130749
-0.000180943275689076255
0.000608293200289031222
-7.61742226966044631e-05
0.000237492433143444352
-0.0001790119845737413
0.000624680251653033118
-7.77938537933288887e-05
0.000238881205365518677
-0.000177474456010148941
0.000641327309739591418
-7.71461476326819546e-05
0.000236517549061130003
-0.000176018591702508152
0.000656473441271555511
-7.07887555316414415e-05
0.000231937014957743742
-0.000176294716708617303
0.000669810271134174315
-6.36160798288629842e-05
0.000227095459825258538
-0.000176816250678472659
0.000680998617721954359
-5.54692067005293533e-05
0.00022217125036855744
-0.00017789034498407884
0.000690249739865017651
-4.73178842964692016e-05
0.000217276679781647014
-0.000179210056993252715
0.000694878478049816757
-3.71960483231859485e-05
0.000212632118169912284
-0.000180064857931714484
0.000694172342155999341
-2.76179684487732593e-05
0.00020816413674624201
-0.000179839873192431823
0.000689605647975218548
-1.97076448690154931e-05
0.000202932350330084428
-0.000178658024193648681
0.000676008566558806241
-6.3299079988611307e-06
0.000196669466793631293
-0.000176742723480489489
0.000646186920638304398
1.41424101294995293e-05
0.000188988062394961418
-0.000173309038422013472
0.000598758939777718009
3.35918305736792076e-05
0.000181542833253829628
-0.000167706854752374589
0.000528683813076334728
5.88376594495060214e-05
0.000171869856147720268
-0.000160632838414462764
0.000438401965336873527
8.29459255923979601e-05
0.000160408839652149661
-0.000153073606198207018
0.00033979298230266071
9.40860766667091209e-05
0.000150493342098229164
-0.000145970884662784231
0.000245083033283966293
9.14011215756334864e-05
0.000143347755500395339
-0.000140038994322448396
0.000166924870793225521
7.77209636738661775e-05
0.000133956799935712901
-0.000133519559765436985
0.000112441311316269045
5.93587478522225961e-05
0.000117669860140940123
-0.000122545055899195591
7.9776418782309818e-05
4.14893376104088628e-05
9.63232993115818866e-05
-0.000105147763442479212
6.09869728611632533e-05
2.76115517574751214e-05
7.52036325770938472e-05
-8.4025826693025148e-05
4.79249924930715031e-05
1.94842176984660877e-05
5.78876647965882588e-05
-6.43101086366833208e-05
3.66101516212619359e-05
1.5332085198884936e-05
4.53912499779964593e-05
-4.94087078274562736e-05
2.63026728876140228e-05
1.28411107001684342e-05
3.68953400556618029e-05
-3.94291385910512039e-05
1.69336582174932346e-05
1.11168629319858503e-05
3.12820811799807366e-05
-3.30302770059530745e-05
8.28885583160935628e-06
9.98144128804567086e-06
2.78330447237572253e-05
-2.91705790645630611e-05
9.44015088511030516e-06
2.6146299857239167e-05
-2.72991901599791843e-05
8.10016400499162851e-06
3.16589689807289347e-05
-0.000101982235476204169
-3.47652148857876273e-05
1.59557183063783117e-05
-1.73102544179425057e-05
-7.50562960725126109e-05
8.62865212809187467e-05
5.35081096183139546e-05
-4.89081582701779964e-05
-5.08266005467031574e-05
5.32859236107583519e-05
0.000131230720054483814
-7.0707438025006253e-05
-4.31707583692213654e-07
-2.80779679715624378e-05
0.000196675493415536426
-8.35371363100651199e-05
6.32463784605714999e-05
-7.77023676529790743e-05
0.000222237733990159308
-5.984576775249383e-05
9.61073334808346146e-05
-9.8066068044075995e-05
0.000219750154763955071
-4.85590528635186777e-05
0.000105810787191541598
-0.000102617494035259923
0.000209441178521516325
-4.35374085291571585e-05
0.000109889405553897449
-0.000100513020619062194
0.000201709299127335968
-5.8008937573882888e-05
0.000111770364204773852
-0.000107553824332278576
0.000206138329135130687
-7.68274427011842115e-05
0.000120234857685221227
-0.000119343803475388611
0.000221577463648846322
-8.57407734054483836e-05
0.000130748571874258102
-0.000131409263143499071
0.000241475615509058734
-9.11816122090451165e-05
0.000137886349972130636
-0.000142776183599333358
0.000263702890589487726
-9.13794476256132729e-05
0.000143730913571739452
-0.000152370220745575525
0.000286582114720466865
-8.7743101328131124e-05
0.000150310130903971733
-0.000162593098627683081
0.000309193463379584302
-7.8980584746108528e-05
0.00015744228478879033
-0.000171862510773434563
0.000329050557371451241
-6.81017302009024196e-05
0.00016347853345811321
-0.000178849049309594055
0.000346406057982048257
-5.76799569467263565e-05
0.000170365215124025377
-0.000185509846675963134
0.000363512693602806075
-5.07164651367727129e-05
0.00017656069751339061
-0.000190269205982265929
0.000381672493154361098
-4.24091684882743375e-05
0.000178964403164994028
-0.000191910546316995627
0.000399267383625887483
-3.2639802763883942e-05
0.000179284141553049704
-0.000191856787072913044
0.000412981364987235024
-2.04999163152176807e-05
0.000176977730374925507
-0.000189900111886879246
0.000423188068932313485
-3.90448683920388746e-06
0.000174387295799243846
-0.000187020356519056554
0.000427546381864851916
2.11100731488713929e-05
0.000172036509881886689
-0.000183363230998218247
0.000421764735643834026
5.03782966371566762e-05
0.000167875537783877761
-0.00017888158274192764
0.000405589246582641766
8.48191733948873043e-05
0.0001628133369782599
-0.000172621100453790468
0.000376026281905898047
0.000120790039112184981
0.000156031988362805794
-0.000164314459724107048
0.000328920069440651866
0.000147765726105393753
0.000147932530071183323
-0.000154506443435806196
0.000266173366669027471
0.000158002285921678501
0.000140866827843173965
-0.000144721396540760459
0.00019756725682275634
0.000148380077832842099
0.000132957006479876404
-0.000135010150278316616
0.000138217688662721597
0.000122675117777444468
0.000119718065443622697
-0.00012368505840116813
9.62118993138187174e-05
9.10282880635289866e-05
0.000100475446853933158
-0.000108008908498197055
6.9239687193967792e-05
6.33734549355247762e-05
7.92177106529302037e-05
-8.80078831384196661e-05
5.14727164659023172e-05
4.43564967200369895e-05
6.06383399016225793e-05
-6.7744181853054351e-05
3.83479074220974343e-05
3.30579094268261282e-05
4.69578208993668111e-05
-5.15594060895026269e-05
2.74911708144694397e-05
2.65184771537291115e-05
3.77408517543245499e-05
-4.05625883823045776e-05
1.78193459728618265e-05
2.26384154776963272e-05
3.17635836806516838e-05
-3.36157335426956095e-05
8.77729179659330095e-06
2.03902319458563031e-05
2.81281488204475957e-05
-2.94989674709480754e-05
1.93655908061961699e-05
2.62793403386190868e-05
-2.74318033735269798e-05
-4.58247174756343042e-05
0.000102930597275733326
-0.000119107156052246683
9.3673223751627736e-05
-6.98853874306058391e-05
1.72681897668807114e-05
-9.74497479662572036e-05
8.69362163573887334e-05
-5.2343998355898125e-05
-4.66544889800016082e-05
-6.67723138529894319e-05
4.69487288972595377e-05
-2.08388969184145317e-06
-7.6835407539937092e-05
-6.40480252585533537e-06
-3.77118077985187823e-05
1.79071143932982226e-05
-6.45513797856105793e-05
3.61760528003888447e-05
-7.51531294088779586e-05
1.44311107891708007e-05
-3.1167323080692477e-05
5.27856163455451752e-05
-7.79913860951907774e-05
1.76471263163619068e-05
-3.43948197977778019e-05
5.69068046612562192e-05
-7.42861559097793766e-05
4.01494776434778411e-05
-5.39011007094580369e-05
6.56239065616896414e-05
-7.77608445738824566e-05
6.98321521629148958e-05
-7.25716103617029997e-05
7.88486172006039809e-05
-9.39713720439770456e-05
9.77524318301410851e-05
-8.43868867931410775e-05
9.47126950945732056e-05
-0.000115082649662098783
0.000120759836366728844
-8.72147126559638729e-05
0.000107988761317589127
-0.000129526618249506121
0.000138009092518758469
-8.5453119006324499e-05
0.000115809784905985099
-0.000138782265164257739
0.000151671445305240685
-7.96987696864426683e-05
0.0001200564331234633
-0.000145399425138583864
0.000163598998852410249
-7.105320547371294e-05
0.000122215527720491012
-0.00015083827282426487
0.000175144355200204633
-6.04569049910051343e-05
0.000123577459837329062
-0.000153646726379676581
0.000186459630579903816
-4.82819600665026371e-05
0.000125735590967152413
-0.000156868875123721024
0.000195599299585879076
-3.66464641894281618e-05
0.000127596483127964368
-0.000157770958268560181
0.0002008136517274987
-2.71099620296923764e-05
0.000126764100231697123
-0.000155585411051844142
0.000202861717602070141
-1.56340251140893086e-05
0.000123801859600025616
-0.000152623263649386345
0.000204164694234073012
-4.3569755878082918e-06
0.000120790548686498255
-0.000150375738785726588
0.000205698026071836565
7.79998406688967796e-06
0.000118460714982890141
-0.000148295370711528995
0.000207469217749567538
2.35642307378529034e-05
0.00011786596535281316
-0.000147107181999457388
0.000206699158847030196
4.94280428456740319e-05
0.000118435172127124891
-0.000145984081584360351
0.000201430532349316377
8.14888717250915014e-05
0.000118968323682778107
-0.00014481233789839852
0.000195891449733787522
0.000112686028387223058
0.00011971249714574236
-0.000142043035829789746
0.00019193956162553302
0.00014240300554864806
0.000120023534729237735
-0.000137686581908142748
0.000183736227831113286
0.000169355288654967761
0.000119003297703781358
-0.000132390349457421115
0.000165447278756845423
0.000185302916454868573
0.000117602026163505082
-0.00012661406353509463
0.000137729731927121378
0.00018183531901402224
0.000114280329364253275
-0.000120018358371066399
0.000107562108859976546
0.000158112759916530872
0.000105780304258940695
-0.000111050668574764103
8.18273009471489162e-05
0.000123634399412819973
9.11029239085721349e-05
-9.79745698636973894e-05
6.24379148893244949e-05
9.02400393263430751e-05
7.33971888042177863e-05
-8.08747113250277009e-05
4.78684973965434575e-05
6.50406414311886143e-05
5.72358563108463041e-05
-6.33508236037402155e-05
3.61374924294149288e-05
4.8872460029805064e-05
4.49788877960949354e-05
-4.90627109060196587e-05
2.60232213677380692e-05
3.9210257618596051e-05
3.65310237822862258e-05
-3.91093613061529457e-05
1.68881489041772828e-05
3.35052717781755043e-05
3.09711690212546598e-05
-3.27049547733760195e-05
8.33390635456584503e-06
3.02471991225190582e-05
2.75774924290278049e-05
-2.88835724625995894e-05
2.88086843378318306e-05
2.5847280203196544e-05
-2.69599813574208706e-05
-5.24730231661282265e-05
0.000153782561113072549
-0.000138439568173124103
0.000140073004478533374
-8.95578161304166215e-05
2.6993787557479664e-05
-0.000104282429943540272
0.000131645597803398123
-0.000104648626843762191
-2.51394546578897376e-05
-6.51503198457129419e-05
5.87374185554086247e-05
-9.92759906798770418e-05
-4.66612729207548427e-05
-2.19530726945312127e-05
-1.35880820409941181e-05
-8.80861878297878933e-05
-3.99674989661333904e-05
5.15102223028622753e-06
-4.09223903049976779e-05
-6.77873096698047931e-05
-3.0844673866482361e-05
1.88997358761873406e-05
-3.95182512672540568e-05
-4.91722575376840864e-05
-3.87494382737430806e-05
2.95261147456098253e-05
-4.37779733301750347e-05
-3.13356706307759864e-05
-5.33190311630328973e-05
4.04426281810463346e-05
-5.88589036865572849e-05
-1.28892588357579736e-05
-6.66019154999638647e-05
5.29670654358726793e-05
-7.73932981778950227e-05
5.04073558478060459e-06
-7.38676655731775072e-05
6.49876521582054561e-05
-9.34473822626394449e-05
2.13530714998410925e-05
-7.24832967955475472e-05
7.38538022678912116e-05
-0.000104895815445604193
3.3886492015274992e-05
-6.38014867885683791e-05
7.78533205347635009e-05
-0.000112032401978467725
4.35110038565613756e-05
-5.28688505993176345e-05
7.78882225875490432e-05
-0.000114347486578420942
5.2790423649999177e-05
-4.27769438878968029e-05
7.84036784819172025e-05
-0.000115965599345231477
6.24668303933413773e-05
-3.25161658780461808e-05
8.07561078674695653e-05
-0.000118370582939797731
7.1428629144644132e-05
-2.05753720883719567e-05
8.40589231640401804e-05
-0.00012072560547473504
7.79624126361429026e-05
-8.47881516797101961e-06
8.54919663373496019e-05
-0.000120195982567444085
8.04276980664960677e-05
2.96220429250311311e-06
8.38234488487500922e-05
-0.000116360185368366318
8.06951243390673345e-05
1.48363232693312477e-05
8.15970423027278878e-05
-0.000112331400003946814
7.95349849336990811e-05
2.60832034588352499e-05
8.05440041297317332e-05
-0.000109823791265558604
7.7034701941091198e-05
3.92719259033257956e-05
7.99479506816721641e-05
-0.000108921509845828909
7.38099482689951711e-05
5.50204815702438652e-05
7.9372342391238732e-05
-0.000107604883770657142
7.12311196252377309e-05
7.86357862293791227e-05
8.01103504795747958e-05
-0.000106740978485456341
6.9614389649380403e-05
0.000106162574647951569
8.29800705536153132e-05
-0.000106041125227356625
6.91495412654101081e-05
0.000132381309351942058
8.67727765943793818e-05
-0.000106007752044879025
7.14567717733425553e-05
0.000155368684617888497
9.01037814330255611e-05
-0.000105379506846260866
7.63990024568158904e-05
0.000176404957270078432
9.25653143967030269e-05
-0.000104558468883769672
8.00590278566977974e-05
0.000190229843469291683
9.48510375329298386e-05
-0.000103438759502167912
7.86577730731923919e-05
0.000189383285964079997
9.48805040137090503e-05
-0.000101027951714677532
7.21718741442719115e-05
0.000170011194824848443
9.00076082796523631e-05
-9.54207670392611318e-05
6.29562146527553126e-05
0.000138714922788864812
7.9614945127586803e-05
-8.5480220466567638e-05
5.29311356570809447e-05
0.000106174476363570975
6.60919388947509825e-05
-7.2001486424071138e-05
4.29654545468161745e-05
7.9880395896950667e-05
5.30688103163502072e-05
-5.79429069023351052e-05
3.34141187849364385e-05
6.18480388171974572e-05
4.26663854965731205e-05
-4.60907622233492782e-05
2.44257659161628671e-05
5.04875374024980984e-05
3.51611144343378238e-05
-3.74508362993769943e-05
1.59710588375149655e-05
4.35620226677922587e-05
3.0067257056504028e-05
-3.16712653109057341e-05
7.89889903529660201e-06
3.95517715049237162e-05
2.69111468516254851e-05
-2.81467340202201934e-05
3.77694626949875119e-05
2.52943927638652871e-05
-2.63594877154677123e-05
-7.015615732635863e-05
0.000163626008620139184
-0.000156261530808020382
0.000216578625285473937
-0.000103917393159013634
5.35371565928048301e-05
-0.000103996948987291607
0.000111190025741185629
-0.000120006444228574271
-2.06662658028628158e-06
-6.56271977008044717e-05
5.86638971958882726e-05
-0.000116052785165567796
-2.53279560836518033e-05
-2.83986157825683093e-05
3.10814359862780421e-06
-0.000105916099687101164
-2.48308230270138788e-05
-3.97921938348930178e-06
-2.12940115561798918e-05
-9.3093992728821007e-05
-2.45998720605100938e-05
9.54263943288496373e-06
-2.86111077671554537e-05
-8.02477110089295137e-05
-3.54263292397859973e-05
1.87642156887484358e-05
-3.49367211155889327e-05
-6.5255746064002201e-05
-4.78577293953640802e-05
2.91062990044828576e-05
-4.9565702052579378e-05
-5.01708090924932962e-05
-5.50143537123099491e-05
3.99398374005689429e-05
-6.66178662212447466e-05
-3.79898276098705124e-05
-5.50001185559697377e-05
4.87101996967538361e-05
-7.97605328933249485e-05
-2.98172456094223835e-05
-4.80538895096779668e-05
5.31346065341547526e-05
-8.57322868706299375e-05
-2.41607598323775581e-05
-3.79034112800291504e-05
5.3593297006037345e-05
-8.51459135714569405e-05
-1.89159731722353061e-05
-2.78492648778047422e-05
5.25293880640856652e-05
-8.28002213389425425e-05
-1.22753248414360431e-05
-1.90097185724027594e-05
5.33834020323517458e-05
-8.37936455870227128e-05
-5.27151483589476408e-06
-8.79764447886155283e-06
5.61731219511006586e-05
-8.68908763126311189e-05
2.49588484776973429e-07
3.28389181611457558e-06
5.8453139457834987e-05
-8.78336853316126243e-05
3.42229792036489535e-06
1.52974259551500372e-05
5.87369842343834353e-05
-8.56886895969392952e-05
4.51043820806388635e-06
2.69409988407313876e-05
5.76163978317182439e-05
-8.2680717469153805e-05
5.28510654648848416e-06
3.84488848086119529e-05
5.70264217140708558e-05
-8.1409678453029833e-05
5.1585377564456596e-06
5.01601131918099231e-05
5.70610342935375139e-05
-8.10110941091257258e-05
4.36170344665434492e-06
6.29866608525236877e-05
5.79830385315728878e-05
-8.09014635971301436e-05
2.91697093759652815e-06
7.80228454185115025e-05
5.90082573067342162e-05
-8.05658529468634196e-05
3.09168681128290317e-06
9.79103537717009693e-05
6.10367130039627049e-05
-8.04884497500732085e-05
5.10027600705284723e-06
0.000121168181239087597
6.43677364009226784e-05
-8.13874239918393306e-05
8.54038101508874519e-06
0.000142942481687675167
6.84566075928697172e-05
-8.24631555552252354e-05
1.4150050805481382e-05
0.000160952450840788408
7.22913933557442744e-05
-8.34878766549445011e-05
2.30974446901647803e-05
0.000176113469542344499
7.57442609666568792e-05
-8.44017493092070017e-05
3.38796323554279005e-05
0.000185997731288366317
7.87080955597944178e-05
-8.52594691310781599e-05
4.31373013849777694e-05
0.00018517721535111283
7.98890954565529068e-05
-8.49419420102570427e-05
4.8116034353213516e-05
0.000169674341562097049
7.69350113878255456e-05
-8.15778223637108555e-05
4.82125854722267283e-05
0.000143362525961531476
6.93808251977903517e-05
-7.41254386441314469e-05
4.43521724980079074e-05
0.000114613255035981681
5.91281910408185748e-05
-6.37065929628871278e-05
3.79755948665608375e-05
9.00815268010656e-05
4.88161325934981808e-05
-5.26405070784938429e-05
3.04417837624630101e-05
7.22152465159887463e-05
4.0143828465764827e-05
-4.29772544493096231e-05
2.2639269587980135e-05
6.02969942992926468e-05
3.35879664422368687e-05
-3.55957127104321216e-05
1.49436081738824256e-05
5.27215717615492989e-05
2.89950156206881835e-05
-3.04608698920684357e-05
7.41198827951267419e-06
4.8236576665777098e-05
2.61002489460589754e-05
-2.72564867572494884e-05
4.61864249693263659e-05
2.45994378815775443e-05
-2.56074236056451331e-05
-8.48097209109504365e-05
0.000163264842270565563
-0.000171998613004181706
0.000257175311487714043
-0.000118875556985086731
5.58853037544569149e-05
-0.000106495008865775101
0.000138175194611435539
-0.000130550850707867433
9.9137004720318286e-06
-6.51847135956571788e-05
6.48947244408871267e-05
-0.000124735563341631242
-6.84276222472261241e-06
-2.99101801998217797e-05
5.61736850715234057e-06
-0.000116230852124311342
-1.23416450036096736e-05
-8.61695021411289749e-06
-1.23806668956655339e-05
-0.00010641350066704073
-2.04655644818121043e-05
4.56615875733405519e-06
-1.85294664992419235e-05
-9.5576226599267041e-05
-3.23176498442033535e-05
1.47765684052321215e-05
-2.87320039509471663e-05
-8.38481844430122693e-05
-3.94871886315761826e-05
2.49730719843115606e-05
-4.50779768274897681e-05
-7.36602604863214466e-05
-4.04801396688906755e-05
3.35821114486496301e-05
-5.83068051126023467e-05
-6.6051443993735869e-05
-3.55335974127248536e-05
3.91994406465538813e-05
-6.62758127806308152e-05
-6.08757101890727205e-05
-2.76097417685225473e-05
4.08182122399276603e-05
-6.64364392479635215e-05
-5.6141191578499487e-05
-1.82423652561522612e-05
4.12982899319890175e-05
-6.56923624440764543e-05
-5.12196484523960125e-05
-9.01481203041507101e-06
4.15195371704685001e-05
-6.52781822584103301e-05
-4.59650123406864065e-05
-3.52975471458868569e-07
4.25113523490293073e-05
-6.64221687270782842e-05
-4.08419919904314731e-05
9.82280574875830994e-06
4.43334342192208523e-05
-6.80740300106606088e-05
-3.66158913008901094e-05
2.15225734677091563e-05
4.57566069537007462e-05
-6.8222890876099533e-05
-3.40058804750940422e-05
3.30506202914428339e-05
4.5941867640611612e-05
-6.63061389997432189e-05
-3.24284063073097391e-05
4.36982138260603675e-05
4.55154425849657471e-05
-6.38468254278924983e-05
-3.10156717639948744e-05
5.41891200772246585e-05
4.55413909173327957e-05
-6.26910894212042737e-05
-2.97765403453700522e-05
6.52925284590655133e-05
4.6299566383137505e-05
-6.26698875428534266e-05
-2.86496582689471668e-05
7.76059094232639762e-05
4.783499475337962e-05
-6.35796934315112225e-05
-2.76812348953697716e-05
9.19854030860596555e-05
4.97874928326734776e-05
-6.47176015475503486e-05
-2.55861014316398804e-05
0.000109422114909299588
5.22068968895143793e-05
-6.58163295373975408e-05
-2.16784245514541372e-05
0.000128929450550140611
5.55151912721803991e-05
-6.71893797764138047e-05
-1.58333765167458335e-05
0.000146744631160253757
5.91237174355478153e-05
-6.87754119874122349e-05
-8.06314620362894307e-06
0.00016117306208678417
6.24025272191945879e-05
-7.03959204678989293e-05
1.98152974632424391e-06
0.000172336550163082502
6.53707320564564078e-05
-7.16402428559105646e-05
1.38702703114440091e-05
0.000178917992958777276
6.78396882263225423e-05
-7.26505578230524155e-05
2.55586779605783883e-05
0.000177379693720208743
6.88233533456586015e-05
-7.27160463883049808e-05
3.4203769516519466e-05
0.000164715127982237368
6.66264343355355639e-05
-7.031356085128771e-05
3.8104628537374125e-05
0.000143195908548315805
6.08789783819971048e-05
-6.46137210618117535e-05
3.73820054729765664e-05
0.00011889717343176157
5.29516586572575075e-05
-5.65128455376953309e-05
3.33130275962574573e-05
9.71813935471727046e-05
4.4722384123760682e-05
-4.77529155550123171e-05
2.73956241012124054e-05
8.04797691447078168e-05
3.75133228738524759e-05
-3.986038138939696e-05
2.07095960659872257e-05
6.87286748503950043e-05
3.18495548422075106e-05
-3.35960086825875959e-05
1.38040350998264812e-05
6.09492609915942646e-05
2.77693346222484363e-05
-2.90934082530242253e-05
6.8749824895852673e-06
5.62325791018110463e-05
2.51547824578172414e-05
-2.62246570933378424e-05
5.40024750310391581e-05
2.37802693331178363e-05
-2.47241760642170615e-05
-9.89922791706823296e-05
0.000148030204790207609
-0.000184625462504590807
0.000298863078531846839
-0.000129635015117062185
5.36115949204602925e-05
-0.000104193943821334601
0.00013709757554164904
-0.000137466325883488097
1.84614309478026286e-05
-6.42202600869489989e-05
6.34995228474788636e-05
-0.000131342013370727842
3.65236587405645268e-06
-3.00823872797470673e-05
1.34770271922718174e-05
-0.000123471976892864478
-5.53401313568299292e-06
-8.96271897172032451e-06
-5.7149449635573577e-06
-0.000114970818596283524
-1.56799181712449911e-05
4.86517605005352715e-06
-1.81560046395477253e-05
-0.000106063546703285755
-2.49394269310380479e-05
1.52902250471130294e-05
-3.15761104255794239e-05
-9.74659162774878598e-05
-2.83646599056574503e-05
2.4169075765991278e-05
-4.38892901395843477e-05
-9.01602646240687148e-05
-2.63333826180354471e-05
3.07522098733892292e-05
-5.22073262334857586e-05
-8.40921815051954159e-05
-2.06547954328996002e-05
3.4395041830556297e-05
-5.53472412251056293e-05
-7.85172192225601563e-05
-1.30084169843462726e-05
3.61865600498619368e-05
-5.63632950141217359e-05
-7.30079483417001322e-05
-4.37552110422700756e-06
3.70474161496251285e-05
-5.64204197097016978e-05
-6.77221527684182902e-05
3.94791326074309963e-06
3.74312434386457621e-05
-5.56796135942026556e-05
-6.27276563382862486e-05
1.20746288121830806e-05
3.81479933731318933e-05
-5.55698109349909611e-05
-5.78910767443729739e-05
2.1762089256153005e-05
3.92795125836007625e-05
-5.60549126067943495e-05
-5.34649674854222225e-05
3.2907639943525575e-05
4.02984742171653523e-05
-5.61115642264365129e-05
-4.99012470488622385e-05
4.39567984114335353e-05
4.07787674649795967e-05
-5.52495317183951631e-05
-4.72555163885251959e-05
5.42285791469812232e-05
4.08811089365472866e-05
-5.40549854078154396e-05
-4.51011396158969895e-05
6.43056602541389346e-05
4.11850422971211409e-05
-5.34534431289648894e-05
-4.30171448459210832e-05
7.51138765961567167e-05
4.21402238648611982e-05
-5.40436631656345055e-05
-4.08304261885217572e-05
8.70912992736653081e-05
4.36730761458864036e-05
-5.53429193633942244e-05
-3.82751108119478223e-05
0.000100529761491843187
4.55949516302489173e-05
-5.66934657998755868e-05
-3.45507277562848814e-05
0.000115704194858405103
4.7886262263470925e-05
-5.78947482732715358e-05
-2.9137615215173038e-05
0.000132078879739453884
5.0745477456104258e-05
-5.93121596996919648e-05
-2.23429296294343896e-05
0.000147087901205109842
5.37165588274571537e-05
-6.08575717940222971e-05
-1.42589787605766874e-05
0.000159011749229363337
5.62899118654713109e-05
-6.2214285007270928e-05
-4.64045074458390632e-06
0.000167433614602385296
5.84216656803067098e-05
-6.31391210060515125e-05
6.35709110445624456e-06
0.000171604184250901624
6.00170307784297772e-05
-6.3703231946598155e-05
1.73944776008066779e-05
0.000169414373236702288
6.0384866366482295e-05
-6.34593212552998721e-05
2.62091812176507886e-05
0.000158833129676395126
5.84022566045569534e-05
-6.13365290955158505e-05
3.107209694580081e-05
0.000141280378124471813
5.38109405733700998e-05
-5.67588779845290545e-05
3.17279838419571585e-05
0.000121048124979378325
4.75340426667699611e-05
-5.03406555977637489e-05
2.90886219353744674e-05
0.000102256865945969802
4.08862848783497862e-05
-4.33218786747898978e-05
2.44248216981717665e-05
8.70984782694056182e-05
3.48829764918488769e-05
-3.68377199754725104e-05
1.87378064506171218e-05
7.59285704312920681e-05
3.00222206404586131e-05
-3.15358574204251691e-05
1.26082107516898545e-05
6.8263445544073715e-05
2.64375434090266806e-05
-2.76240215692822e-05
6.30846026688225459e-06
6.35107237973630211e-05
2.41054964052564564e-05
-2.5086693853400015e-05
6.11844263468689986e-05
2.28621300709715299e-05
-2.37383319860262402e-05
-0.000112211794786341355
0.000126930199561224485
-0.000192225163924455224
0.000325539565873541833
-0.000137376773577779397
5.56947586493517128e-05
-0.000101068182927501152
0.000124161562924891833
-0.000143155157350260568
2.62205573032530079e-05
-6.17961095896237147e-05
5.97963468271782387e-05
-0.000137692572568785809
1.02173415043051616e-05
-2.83711026408597702e-05
1.63488866044185609e-05
-0.000130167214092562813
2.5214350134295668e-07
-7.34978860980416122e-06
-5.96072395244186831e-06
-0.000121711904647595252
-9.6383492651329469e-06
6.92769516890088478e-06
-2.14203555600074129e-05
-0.000113626555088846212
-1.68176067024102533e-05
1.69909875259808616e-05
-3.31954041110603528e-05
-0.000106389495865168548
-1.83999891162264626e-05
2.48105687823008243e-05
-4.20119458760675966e-05
-9.95383680974401916e-05
-1.51727430240272353e-05
3.04729772934053637e-05
-4.84869973813727731e-05
-9.29829853117292865e-05
-9.47994223783823765e-06
3.3639229772689964e-05
-5.13745853232767854e-05
-8.65956590610000902e-05
-2.89292197058111685e-06
3.5205921776366471e-05
-5.1707842158925683e-05
-8.02976086653336502e-05
4.6261077495934496e-06
3.62505821100645714e-05
-5.15468605935358101e-05
-7.4361476427506145e-05
1.25028946442374223e-05
3.70094922901286491e-05
-5.15008814946976207e-05
-6.89876514829196628e-05
2.07260517981510865e-05
3.77091708635745378e-05
-5.17353701348979427e-05
-6.39239600128673423e-05
3.02424884120105926e-05
3.84834220037655545e-05
-5.20288143787283773e-05
-5.91277987989987806e-05
4.08000076863314321e-05
3.91490029627462736e-05
-5.18403059317953507e-05
-5.49383726887186531e-05
5.12978448509037209e-05
3.94786015536449742e-05
-5.10104600783453904e-05
-5.15711487810440285e-05
6.12968809759276698e-05
3.95970772070762972e-05
-5.00311250692718972e-05
-4.87510438639234336e-05
7.12855124674801059e-05
3.99009330490409576e-05
-4.96986776719174263e-05
-4.59603063078280064e-05
8.19254940191089045e-05
4.0728076222699695e-05
-5.03282675146943936e-05
-4.29548660084187397e-05
9.344877216994069e-05
4.19795352642138379e-05
-5.13400671199592688e-05
-3.95732314282978126e-05
0.000105929336119524163
4.35263667538835999e-05
-5.23065607936057974e-05
-3.53817123395930861e-05
0.000119367493807556732
4.53607419404938983e-05
-5.32172022869291394e-05
-2.98075977998010865e-05
0.000133265238807727396
4.7557418420487642e-05
-5.43211094104530795e-05
-2.28865487894040881e-05
0.000145861816398224446
4.97870154222004391e-05
-5.54833565147272627e-05
-1.49185036075868528e-05
0.000155750550853967087
5.16562296865152108e-05
-5.63638720917415025e-05
-6.00276835711996849e-06
0.000162292891146985303
5.30353341480793128e-05
-5.68123526553050953e-05
3.6859121547751499e-06
0.000164922580879401103
5.38323949211136222e-05
-5.68426192772331879e-05
1.32803156694360455e-05
0.000162367644704118337
5.36154959980844969e-05
-5.61661816424928939e-05
2.11393090409265117e-05
0.000153379249360692993
5.16790928243061683e-05
-5.40860909133188418e-05
2.58479018058477588e-05
0.000138949507350471369
4.78635693446703936e-05
-5.02419074980237448e-05
2.70420084546020287e-05
0.000122110868059666094
4.27786205886420624e-05
-4.50351522797243849e-05
2.53122672334753599e-05
0.000105974380120705974
3.73427910298112565e-05
-3.93298835923754642e-05
2.16217735765402225e-05
9.24291294546776825e-05
3.23266477352404598e-05
-3.39664870591864393e-05
1.68051645589224265e-05