/*--------------------------------*- C++ -*----------------------------------*\
| =========                 |                                                 |
| \\      /  F ield         | OpenFOAM: The Open Source CFD Toolbox           |
|  \\    /   O peration     | Version:  2206                                  |
|   \\  /    A nd           | Website:  www.openfoam.com                      |
|    \\/     M anipulation  |                                                 |
\*---------------------------------------------------------------------------*/
FoamFile
{
    version     2.0;
    format      ascii;
    arch        "LSB;label=32;scalar=64";
    class       volScalarField;
    location    "0.179999999999999993";
    object      rAU;
}
// * * * * * * * * * * * * * * * * * * * * * * * * * * * * * * * * * * * * * //

dimensions      [-1 3 1 0 0 0 0];

internalField   nonuniform List<scalar> 
7236
(
0.00134681115228275396
0.000783578064496951235
0.000622131853277071772
0.00057433842781630883
0.000532827381904175967
0.000500974026316323203
0.000426788015185925102
0.000378237074692765608
0.00029102592060588925
0.000245581246304065338
0.000225835220081240445
0.000211956417076315611
0.000213489398501081582
0.000225395808563390212
0.000255615213107873468
0.000296412623116481448
0.00035250130537930422
0.000433208204886746922
0.000555996864368132958
0.000708493863673996397
0.000909609189611280153
0.00125728662092701254
0.00171139501020678496
0.00219870813835800448
0.00306264069237311125
0.00442886844591685626
0.00583878355126492277
0.00772741486130917345
0.0101558006883675275
0.0129477604753804772
0.0157253600274809939
0.0181227587364322165
0.0200602752886995007
0.0216508233472384459
0.0230159700902585022
0.0242084689030472866
0.0252433986961605357
0.0261152461779855065
0.0219987448260941278
0.0198388890350578682
0.0172578614459578186
0.00760032046304934174
0.00334933414520840111
0.00269758838813584801
0.00259536361254937304
0.00274962617743456554
0.00251434924292414817
0.00235911066935329868
0.0022170653761526206
0.00209133595290242162
0.00204522647580026749
0.00205148081656401525
0.00212237314558787714
0.00225082743904403632
0.00242385535551028
0.00256290246970507316
0.00259299491014594726
0.00261800224346642185
0.00274044490916776134
0.00300668476351307733
0.00322599869118537705
0.0034888148391845294
0.00394985222845630445
0.0046182158157885159
0.00551743005546852759
0.00681888476819382007
0.00875497452803665824
0.0112071915163419605
0.0137725472971398644
0.0163009087144913231
0.0185956485791959614
0.0204954268958940367
0.0220430322699811769
0.0233298515202686602
0.0244182914693644934
0.0253258725575184578
0.0188631669678373214
0.0172796044935253426
0.0159276629049339771
0.0128132346342648262
0.00905792490149424402
0.0107381145505148091
0.0122492363331486998
0.0115863181336691486
0.00912262748229508355
0.00738766786966576182
0.00653007078985006883
0.00615624834797086351
0.00604994622644232892
0.00610226190012070051
0.00630395364359751399
0.00657172795505947972
0.00693238817464700112
0.00716248290154887935
0.00746963679340602576
0.00802386966293540914
0.00841836766454373553
0.00845172173160730483
0.0083439798651103337
0.0085521733404316895
0.00865415564387940831
0.00853007687438656591
0.00857177741687728534
0.00907292857291793105
0.010052767226615968
0.0115735299177970683
0.0135989091027646988
0.0158580016242056698
0.0180222870804328979
0.0198926754702972199
0.0214377024569429725
0.0227095875636841964
0.023759786845667083
0.0246067173255669937
0.0144308645078881619
0.0158288821448851272
0.0157784928679601637
0.0149666303724849577
0.0144539730775310495
0.017227860629904574
0.0178498801514511557
0.016736087038883532
0.0154261093867937675
0.0145034442199783835
0.0136966948578772871
0.0131772598465932523
0.013196817483512896
0.013352259339588007
0.0134900197121344042
0.0136919996109091668
0.0140507099772936433
0.0144838867914637518
0.0149245663356982836
0.0150801129739588126
0.0149938099198952974
0.0147350966807970572
0.0143794593648263087
0.013599615343809518
0.0127966798100805357
0.0121559015759761958
0.0117056389358215444
0.0115799574373998161
0.0119540555655961219
0.0128109222862471638
0.0141737228735682192
0.0159393816279609739
0.0177956520930078292
0.0195001692893365421
0.0209598807889125084
0.0221784112454025024
0.0231811694258783133
0.0239715912835701365
0.0123484475911593283
0.0154207397756797506
0.0166166320641788351
0.0173170667918021125
0.0180255998215014777
0.018613364735263524
0.0183256431444204573
0.0175645431601465819
0.0169242137952802726
0.0166732851246742392
0.0169719370167079053
0.0177238130402042893
0.0186621418782714522
0.0194754406904449687
0.0202357963792174217
0.0210625895673945303
0.0212112315495922021
0.0211793798586755594
0.0206246267042199567
0.0199957899135360939
0.0193249178464417574
0.0187479182987274895
0.0177974161404959481
0.0166615375331075448
0.0155802769340572436
0.0146984588702640528
0.0139559791150394123
0.0134520862595046992
0.013382480894519171
0.0138627965720673242
0.0148533348716215364
0.0162243541866312728
0.0177668347883683936
0.0192668320143428093
0.0206033110500271725
0.0217424145204347455
0.0226837045263343501
0.0234164864370070176
0.0116010051643318079
0.014746963014767531
0.0168413163222001228
0.0178933486078488128
0.0186051807121319739
0.0188851936120370476
0.0183889627861340277
0.017832689163540142
0.0175607444347872857
0.0177025856557088482
0.0182632878374055438
0.0189895814363238227
0.0197331559225771662
0.0204124035247515469
0.0206134566496887182
0.0205835224616442956
0.0202240968418969588
0.0198757943884160376
0.0194481904356337554
0.0189578176155000382
0.0183966711142599694
0.0177511271709305911
0.0170114236913065896
0.0162704737717829749
0.0156643178251330423
0.0152787730348621816
0.0150352999159897149
0.0146999865436174097
0.0144658014331363795
0.0147115146164447687
0.0154415323058535014
0.0165447045124678081
0.0178383475936855843
0.0191451580251595643
0.0203475220846516015
0.0213931336946155681
0.0222624267452495965
0.022935245180428953
0.0112120281371267984
0.0144044007974249693
0.0165632935823481625
0.0182082607782710591
0.0189327666927456006
0.0188079109901806464
0.0182424105173225916
0.0179198614830085728
0.0179610875436161666
0.0183230275464329288
0.0188745691701102739
0.0195589710137477057
0.0200857208785198936
0.0203415289899090621
0.0200299372499337554
0.0196662291684881682
0.0193277932550005062
0.0190170870431563797
0.018672728555095764
0.0182503041058064003
0.0177699568020574759
0.0172470238525228095
0.0166952190299289142
0.0161580414801440891
0.0157362016117519841
0.0154879606060248868
0.0154154200892728972
0.0153547719949175751
0.0152498716717265614
0.0153980543829857954
0.0159658053886225851
0.0168693170768336419
0.0179625577977560492
0.0190976663423939527
0.0201686691937015133
0.0211161233955095388
0.0219086961278302517
0.0225208927651117767
0.011236270657400297
0.0144225783504261917
0.0162087610600463831
0.0180388812794829399
0.0190470785248678907
0.0186867203732925778
0.0182454627690343402
0.0181195263335473221
0.0182701904437127007
0.0186806489326064862
0.019272855467756235
0.0197392310588212529
0.0198323805729828141
0.0196836391461475795
0.0194420494988151969
0.0191506940006682773
0.0188728890000591752
0.0186089117262889514
0.0183101438298660553
0.0179445314025258006
0.0175392044591383585
0.0171128636779989303
0.0166770511354486263
0.0162630511381232808
0.0159506091325481644
0.0157920257942909363
0.0157953795397027356
0.0158600723435114929
0.0158478828337931914
0.0159629698913580295
0.0164283122755265777
0.0171828372960047306
0.0181131121827246867
0.0190989082153714476
0.0200472137643311933
0.0208978507613055142
0.0216133742241273082
0.0221662097518324913
0.0114612666228907766
0.0143535565152407372
0.0159192277375544457
0.0176272346525195751
0.0188624820370473893
0.0186332252730557098
0.0182948432734240454
0.0182647356339923177
0.0185041050136800778
0.0189603027801040942
0.0193705550495355781
0.019482727285420557
0.0194079320075984003
0.0192815994549205387
0.0190828733445911891
0.0188510500318368954
0.0186260009397602143
0.0183978862383588036
0.0181302353959470267
0.0178102243652898222
0.0174644756688192952
0.0171107426027947949
0.0167613138558698818
0.0164424694316476078
0.0162137994442205641
0.0161187029610247064
0.016170669764178431
0.0162968670587147584
0.0163373166952017028
0.0164433332312532189
0.0168385846971865205
0.0174784079264472397
0.0182750909727374157
0.0191318872255991541
0.0199683501865986109
0.0207269541969379995
0.0213679776616598587
0.021864114991223222
0.0114976730464992436
0.0141165105419507279
0.015565661686871084
0.0172296868295138614
0.0184278219487448887
0.0185541661530269179
0.018320759709875744
0.0183693247667044944
0.0186425884166072052
0.0189812012404514292
0.0191253244069866171
0.0191533500526532112
0.0191178283791777377
0.0190143839312088385
0.0188525633949206545
0.0186664140909706365
0.0184784056501515366
0.0182752349756822724
0.018035042412588919
0.0177571076563830463
0.0174634934874408239
0.0171697645905321862
0.0114333087459263967
0.0137941897426090733
0.0151763193894277545
0.016857736026927729
0.0180094120165752193
0.0182638614621266973
0.0182276963214783108
0.0183409815839989457
0.0186517695717740642
0.0188178816448663112
0.0188920674702975494
0.0189421924584415244
0.0189201929006160598
0.0188333683145200728
0.0186993493203695231
0.0185447026219514866
0.0183817386342695309
0.0182002370210063331
0.0179880382720976062
0.0177489962355718255
0.0175011992893994509
0.0172589928548613214
0.0112960442553366128
0.0134636865795619426
0.0148269670185719616
0.016598549319686854
0.0176244906939597434
0.017945625564272049
0.0180858863388394762
0.0182592467126829056
0.0185620681144269481
0.0186512798290028557
0.0187319503330647431
0.0187831675352766181
0.0187732962795247212
0.0187051892965902598
0.0185948205840592504
0.0184631972868662952
0.0183197846248282573
0.0181587714518630164
0.0179739947421976715
0.0177705656483691243
0.0175632025263006246
0.0173656738160809926
0.0110924752826630866
0.0131686963148626036
0.0145611840862298163
0.0164311876226513921
0.0173498483267508948
0.017725817615519484
0.0178702632678723917
0.0181149493220441118
0.0184335339771298928
0.0185391144357306206
0.0186263537272616415
0.0186780408369938977
0.018675914681645072
0.018620619419178315
0.018526504136005522
0.0184123117932711508
0.0182859189476043717
0.0181447106922826076
0.0179859873127491479
0.0178149180334449576
0.0176439895939545476
0.0174844347828001859
0.0184792337816669094
0.0185671629058477144
0.0186141476183439188
0.0186135642658217526
0.0185670434600067949
0.0184864222159345747
0.0183874548405125009
0.0182771159541365198
0.0181548242896065644
0.018020295673026071
0.0185768157323173005
0.0185773620118867971
0.0185379831368591569
0.018469796505493883
0.0183854126225131247
0.0182905668753513308
0.018186089145236034
0.0180736813938574478
0.0185504484051106228
0.0184949233209858836
0.018424147569318438
0.0183434513615199912
0.0201283119824635127
0.0214946738570964413
0.00510959937049144768
0.00275957812888685079
0.00190796773667380941
0.00156891521033018506
0.00135260515638105892
0.00123260439122097228
0.00118740717396480125
0.0011710728256485556
0.0011596234855532283
0.00108431983762557094
0.000985939335510020937
0.000889658012675970285
0.000849638816247276041
0.000847781690988576287
0.000876790649692006153
0.000946419422032641574
0.00109314531644258005
0.00131184266094172119
0.00161289950410157309
0.00203861284698809118
0.00261477751618009865
0.00343961191359436506
0.00452356194504067825
0.00652789237403173135
0.00870201384179171422
0.0112295503539307263
0.0138828840530628994
0.0162894748765091447
0.0183164937385495233
0.0199908219050398996
0.0214157819598845868
0.022675555959890601
0.0237977056661494712
0.0247871433447651758
0.0256463386840927385
0.026363838374413761
0.0194569936729348074
0.019229604101009181
0.0171910752495753848
0.0192583533592293951
0.0158970619891081397
0.0131771620795187849
0.0117099544683104736
0.010938166692915384
0.0102921897758004189
0.00933516792881652901
0.00832956775883135665
0.00735811253137607941
0.00676032665325645554
0.00633361212871553624
0.00602332439790892633
0.00580171119017385776
0.00564743125953789428
0.00553256820767580263
0.00528268434414637909
0.00517623455772226078
0.005147806337461063
0.00513023032052499408
0.00521654207874521891
0.00541120969853553253
0.00586636212706726379
0.00656348894975864339
0.00774461869829087129
0.00964137291670292759
0.0119883773881071971
0.0143315386085642212
0.0164839014872124497
0.0184780281198097425
0.0202089393085527549
0.0216748780966536485
0.0229181317304129883
0.0239764742123679576
0.0248775816790141047
0.0256240100154903928
0.0170895758410814537
0.0176963728154160213
0.0170029727316359895
0.0173890644315963412
0.0176656126355104366
0.0180181851160890784
0.0185889806031909778
0.0190966045226802807
0.0185970172725866065
0.0179861771687760824
0.0168992077516522954
0.0154178844617125881
0.0145624602128779004
0.0141063994760798356
0.0138334780932765546
0.0136328993472061843
0.0135131620439140256
0.0133897368332603905
0.0133981053776432418
0.0132415282863529073
0.0127829983233135411
0.012427454856628363
0.0121477897114961562
0.0116239760740913089
0.0110234111798339762
0.0103275520909131956
0.0104086294656473306
0.0112018229854543901
0.0125053743461051442
0.0142085114277864296
0.0160909788462613723
0.0179405955204050768
0.019627728677283577
0.0210867103117325268
0.0223249967784670718
0.0233690300163393108
0.0242398442156899624
0.0249397147085311383
0.0155863447594857228
0.0168322392925918732
0.0176780227334150733
0.0184847495858186835
0.0195752632394042038
0.0193666778688339515
0.0194328748978138052
0.0197136374501638255
0.0193883705703562087
0.0191504330163934748
0.019289402719961872
0.0197304480327137426
0.0201890854305201012
0.0205524058754253079
0.0208582879553725897
0.0210821384225608408
0.0212502608449540165
0.0208630051973742701
0.0202694823741188003
0.0196353979337697028
0.0189445263116403244
0.0181312878992460139
0.0169810236602283456
0.0158557168791032162
0.0148208670509469044
0.0138700085626811756
0.0133100753102417309
0.0133319696139086608
0.013871681641679524
0.0148488301846256398
0.0162272427513735738
0.017771233857975105
0.0192821488802347174
0.020647730471325787
0.0218320544209418474
0.02283728174285354
0.0236718136868298845
0.0243275977598185408
0.0151289396402395065
0.0162419399463087678
0.0173376229756280649
0.018266335398941156
0.0190993148550719812
0.0194559021120967283
0.0194964698718903921
0.0196959530032742754
0.0197208856194143467
0.0197312728671518514
0.0199014353946850714
0.0201905152183798238
0.0203229113697007829
0.0202784502469655487
0.0201241105851161957
0.0199691483871194501
0.0198452212718512357
0.0196744128423457856
0.0193763481602103084
0.0189906302876920695
0.0185232875743536057
0.0179199413388762586
0.0171474220625749615
0.0164141276986378357
0.0158387892845649227
0.0154703704574654932
0.0151120068937033534
0.0147925457916510822
0.0149288078324996774
0.0155490154136492566
0.0165528709224465054
0.0177955254851615771
0.0191018513300016991
0.0203380073748119471
0.021440158329450381
0.0223878645819256226
0.0231754243547898711
0.0237862479821857042
0.0147472890952960976
0.0157682285498845949
0.0167853348561492512
0.0177710072813298987
0.0186298097815495826
0.0192756533260733595
0.0193574379704989953
0.0194510839073685632
0.019555379418745699
0.0196288857342647553
0.0196913047573375501
0.0197079470430571863
0.0197171177389037014
0.0196563033336213111
0.0195083451092818265
0.0193366391524783209
0.0191672950341772244
0.0189739088733211006
0.018686189842339173
0.018328465177201797
0.0179221477293330413
0.0174507747949210965
0.0168855249387442688
0.016363930866274301
0.0159822193653207621
0.0157661583306453988
0.0157511306124019576
0.0157172897324910424
0.0157371502456842213
0.0161257913000953032
0.016891749278044127
0.0179096091171141274
0.0190302924397716226
0.0201306039562782792
0.0211373468897742937
0.0220153439748054826
0.0227471411472318398
0.023310980044225476
0.0144301723681062189
0.0154366987260215072
0.016384898786049866
0.0174221910529902511
0.0183542770980612627
0.0190536521676249217
0.0191124256855354398
0.0191783425739554536
0.0192552986900769336
0.0193246791924171248
0.0193672032407530802
0.019373191824162965
0.0193741126444578679
0.0193301704948635848
0.0192114235269363158
0.0190486312206675328
0.0188800529876382468
0.018690819351696749
0.0184390947049006097
0.0181354323309596485
0.0177887114070537609
0.0173831830333262792
0.0169283304968852397
0.0165243826540579369
0.0162467220912653407
0.0161188450086160243
0.0161615578881266625
0.0162669453222384526
0.0163503000356184161
0.0166186565639939686
0.0172223996374831698
0.0180659705954865461
0.0190271095975692479
0.0199982100374528418
0.020906377052651335
0.021708914759085287
0.0223803326193729966
0.0228962396145158918
0.0142008270170667968
0.0151462419679577066
0.016075659835737735
0.0171509439266507649
0.0181566864113752516
0.0188194596764109275
0.018844429218301699
0.0189271920569016525
0.0190157359291617187
0.0191046163583309912
0.019168151579320343
0.0191867567779020476
0.019189505540136053
0.0191532245793513828
0.0190525697226311477
0.0189072928149432613
0.01874661253188167
0.0185653673301919633
0.0183394144716054509
0.018069009914661361
0.0177631095633975153
0.0174215302565636672
0.0170615489343372215
0.0167470048411772002
0.0165397802603872851
0.0164689072262984883
0.0165545020734863373
0.0167250170332463137
0.0168372763509349287
0.0170419502865636376
0.0175333603084127342
0.0182405058185801071
0.0190663548032695869
0.0199195223618539932
0.0207318039227804285
0.0214579136793575133
0.0220677116408600285
0.022536166348989025
0.013995856028660764
0.014864145980089968
0.0157956664324463633
0.0169117898129957332
0.0179992648859373279
0.0185347776007322926
0.0186125669792250627
0.0187355069536867674
0.0188526790002396701
0.0189593260641676004
0.0190403039261469037
0.0190788943576129487
0.0190840384575198183
0.0190471904419974858
0.0189556438502526368
0.0188251209619281282
0.0186767017816611425
0.01850705774430959
0.0183009751869780968
0.0180587498931831791
0.0177908092090103102
0.0175046522610951584
0.0172174855929334847
0.0169734056540356004
0.0168213759819141155
0.0167913830691442979
0.0169035245125825941
0.0171113864917557049
0.0172453993515271527
0.0174121526956311605
0.0178213076079588341
0.018419920567197566
0.0191313041773053701
0.0198789599926909866
0.0206011278302069729
0.0212529691795587707
0.021802283220636022
0.0222249015940468655
0.0137431698520366317
0.0145687031029637804
0.015527692778486606
0.0166841221114114729
0.0178522093034469108
0.0182907930912609915
0.0184339147962968054
0.0185937420136007073
0.0187323931839071013
0.0188505022819075614
0.018944927538206157
0.0189986836235881487
0.0190083266454600143
0.018971540074051562
0.0188869772638324343
0.0187698012388088468
0.0186340577697362599
0.0184767588171863666
0.0182892233916656481
0.0180739688363480873
0.0178416599504600017
0.0176024924335279505
0.0173730877282612071
0.0134243640604345457
0.0142575199166133041
0.0152400780898732137
0.0164640700880156927
0.0177286532635354231
0.0180673153384424967
0.018279126140871467
0.0184781186059745604
0.0186406353291157997
0.0187734461479292965
0.0188764099415436905
0.0189372068429158151
0.0189489794408763575
0.0189134091171883796
0.0188359104691992289
0.0187303326921434352
0.0186064203592854853
0.0184621991216752865
0.0182935376337348271
0.0181044545365803451
0.0179051868066795357
0.0177066638145061614
0.0130098198369249293
0.0139105082935788923
0.0149406970573432614
0.0162706711633018031
0.0175491085139242928
0.0178839796927037116
0.0181581785730420241
0.0183944799357025277
0.018578134449012889
0.0187207913914953471
0.0188267552673206037
0.0188890981587912753
0.0189021091287343776
0.0188693500245981846
0.0187990534029240895
0.0187038655833602803
0.0185914281922385793
0.0184610606181686773
0.0183114853981459803
0.0181474419023069239
0.0179784549176988766
0.0178153790689854728
0.0124578566140969432
0.0135220727089239243
0.0146523640930280481
0.0161248281084262098
0.017382600817333501
0.0177324434499976959
0.0180656849642075214
0.0183347251878053299
0.0185372804105109756
0.0186878370319785748
0.0187946430031955304
0.0188554661928257393
0.0188686470078473258
0.018839208440090547
0.018776118813747085
0.0186908879710029827
0.0185898379270465972
0.0184735454721112191
0.0183426634394930656
0.0182020826633107029
0.0180604470367671521
0.017928065494630073
0.0186749025758797781
0.0187795991107813712
0.0188363194353971287
0.0188493658366934505
0.0188237928104276718
0.0187679047033690177
0.0186923496065854178
0.0186024883999907041
0.0184999035544583315
0.0183867585619042762
0.0188314480190175208
0.0188450521347115207
0.0188228068538803112
0.018773948595702767
0.0187079255684931972
0.0186289301390461619
0.0185393486693444208
0.018442681495115746
0.0188574898390663978
0.0188155514175635009
0.0187580770881042545
0.018688743881477593
0.021352324632616753
0.0194637536236308903
0.02011769564363005
0.0187565708464320427
0.011101580371622748
0.00698246749191922152
0.00511623590144327702
0.00416942583638875777
0.00360283526000668109
0.00317697155810753784
0.00285185351856541295
0.00264606238845614336
0.00255943479925543503
0.00254803035527505564
0.00255183782000976273
0.00260938216200014717
0.00271587868384634817
0.00288511071127138009
0.00311717521244551064
0.00347240328073258799
0.00397553935663378429
0.00460144311916242839
0.0056609548144394917
0.00721221917800479381
0.00899981620702576361
0.0110476404123904613
0.0134104709640477712
0.0157508467471133562
0.0177216740253823522
0.0192877054817906374
0.0205687562154031785
0.0216978684925837467
0.0227430348073897337
0.0237173530435637846
0.0246077828712429857
0.0254050837673037433
0.0261033872124570229
0.0266843070692498741
0.0202353402859302874
0.0191031378201772066
0.0184781396732354893
0.0190783152090945804
0.0169195001024265643
0.0155174347232361291
0.0152423306321804938
0.0146062675817996025
0.0133573947144893027
0.011904119553607137
0.0107423871048641859
0.00980332236880706448
0.00906785005305434794
0.00856336069075137006
0.00826787420042897694
0.00803127964009883212
0.00772373191045316095
0.00739618121797801144
0.00705288868762538306
0.00696660026023873929
0.00702796444298993926
0.00726962054938927026
0.00759010184697798875
0.00810886440236451012
0.00895192032855031579
0.0102204745026196354
0.0118951902824117502
0.013912410340850629
0.015823764913578911
0.0175340161277894244
0.019085125175472159
0.0204759457586373601
0.0217185333241504963
0.0228250582992338552
0.0238000884948150783
0.0246490412608026815
0.0253797796923285503
0.0259819582650912539
0.0194322662852439813
0.0184561871451978665
0.0183980523703795133
0.0188719200814791641
0.019586697112551784
0.0190400016641264699
0.0186670582677160996
0.018517400394741465
0.0184709073617659071
0.0185242546011698088
0.0187658620147216244
0.0191824627503093502
0.0196054433557662083
0.020000262292084247
0.020069963286564789
0.019594559828796633
0.0188282340924428096
0.0179004147346296799
0.0169648735114852345
0.0160192823187146026
0.0152968213599578729
0.014595250350472681
0.0137969963444520838
0.0130144975311391482
0.0127224876179863351
0.0128211330756772841
0.0133266427700729946
0.014350198549121335
0.0156928338537300031
0.0171372951602164585
0.0185513558029841916
0.0198987210741626945
0.0211357376610650377
0.0222414497388653716
0.023212151379350756
0.0240504386985359274
0.0247584466118065429
0.0253257910235001639
0.0185154550230799582
0.0179400379826584744
0.0180360128089063036
0.0184120821143945526
0.0189176668573926773
0.0191210954486631841
0.0188930694018141082
0.0187741766657670457
0.0187263844170999297
0.0187267095145950031
0.0188190933235716402
0.0190311592386591399
0.0192549145758506048
0.0194006733250024974
0.0195062271842346251
0.0195739182987208701
0.0195808084346629392
0.0194594665834451098
0.0192357516176167934
0.0188954021451199321
0.0183934794592257658
0.017718572756915598
0.0170233564598665857
0.0164743208789337701
0.0159876018187157833
0.0154763021145342093
0.0152467392645140414
0.0155241446387322096
0.0162151476885715323
0.0172102389865585251
0.018362263129928065
0.0195579512620251174
0.0207106856112244525
0.0217672335989258364
0.0227048354837213508
0.0235159563341369275
0.0241969182125969344
0.0247305229113632466
0.0177744407650277866
0.0174883812412788692
0.0176572192286822555
0.0180189304923878933
0.0184405188395918677
0.0189263650868035406
0.0188568614619711201
0.0187415664676157008
0.0186837524736713605
0.0186656469508654568
0.0187159968240958978
0.0188429621232920827
0.0189817685015334948
0.0190435830866736711
0.0190486998290204067
0.0190322314197986682
0.0189723756733009424
0.0188114173473680583
0.0185537444409823553
0.0182334124306667844
0.0178347401498770951
0.0173506162240015631
0.0168508126958365652
0.0164473489360758944
0.0162253982064226414
0.0161934857109804937
0.0162846971132436097
0.0164289505327820905
0.016779853939999919
0.0174560691295599958
0.0183595501866700254
0.019381250304389197
0.0204179356273648561
0.0213978273783568228
0.0222823582100732213
0.0230528210357676504
0.0236986758727372772
0.0241979300899475211
0.0171726398724667065
0.0170743923574472635
0.0172885190815005862
0.017710408090925861
0.0181999136937662093
0.0187523059786969641
0.0187980869378607286
0.0186986312499650038
0.0186645214522995935
0.0186754593382299078
0.0187318993752219609
0.0188203258737275371
0.0189057718785619402
0.0189316200041616256
0.0189061883709669004
0.0188616531684430259
0.0187875140491109739
0.0186511162555970146
0.0184372300185128048
0.018165737443685992
0.0178334776643839822
0.0174499344135469955
0.0170487735680787365
0.0167298201646978624
0.0165579388803891239
0.0165510984605432739
0.0167727627921042399
0.0170190199506709758
0.0172507408633238851
0.0177268134224413468
0.0184457700006454284
0.0193116063097368597
0.0202276433284586943
0.0211187880936417639
0.0219379008693826767
0.0226577597137608416
0.0232613816529335139
0.0237246271410468772
0.0166959266020635481
0.0166816489441054643
0.0169518304233926519
0.0174605031796300873
0.018051927381360168
0.0186805597554588546
0.0187263336081194519
0.0186708572108960774
0.0186760950796880758
0.0187226491210101958
0.0187899093743435532
0.0188613040551236823
0.0189186425200966422
0.0189315107459374528
0.0188982851885248215
0.018838061527259458
0.0187504825286133534
0.0186150868787184724
0.0184216532746046893
0.0181843827393760697
0.0179074581265543861
0.0175972298402084955
0.0172830848021469849
0.0170374980273404926
0.0169144458544672853
0.0169350176403674051
0.0171406289953126012
0.0174171211198297406
0.0176462913650851545
0.0179949776436067986
0.0185749720404320556
0.0193085196252347699
0.0201109706677470856
0.0209111881818770176
0.021659249975232258
0.0223227977840805315
0.0228800094164327145
0.0233062192129312902
0.0162986724117271699
0.0163012266458640517
0.0166369935150633835
0.0172356963727007748
0.0179352270202369768
0.0186416621107935269
0.0186366712961922448
0.0186403862232636074
0.0186913175861517615
0.0187681963880516785
0.0188454142781563222
0.0189080747692821419
0.0189508438303763634
0.0189569133892077239
0.0189215927378674695
0.0188553449066524888
0.0187612096507197117
0.0186292490470196595
0.0184543522711905078
0.0182460481335321861
0.0180103803267196612
0.0177546568774774316
0.0175052733291043185
0.0173150026376173369
0.0172290107110002928
0.0172697363550897917
0.0174677885449154198
0.017759266050087319
0.0179831871901881025
0.01824840221424728
0.0187230515590477015
0.0193460105879357212
0.0200459202767177963
0.0207584865625757911
0.0214346365127472162
0.0220397094985764382
0.0225488340093076833
0.0229379880720484153
0.0159046528629877282
0.0159085305236437019
0.0163167528823599355
0.0170131826060263142
0.0178213801105473434
0.0185295305500405814
0.0185394072916007027
0.0186076731780009247
0.01869993242450926
0.0187981116121850381
0.0188838638343868381
0.018944832316358233
0.01897974695564425
0.0189801100140690356
0.0189426274727099789
0.0188743537227073419
0.0187798849373048728
0.0186549707332043131
0.0184972774187442887
0.0183135192359631209
0.018110872419347137
0.0178987633018899625
0.0176996703817049218
0.0175532731745240596
0.0174965131882956274
0.0175523865714627761
0.017744996988064584
0.0180501897684893706
0.0182764355274666612
0.0184837364878772809
0.0188767461900518838
0.0194074810170045478
0.0200166353661611097
0.020647541122795942
0.0212539595564157358
0.0218009625561626716
0.0222621834549859635
0.0226151385101478163
0.0154361276648766668
0.0154839327493716105
0.0159812376901933596
0.0167871790380399767
0.0177000628411130047
0.0183444172630899058
0.0184426503645659587
0.018569975559857746
0.0186973001358594799
0.0188129286562718941
0.0189060178337154654
0.018968604341778935
0.0189995955857554071
0.018995744285042318
0.0189567807377139068
0.0188891620194009298
0.0187977787146297905
0.0186813520820916512
0.0185392771894737837
0.0183771444584047428
0.0182028526580667212
0.0180269856677604673
0.017868770021744345
0.0148497363021480346
0.0150120830402481874
0.0156285657575540547
0.0165642318765506467
0.0176053570858252864
0.0181656896120705701
0.0183495375465176878
0.0185298810277380217
0.0186875557886551427
0.0188181514343718319
0.0189178617645624318
0.0189826506263691408
0.019012183223602451
0.0190062043022715121
0.0189673216872518653
0.0189023040989652613
0.0188159784851657137
0.0187086211129292058
0.0185810817428639814
0.018438677778980745
0.0182894982026667145
0.0181443500834726039
0.0141334565481921314
0.0144819386272103806
0.0152527896561325763
0.0163481785858207024
0.017524236017820289
0.0180001959648203973
0.0182634906034479585
0.0184920851855529776
0.0186772054774671202
0.0188213732934642969
0.0189266330776002231
0.018993261331646541
0.0190223302198746815
0.0190158582883160447
0.0189784365732375039
0.0189172743689046997
0.0188370461770895233
0.0187390699658188144
0.0186253317878255151
0.0185011357184500964
0.0183743680308302224
0.01825554269358819
0.0132534017213155834
0.0138925537177026822
0.0148768762411938954
0.01615021097679923
0.0174448059202299798
0.0178547891427445482