/*--------------------------------*- C++ -*----------------------------------*\
| =========                 |                                                 |
| \\      /  F ield         | OpenFOAM: The Open Source CFD Toolbox           |
|  \\    /   O peration     | Version:  2206                                  |
|   \\  /    A nd           | Website:  www.openfoam.com                      |
|    \\/     M anipulation  |                                                 |
\*---------------------------------------------------------------------------*/
FoamFile
{
    version     2.0;
    format      ascii;
    arch        "LSB;label=32;scalar=64";
    class       volScalarField;
    location    "0.179999999999999993";
    object      p;
}
// * * * * * * * * * * * * * * * * * * * * * * * * * * * * * * * * * * * * * //

dimensions      [1 -1 -2 0 0 0 0];

internalField   nonuniform List<scalar> 
7248
(
21.3433070390924513
12.5723315306108816
-0.723419054945271256
0.646018471722584309
-3.42409695570302119
-3.68035328567310716
-3.55749858334524038
-3.21565941404807099
-2.99775874699931677
-5.05714119453787703
-4.41285214250461166
-4.36322650913877474
-4.52781593646198566
-4.30586442770952971
-4.71940642857814296
-4.83948377930220008
-5.06766106598230959
-5.41929661332018053
-5.14726732283958555
-5.31552110454703985
-5.33377912578781554
-5.42537862655349734
-5.69094771697714563
-5.91173174749641106
-5.59772273607168813
-5.67139371211104404
-5.77311355592893705
-6.04856012546168742
-6.89797497660684655
-5.88108162716577265
-5.97203505260828216
-6.11800335022282482
-6.42742637175401743
-7.04554900465354805
-6.10088743303875347
-6.19350418152508375
-6.34890775062428681
-6.65902132200816688
-7.16730493425033277
-6.29401685917459908
-6.36973425279345484
-6.49365949079299565
-6.72832312673746991
-7.09995611640240476
-6.48200101646240245
-6.52802596613105557
-6.59303818691297039
-6.7003759220206609
-6.83595141660683847
-6.68579620622006754
-6.70208675092046136
-6.71516099843813397
-6.7228526748446038
-6.70325547640317598
-6.90069853548304479
-6.91090401435137114
-6.91476199012194304
-6.91093808929914921
-6.89618065284293991
-6.86354616156098984
-6.79716125611043687
-7.17558974976516684
-7.17472957171907133
-7.1684174435037713
-7.1546751956967789
-7.13067846368785307
-7.09201948456603848
-7.03179887949145321
-7.46219109222789445
-7.45485373524349804
-7.44371695131757427
-7.42765866824941057
-7.40533996488298207
-7.37517515738689422
-7.33590021590388641
-7.75845990649072625
-7.7476307282324326
-7.73517763020044669
-7.72116811730644148
-7.70585449340846029
-7.68980028861482001
-7.67392705997225466
30.9557797227636513
17.7202638225500095
0.854574806321345193
3.1959204372292902
-3.44601611037677458
-3.7131686744256216
-3.5237777318608976
-2.85749252708883361
-1.97211010303816536
-4.96457085663845277
-4.37243586996707645
-4.4759797316015284
-4.71616945305408297
-4.59670005943511661
-4.68188579935431548
-4.78112268626871462
-5.16992518490391362
-5.72157826861877439
-5.37084443883937013
-5.29172836590551476
-5.33304562336105104
-5.42722293497583408
-5.73179174649186862
-6.0251410744783982
-5.622636486935086
-5.69608990211794275
-5.78030808458690615
-6.00794364977972251
-6.92498497970725069
-5.92800988372276549
-5.99990460759964961
-6.13715011926116905
-6.41983629135077738
-7.05223004493598538
-6.15203221739766448
-6.23526681727136456
-6.39173046164757164
-6.69468449624550832
-7.19992187563769459
-6.33849068922480363
-6.41944069850218657
-6.55481287005861457
-6.80149003941142016
-7.20011910895119289
-6.51798949650514636
-6.57502169023981597
-6.65726741593581473
-6.79181546777362843
-6.98264058953190769
-6.71428038230722102
-6.74018395427021666
-6.76642107386121516
-6.79307562032336687
-6.80570834761473709
-6.93531940251724421
-6.93724483651848445
-6.92936947362664668
-6.90542069728044261
-6.84890045753669341
-7.18180562180940374
-7.17069334756029786
-7.1491372112531959
-7.11220231002992076
-7.05158588074910853
-7.45110436981196234
-7.43588262700590619
-7.41389301781485432
-7.38309124402499339
-7.34146312324399286
-7.73780107742827461
-7.72377515146554927
-7.70817412979000682
-7.69152315100551043
-7.67479436127009595
41.6843631224989366
30.7260922800652452
3.0021972529172416
5.50356359305403942
-3.260538368213588
-3.43601948334894125
-3.02987564281174304
-2.22299474387055396
-0.841976515912858048
-4.74565611588093361
-4.31304206439214965
-4.38031371758852739
-4.51761891537021576
-4.59876347793558082
-4.948201784449763
-4.86419796836988816
-5.1822285508110415
-5.66424042967831198
-5.5861412342301513
-5.27238088689980167
-5.3308054366736366
-5.45411322004588506
-5.6886985988313592
-5.43661104880054324
-5.5962810734643309
-5.70244400361711623
-5.81372790507761117
-5.99547255857186023
-6.62669906296792011
-5.89024784855457018
-6.00048408605851868
-6.15375760713841125
-6.41597686465656825
-6.98254865267913161
-6.13806450594276143
-6.24930851074676852
-6.41330430015376596
-6.70202213206536435
-7.15443169748036922
-6.35238486857396012
-6.4502857087048957
-6.59529977150293067
-6.84576107086976116
-7.22817878698609562
-6.54261713039859583
-6.61327030915705993
-6.70988611563633963
-6.8602258408908483
-7.08280532936170992
-6.73833301471459745
-6.77371949994202804
-6.81257774889740642
-6.85772583108110112
-6.90027502753683386
-6.95401363126668581
-6.9617249245164583
-6.9609908026699916
-6.94662850357195527
-6.90359793971046987
-7.19427163205617504
-7.18595384626547595
-7.1672593629384691
-7.13282396984494227
-7.07302945994504562
-7.45809607690493692
-7.44382888280262822
-7.42239977098704351
-7.39132335939489238
-7.34776097314039323
-7.74034228336898167
-7.7263444640479344
-7.71052637986779921
-7.69338698086025374
-7.67600238468372442
53.6534790976871392
36.3968990150389686
6.13345993738135675
8.19535254444421923
-1.08617246804337242
-2.37936590713976415
-2.12946674154322491
-1.327452557624337
0.276166694876771146
-4.46171293932361124
-4.11824505766486482
-3.88419864507893742
-3.87953068178000926
-3.97228001020015675
-5.04363349191265797
-4.9943247184411721
-5.02632836971921293
-5.43706823764013691
-5.47620439713906748
-5.27969998948334052
-5.35332693109150881
-5.4454426626815593
-5.65405411338274089
-5.45054989532779288
-5.5959651867187068
-5.69557862606347776
-5.78916675375338752
-5.92906505781417348
-6.21190080066221739
-5.87890253413348152
-5.99905503838189702
-6.14844085736168555
-6.36083054734362019
-6.85148822462512719
-6.13410091130126656
-6.25431845686035803
-6.41638415423320918
-6.67865230478009853
-7.08607340770971561
-6.35785224377291147
-6.46888750710706262
-6.62244038509586375
-6.86536676434152149
-7.2184640231948034
-6.56063297027236825
-6.64231925133103562
-6.751490836346
-6.91882897809927933
-7.16323713435531584
-6.75762849186961745
-6.80198717837848221
-6.85271580203647179
-6.91739215618472159
-6.9949081865310756
-6.9700930375963619
-6.98340438062207447
-6.99003407968121859
-6.98603029719668012
-6.95878394683228585
-7.20530363443845623
-7.1997865040237512
-7.18417050214982389
-7.15284820765395235
-7.09544947137908899
-7.46440055856020468
-7.45111269540323473
-7.4303651556525816
-7.39923072418917993
-7.35392379032007426
-7.74268350007164585
-7.72873861823584463
-7.71275303940464507
-7.69518909971045861
-7.67711033401302778
65.8377515954909569
44.9505698625380319
9.30099256093190974
10.7154751891339117
0.621127580102623256
-1.30196281443386308
-1.47910099032227471
-0.744229071332442871
1.70752402967497829
-4.00201461321124086
-3.86788695642174307
-3.59229570443005919
-3.52156492885939443
-3.72121848675055134
-5.00028350291349799
-4.96747933952038245
-4.903542939116452
-5.07363425442074245
-4.99707208815802773
-5.28480346984530058
-5.32809267504200879
-5.4472565426010835
-5.70230854519680541
-5.53060619222810601
-5.55065782281973963
-5.65776759045091193
-5.77543146319829326
-5.93463610548961906
-6.15189802664562002
-5.85376856480140706
-5.98913543274355753
-6.13976392619366429
-6.32847426908439026
-6.73922324292586872
-6.12826328434584866
-6.25886531919693212
-6.42110041877779025
-6.65234458652693661
-7.02588344540319909
-6.36496534264032743
-6.48435626490688932
-6.64213560499052047
-6.87773970768425258
-7.22061280042432951
-6.5732065395629693
-6.6643435471937611
-6.78445318184747581
-6.96676779942096491
-7.23467139738923048
-6.77294230166098732
-6.82508581643323708
-6.88729127377001316
-6.97347307465509747
-7.08439833341923642
-6.98321375312051185
-7.0017031876101532
-7.01556923087931406
-7.02236440053143429
-7.01267295130432
-7.21455625856346483
-7.21166925591177854
-7.19913341627441117
-7.17130137300496262
-7.11741762868982075
-7.46975133287623372
-7.45741489999569485
-7.43739805860968684
-7.40637136740839885
-7.3595030893173643
-7.74470835236852295
-7.73083828856819366
-7.71473978042814323
-7.69685086172913557
-7.67822932758607024
75.3527446088549056
49.1991420106159012
11.5572965642951999
11.7205871571071327
0.364576608659831436
-0.803975764356371414
-1.07021351779510443
-0.268717270333032943
3.29091554567350641
-3.71394400450416384
-3.73684746476088669
-3.4842149772847808
-3.43208486913197675
-3.20733467519813331
-4.8961998778187974
-4.84822432935039149
-4.77015532645252094
-4.8669242441443954
-4.642074044259072
-5.26632635952308892
-5.32971488278002781
-5.34900194858263767
-5.57364974864624685
-5.33952462125056826
-5.52952466700050582
-5.64419033862716901
-5.76281786019839082
-5.93120808658557763
-6.09625250522595508
-5.84064338284386331
-5.98560377197004634
-6.13812462777030632
-6.31607732512870079
-6.69240869872038679
-6.12212531288498063
-6.26014928554752714
-6.41837516464930413
-6.63993917836439884
-6.98938346195289917
-6.36698445705053917
-6.49291801349207898
-6.65363924108157523
-6.88711104545939357
-7.22887280950020994
-6.58270641175323767
-6.68028528656346499
-6.80893937699342366
-7.00057705675202779
-7.28616315051235652
-6.78461265718157591
-6.84302703366644671
-6.91487836014791935
-7.01852424541234843
-7.15794964155172764
-6.99336345456913833
-7.01620506313762249
-7.0363313877654754
-7.05293803337186187
-7.06027027046925948
-7.22181418908501094
-7.22120724193780994
-7.21150406283011058
-7.18746391471538626
-7.13815397454883183
-7.47398135831427446
-7.46248497204612082
-7.44318652958206517
-7.41245341878823538
-7.36435537349389691
-7.74633476573958379
-7.73254863248951541
-7.71639857759926429
-7.69829894014250016
-7.67925635910002669
83.3880308511145785
53.8930919193730915
13.9955673471381914
13.6216083945276409
1.36749406682089614
-0.340861714719224551
-0.667559089445692422
0.0635915415587113841
4.0863039201088327
-3.69691982999255409
-3.59293936384196178
-3.47814678589810988
-3.43117631072848495
-2.76998425916609392
-4.85517740551434862
-4.82758749888940386
-4.79449305502618284
-4.887467974780626
-4.7206714747302474
-5.23984273359795516
-5.32003525836847135
-5.33261271021156436
-5.49651990637392629
-5.29747298324293858
-5.52198882878024833
-5.62446215383354264
-5.71655256284719737
-5.9036887330110881
-5.88972783605011418
-5.83356173506631226
-5.96961508314014822
-6.11608334523052566
-6.29842447756002954
-6.66227408770463292
-6.11821069612462409
-6.25614704211528938
-6.41489344314446175
-6.63799709216497469
-6.98726666422957798
-6.36764974913860549
-6.49631273742717852
-6.65720761832494823
-6.89081467780134194
-7.2313556081939474
-6.58848110170203061
-6.6900619021347616
-6.82226987365015791
-7.0197675515779574
-7.31460991292296381
-6.79240907195410593
-6.85528883436701619
-6.93340189554388253
-7.04769507470177814
-7.21012897133936104
-7.00030081615760125
-7.0262538516145927
-7.05067854827870288
-7.07395450863078157
-7.09363500921517698
-7.22684697347271676
-7.22793983457900513
-7.22033647759933395
-7.19928092969746647
-7.15421776856639813
-7.4769282623377924
-7.46607724784187621
-7.44738645451642789
-7.41705846338555741
-7.36843240142288636
-7.74747782766105964
-7.73377560320509794
-7.71762752051922174
-7.69943830173116428
-7.68015936877408478
85.7515384174360236
57.8550715042855472
15.6754640636778078
14.3175483254038909
1.32586599804631078
0.771171113621161197
0.37635489600419092
1.35093007148613253
4.77400462686214411
-3.65864766249611506
-3.40919385960889665
-3.16206429211687556
-2.84444988443852154
-2.13503037624334269
-4.89017510541309441
-4.83417331791487381
-4.76898751409072297
-4.78478920146851472
-4.50133663680349905
-5.2100066585050957
-5.30771408183412241
-5.33093663158729836
-5.46280841113852489
-5.30546571100162012
-5.50364127700023609
-5.61633873752612622
-5.69537279037310373
-5.85579410255257482
-5.66446931721165559
-5.82136393559651921
-5.95441958871973931
-6.09880469017586435
-6.27611967597272358
-6.55610847878290137
-6.11439451264991707
-6.25160703128760709
-6.41130315651814264
-6.62899272385548954
-6.96851151168819882
-6.36823129607020721
-6.49677276863715569
-6.65645101438439646
-6.89160251905630172
-7.22349708674761715
-6.59113041222719875
-6.69428381140405193
-6.8263131924584366
-7.02603736169568016
-7.31947971089934857
-6.79627670631648328
-6.8616707151301517
-6.94220635849566037
-7.0569095799196937
-7.23319207511273543
-7.00387536201936811
-7.03152921702564448
-7.05810510910142241
-7.08437312265536701
-7.11195991333879718
-7.2294502585843885
-7.23150216966920922
-7.22520378035359379
-7.20603423639837448
-7.16361316190053365
-7.47845359065368687
-7.46798060418337428
-7.44967906093022858
-7.41975583506523684
-7.37132090052645594
-7.74807708486167623
-7.73443111404610661
-7.7183061444097163
-7.70012099040354681
-7.68081709997122974
-0.00229784420651490962
-1.33869420735150646
-2.43078578368115705
-2.47016517562047477
-5.14820238879150338
-3.63932565821961518
-3.41078040268400562
-3.36424778480022191
-3.16700116857262959
-4.0516211370599251
-4.47214501546437582
-4.34609327363585329
-4.13691628731934458
-3.96990274336664228
-5.03687181795620287
-4.88501952377697357
-4.79730528436435844
-4.70047429844248121
-4.59176265192405708
-5.22900207024697661
-5.20184293912005558
-5.04682334671121247
-4.91448803500384379
-4.84160929576375221
-5.38938563105175206
-5.42510075579717022
-5.33039903251634062
-5.12045021460432803
-5.02742897387513743
-5.59985906888439899
-5.68930613429711762
-5.63062797454260533
-5.51723652370837581
-5.36975073065201514
-5.79269925099446414
-5.82364249564677472
-5.78587608579302159
-5.69875182087629462
-5.58350694949132986
-5.99771711773126892
-5.98736272985592599
-5.95166632001008189
-5.88929319976418686
-5.80080679178088232
-6.24706017074402276
-6.22861411785402819
-6.19223078266478755
-6.13766378384148137
-6.06604389530590993
-6.51425902906902365
-6.49295503620767178
-6.45955194115968645
-6.41414365498071248
-6.35863072106303928
-6.82268214149760865
-6.81426103853533771
-6.79980682697198269
-6.77834708427107557
-6.74924680920062858
-6.71260765755042144
-6.67100250053080668
-7.12387105001308552
-7.11291877587750676
-7.09780162972330864
-7.07831150995049452
-7.05450570238220287
-7.0269507221710219
-6.99748881246898424
-7.43225097020465775
-7.42041274418263797
-7.4062812115878085
-7.39002418567222463
-7.37202512501594764
-7.35296080799249463
-7.33402951085556687
-7.74693885112645386
-7.73506575997421386
-7.72260221885267661
-7.71003447013178711
-7.69793235113351493
-7.68688110470988928
-7.67748408701359875
-0.847995314323954474
-1.82627730332099381
-2.75612337501262816
-2.79009642481297826
-4.65824041047090986
-3.74443882606666634
-3.59572387264883542
-3.58598473829372022
-3.49736274009675663
-4.95072043422797847
-4.85565006623140683
-4.50461142692302818
-4.26073773942262601
-4.14094899393091964
-5.19647661838044872
-5.21729419183863996
-5.07623016742405486
-4.8227564819511981
-4.66393567200502357
-5.25441762539927382
-5.48852954390823911
-5.46587922102364843
-5.20633621552708803
-4.99899797211215002
-5.48342367902903582
-5.67216391287684019
-5.75457850020596329
-5.5148105287176481
-5.20740943196946837
-5.58299703310748985
-5.68604640068349187
-5.6895105588937831
-5.57342398285853591
-5.43258181894685066
-5.78536528221955493
-5.80610380838958662
-5.78524399064189065
-5.71897204502082968
-5.6114106098927925
-6.00279188771749173
-5.99544175670822277
-5.96527195766613705
-5.90850433795613483
-5.81840928625648779
-6.25207248313557606
-6.23521934555289459
-6.20169493803988559
-6.14838534419055271
-6.07331260472361389
-6.51915289702838496
-6.49805503326146283
-6.4652734965708909
-6.41924258031807859
-6.36069263010960029
-6.82541158996229225
-6.81726834099639767
-6.80298712394528593
-6.78152447298304395
-6.75211427879979365
-6.71466829645581242
-6.67095921934234504
-7.12558801985692458
-7.11480426482134831
-7.09977889296643117
-7.08016725255819068
-7.05594151108441547
-7.0276422097886142
-6.99686024357070213
-7.43319578170894069
-7.42142099403830624
-7.40726811170207
-7.39085674319160013
-7.37254548467804316
-7.35301372237091933
-7.33340457630563503
-7.74733740618871813
-7.7354523728748914
-7.72292738988419813
-7.71024165799419947
-7.6979765564357443
-7.68675252059835223
-7.67716239944078183
-0.456117305276082519
-1.72352669684155613
-2.71350804226138775
-2.85105991424501015
-1.32930220301564361
-3.10446180693874885
-3.62153006226978214
-3.59898854493016085
-3.48978900327954333
-4.48088986513031173
-4.59764794381326958
-4.54770406615894895
-4.30624211966480885
-4.11304621468101139
-5.09232999901882444
-5.15073822124804259
-5.16508206118073332
-4.99381371162653398
-4.76540485256547885
-5.15354803932442973
-5.31281743823426389
-5.43498463426020439
-5.41882423642847044
-5.28409190893926883
-5.30965834371387402
-5.39770537673409478
-5.51269932541233665
-5.54946797390941082
-5.45028422511610966
-5.54679840216294018
-5.60263139817510858
-5.64654516052971989
-5.6265778665737205
-5.5518327107979939
-5.78409142902833739
-5.80645665964458679
-5.80621449694607517
-5.77133514834118788
-5.68134413081222611
-6.01333877801254157
-6.01267728344086105
-5.99359285438606726
-5.94701541337929651
-5.85630682076162667
-6.26399265098693192
-6.25063575293785423
-6.221007029563979
-6.16967643850805381
-6.08935102782132098
-6.52859788824806664
-6.50919007416953477
-6.47731498415534723
-6.43005128191758413
-6.36589011709691732
-6.83041621663180454
-6.82313478011641728
-6.80958254002572616
-6.78853253498359699
-6.75875999344188383
-6.71946531479224429
-6.67152969855871891
-7.12896793853834243
-7.11862922834823753
-7.10387804745096307
-7.08418816775066862
-7.05927528954485339
-7.02938744346644029
-6.99589212551137329
-7.43514032161609961
-7.42353891957993017
-7.40941633087427842
-7.39279065604619134
-7.37390702059660708
-7.35336217868791309
-7.33228678428144498
-7.74809804282127068
-7.73622284224855417
-7.72362878827589228
-7.71076819315799789
-7.69821430620468217
-7.68660203006116394
-7.67656101142173863
0.195371391503488034
-1.2017754782359007
-2.58167724028414103
-2.87783362939987697
-2.03196741356977384
-3.44653966594109251
-3.65856378168636365
-3.60581113953882859
-3.60948296286501868
-4.1829293965633525
-4.57850288169244912
-4.55464129894786307
-4.36603973280904256
-4.25030021403949121
-5.12511018762315462
-5.17759292697507867
-5.22825484351683301
-5.14289747165430988
-5.01736936293131475
-5.31004956165004227
-5.42379134344216141
-5.5507134492846717
-5.65091816271588776
-5.68242712844542552
-5.40270644897147445
-5.50822122685157112
-5.6176069889285305
-5.73531401540619346
-5.83323167607924997
-5.60057251202431772
-5.67061789420178464
-5.72933235902423643
-5.78119221141912742
-5.81074736312267337
-5.81422526492826286
-5.84806925274953482
-5.87256381109703796
-5.88096709530524553
-5.83468322655987937
-6.04065423372691424
-6.04860521191513278
-6.04395685940677119
-6.01572624216752949
-5.93139275582996284
-6.28522549305617328
-6.27704669199799437
-6.25392753401652257
-6.20718079158979119
-6.12085135591346496
-6.54399155552267153
-6.52713621217596529
-6.49710420026786384
-6.44885184026729519
-6.37693422823557743
-6.83793919736583611
-6.83211380365430454
-6.81985700211189005
-6.79964713200366244
-6.76966056658374438
-6.72792904057885544
-6.67383728563457801
-7.13397598455450144
-7.12439375078101822
-7.11015874932037306
-7.09049342408115812
-7.06473401619129859
-7.03261639620620294
-6.99508862454353242
-7.43803836099507532
-7.42674280476643922
-7.41272186959428847
-7.39584930009203134
-7.37619263921409907
-7.3541825567098229
-7.3309005855602738
-7.74921516055490223
-7.73738057135375534
-7.72471487029770554
-7.71162659936959027
-7.69866861757669962
-7.68648320541652019
-7.67575737122549207
2.10412406379841599
0.746591191502229634
-2.19753333053481548
-2.59789753989115235
-0.99593255185510543
-3.24776946020658785
-3.50085251069677739
-3.54334949997182891
-3.62759910976872835
-4.25776798054797467
-4.49006218910271393
-4.45195286135329127
-4.37910591816827743
-4.40974014182669816
-5.0826409683497511
-5.13797349185092056
-5.20380223571410916
-5.2031606870952043
-5.24263281197873354
-5.34786444785353332
-5.47245327900688405
-5.65863505148034918
-5.79528340371221695
-5.92202636761430767
-5.46635992823662331
-5.60261565514311233
-5.76464960300363849
-5.94416768326735667
-6.21372655478740121
-5.65428334623892681
-5.75137855647822516
-5.85101686487711792
-5.99527262464972743
-6.18891756513536162
-5.86029618592926127
-5.91421719380997679
-5.97264174202740072
-6.04636380248578931
-6.09823259268600903
-6.08034381966348114
-6.10190666144265226
-6.11841198236510397
-6.12368239384670154
-6.06770582259916935
-6.31469104644042289
-6.31456705483959091
-6.30174949994837608
-6.26581879971174427
-6.17862196972394884
-6.56500141953636795
-6.55208469396793181
-6.52560290840374613
-6.47826249707726731
-6.39837090275050357
-6.84774593781946272
-6.8440474716394073
-6.83377235132947192
-6.81504905665401495
-6.78540950541880861
-6.7414086494902481
-6.67990152563862338
-7.14050837270310712
-7.13202711034673431
-7.11861960622142753
-7.09920970260392892
-7.07266148948595941
-7.03798294966268312
-6.99533030900374797
-7.44180662097418733
-7.43097605411256357
-7.41717477766148381
-7.40009401316180604
-7.37956620147767062
-7.35576272262346631
-7.32961651177559759
-7.75065433088876876
-7.73890446418114486
-7.72618294909074699
-7.71284120882289237
-7.69939632336446511
-7.68648975120692501
-7.67487212268589136
3.80950432500613978
4.19026185423205888
-2.00908344759305457
-1.8525124102613244
-1.70820338151446549
-3.41456778331600397
-3.54089216489505221
-3.49762299081840355
-3.09482585585335235
-3.733618272469446
-4.53534172144250913
-4.51013338030456712
-4.42846695343810737
-4.26023981483349523
-4.99983965032794586
-5.12366472373479453
-5.19962536639824524
-5.26886335214354418
-5.36469412483365016
-5.32420508735383358
-5.42727174377913357
-5.62747913430508895
-5.84357176695151281
-6.10946169111160309
-5.49142668396053502
-5.63806518207717744
-5.83596889413488107
-6.07688156266935042
-6.47708565902922651
-5.70751768228792944
-5.82069874567705625
-5.95175813049586999
-6.18182783224475152
-6.54087017372361945
-5.91455871057854132
-5.98775315399375074
-6.08380037436833998
-6.24139647634571126
-6.44592284303094054
-6.12795235464782895
-6.16570471080930993
-6.21013430188942905
-6.27038003328905891
-6.30022403724387559
-6.35119225504528728
-6.36153740455889682
-6.36420100891295348
-6.35154729708311194
-6.28145115288896871
-6.59111132153111612
-6.58366907619132302
-6.56325750168833988
-6.52113774029651339
-6.43750974359710604
-6.85961586631544851
-6.85865477323753936
-6.85103191426459013
-6.83464117558849615
-6.80645075495376428
-6.76144439615135351
-6.69271426752248821
-7.14834821427927558
-7.14132509679719973
-7.12911486372026548
-7.11033873293645691
-7.08335250329790433
-7.04625771829610326
-6.9979056476065713
-7.4463181413667856
-7.43612662337425334
-7.42270571114197786
-7.40554021942188978
-7.38418275475016728
-7.35844737673902305
-7.3289610720002436
-7.75236493023560236
-7.74075760013440295
-7.72801679578577794
-7.71442911833096101
-7.70045987585325165
-7.6867388990787342
-7.67407258052900865
4.86827064563133938
7.65929461148915181
-2.27760292288247523
-2.02340313744679179
-1.88911981722223743
-3.27749511864322951
-3.44657831194149633
-3.58281669638072175
-3.18489652900130693
-4.32118246926109251
-4.39630046215845383
-4.42451004481303301
-4.382968530138589
-4.00206733195057929
-4.91480439195270336
-5.06367087653520276
-5.14562358206909032
-5.17910557741685196
-5.2260689479017346
-5.26914152873900665
-5.3476131849375701
-5.48893333976894393
-5.74261844170307789
-6.16973761502859297
-5.5076736791475378
-5.64041227228823328
-5.81278406513098211
-6.12194466160691242
-6.71433289859596627
-5.76348109971240241
-5.87611242641905207
-6.0273260732711913
-6.32855394746997302
-6.8199193505849367
-5.97365837604543071
-6.06073644104047382
-6.18971527134556432
-6.43033742034478983
-6.79160606456128768
-6.18071230670326077
-6.23539290183419048
-6.31224045831783531
-6.44352764504175379
-6.5993747165215062
-6.39289919139938156
-6.41534663490397694
-6.43836295504368117
-6.46414292873114693
-6.44277643569752811
-6.62119355964385559
-6.62075988522234926
-6.6093938624282309
-6.57908045019455123
-6.50378376048109974
-6.87300112887521486
-6.87533729098830726
-6.87103973767703646
-6.85794550908680733
-6.83272178747240932
-6.78910939821053905
-6.71582138652095573
-7.15714182754167982
-7.15192377148875114
-7.14131263277682482
-7.12367006019979687
-7.09688216114361481
-7.05808929449715361
-7.00429271131619569
-7.4513852537581462
-7.44200891561087463
-7.42915929975932166
-7.4121111858505726
-7.39011410707698779
-7.36254370170437777
-7.32953520378506518
-7.75428372289542711
-7.74288293859178811
-7.73017814611641185
-7.71638372328389099
-7.70190343432974256
-7.68734844813395402
-7.67357033792962184
9.58714362808635556
12.4164792386796989
-2.14134802892820097
-1.6939121104614685
-3.04880830295425653
-3.45523553279434781
-3.33782418073928344
-3.44958029764753515
-3.19200507543698109
-4.86527290345061658
-4.32141660356740598
-4.26628198417170434
-4.30818917452259775
-3.8336516770873601
-4.95064591381375685
-4.88902969720064817
-5.02527727744048747
-5.15558403297423329
-4.91862118327698283
-5.30391649911674179
-5.33995310974017734
-5.41390974340269615
-5.66239219265765747
-6.1282347953784182
-5.54936486755960345
-5.63444930700329571
-5.76863309768086818
-6.10665496455507562
-6.86263169706801079
-5.81885695660733315
-5.92398358079088361
-6.08337079863008334
-6.41596496660772075
-7.00012138196820999
-6.03774889461881692
-6.13180549328897673
-6.28102821102321762
-6.57843924593797258
-7.04258358658898764
-6.23702035627654272
-6.30524376245614437
-6.40983366487910455
-6.60563734790704959
-6.89315149900428015
-6.4374215328522002
-6.4725854934278928
-6.51721522406878151
-6.58617098936582668
-6.64783600081191395
-6.65362954199421175
-6.66127388261786102
-6.66162408014599006
-6.649770623028747
-6.59738940120336803
-6.88710591400332106
-6.89319888910394063
-6.89277626970441037
-6.88391482250732434
-6.86327285716538071
-6.82397867477424303
-6.75143991454401426
-7.16641913527561325
-7.16328831473646588
-7.15466228424639539
-7.1387068630117394
-7.11292205138377565
-7.07357922795418581
-7.01559154253861639
-7.4567676387743127
-7.44835898938687713
-7.43627775186709972
-7.41959647246386833
-7.39726583033165852
-7.36817695199454814
-7.33181323627080861
-7.75634028448390911
-7.74520471057981208
-7.73259788061926834
-7.71866195772353336
-7.70372345745863019
-7.68837482642719205
-7.67350555565795567
13.6361184098296704
17.3492824034670186
8.71178662856821617
12.8898816791671145
3.09886259709476342
5.26924897775089462
9.53164552540750876
0.37645616136592519
0.960909907647041983
2.97196182425331479
7.01379621407985532
15.0921397698176705
19.1085198188213212
9.74047380571873589
14.1821480303901097
3.35979128869046839
5.92431979704528899
10.3186520946384732
0.403731411498960746
0.999617579387019006
3.31508903248262676
7.31358201707119449
16.8385664260306385
18.7042936141142064
10.8531378157737919
13.4859732875736853
4.73835824812156048
6.5799020187823416
9.73587023663372264
1.2427672455711134
1.68951784863789456
3.51721689277566796
6.84125044891381151
14.3289823513713657
12.2495732327639644
8.39881287119868603
7.96206113838820784
4.42739330737952486
4.6581684837756967
5.2497698734499636
2.44920373783431344
1.13331473971892294
1.80964585514827547
3.27123263307626644
5.31853277000408298
1.14110326644623683
2.18170991379008683
3.09087953284372929
1.50362058507067786
1.07060850071451341
4.17131202393829881
4.2106199335739376
-1.4962389353391643
0.591234279627428805
3.39336733412349645
-4.9347338872649118
-6.25418628302879842
-4.8521980550448518
-4.77296565828304331
-2.41764818005350435
-2.19330250887176703
-3.68511955386157153
6.12077691128635593
-0.496779291063774053
0.849554051061033988
-2.90397917160644692
-2.87689106573680853
-3.03828211693590955
-3.65125935293109594
-3.49773568148650238
-10.5612782050302094
-3.83837775057147024
-3.70227911984996716
1.45693442453102762
-8.41554304421294574
-3.57959777850658334
-3.81157841608663306
-6.67455282010997042
-5.01856410417437804
-6.03688281318833475
-4.78356137784165814
-6.12226176839489966
-5.76385208673080562
-4.60283247801104345
-8.11989309215658395
-5.84987742437161806
-5.53139972193691154
-4.45549166607093472
-1.48421653996398994
-1.06962359192552237
0.407189038416265525
3.39202048475875984
-2.28539593152299325
-2.02268558202437276
-1.35397464090680675
0.169698348195259641
-2.82591895265222348
-2.47198870555935768
-2.11500971635907664
-1.55824105478621977
-3.54633805931878854
-3.11953217080701251
-2.83182989108834571
-2.75343719995783021
-4.30510454718928948
-3.8986107939558603
-3.55670033374619443
-3.5071203943862006
-4.72108463889350105
-4.45596420924963876
-4.17097153085775663
-4.05075845431666171
-4.92148892226150636
-4.75371558138498695
-4.56252607202852634
-4.45556752973860259
-5.19398707555410066
-5.0202161190908301
-4.87365854679027954
-4.79456936881856155
-5.44137772492041805
-5.30295066464337506
-5.19302044866701262
-5.13197043600795055
-5.69742366322816718
-5.59946538894373624
-5.52222950426172599
-5.47692001848601873
-5.98805553330754936
-5.91741625275671268
-5.86216883997695071
-5.82799755369409311
-6.30153801169371341
-6.25127854593144239
-6.21167551694211095
-6.18572361940088022
-6.63049395990909485
-6.59571178542138092
-6.56805938745929385