/*--------------------------------*- C++ -*----------------------------------*\
| =========                 |                                                 |
| \\      /  F ield         | OpenFOAM: The Open Source CFD Toolbox           |
|  \\    /   O peration     | Version:  2206                                  |
|   \\  /    A nd           | Website:  www.openfoam.com                      |
|    \\/     M anipulation  |                                                 |
\*---------------------------------------------------------------------------*/
FoamFile
{
    version     2.0;
    format      ascii;
    arch        "LSB;label=32;scalar=64";
    class       volScalarField;
    location    "0.179999999999999993";
    object      p_rgh;
}
// * * * * * * * * * * * * * * * * * * * * * * * * * * * * * * * * * * * * * //

dimensions      [1 -1 -2 0 0 0 0];

internalField   nonuniform List<scalar> 
7248
(
64.435235065611792
714.738765176530251
19.8835694356720865
319.695946064430132
134.205159196522516
2.70257844165414562
3.55977474494757651
6.88918079138219497
20.9099463530695395
25.4242481625625771
2.57069803859374479
2.83455491295979067
3.50350334475239622
7.29172179666308296
26.0859474597075334
1.43305173337498437
1.52978515043073848
7.07336313159470809
26.9622876441407691
-1.00254905759636559
-0.796362451770017965
0.0463989397256592412
5.41141257070569459
45.6487149633657197
-1.14063569465996006
-1.06823435008018874
-0.761936591632390359
0.257505850079457144
26.3437982465362666
-1.10688862604875649
-1.13909594042273654
-1.12347756169520085
-0.887419855196944107
11.9358373551023043
-0.987393019547282869
-1.04794541162078469
-1.08573287349862402
-0.959450572133794588
4.89366168605301066
-0.828285107043347235
-0.888324871447348507
-0.940228480869032324
-0.863108433273478193
-0.213851360130819318
-0.655522824234229917
-0.694669307445470618
-0.717537159369516675
-0.651094845960270452
-0.00456510515103586423
-0.492998924669242555
-0.507942770001322264
-0.513125209782169689
-0.484422319875687679
0.120120938055073387
-0.340260971124997036
-0.350465813326458209
-0.35431942623911411
-0.350459698339564529
-0.3353470631432941
-0.30002236392876741
-0.143715592069740217
-0.247277251659989344
-0.246417102249914421
-0.240105528144608116
-0.226365360049332387
-0.202375126030744618
-0.163669711840827459
-0.0995478076559922903
-0.166003592260122151
-0.158666236354837009
-0.147529457218439408
-0.131471269445370464
-0.109153245573707453
-0.0789922672628783212
-0.0397035866057601425
-0.0943974064907310007
-0.0835682282324593517
-0.0711151302036871907
-0.0571056174055823845
-0.0417919960375401425
-0.0257378428485900042
-0.00986463319032705906
88.6990869383045748
597.917164092646885
23.2570810836083979
231.114281561914709
171.42706917785776
2.60353450787751406
3.29462744867706769
5.08437065397800669
25.544460437248933
25.4115222549481032
2.62946702258518439
2.64780175323297406
2.96933811896491306
7.24636113786969638
20.6198472993659543
1.84172888916759581
2.0918691068738533
10.9730882746789149
31.8498183987516441
1.52488220057580337
-0.425653416006759322
0.158305043334896284
8.72889964221838177
53.5614769729415841
-1.13359820475541939
-1.09200163690985597
-0.843759796367521964
0.675668698304026982
27.681226286219708
-1.15894644161882043
-1.16341215998359582
-1.14629067920389738
-0.76393967636412885
5.32400457605788446
-1.04517677641936868
-1.09474107388882258
-1.14514509646429463
-0.918784993486862489
1.78344612691910331
-0.877251407360286395
-0.943420925904194019
-1.0122767207075738
-0.998896374105518903
-0.507025262329010906
-0.691918307977431812
-0.742130437589044734
-0.790163310471289515
-0.753379126412799027
-0.342744860151979414
-0.521370777927454121
-0.545963142386634459
-0.561004090027626301
-0.536519730763269087
-0.273439158200209698
-0.374882413222975386
-0.376743597989760093
-0.368082082066526983
-0.339316226027700119
-0.258546728168567108
-0.253494009547762522
-0.242383573344304382
-0.22082048708734589
-0.183729548327254327
-0.121613910767636835
-0.154916886425234684
-0.139695290856909293
-0.117706688256394701
-0.0869102802726647444
-0.0452688815642423859
-0.0737385774371794589
-0.059712651704312121
-0.0441116361932624781
-0.02746078288043299
-0.0107328298377796973
109.525392926169189
582.58110075020852
27.2308397611496069
94.9301846141525232
188.018080657492419
2.75174327763286719
3.66656358115566139
3.79944201842580087
27.3285746460216998
21.8604744433483908
2.57866756409106568
2.60662804424560512
2.92015228346939315
8.14176162910498391
7.68539148523375815
0.857564365929089689
1.55942478449030286
9.7400473623189292
28.7248034953134912
-0.58882052267976559
-1.00337038627586783
-0.718196753703268742
2.65064199569903014
37.9226819942758056
-1.06698752283523612
-1.19345617843033902
-1.09360024773933651
-0.817491992906326903
7.68253810713413632
-1.13711400167790244
-1.19864127940211818
-1.23431029000542214
-1.09481033834540953
2.30560036891807485
-1.03353789291606057
-1.12581654259944042
-1.20599238787104035
-1.14063982626924099
0.2290015444527842
-0.89024067195252865
-0.97676243142603647
-1.06898060982253518
-1.09235027120124473
-0.7005990172693769
-0.716583884461241216
-0.780802517101049642
-0.842906797295354004
-0.843498180680269161
-0.513100388730824086
-0.545383964480612993
-0.578324138966426093
-0.603307370579792668
-0.584044180040582339
-0.394423333420446998
-0.393552699522041027
-0.401116756724583801
-0.399088934014548979
-0.376992253395866894
-0.297485447499454603
-0.26596015086043745
-0.257642405518902939
-0.238918959242837431
-0.20412086773021626
-0.141496118453258352
-0.161908602021725245
-0.147641659846285245
-0.12621397517360558
-0.0951442621279190159
-0.0515351475066128661
-0.0762797833902512379
-0.0622819646048378556
-0.0464638941032541677
-0.0293247537066408312
-0.011941657539713187
131.144805033549289
518.10071181370165
35.8954546458087407
72.9329651867091968
202.098296072899728
13.3714800258585225
6.66744886202396092
9.87599389871276756
35.7646604393035048
31.9178221897089927
29.1360839398338669
4.77867177512816532
5.44995449386148678
12.2416582612012892
1.19620852826092161
9.09903049270979558
4.32146998292703088
3.57127979859909095
24.6400687692733449
-1.19383191176120196
-1.20041452464798382
-1.07197544826019198
4.08238288367669266
30.9040981710997222
-1.19479140948702156
-1.26147685969718837
-1.25304240803415046
-0.955031985241490688
9.74016701042631183
-1.13565902376972105
-1.23869071229845629
-1.32310334513989658
-1.18298498446985811
3.14099185597327457
-1.03616845824448478
-1.14282316323698208
-1.230110977761947
-1.22428376519800364
1.10947847472035499
-0.897986021781241539
-0.997930382454051523
-1.092414599686935
-1.09331553651385516
-0.733452709098041167
-0.734719778351783925
-0.809541899563271161
-0.883042190226096091
-0.895131860822660275
-0.334893098978087778
-0.564610076511734116
-0.605989450119362782
-0.639121772406116118
-0.619264885514350438
-0.369950665740998386
-0.409608586030231703
-0.422556572843709344
-0.426627532121237829
-0.408126420755910269
-0.315619137046040499
-0.276990719871667512
-0.271466792171567939
-0.255752534936299625
-0.223558678501370928
-0.159915076208766882
-0.168213095963848203
-0.154925461307440671
-0.13417981211878463
-0.103051677386564247
-0.0576032321103359113
-0.0786210001071458581
-0.0646761193464506362
-0.0486905704321077895
-0.0311272058282624255
-0.0130508334066711182
152.10752694946612
641.83470037224447
46.9106978650316009
83.5648050200385626
100.614853201944769
7.70076707814431227
5.55613948396154367
13.3349381874707298
47.2768003168811006
21.4592501945525882
3.08195375948401828
4.21035236884387043
4.52058080130241535
14.6928909488787909
-0.343012276712044761
2.48709441322556479
2.81139957649912864
2.96046753208313085
23.1499890884775184
-1.20710581171301645
-0.0246648102144480172
2.53791826534537046
9.79676170067418894
27.8280031571037938
-1.14953362746795129
-0.851164106840385348
-0.959327977148100808
1.56429182269040701
11.5654820338087223
-1.09989778155023354
-1.20907999532359001
-1.25814403995835855
-0.897442340147726725
2.28083286751878056
-1.03338109728632599
-1.14308283097495411
-1.21065664548295082
-0.900697116690198474
4.31231373382764893
-0.90468532894983511
-1.00789376054541879
-1.08730558642539599
-1.02168114453830894
-0.0508871397045994461
-0.74706633481732454
-0.830294070112015281
-0.909787245904971731
-0.918709531254058853
-0.312430348687727066
-0.579799499415542763
-0.628184785335380469
-0.668095335905570686
-0.646814532068503145
-0.336202182860784904
-0.422683996968645226
-0.440445814825843662
-0.44926904833095449
-0.428302147396685262
-0.298194926407105709
-0.286242095163369625
-0.283332844546197116
-0.270554754318105106
-0.240680135705541365
-0.173058236266126347
-0.173563863332039298
-0.161227683563571089
-0.141212821069501226
-0.110182841303589019
-0.0629107286810737659
-0.0806458524266335797
-0.0667757906645405214
-0.0506773408169415712
-0.0327895660178036674
-0.0141721504106649254
169.853626369375831
700.153642869101873
55.3447351820642908
121.554059781559246
150.742145140408809
7.92024142357204042
5.12122085997584087
15.0719783153489821
53.2706381915935481
25.8386744373155608
0.738390244092596792
1.90956619361570823
3.62380574595131133
16.3041193132030635
-0.505825182066563017
-0.814303734160418458
1.13542780435682356
1.47681336632160964
19.4626732838356844
-1.22800004751060787
-0.261699866788930313
7.23991486716829336
0.96725582045869285
18.7443130371454743
-1.1472770307921234
-0.161250396669334328
2.65635413256975328
4.42517271252858357
8.4060600150447673
-1.07458866297846223
-1.13641859012418367
-1.23711653126660037
0.500257162494190832
-0.105692829961474527
-1.02508521781630302
-1.14526649833589045
-1.22647618323925212
-0.805563481937800807
4.3946665286821105
-0.906257382705590642
-1.01334844201597973
-1.08970333543323661
-0.999966560297586016
0.490168101420477842
-0.756303101692811786
-0.844680008180622943
-0.927204571022354651
-0.940416101901283552
-0.42101444082565681
-0.591396352231119082
-0.645585566251884568
-0.692615831047223796
-0.677546547073296423
-0.326101212161908904
-0.432780590097488871
-0.454476309446755933
-0.466707139025579976
-0.440435746047292298
-0.26551484157866978
-0.293498079855677996
-0.292847037668310883
-0.282686161320227558
-0.25489689864167886
-0.181386795663091516
-0.177793874341074576
-0.166297729144883555
-0.147000699101252075
-0.1162444824474788
-0.0673099810132825743
-0.0822722658224253334
-0.0684861357494372935
-0.0523361742881216785
-0.0342382725992404074
-0.0152016846735323133
185.02342656133743
806.596169469280198
61.9612113978601684
297.949008947791413
68.5709098171955134
4.52954383430727869
4.58265940847145448
16.8537827749575975
57.7630192557476363
12.8463481509684261
0.0165072030997719284
0.70198225817161497
2.80033861215443958
18.2075942194118063
-0.349678200046866283
-0.936716609304123704
-0.711037229759761247
-0.167807943253305336
15.8337464654181783
-1.19118515828172611
-1.112208109039315
1.4132163851993742
-0.673168389324123262
14.5038740753377287
-1.120833114853095
-0.674341204861584442
1.18741660291500839
0.302882234516537174
6.68389335977880972
-1.06273409220821868
-1.14120801118441895
-1.14624461369278285
0.122410396454754544
-0.598209723286028283
-1.01413523054305932
-1.13127136688461305
-1.21122689953681029
-0.867116849609808837
3.0193291281431347
-0.908190605286508412
-1.01829079505716025
-1.09954637510331099
-1.0673212901466671
0.530846237708131996
-0.762339728220189139
-0.854662901219796378
-0.94063282378434232
-0.961994583575976669
-0.626103983553352061
-0.599192782850146766
-0.657853010992117238
-0.711318902482353521
-0.707796876511508244
-0.351014602681420873
-0.439683855117788014
-0.464250134447892149
-0.479052668320901265
-0.449056263019170621
-0.243451150995095039
-0.298530043816118806
-0.299561186504627541
-0.291327476587284251
-0.265180988934483552
-0.188068435166988734
-0.180740777576683498
-0.169889969044341921
-0.151199609423005976
-0.12082842383770781
-0.0710157526542997686
-0.0834153277583509351
-0.0697131070296486133
-0.05356513821269894
-0.0353780781486946611
-0.016106315203907498
197.559389272719216
1077.40803583040292
68.0122442580718456
336.404828051105653
125.929056084765108
12.9620109737065832
6.64057803371636712
19.4333136665687682
66.4144928503971528
32.4921453760252987
2.99960340799245762
0.959208105791758969
3.20821235252158843
19.786886709091636
0.142350324976455583
0.159660479693535307
-0.787068464476754714
-0.421125248590028589
11.5060640784318817
-1.16226772291440428
-1.19762161890389773
-0.976061636429207402
-1.03257695329537347
13.5003600793070433
-1.10772518033151779
-1.14149928814735357
-0.808295878375583476
-0.541204220019677829
6.12063932795579557
-1.06912705448058709
-1.17061723233873338
-1.11585099477363814
-0.529165601177204015
-0.820989043784294714
-1.01206658600504174
-1.12526605261385049
-1.22191301611552627
-1.04811251456169918
1.91487667737434686
-0.909052668540088149
-1.02175627155461601
-1.11922125089630864
-1.14005674870457785
-0.0609666388936776354
-0.765236695011188961
-0.860663194713146895
-0.95369087700978239
-1.00322087238446644
-0.695312058019318058
-0.603159721827892681
-0.664876019587593015
-0.723662815808840731
-0.732850709187668037
-0.482998225563393835
-0.443277125944192441
-0.469664705171612962
-0.487459053001753184
-0.464524290892387726
-0.273633314401444394
-0.301132597151894443
-0.303122033634992849
-0.296174479096667276
-0.271788985236315506
-0.196704707327273465
-0.182266107800443888
-0.171793281860202929
-0.153491632243649562
-0.123516956513626291
-0.0738245263183021222
-0.0840145849600295314
-0.070368618030281993
-0.0542437572291907186
-0.0360606848165917551
-0.0167640253537730995
8.51709555974277954
3.04826151178004023
2.504500373953785
1.59225112453284412
168.68212120772796
10.3489490008643408
2.92850951783136226
1.27409781731554017
0.790788952254788513
36.256736107393678
-0.442416730353543619
-0.201803059660759787
2.43140339250524962
1.38422862159787852
-0.788962682345450084
-0.375726765848031885
-0.247809815089604202
-0.233930200789541742
1.06451760114866856
-0.0964928111617774226
0.118538145436897821
1.76698776203999275
-0.15673193536794422
-0.564060179341589363
3.56175513016751255
6.34453848430619072
6.43924020758702209
3.3135152219898858
-0.652148491621151072
-0.344083854279496337
0.36580500472512445
1.11250229775777409
-0.719067087493417523
-0.642158453453205658
-0.703757750652657554
-0.734686866333799538
-0.696876529719909099
-0.609619573778439783
-0.490589812872206488
-0.54090461783969046
-0.530549162890170511
-0.49484947710383187
-0.432464994405825531
-0.343459523196188832
-0.422377766493367002
-0.403926618534127313
-0.36754312226586433
-0.312976246532432334
-0.24132180493868749
-0.321696529070203296
-0.300392535614634082
-0.266989453244181052
-0.221581237353945887
-0.166066810913033741
-0.262244641497603292
-0.253823538535287052
-0.239369326971657165
-0.217909584313643656
-0.188809309770028216
-0.152170162070763393
-0.110564953032336738
-0.195558550013085169
-0.184606275877505832
-0.169489129723311927
-0.149999009951059775
-0.126193202387773512
-0.0986382221583076702
-0.0691763119964737688
-0.136063470204657311
-0.124225244182639291
-0.110093711587806772
-0.0938366856722238074
-0.0758376250159508991
-0.0567733079924878994
-0.037842010854182602
-0.082876351126453876
-0.0710032599742150411
-0.058539718852674609
-0.0459719701317874291
-0.0338698511335157673
-0.0228186047098896568
-0.0134215870135968134
5.00956618717341762
1.55842410030235179
0.846536863317607691
0.661210906883060834
137.785389192311612
4.5934296655474629
0.29818882643364103
0.106794271160707263
0.129576178211216392
27.3945968156687449
-1.12250052661523503
-0.493919946840952084
-0.17201380129101787
-0.302920668625796308
-1.21908120402518816
-1.29846364743908538
-0.708228273038146283
-0.49638639977062976
-0.629902580335414464
-1.21524818926513545
-1.30632461004089007
-0.122174141105467468
-0.709108731417468552
-0.804300897653104752
-1.11211682247583088
-1.06835124971249962
-0.770501001538653418
-0.712194998710143801
-0.773937988903466989
-0.8592488091167505
-0.898433004909914956
-0.807373969568608074
-0.831773367413936038
-0.592652142050705488
-0.69420237902596249
-0.715650504479888649
-0.695697167686197271
-0.628161175251076509
-0.486666810358117652
-0.545975890535592923
-0.538612919414450553
-0.508400958757517674
-0.451510437627141659
-0.355238043483518562
-0.427384995446587534
-0.410531220630411808
-0.37700468598588821
-0.323686388782992496
-0.247994281406962086
-0.326590396038613062
-0.305492527523572255
-0.272711102774273184
-0.226680820177645653
-0.168099367911967307
-0.264974089962277115
-0.256830840997638088
-0.242549623974567391
-0.221086974814565324
-0.191676797036674784
-0.154230834635202374
-0.11052104668143678
-0.197275519856924625
-0.186491764821419381
-0.171466392969270909
-0.151854752583694769
-0.127629011143571502
-0.0993297101364834373
-0.0685477430236595131
-0.137008281708939972
-0.12523349403830572
-0.111080611702073562
-0.0946692431916070359
-0.0763579846781127225
-0.0568262223715497311
-0.0372170762872535421
-0.0832749061887183839
-0.0713898728748914579
-0.0588648898841964766
-0.0461791579941964528
-0.0339140564357455765
-0.0226900205983529106
-0.0130998994407825406
5.38832922448932017
1.94906451599018293
1.20285919016310405
0.897739967200014033
92.3558030310696694
3.97016929018713549
0.603623505405634586
0.787821468711144557
0.458671586317552227
14.789839736854308
-0.806038087752466548
-0.0582225404068062793
1.5630078189463763
0.0299670986522154632
0.621411590728941143
-1.12647723715224024
-0.436597775726364323
1.40705653723176982
0.329827320595616647
-1.12099863141775757
-1.20094036259390591
0.153714554437004602
0.0815864952423974166
0.447189425456704759
-0.945035196912261899
-1.00956010965255483
-1.07125489637829707
-0.986848514346986394
0.289584955129299382
-0.823402777273829378
-0.87428600357150632
-0.904498403361035264
-0.847221757247550333
-0.281618638056089832
-0.694857623647115674
-0.716525224339470856
-0.71381984896562789
-0.670868861270551453
-0.428235076013053995
-0.556510257178388867
-0.555821287085758065
-0.536325947060256158
-0.488535545307089925
-0.358531469003523839
-0.439307910071236762
-0.425947520779077826
-0.396307982492239974
-0.34487485071822821
-0.258904195434630446
-0.336035486660553606
-0.316628174633430515
-0.284754125784503653
-0.237488040479284152
-0.172899232082153659
-0.26997871672240209
-0.262697280462285077
-0.249145044127740217
-0.22809506601998486
-0.198322599135987016
-0.159028091679352057
-0.11107804290218988
-0.200655438538551473
-0.190316728350515274
-0.175565547482295609
-0.155875667942372648
-0.130962790916018063
-0.101074953111133209
-0.0675796077017758456
-0.138952821616099786
-0.127351419579933178
-0.113228830874296929
-0.0966031560464007955
-0.0777195205994281602
-0.057174678728027846
-0.0360992843008827308
-0.084035542821270473
-0.0721603422485523061
-0.0595662882758905901
-0.0467056931579974619
-0.0341518062046807583
-0.0225395300611764687
-0.0124985114217648838
6.00854121965003607
2.70170634657643038
1.27326877871097821
0.723537576340633537
118.396498831496189
2.53767844326878711
0.523816653697323664
0.542326686709282191
0.541329398947789642
21.595142287299339
-0.865962084642292518
-0.295711182779621828
0.848506508862995945
0.21459862704340138
0.0727822694387452868
-1.13643437459913654
-0.60240431916119519
2.95385013693333454
0.439849240811182485
-1.2752658727485191
-1.29525291728464609
0.416085812939847366
2.89451969625163974
0.570406177598570818
-1.02732753844912739
-1.07899398003798264
-1.0464348913821373
-0.823961452300962738
1.13065674199421129
-0.872310264851680728
-0.922976917449160661
-0.926226495179011455
-0.841229485219863737
0.35207214344187665
-0.723719281913349222
-0.75287244659306285
-0.761813665318820332
-0.728065613191230865
-0.109858611670775194
-0.583675135671251843
-0.59101692119980942
-0.583711802024699855
-0.545755373396138221
-0.268260422770315088
-0.460533004540282009
-0.4523222288217153
-0.429026994342618651
-0.381407081192180752
-0.258098124967808651
-0.351429472081697003
-0.334576473621597759
-0.304553515885227555
-0.256260848957820864
-0.180480298374610354
-0.277501697417124493
-0.271676306071640783
-0.259419551975426821
-0.239210078653448843
-0.209223895903801693
-0.167493725195843463
-0.113199098145796623
-0.205663484554891113
-0.196081250818684633
-0.181846250342293153
-0.162180926951471849
-0.136421540003391378
-0.104304011475480518
-0.0667726792124954949
-0.141850860995076128
-0.130555304766537261
-0.116534369594576748
-0.0996618000983180707
-0.0800051393087809204
-0.0579950578586371848
-0.03471308632225132
-0.0851526605549002419
-0.0733180713537558981
-0.0606523702977053297
-0.0475640993695880254
-0.0346061175767134119
-0.0224207054171163683
-0.0116948712278237329
9.60529860437450722
10.1276650785613782
2.49377320063856178
2.04835595124981973
80.9288292573155985
1.22842094586669104
1.37053715490180505
0.939830821787334347
0.485406145011277768
11.8228454445369842
-0.687617330180826825
0.352690509441226707
0.825036765995374788
0.463586043983792551
-0.901519252907286628
-1.07915186958924791
3.34301670348588864
2.77258042434642782
0.647391426288188465
-1.31739148756181623
-1.14774483364773339
1.6524929463323248
3.2982810662136437
0.836335930099051716
-1.07483802171962872
-1.09987449160136408
-1.01246883897587181
-0.339090657522484518
1.45608822456419262
-0.919443661799253964
-0.978780001644761533
-0.969167120176362085
-0.829524709787226588
0.982389684581255196
-0.766662054345996991
-0.805353934356222489
-0.811773241996968653
-0.728555493637851326
0.564674779933411197
-0.622675976176584989
-0.640954243873347429
-0.644705378673192775
-0.605802269742890864
0.12919691894680882
-0.489946594096732579
-0.48956583569212847
-0.47541816775177298
-0.433678546426053968
-0.159721410388958152
-0.372441591888777623
-0.359522006981221443
-0.333008086796095837
-0.285367322036049031
-0.180661309078798044
-0.287308441798456993
-0.283610045010267819
-0.273335077385062575
-0.254612694320249577
-0.224977073309756664
-0.180979843097449772
-0.117876335017745942
-0.212195872790769402
-0.20371461071165578
-0.190307110091240378
-0.170897238095587767
-0.144349211168573577
-0.109671387826122249
-0.066970279025349258
-0.145619120974204985
-0.134788554112869413
-0.12098727766966999
-0.103906513298757427
-0.0833787031537131101
-0.0595752378577775951
-0.0334286669228419445
-0.0865918308887671656
-0.0748419641811427228
-0.0621204490907471124
-0.0487787088229036242
-0.0353338233649696937
-0.0224272512243615108
-0.0108096227036303377
13.204254758629185
29.3666356016520353
4.33833386078944816
8.20499318149266088
134.645791086671778
6.64520915309034166
2.9958860141327226
1.97734429791989497
3.11862079220483723
28.2533542903324992
0.374987007411776929
1.80039712815047714
1.02402309357021393
0.999385051246373446
-1.17459172766469755
-0.695440316432728634
5.50285840638710777
2.2568719002581088
0.908796562231154681
-1.26132300686160437
1.17480610776992878
6.69836168259836562
2.34124295620614253
3.26350163813370342
-1.07932261821426723
-0.724898801463812692
-0.853155014937562406
0.705715140110444894
3.30933670216743714
-0.965389794130943057
-1.02170001273815525
-0.981276362740165276
-0.759774833615785239
1.90711111437058922
-0.818465604402516145
-0.864961362395853417
-0.867528479668099761
-0.741088971895924931
1.06617808552792614
-0.668750285364680841
-0.696871163206131627
-0.702190462451616315
-0.626369841916141312
0.748061753978643384
-0.526227744500879502
-0.535260696001111813
-0.531854991526308218
-0.494680031456714242
0.157108263527645398
-0.398544457479844794
-0.391059473824237391
-0.37034112590906243
-0.326324903164308733
-0.134374610948233164
-0.299178381952263095
-0.298217404564273869
-0.290595230828032125
-0.274207292603013464
-0.246024357189965848
-0.200989425281444534
-0.123379539932562343
-0.220035714474509425
-0.213012599833468846
-0.200802391636126315
-0.182026435535515341
-0.15504122888711841
-0.117949952068379299
-0.0692883782193062375
-0.150130641367041628
-0.139939123379828417
-0.126518211246157725
-0.109352720913256332
-0.0879952709891312773
-0.06226000349775173
-0.0327691270121222844
-0.0883024302356021501
-0.0766951001344010896
-0.063954295785782142
-0.0503666183312138707
-0.0363973758615822041
-0.0226763993274417333
-0.0100100776954832882
13.8842391897495698
49.8720069111462152
5.51493900099019463
19.3983888229319383
120.77904078647498
4.01995335120977426
3.70481435312969776
3.32548475779188513
17.4695966526151203
23.0983356368746691
2.96892935793521717
2.69681967789922794
2.39695034370590809
11.6606452249299188
3.32615439925714496
6.01339219532044655
3.50839617562881401
2.81106731662005638
6.55949521978533578
-1.03332157422050686
5.92022299035117072
7.60210536506751655
4.14029075039588434
11.5813840510448696
-1.06888222209170869
-1.01773384030018232
-0.620475053847370006
2.74454636418992193
12.550746825561454
-1.01424236866640127
-1.06251027837008616
-0.999955835305909813
-0.496033847887681623
5.50058816740715972
-0.875674439257360326
-0.928155859809739026
-0.930435248865625897
-0.76357239445784808
2.344621973006491
-0.720292171596816466
-0.760046329440109747
-0.772222166995127579
-0.669066199101807535
1.42473006714460126
-0.567377982519428836
-0.58599039158887456
-0.590638517622768089
-0.544345671529197994
0.528167638208763335
-0.428603189725769218
-0.427946152298111004
-0.415099797839620421
-0.377110667605820959
-0.0140356435177200756
-0.312563658084176133
-0.31490013549914031
-0.310604282416307109
-0.297513253317182202
-0.272272699796531736
-0.228390107097516254
-0.123662332364321212
-0.228829328185896408
-0.223611284344242073
-0.213000245314891007
-0.195358248844168858
-0.168573591158796554
-0.129789009961844781
-0.074657549381193497
-0.155197753759952678
-0.14582141566034168
-0.132971800493533632
-0.115923695165502286
-0.0939267031095042948
-0.066356883288113358
-0.0333359827898271066
-0.090221222895427014
-0.0788204385917908729
-0.0661156461165077203
-0.0523212232874598338
-0.0378409344402447639
-0.0232859510037000637
-0.009507841291555243
31.7026466637550399
565.945327763482169
8.85334072335262334
215.464107551641547
198.519232818107241
3.70685722949581775
4.07246689446165711
5.45487708214605771
12.6327490388268053
20.7495497838744356
4.3348654339824142
3.46823115384819047
3.4665098608988667
12.3095251455223469
10.033145957381171
9.63875789161750518
2.67370587519465097
4.44047778511296531
18.4877968811484301
-1.08513260829456515
0.407004591123788173
1.03473193856690227
9.1118845389813572
32.6962149828119593
-1.10613010972448045
-1.02818931816381176
-0.681065764332665191
1.03527833780920986
25.7265774529122311
-1.06790925647470858
-1.10779202183996572
-1.07626114422361518
-0.728320433988836391
8.86465944287018637
-0.936632412858350527
-0.99916523738402574
-1.00955657402291976
-0.839310245418670497
3.506927665444044
-0.775858952931294477
-0.827610824935648859
-0.852835220881355327
-0.752777536762649691
1.44443672009309854
-0.611339267088411908
-0.63976846417337252
-0.650926592328553433
-0.582482722315986856
0.69561764872459364
-0.460949732725022487
-0.467959561644971878
-0.464277502093647598
-0.43207654767817244
0.109211948480253659
-0.326668384894582886
-0.332761691604846255
-0.33234244254241474
-0.323481375083878808
-0.302701689409388519
-0.262288169877037791
-0.120076255324978551
-0.238106639321591235
-0.234975862892463055
-0.226350139234914288
-0.210396121688784826
-0.184616568591110003
-0.145275018923466975
-0.0835921294961322614
-0.160580138786206
-0.152171489607884652
-0.140090255165696259
-0.123409006754489251
-0.101078659248317049
-0.0719916487839186436
-0.0356074488873435735
-0.0922777844839063471
-0.081142210579829871
-0.0685353806199555243
-0.0545994577469717871
-0.0396609581686924798
-0.0243123425510495816
-0.00944307659336873599
35.7645230337864959
41.0458730940514585
25.2280043926711777
33.2057711512115219
12.1702972398024318
17.0912929592015601
25.5178494187534319
6.11082150955157655
6.46199848408112043
10.4395417991439459
18.8218209527874194
44.7219798097238197
50.7731540289768972
32.8786275726336896
41.0393245239685669
14.9047839349745264
23.0701613030692485
32.4149788977540467
6.10407081740026047
7.16108169162519914
14.1597537782901757
24.9401870521754105
60.0526566739035275
76.9070136582184887
43.8368506974825465
63.8074790609632174
25.3882240650267086
31.8676246516021848
58.3666444485027682
8.5517048049895763
13.7822587474966181
22.0145041260719623
65.8443072476679276
178.783717912653827
197.303176385222997
138.290192519175179
177.424794663198384
37.6912217161514391
117.02136040966127
162.200860184491432
19.1169588495840834
23.0083979466769186
111.759535584108548
148.96326982644652
248.56771021798906
203.640504250495354
225.750172551445957
190.344562298689596
231.708367052256307
207.630816644932537
176.030166208268497
35.4154480520625867
187.555476715328012
192.23008682670087
164.071483607659246
87.0055183685743572
-2.27442681615593933
108.629338474784319
0.778002690402757491
275.272173573605414
138.969262868201184
2.53641050483988506
203.70526725094237
257.482296946435781
158.28826338247066
5.29888236093575049
-3.15858170910259561
-1.44916065919490955
-3.75590483477014336
-1.74672374946028497
5.54953967693732952
-2.55931209724652842
-1.89787710921938069
256.785251451355919
20.5309790400151932
-1.65376663429146764
-1.87400163295603406
-5.07952757334955507
-3.4836864819669402
-4.33389522845774344
-3.12321685307168906
-4.27257739658403768
-3.95557200700230149
-2.82115716317473764
22.4398188975201336
-3.84086447907108397
-3.59240873851909726
-2.55155386618977831
2.28547902302341122
3.8878102101100338
6.67846612162935127
12.1272304379722993
1.42316479200821022
2.39718163942953666
4.43734860395787756
8.56437018204381495
1.1570389980510285
1.76425570443733237
3.36286012327232342
5.6023090992643878
0.96508242181543924
1.40765238602056186
2.20998900226950434
2.66805267907905419
1.13864403115012203
1.38774648907486187
1.1761525579257599
1.09546857324792146
0.156418311027997359
0.464175023590689129
0.456406872303137201
0.278808350133135818