/*--------------------------------*- C++ -*----------------------------------*\
| =========                 |                                                 |
| \\      /  F ield         | OpenFOAM: The Open Source CFD Toolbox           |
|  \\    /   O peration     | Version:  2206                                  |
|   \\  /    A nd           | Website:  www.openfoam.com                      |
|    \\/     M anipulation  |                                                 |
\*---------------------------------------------------------------------------*/
FoamFile
{
    version     2.0;
    format      ascii;
    arch        "LSB;label=32;scalar=64";
    class       volScalarField;
    location    "0.870000000000000551";
    object      p;
}
// * * * * * * * * * * * * * * * * * * * * * * * * * * * * * * * * * * * * * //

dimensions      [1 -1 -2 0 0 0 0];

internalField   nonuniform List<scalar> 
7340
(
28.0895555305821851
30.1582699405450931
31.9932934847669443
33.385696312126754
34.4806528035815631
35.4207414736363617
36.3469331074700222
37.6125106504143929
39.9071700242219691
45.7769792878395876
58.1303992247758288
77.7968333434849342
83.5463026736129706
80.2225430963835038
96.6742450394423543
272.27074020168277
27.6788014260951343
29.7850432293962548
31.5711785737005606
33.0032388343450549
34.0643068246300373
34.8903382035156113
35.6487563066243993
36.6645046698182782
38.5049765402909046
43.3531930068045455
55.4753270201045936
76.8315687565878989
84.0631513380023705
89.2591812659311472
113.519652308251153
267.353173129954257
27.5141009862083799
29.6096960056342589
31.3292126631651691
32.7348937585851161
33.731108547215797
34.4817222057911508
35.179992418304316
36.0612234469656556
37.5859491940022536
41.9147986088221316
54.2291623719176883
75.9499576781601604
84.7164632110972775
100.142228164775531
135.730721214820051
267.829504988065537
27.0823949906672894
29.2200328369894891
31.0361148548032659
32.5098587239070014
33.519740214668019
34.2519248052797138
34.9450044542369582
35.7384039541898062
37.062989492252072
41.2634613965627963
54.004909929353218
73.1152407470523542
94.4185083058564487
123.652635468338133
141.499093176487349
272.206714274928117
20.2853595050704456
22.9481982405481268
24.5165349300447168
26.3508577282912135
28.5043960043482763
30.5112399729314738
32.2556148979257387
33.4668758069618093
34.2788279793377413
35.0069225175164149
35.7962651407112347
37.2719903190572026
42.3093835967815366
56.2675573358942174
74.1759623186174508
105.555663931560275
135.77357231347321
139.678597174637048
283.488427092612255
19.1692174354559626
21.9130947670970819
23.270167440739904
25.1704033344115672
27.306464132022775
29.6332397641998924
31.8953302622901163
33.5254383369709643
34.5101924116884078
35.3499168329095923
36.3955762335515374
38.7005560254983578
46.2135006839618541
63.6482026884616232
80.6196023293768746
108.520892102451626
130.660809309267961
144.845052265312802
299.104934129402181
7.395453052771785
11.3098548607993479
15.1425403908167908
18.8215920562682584
20.9876428132923003
22.910733072387373
25.2253427279758355
27.9189289826843137
31.1653800757101784
33.6849520503638118
35.015276486734443
36.2218315736846534
38.0501871108323257
41.5304823375693104
50.2495450115786895
72.1834011321838318
90.5440580405097251
99.2746267121628989
119.996763682264827
158.766010649184182
318.524744522764649
29.9311081137681114
31.4950894624192763
32.8991685785634544
34.1093156668934583
35.2978288723591405
36.5036159576011272
37.9428361149086655
40.5680596303832388
46.7577539280925549
57.8451450091778909
77.9145614609402912
94.4582422491909313
119.006718992042295
187.289011011406302
376.102181355123207
28.0103549616550964
29.8262782030712117
31.2865757629795596
32.5611412750531386
33.6558209114856481
34.6875874133699682
35.7055928336598072
36.9020885846677089
38.9195089059529096
43.726468008476246
54.1298808800926849
75.285544516036083
94.8292320769671733
130.588650498548759
202.004976834121067
350.169750910529956
28.2148581557681446
29.9502265639876128
31.201464404543902
32.333453674827517
33.3324390136106246
34.2874493922424364
35.2432933901596002
36.3215326003367309
37.9696009021861158
41.9592721679501892
51.649368803148235
69.1210370076906173
93.5417049452688047
146.071338531945912
221.11100214237149
336.670026178944681
28.2076585220652163
29.8086900800819663
31.0459277663350761
32.1421697853836577
33.1208954872024535
34.0865025754067759
35.0767690024223953
36.1057557668833127
37.5055673697035772
41.0425680243076769
49.5394693010922396
61.7626879887411064
95.1918882371517157
153.017865872352104
232.883448588056922
338.624093411031936
19.2127703423104919
24.5486267623489454
26.0835686431326756
27.7611994126514077
29.270029264666654
30.7143362136454492
31.9469861517233973
33.0283609404308436
34.0801220283473469
35.1652312414211536
36.1918096340644837
37.5530331789283807
41.3028282966435043
50.0276770118283594
62.8341640031588327
103.047024412555515
158.404522014839131
237.350207311971189
349.895813758209442
14.7749274348963979
20.9340509508089738
24.4497750079144254
26.5008332203957693
28.2443636611627227
30.0821392531018574
31.6382389137464592
32.9374627307866419
34.1029699382652964
35.3634926781030074
36.5180366966038008
38.2532613802988593
43.1019710163853347
54.8693402296149344
75.3026247137868268
111.453547542154411
162.289505386384917
240.064550508398042
361.707737448122998
1.98828715625561259
5.30044996025588944
9.46616174781382114
14.6985018701786032
20.6668166997895959
23.6403472470305474
26.1116891894492156
28.6530959181875957
30.9574096180751788
32.8124675192523227
34.0595739787102403
35.7555162927365231
37.568722017909046
40.2361232808080018
46.2423665319535147
61.3383355455548553
93.0449179910998225
124.308615360578642
169.063561917703055
245.149733379705367
377.622621230036884
29.667782772782779
30.7180542530608562
31.7073166159793267
32.6379636943068476
33.7227815148647636
35.1591445083749647
37.0068613077851865
40.103830655642092
45.4934149999533304
54.6902347337412635
72.5626434810326373
102.955590423087102
180.294517675655527
346.574487657406166
503.263145913188055
28.8405670203607762
29.8570734487437228
30.8971654110360348
31.7970748989474288
32.6461906015028376
33.5992903867935979
34.7262976348162766
36.0765467233372803
38.1508276694096367
42.2566420592628731
49.7647908347196051
65.8796455914119861
92.0423152185202156
159.547595984824511
345.800898831535392
445.351431113470881
29.5471472893082705
30.3550916003307947
31.221664945030323
32.025994829422217
32.8049855773788082
33.6706899562162221
34.6745492694452295
35.7771570911281316
37.2874475861005479
40.4624003552266416
46.4736932707152093
58.7690763195330774
81.0325900666419443
149.641706712775658
340.822320202597211
411.240952971909564
29.7851816930259723
30.6769622678206133
31.4890232387300308
32.2052118290400813
32.9168309015232978
33.7516396238131762
34.7232664025200606
35.7474974723882184
37.0178104175015719
39.6463240580897249
44.8166682886603382
53.9147043184478818
72.1446812024732935
143.037654257871054
324.907985229865972
399.911754429344683
11.8424116226030236
19.0818013613931754
25.7904814180099606
29.1978867424239112
30.4608737418505378
31.5059431261238672
32.2690923676743395
32.9717625053903447
33.7942926591316564
34.7708181374255361
35.8282778883196187
37.0930872810949808
39.5568976820622638
45.2436742273850214
54.9466660031115168
71.9419336322338836
144.826439003880068
310.070702193002944
397.348026024981664
6.75161515326095696
14.5983185017225594
21.8053473241099169
27.2085310129024265
29.4303164006510265
31.0359611367952262
32.1751056483905487
32.9327639023157417
33.7658160378029493
34.7627524316851222
35.9331457669197505
37.4326014645555603
40.170101097501032
47.6940638060614219
62.3055839209895055
87.2975006864735406
157.12969131082923
302.607343346006246
400.345159141260638
0.319191546031229123
0.500425231281704797
2.07452386417502055
8.03852207375042838
15.2869437601575697
22.3335280255012094
26.927814324662009
29.8507723593991621
31.8220354153363552
32.8247758506307079
33.6696540287059563
34.7712128508827547
36.2098851612641397
38.5050624144585782
41.8432113636656027
50.6918004608675759
73.739413844040115
113.219009741022603
177.349681154106975
304.021486739148941
413.146522084841763
37.6664874940889192
33.1101337603079457
30.8323995425160291
30.5388305058436345
31.1022201909213152
32.1138816862801164
33.68747503382356
35.6039711385278466
37.9803585946201565
41.6108188945249822
48.9812848203128439
64.7317283802886294
93.2963520792481233
226.33474294160294
524.744952216844354
639.958881492420915
35.5853267812098792
31.8526636596785657
30.7824310353883419
30.9823856040273
31.5412845228858707
32.42752483972086
33.670465499983294
35.1009114223794114
36.8571920574231484
39.6589887660287914
45.0328195136003515
56.3997045013436278
73.6793403015857393
167.302363161355061
465.963424801867859
550.664983546378835
33.9100264514997676
31.858682869607577
31.2354208534055431
31.4529816332989753
32.0014811045743954
32.8216058375163939
33.9073162478988763
35.0848335417187513
36.4232492828880936
38.629875991230584
42.7464932127493853
51.2842089512117525
62.1891923068055803
125.728912838092583
403.440416553903333
486.580428434845544
31.6035257356398205
32.0047692719043013
31.8029889286246643
31.9056753338962729
32.3952360493879823
33.1268084684308022
34.0859425210166549
35.1347338914740845
36.2492034259904798
38.0651167352435351
41.6755641110035739
49.027753674576843
57.6556279600147263
88.8983664932752617
346.475777080354192
445.222019522211667
9.72921313841911228
19.1309949133749768
25.0084109095943177
28.3247641932626095
31.768067442016207
32.1275865879391418
32.3503352138253533
32.7090879010892763
33.3432818732843543
34.1773857941075363
35.1480497905419753
36.169712554570161
37.9007737869164956
41.469262846269082
49.5887770717344551
60.8389265499299086
80.4576560084524317
304.73167038922611
421.218392757370339
3.77119892107272392
12.8685515708478135
19.7862173448573486
23.9040550370867777
29.5040533117224442
32.2354798955261543
32.7586966664821446
33.0179762466126476
33.525388051618016
34.1915661209174644
35.1064576485648701
36.159324265475739
38.0638683607773629
42.0798632280224183
52.40239450126478
65.6282445184286729
92.8180209708463053
287.305889526164492
416.427706047728407
-0.488911755149347371
-0.960681279978157221
-0.0194382879996020108
5.22547523528997715
12.3681016328800126
17.7095060273996978
24.0915206612102111
30.5209807070228578
33.3037835575108971
33.3270239396239418
33.9854047630472067
34.318347625569892
35.1857768233980721
36.5069324770103236
38.9934828918210314
43.5393098303948562
55.7705921923452621
74.4059881952637738
115.906051943808961
290.111976534807127
425.946554756108753
72.1253518701021363
54.5863014158116044
37.3822625192566917
30.6710311942954554
30.0310900751630498
31.095228458422433
32.6879438318276527
34.4503147942156431
36.1128198999279064
37.8642530520130336
41.3923742425511207
51.8149269287834713
73.0662284295529787
205.640025979872235
591.527827215336401
763.289486151476694
65.277244376517757
47.8419766150561543
34.2512045147068136
30.329704277990011
30.3697906749871578
31.5193449677999311
32.9885529584014776
34.5192510157622223
35.9211626195300724
37.4383370981568291
40.2760495268435648
47.3720632856813069
57.5964340411083384
130.322833569048953
464.606101712738109
635.705058385971142
55.4430508650407319
43.7172861897665754
33.5454272234223438
30.6713043141481556
30.7903660825918344
31.8709525493521966
33.2591188627808663
34.6328718129874815
35.8213060282075304
37.1370696350423799
39.4654823690055778
45.1862334207610417
52.8805129565244343
87.4681476458365523
346.056875738870758
534.79699535756663
46.8858682569370444
39.8399469731543547
33.8448693694720859
31.2596808817336402
31.1894437694131241
32.1523513911821652
33.4670851706599137
34.7247322550975355
35.8245885415295575
36.9938122127353495
39.0307142923465804
44.1215430752044071
51.8999513879830019
56.9300979374288545
249.277056861913024
462.159311290921778
9.05450846936690823
26.1417275441990284
37.0072502260683223
38.6051166092779283
35.2479282870106374
34.7027221668962795
32.276831357119427
31.8285403219385898
32.5082897653499501
33.6661068118774409
34.8145232243545593
35.8135920656524505
36.875249014844151
38.8753667910377487
44.099749293249829
52.0846283416517934
48.5721440180740274
194.567013160617989
416.935584823676209
0.923829155357111631
14.8656904672077701
25.690761073345584
29.8093616288473129
29.994083876714086
33.5340064411076924
33.8155836884499053
32.9144984236813443
33.11637513357595
33.9288483782979924
34.9079958220578348
35.7859341712120127
36.7838097805967834
38.8679694479364102
44.8000983283092395
53.6083475713834758
58.8565180889327308
190.251530736145014
398.073869809967846
-2.21502784794142471
-4.57714470970497089
-2.36647250935375908
4.95115572108137769
14.837975423399655
20.6887579785438334
23.4291218884531816
28.5579557060024456
34.5355707688577809
34.2859338980281692
34.0404830327009336
34.4656134597571651
35.1554439617425984
35.8699405195182806
37.0474890420592473
39.6284057470958402
45.9212217803111713
57.416062185389535
74.0729669196325631
206.251420842545258
399.955967115704198
112.202219131890217
89.3717708866846436
55.6358621631400538
34.8119184031446167
29.6240399175576492
30.3887421463807073
32.3209800716093199
34.4235422808543845
36.2938905944640524
37.8614984830670807
40.5809107146385983
45.9450547733577679
62.987523677430616
168.9638593498006
569.919215590357226
881.881549678545525
107.794466083552962
81.926915650584661
49.9921985719049502
33.1894080731017098
29.576461943435902
30.5016582214063305
32.5182252969039709
34.5442851736853669
36.1860276865778232
37.538306007265021
39.5159826995031978
43.7757697604254048
51.6363887031533864
92.893905450410557
377.341468799284485
706.743607435172862
94.4927844163025696
71.2545602458041287
46.6294478760580944
33.0535115054701478
29.9112822412637165
30.6808099076232139
32.5973702477680405
34.5781074490946168
36.0169231874891835
37.1521618539064278
38.9082260802041162
43.2002898488552063
48.5537627172884783
59.4582403666266828
216.541775338173466
560.929643313319957
76.0761963310420413
60.6223297523831945
44.7207101154782549
33.8884970802097385
30.2959334245838257
30.8713346343073134
32.6543961028482954
34.5423993103136553
35.8350982851317497
36.9011841109071526
38.8196117613475664
43.2548562719215894
47.8375052692856428
48.0623033728467846
116.947248388779826
451.046940218882582
7.83838911979862019
32.1620653711488558
51.1378768462818698
57.5309744701375223
50.0933264559910185
40.9101519820577835
35.4869995067875337
31.3326479256552588
31.3507195153353315
32.9823546824587766
34.5572062008249503
35.5552175056931503
36.6511972975968234
39.0693040455302452
43.7467037812639887
47.5598620554066898
42.7089805624221341
83.6039643781223276
378.983612812636466
-3.27100153746081901
13.888360594353486
30.743019986008818
40.0766100626356092
38.8931220483158313
35.7697493699602944
36.730764923655201
33.3148357345511883
32.691300614950805
33.786898780938202
34.8288160698918574
35.5747875850448381
36.5596822886843711
39.0080386161876262
43.5525410231745269
47.3144424399481238
43.0051728163564064
83.9827522092898562
340.301702412377836
-2.49648729567798888
-5.39199677326460858
-5.29899308600972319
2.13794033069613931
14.2530853621672691
25.1275224439564795
27.886333337711477
28.8227227739202476
33.687680644922807
35.8847521714069089
34.2455872500716296
34.7071688572938797
35.348564044306471
35.7305841088743037
36.4368571330459261
38.810343762081942
43.1530048686466472
46.8981736602285082
45.0654705306089909
107.971266038332033
334.792441697440609
131.531457865180357
122.063067400266533
89.4855019395337763
53.4302762419965021
33.2845481150612699
30.5159161686119127
32.2935947570427544
34.3677621820748556
36.9543502787787901
40.7601292520742433
43.2048305390713523
45.8967713271212574
58.6509283170108375
184.439733033386801
570.776302833259251
934.830870748599182
135.770659210944387
125.325485392236288
88.9416579930530844
50.2867282035162617
33.0899233018120285
30.7052374770959595
32.6318893884883892
34.7292393574391198
36.6202859039322632
38.9070707938954854
40.9901094094737033
45.4525644721928188
51.3521184543795925
90.6066973280608181
358.960657913886052
742.149407102127952
129.982562965227999
118.119205659601676
80.4208918934534154
45.2310014796545374
31.8379086240434788
30.1030859513824467
32.3101068021918252
34.8036106185435941
36.3238921114473357
37.3839488284145745
39.6059335999230555
44.6158149196610125
49.9441141582077535
59.1740928356502565
186.582661609459137
569.154105928201716
111.590666224737021
100.385839084714348
68.2282568745185927
42.3744745158945335
30.574159037597223
29.192072223301885
31.5868105203185152
34.5258341024097746
36.0627688154912249
36.7456317596552537
39.3524394191612004
43.8419386629510655
48.5742918081793675
50.3843669153282292
101.653746345691843
436.19175332691816
13.5432272619394176
38.2282966730993081
68.5644012712342317
82.8105007844516194
76.2631623523583073
54.6925865279914944
38.7733578432047636
30.3198058240326915
28.3979260133151747
30.8893112121047366
34.1629632538866588
35.6700831551717457
36.1004695340576802
39.1094339718070998
43.8581610391991745
47.5088053707163169
47.1152687751536376
65.0718091458525123
343.677101265000147
3.45650128210665386
18.2128922393363979
36.795557019277652
52.4636623833855822
53.8095239099904177
42.8930712073566838
34.1998178159656732
32.9046308534597927
30.1171339945654424
31.304535048811271
33.9332044411939577
35.0865317672840433
35.5932396504530715
38.4362251839124696
43.0319832918879754
46.1860780229020236
46.0328486161920196
56.1755009385734638
284.172018065139127
-0.988774836771305843
-0.0207916329541291134
0.444594068379757346
5.25586022711182466
12.2663924231864598
28.6438003395897454
35.4133138006401964
31.9589037071610278
28.8773427224446095
34.3369632229706951
33.0127576914865841
32.7131741925031179
33.7621409617356392
34.3348483529425437
34.6829978613378529
37.4199914277928372
41.580078741309265
44.3692464831259628
44.9884465256943429
72.7235628080356946
275.023449805699784
152.111496273292431
162.530728491274772
144.756407569247045
102.877802738046938
62.3421638254617889
44.587496663479584
38.6246096533572754
39.1766083356543078
41.7539599412739619
48.5246671504887388
54.0632312853609562
74.9667343933330557
155.043674523201219
383.677621289480726
730.940230148980618
1006.18364416123495
150.68026126366243
158.56680370470508
135.226650126034997
90.0120632067772988
52.8617880517660907
38.1126696909060314
35.3707821550814359
35.9227224222561361
37.778844817121211
39.7532136973863999
43.9417405311217451
55.8890339349936909
91.1360487370476449
206.867354668058852
520.07740500968157
823.912444315049925
145.000186466868826
146.706750249267458
117.747346657941932
74.1051883055486371
43.8920393873541173
33.9559339317166362
33.6121523555111921
35.5845603041781118
37.8141479001582752
38.8025610798286351
40.9043223513441134
46.5498275141153499
62.1360564915369125
119.517401304311605
345.421221993578456
641.921171384839909
128.725221855594725
127.580355348124058
99.7941922250023765
61.9220015710032214
37.9032459694926729
30.9268988711278681
31.7989778105744776
35.1350107731089025
37.8971522752002343
39.0483712718821323
40.2813218126532959
43.1925032589820859
51.6750459101302582
83.4306447645674893
221.406179648118268
487.01238648658682
22.8456315099457328
48.4640597715367534
79.9607483640559025
100.035210635759086
100.500415559583331
78.8101068712071253
50.8990341985484065
33.8134241571813448
28.3828660688719197
30.3861276758142935
34.9893158469784424
37.9641175270615463
38.2019740230045457
39.5600809820295893
43.0245052853489156
49.430904479659425
64.3488933198653115
129.978030610953056
370.491822431663422
15.3860825674919965
26.9941376930819494
47.9645144581875797
64.2996936154657419
68.2303554445599332
56.8409526978236386
39.7635425746282181
32.4104593440394808
28.5234254289860161
30.9516861841000193
36.1816132100120456
37.8259604831864777
36.5099175071141673
38.3743352837224521
42.5083150444936777
47.606699979074989
61.0929542347774799
90.9592815533974317
295.386978790519152
0.201224655168803501
3.68708515816934579
9.28435843849607423
12.4100886102568069
20.8547012445337572
33.4398835361890292
41.9571632179979019
38.8303328679239712
30.4442067760763848
30.0661250985241963
31.7593539482647031
32.2385166079200189
37.1864508523700366
36.8477192542503431
34.662485997138198
37.1293488341930882
41.7146609100105934
45.3216172464487954
56.5395581784908856
91.8937265433646644
276.788015527740072
49.2516660059803826
49.3679307279903057
46.5790294051869864
42.5955949086640118
38.9842172225431298
37.3571902600633337
38.3339338144548947
43.7693045466866195
54.6016496462514525
66.5522102009688581
76.3105200862293458
86.7018522675142975
84.8596574257929319
79.0606996297414923
172.631109857634897
46.1677476407160725
48.0212854349410918
47.6555533248388059
44.5536871628123805
40.8632938898110609
38.1716716572734427
37.299770101085997
39.0835652722611684
45.3543234800306578
56.3212202006166294
67.6191330296953339
75.1979040147833899
83.1985923256131201
85.0662972182102521
87.8984973179865392
165.614934295974308
44.6934043017393421
46.4949159868987323
45.8816866533930607
42.9013149961166249
39.9162294305342371
38.0239110570557131
37.5234166240567149
39.8085346706362913
46.4592462183754122
57.109809617449109
67.78280781008894
73.534252458717134
79.753875827475099
78.0693359369306563
82.213618024061816
164.785893550511673
42.7630609476304144
44.3312823124995319
43.4335123558915868
40.9948940824821904
38.9582515636846693
38.0718112191300406
38.3447301199307375
41.4003784732441602
47.5333593055247547
56.8195926442813146
66.0787811643330798
70.7825745610412156
75.7894928520123017
79.6003357770383388
60.8686899834071937
164.463835471995935
25.1504092576282439
30.5864486080368003
35.7138207012586832
40.306155308671535
41.5658194137188204
40.555407086019855
38.6965990052169317
37.7368371453232285
38.0659061746613645
39.4100426907721015
43.0404156028098157
49.6582175658388465
58.0149033879585971
64.3850969906397523
68.3126835658955827
72.6478872767029458
80.9294606907086234
51.8179091286965559
168.640071686354759
21.5054842940033453
25.343804520892725
30.1606768756715198
36.2663569697225583
38.169962385748569
37.3536151397537921
36.228721940790571
36.4107661508744869
37.9188642794011201
40.4731709056676792
44.757161415828584
51.9111923150947305
59.9814833319110292
63.9610915543785552
65.6114147989647876
69.032179014092776
75.1506042247488892
55.5559260824002195
178.356479407362031
12.2645902082825593
14.925373435483543
16.9532923588142168
19.3528816589471475
24.4196664111154718
31.1001713492252456
33.9477134551080013
33.7278922058176605
33.9719825210643265
35.4876022784264151
38.1782828118710142
41.8394189615929122
47.0166674724777991
54.4817689234426439
61.9501967690459097
64.4334366539196566
63.9267864381652728
64.4428296262432525
74.8791796661927833
79.5044340794108848
195.769064707938242
48.1057727132798192
47.8236412471656251
43.6482326838558379
38.7774084669474775
35.1388774005608511
33.2891583184942448
33.265826986226152
36.5632727643982349
45.3674022414603186
57.5037977531263849
69.8070918017003521
85.409809484138222
96.5584867358779064
79.6459281689253658
165.040245102185622
43.8687640410150053
46.4304916419748821
46.3566639012951072
42.4042349093962514
37.7957626143128991
35.1088677866048755
34.0379432293088726
34.5798074871633858
37.7738467381166387
46.1519975594372767
57.5251505320608132
68.7039040834966244
85.0231165347385058
103.84132361828793
84.908207803712088
150.655203603989321
41.7221667508765108
44.6393703186253532
44.5430351893411398
41.082129399319868
37.1399283223333043
35.4052577514271718
34.9510078184030633
35.9335385702390226
39.4109537747229481
47.2417566134479827
57.2846981202388434
66.8661075815040249
82.758169763914168
107.73400563718485
87.6950785481187722
158.913738397085126
38.914514769781178
42.5015127740688357
42.5651034482839918
39.6176556873854011
36.6336399761827423
35.7323092750685873
35.9220499622912328
37.4628583316726491
41.5396056349267511
48.7493554034975602
57.2413915525334005
64.891611739994687
78.375936228745104
101.211188875722542
83.8722012330986217
164.759614841557777
20.4252189278237424
25.3221828695945064
29.7690902110416573
34.7127673764635176
39.3912774621090875
40.0674300522223987
37.731549471110057
35.9104037298297811
35.7945038665802358
36.7340590420118076
38.9479917397795958
43.5564767975696441
50.4735513950540806
57.7248697797869355
64.5210850683670429
75.7081337065183391
86.8262364376310245
68.3645003172989618
162.142657398595702
15.7807671687794979
19.7019766876035547
23.523662892201429
28.9738031551905344
35.0290545275706009
37.0624655536461347
35.4551366120428639
34.7695515971666467
35.5853859374748041
37.3995611466946229
40.3962028396393009
45.4786515032125891
52.1847384174507241
58.2806384863092433
64.1173891317128977
74.2807217808314704
79.5845112942650417
50.02617380847596
163.758718570977408
8.24406157829681163
10.4386239093837858
11.0772268174710291
13.5286859759956428
17.2820708054117809
23.8545750113773458
30.5459774447640271
33.6625716020992058
33.0531046029155817
33.5349309324729035
35.4167211719862678
38.1339768001157893
41.8796061882787996
47.0947678725452903
53.2274229987679561
57.9744363761986818
63.1819399404616462
71.4003935910508858
73.1912498735245123
45.4957001291950291
172.524557313151035
41.7051903377690678
42.901883865327882
42.5415463469021446
39.5741094188262821
36.348520254341544
34.2814076392321425
33.2973555203588845
33.022367021388618
34.6539679673214422
42.2680662703086085
54.3557352042905819
65.717891944578227
81.535689278671498
92.6669561020409702
86.6933426635282558
172.231064856691319
39.578341283912053
41.168771880305755
41.3605351134443779
39.0941525263913476
36.0570934507152074
34.2887502495283201
33.6559245470074018
33.7511968767266879
35.7802078314765026
42.5445485210394949
52.9188934050272621
64.4996131918451567
83.1377286850826636
96.5393577001217835
99.5763166585255703
167.532850019218245
37.7594717667370077
39.7450623132389111
40.1832070921686295
38.4146268101517592
35.9221686302995877
34.529778176658354
34.1336265755914567
34.5659894341721952
37.0522185897667242
43.104623229332617
51.8164022108138624
63.8537628059446689
85.032304967126521
101.676724261814002
106.007692291561739
165.32196514105533
35.1914047548447684
38.0326922363642268
39.0647815083671048
37.8001345637493031
35.9355655169862089
34.9031383882649493
34.8390263694262075
35.7505038717796992
38.6661876521703078
44.1423516100023932
51.6595680582827725
63.5126814842480556
84.0849521339565911
99.8329370778789666
93.1441246767541315
161.837329209339941
20.2138819962215663
23.2723834884607399
27.2181709453130907
31.1894205470992532
35.3487983525074156
37.6542086348875387
37.1924775668301706
35.7442096742175153
35.1446490192274226
35.6046427722035688
37.2118222025005778
40.472601902253956
45.6109203752354588
52.5078405105602144
63.2388036359776322
79.0234069550872107
91.7202742928079005
86.9373627252289793
159.570996103721427
14.5090548743003325
17.734428657821617
21.5512041473821654
26.0386260993462031
31.574658300168462
35.4175022976292908
35.8828537348511603
35.0411575807875764
35.0181715859208396
36.2055334079515134
38.6622415870344653
42.0978182994096741
46.8168046864639393
53.2361468052456885
62.6693823072571092
72.9664125571126192
83.4512355088898801
81.0638728516439642
162.389946972384905
7.87101871459552171
9.42597796029782842
9.58394300007376643
12.3803538265800839
16.0115693222735445
21.4657007202336629
28.0012213629698259
32.8284135412155038
34.0499791956835054
33.9424671494400769
34.5114059376266908
36.3405466413790847
39.3196029144215728
42.4350523083783031
46.4889713682367756
52.4399548263837403
61.3948367263843551
68.8606034594397443
71.1625275512896849
57.2625972503014964
166.811998762027088
37.244232082756163
37.1746464556399872
37.0940974056053889
36.2389978867054552
34.751451601098033
33.8914014409454438
33.6638579407745979
33.7853720873136396
35.0206141452129742
40.5514069563000561
50.8240898064385647
61.5842408411094198
78.1632437026198517
92.5272384524480458
84.9284998891332492
163.696465248380377
35.7024506033451843
35.5356975155507442
35.6792084913229672
35.6490286719964047
34.7268291138739613
34.044603402999833
33.8984804754120006
34.0865210775078893
35.5086361662547318
40.7190345016633799
49.8890805573278229
60.9391096553173597
81.9146769832858155
96.3936687842168425
94.9477811004174441
164.280481989812415
34.0302461345664398
34.0248902649467055
34.4978982855085405
35.0941218646876436
34.7397285460146747
34.2708432938937335
34.1831641436178018
34.4934948266362582
36.2800835974838662
41.3998613185571713
49.4184738013920892
60.5713951474871948
85.1979768907581558
96.9497248986377258
97.3658948538501363
156.906634258111922
31.9259674667217723
32.9296157697720133
33.7612813780621437
34.7708732023146112
34.7005507348134827
34.4977812084139615
34.5414763672104215
35.1625333653034673
37.5660145538857293
42.6539818137383264
49.5933736913350742
60.8125829574775949
86.2232752165694194
93.4512863519401691
81.3152798216013935
148.664208033688624
21.2525281030209499
23.4158473166560555
26.3305315304621601
28.5178740397422459
31.1753335601146162
33.4369994439892011
34.4797706301524443
34.5487575628299695
34.5740647438792763
34.8721877616825964
36.1430099921226002
39.2940860730316075
44.2850734543957216
49.9858185404544813
60.9285347810851903
83.2685515319510614
90.419110366838737
78.4272178547449528
148.476095049549258
15.3957524713298142
17.9371927299369744
21.2689387322825283
24.2678556353956623
27.9258869477589755
32.1752777246498169
33.9246001407149791
34.0845279977423203
34.3387401619196808
35.1403680653662462
37.371773421783729
40.9537525954096395
45.1647942346244733
49.3117009302726927
59.1973646373872242
76.4723989191923863
84.7821887716019944
79.1409282533012401
156.722666714468915
8.41018806742444269
9.07925833263730908
9.64873741446735522
12.3505121291739783
15.8935092430061928
19.7359210571859904
24.4621801150920319
30.0533249511809792
33.0058348950072471