/*--------------------------------*- C++ -*----------------------------------*\
| =========                 |                                                 |
| \\      /  F ield         | OpenFOAM: The Open Source CFD Toolbox           |
|  \\    /   O peration     | Version:  2206                                  |
|   \\  /    A nd           | Website:  www.openfoam.com                      |
|    \\/     M anipulation  |                                                 |
\*---------------------------------------------------------------------------*/
FoamFile
{
    version     2.0;
    format      ascii;
    arch        "LSB;label=32;scalar=64";
    class       volVectorField;
    location    "0.870000000000000551";
    object      U;
}
// * * * * * * * * * * * * * * * * * * * * * * * * * * * * * * * * * * * * * //

dimensions      [0 1 -1 0 0 0 0];

internalField   nonuniform List<vector> 
7340
(
(0.679705624777562578 -0.170278122212960042 0.151029138032055477)
(0.692997026344933986 -0.11133525629732291 0.311011519302386463)
(0.739530678845363276 -0.054994621664732686 0.529506282105863257)
(0.832933781993037137 0.0402588024599437599 0.757705534403192771)
(0.934318573304721456 0.168644325843455789 0.877768089962658982)
(1.06454732822059417 0.292964205370136233 0.840956841331614968)
(1.13907643415365478 0.383415038984776024 0.701387628130387131)
(1.17138717070393494 0.529340656398985199 0.47676970770178051)
(1.14167744950294914 0.731759938247727004 0.185399823395123453)
(1.0556924808453898 1.04711334826008273 -0.112506282995793488)
(0.494163643187378043 1.36439599586345306 -0.316514039067940067)
(0.100280198727000835 1.29669919884559226 -1.15160823771354037)
(-0.331030386398886156 0.92267650047229699 -2.12717227232646078)
(-0.559359492797907865 1.121364312671842 -1.18818206572030061)
(-0.229032609389645869 1.43468312343308368 0.0689061424222546792)
(0.0711133559255497649 1.62812913395820003 0.223548041431662736)
(0.0973785738039148474 -0.00658930980071513114 0.677038571368810849)
(0.332430027487753577 0.0744878535992209712 0.813653887142684273)
(0.503594168280357968 0.126645460427927625 0.951560764684884708)
(0.543831503329438082 0.182156558939895796 1.08246343132931022)
(0.570457539042691808 0.256376509033020339 1.08730044245039448)
(0.631945711977718538 0.349709702624157903 0.976672599033474587)
(0.669718987772577323 0.465392089266209341 0.78699687604264601)
(0.654933671925509109 0.62712018867895003 0.553106270430673175)
(0.566064808599347602 0.865942865641765369 0.248108709457811688)
(0.524084306447325732 1.22005521873094569 -0.133960939366017578)
(-0.0680740761024977714 1.54995972012653294 -0.396227320672166206)
(-0.246924279423326926 1.32391993297562238 -1.36479699638511009)
(-0.536159969933500791 0.946746309113118301 -1.93317719942929855)
(-0.643058455088715619 1.09772920202691449 -1.06116187362548264)
(-0.293090790784338862 1.39441684009361389 0.093991694466934575)
(0.0575528123010941167 1.57411624158844488 0.213599845653504039)
(0.0147317055330114521 0.208348059244422068 1.21921395071471572)
(-0.139219845011987697 0.239417110376967474 1.20698777054356299)
(-0.132039468372487451 0.231318199382945622 1.16594730240543987)
(-0.0223609500375928916 0.223076412456505113 1.08505861605353382)
(0.102991889596806024 0.233391566220322311 0.913526354983835831)
(0.141139865276040721 0.322892130733910376 0.704737346333421)
(0.155330801443903987 0.466338186199054761 0.551133339711702086)
(0.147168702472258994 0.671792137114572085 0.430519334159105205)
(0.00943476611727300796 0.961358479540117994 0.202384292655639952)
(-0.0492731204669597522 1.39962540237058519 -0.179907830808819363)
(-0.567257659601577036 1.53869796922065505 -0.728016193687005986)
(-0.594766772444661029 1.13128749073002322 -1.63558951888209658)
(-0.70725973996119007 0.908939795376091264 -1.68150794461844022)
(-0.68055998894961145 1.05699939824603795 -0.832021837446783374)
(-0.322240542308134092 1.32507448075806211 0.114753294123493735)
(0.0489994598538895099 1.51480620113534892 0.207317462852839057)
(-0.888874599348980055 0.394356518673141032 1.0324700356337686)
(-1.08834634096267857 0.341713119805683752 0.866757868058614211)
(-1.06773557281398834 0.199741716514536316 0.681512140586317372)
(-0.989827563586237913 0.113220143072492979 0.470962107741235037)
(-0.815972614708322275 0.126880529722400992 0.305791618835580536)
(-0.597430038370312166 0.235997664965922699 0.23520963168787723)
(-0.417767799708302023 0.41442754985627589 0.22661278976586266)
(-0.329285870164161998 0.704223454029202833 0.225802768929051267)
(-0.434888837365231207 1.11986283429012712 0.0427796499762730584)
(-0.574501743124647746 1.44565478478914522 -0.412206352950117094)
(-0.839594954022732098 1.35311248777825366 -1.08230785820968456)
(-0.783474321552895425 0.958333247199408156 -1.61017400977712022)
(-0.796802293332872336 0.808463282607259193 -1.40046903888035401)
(-0.682382785778034018 0.991839915978881215 -0.671601423206331649)
(-0.345112127982249717 1.24132697557172333 0.116327039884660338)
(0.0425390603143564749 1.45232022915296266 0.202678768139128607)
(-1.66073998412915014 -0.0561757532802996118 0.229230640263537788)
(-1.57476155045704402 0.41099025453955812 0.618248625571152788)
(-1.61741531319560039 0.595159059999852524 0.55152403290066454)
(-1.78208930833557178 0.617985775201058907 0.373791652246067863)
(-1.93562182348236589 0.377865916954236436 0.134327455057246775)
(-1.88249172886265348 0.0900724246157464936 -0.052914070472383265)
(-1.65052148122537123 -0.0979456466542326792 -0.142499915334017013)
(-1.42636535165793621 -0.0919094941045179303 -0.182722528796590095)
(-1.13304132300545057 0.0922479856007130672 -0.144483103240638983)
(-0.838748879468219521 0.372248232896737807 -0.0629721008406945726)
(-0.695937185058933316 0.762646567945626463 -0.0207604984305968555)
(-0.775500419178613454 1.17031900545825662 -0.227452340451544138)
(-0.896478738732952474 1.3123905977868493 -0.695497365142620505)
(-0.954251520518773488 1.08865775539252363 -1.21211902540508998)
(-0.874227482714479809 0.784546756193823858 -1.40804484115972617)
(-0.831863333007035521 0.698892403541987783 -1.121446097690463)
(-0.660461783334765573 0.924498933848469484 -0.524234067833577067)
(-0.361002616980137692 1.18345559622040475 0.115531546629909304)
(0.0360913019564588974 1.38246834798970686 0.197213194746526127)
(-1.83474949550764843 0.0617484792382583525 -0.160814574128823884)
(-1.90164294457280558 0.505318698642080899 -0.0708383650131290399)
(-2.05720632083369015 0.787681749104905959 -0.111910788120126864)
(-2.15081086828484658 0.621676855147403229 -0.234683436478514446)
(-1.97303067936400356 0.239700042799635527 -0.289623004384667759)
(-1.76368027581149289 -0.1008394917285583 -0.305775045800794398)
(-1.59543945570003243 -0.291457401725246035 -0.315464127096698244)
(-1.46353988520232892 -0.293313948853705209 -0.349534180405710493)
(-1.30507313240518497 -0.0985951818041049255 -0.359368316014341715)
(-1.07515989920570121 0.238743893197568779 -0.278512263665622151)
(-0.966946408571790927 0.702059973530464232 -0.248663014240354335)
(-1.02717908067269126 1.07175323308341142 -0.464774264402301795)
(-1.07178089289172229 1.09860083535994901 -0.846095768137591575)
(-1.0471097827227549 0.84387923933674569 -1.15696802664658538)
(-0.920496181771959687 0.616241972315970887 -1.18358711795994664)
(-0.826832440641565802 0.595361752877314077 -0.886479633067583705)
(-0.633464912539560498 0.847360355586359359 -0.387943937666561156)
(-0.377392083604435657 1.13711122087061267 0.112635783292719088)
(0.0288334577446242302 1.30139572791100777 0.190689813555588589)
(-1.75474726336471809 -0.0361109154657809905 -0.00230643318213838433)
(-1.80945732069158849 -0.0311948105861539066 -0.196785195474841357)
(-1.91672979543976063 0.169911587580493212 -0.293815828847079019)
(-1.97265824065335726 0.490246406022380232 -0.377287547879137264)
(-2.02518474728690423 0.72732815773343984 -0.468589814393143067)
(-1.90114592167582841 0.460598965763303725 -0.535297979336841978)
(-1.69914783753188381 0.0636367402137580085 -0.535498612666625018)
(-1.55450830031396814 -0.21842133215949816 -0.484294261119120273)
(-1.44797547992808395 -0.390644680931438781 -0.405281286331841628)
(-1.38521884146280017 -0.367854575863219235 -0.398999607006449653)
(-1.38638530157309514 -0.132020666352195143 -0.366230989338727941)
(-1.31435133265235549 0.308540306123155417 -0.369883665983393062)
(-1.23416877337537501 0.73371839365148861 -0.431336309297842391)
(-1.24141792553522223 0.930556102273566443 -0.618710847648216822)
(-1.2108177114986125 0.783334364984339504 -0.872094098098823434)
(-1.06611125003250207 0.490090381694838095 -1.04185706048356375)
(-0.925510575643424427 0.418357566408874892 -1.02238234003599526)
(-0.818937125199843741 0.506358285542925501 -0.740282075779424398)
(-0.632364133636196812 0.766004320791985549 -0.279848312195190685)
(-0.405319319747997731 1.0670937828388285 0.117306569040293129)
(0.0202414461826393617 1.21765449871659337 0.184385149414989707)
(-0.615713832001479888 -0.118808418510091413 -0.20246985878971005)
(-0.26103919923061103 0.0847069009843959553 0.0219584411356052722)
(0.0352137967341592528 0.202069899678346654 0.247095435729858093)
(0.344033021387547155 0.306971606375303352 0.373031607963629497)
(0.63213359653972101 0.401501287538418683 0.340331483717767169)
(0.837725778134059018 0.498832640047632725 0.226051376400311477)
(0.962057359222791453 0.639420840607649255 0.0724895457842598817)
(1.02419982790635933 0.819285981392867568 -0.0681659159496030009)
(0.941956571153462097 1.14953444581143471 -0.118497182907067622)
(0.465339423216426296 1.4750717334917598 -0.182222724874230552)
(0.182530622082582944 1.46684310701690013 -1.01107684264147824)
(-0.441796863786628746 0.978243535959133492 -1.84620397494365429)
(-0.719942124217522572 1.16163936237504228 -1.27657150282881449)
(-0.223741426059930193 1.41000963296010928 -0.141541020065105799)
(-0.0114611743774733384 1.6103463705154244 0.161208866095275294)
(-0.82472008344704828 -0.211628019804705941 0.10860013214238716)
(-0.52940028378716586 -0.0659055464503721655 0.37536746895346107)
(-0.220765445652713055 0.0641219564402400466 0.5860873752004917)
(-0.0354293376390231174 0.191235020700031788 0.798243560745973135)
(0.149023283296621178 0.301313624249512024 0.860358956830690635)
(0.311247608176752233 0.424467446647042057 0.74253730270453655)
(0.4505765204000719 0.555710336842050956 0.522891843773848231)
(0.57310755219644971 0.71494367356090005 0.259142323338531988)
(0.636190975746520504 0.90915181251986088 -0.00158379353713405079)
(0.600086102343237671 1.2674873851272741 -0.105599298955526819)
(0.0977418694140024802 1.6935032047433709 -0.139734158549492421)
(-0.131009638373817211 1.49017023886168842 -1.03127353401120403)
(-0.616357069283538617 1.0238463290676556 -1.66624948486788527)
(-0.742250372430400929 1.13278871368895739 -1.16187816883101291)
(-0.289727594077368533 1.38820433978454205 -0.13605138038414169)
(-0.0240575573911084133 1.56507664765115284 0.148907307276114259)
(-0.604321645982132338 0.00484670820589029605 0.584844111797774402)
(-0.52319326772751884 0.0923572757015545392 0.796124884246300457)
(-0.387383584962889771 0.155750409161580478 0.906696938720929047)
(-0.235942665650123173 0.219027096006993632 0.967682800024503242)
(-0.126282503477558428 0.294418046088079033 0.909244569311712159)
(-0.0913401946292745487 0.418779923954981481 0.764581786814549247)
(0.000835267617329188417 0.562443093381504111 0.547112039156523067)
(0.154604058577418546 0.740853492240112765 0.294788665497456581)
(0.244096627410883865 0.959938739353701553 0.00907922275262415882)
(0.244466419897957643 1.35740175894042192 -0.0983550786070223754)
(-0.248623997070216457 1.69751952314002397 -0.269932267627662204)
(-0.488224856150968944 1.32328665464925344 -1.23348980050908086)
(-0.716892075355467173 0.998163466967854185 -1.46555486077686004)
(-0.743006684593546129 1.08101960690608068 -0.981949973696195744)
(-0.324094577805614015 1.35660116891606264 -0.119634389421242548)
(-0.0327574115815899708 1.51057149130948787 0.139012547482158272)
(-0.989162176527870973 0.236331745437234814 0.433528970991222673)
(-0.940202524609214385 0.299944828267988184 0.613873819578413804)
(-0.920132599029610643 0.254025290285140204 0.657421438486480936)
(-0.869474488971613502 0.237309449195316546 0.617954508840431349)
(-0.78629626098800709 0.273172867142113196 0.537358384951124313)
(-0.67550434397976189 0.358760625378955256 0.413759295700842467)
(-0.483756023063069196 0.485418390880770378 0.279417768232374575)
(-0.24303877574449434 0.693441745660577036 0.121336903095858553)
(-0.101072619788449211 0.976592333314625471 -0.0749497643817510495)
(-0.107828699204867678 1.44828897804829393 -0.116851341137594156)
(-0.529322433685086025 1.59584461056581617 -0.504660314245212183)
(-0.724858568588393148 1.12922858558138195 -1.22468433755241901)
(-0.765157077195046553 0.917425643516703082 -1.27016505810719638)
(-0.733660105893104042 1.03086747142619428 -0.800409802720995267)
(-0.345969911076919878 1.31671555659201056 -0.10222251889167433)
(-0.0376087426014319881 1.45294239676748282 0.134257451867854066)
(-1.82447721133849194 -0.764294289208217958 -0.247513549033960001)
(-1.74859987402403783 -0.506992650128581746 -0.296048815642378615)
(-1.68505324128700784 -0.0188597237267242174 -0.299323164182325852)
(-1.50355166899165749 0.403055862925935759 -0.0637866665379124426)
(-1.45313403475775238 0.512033933044261147 0.115589812288274474)
(-1.47581408046625073 0.338008576312508913 0.152246712985408594)
(-1.39554906808705548 0.201224527907858469 0.118021066704354111)
(-1.26264352031108018 0.148565643135873365 0.0539929010042854707)
(-1.0801950915229801 0.190120792654681653 -0.0284904499930923108)
(-0.825738264949322898 0.326403215255927193 -0.0878422204065522211)
(-0.54190266478774185 0.603771487009398311 -0.123252050543830038)
(-0.37887198318811377 0.98398383566023806 -0.161403015468672278)
(-0.422253882341546927 1.40960916798351343 -0.196067230186210945)
(-0.688473193221351476 1.36850781406984723 -0.653529555556767061)
(-0.786553225157880287 0.944690793791588268 -1.10581980227972387)
(-0.793704022251599639 0.819929633493461485 -1.06345759983206611)
(-0.717362274765143804 0.986427986241515953 -0.629439926707428099)
(-0.361290920826207673 1.26791636696322785 -0.0682824544621495472)
(-0.0411921024718695655 1.38879159341334746 0.133340909600042579)
(-1.80755995570468864 -0.726667717329184226 -0.23579182767803547)
(-1.7986800699210288 -0.461654587568054942 -0.311904745844363396)
(-1.76633977892645899 -0.0483064919121472536 -0.335737494191259367)
(-1.75420400499149021 0.389460927373106003 -0.356577680322948398)
(-1.73667934170310656 0.531662875203551044 -0.288200491369811629)
(-1.7015881888464135 0.293874028628068773 -0.263810431194547057)
(-1.52813841335547718 0.0517783778521663796 -0.209762899540466036)
(-1.36823874287432523 -0.0571971442368899782 -0.22054869012736511)
(-1.21977757677635412 -0.0254180564063719999 -0.291890500719493073)
(-1.01829206676579909 0.0689451114114589536 -0.339584137498486538)
(-0.765050471371439222 0.404529039562538828 -0.278322947775887064)
(-0.635654945398780313 0.918667101686147736 -0.199428126059192939)
(-0.682606405640847846 1.28802229192295603 -0.28658197139358832)
(-0.789900106548254821 1.11389426192904084 -0.687765402364868605)
(-0.821044705234045491 0.786867400658781468 -0.953102509842477463)
(-0.830099551273930869 0.730177049653734533 -0.869407570359175819)
(-0.69624550468274915 0.94000892776070577 -0.480736790968209537)
(-0.372398591985404703 1.2065428436968082 -0.0256070634172632823)
(-0.0458863588869967698 1.31186955975876551 0.133592581025067519)
(-1.14361128388919142 -0.581019073470151359 0.0180561627933225402)
(-1.43876961811409609 -0.739313679855579386 -0.078891311641755571)
(-1.72581982871957762 -0.725089912730011776 -0.206075803815770342)
(-1.81128153256985525 -0.456184443543882989 -0.310953216953422928)
(-1.80709135804538157 -0.0648514249423445266 -0.344612605567976904)
(-1.83434319060241813 0.36127369283206251 -0.3538625048921199)
(-1.84081309781718683 0.489101483673938797 -0.386984257980843904)
(-1.69202134640405677 0.184453706621521996 -0.360910110104185111)
(-1.54708663110343747 -0.0388319488554855347 -0.289166231478546865)
(-1.43438411136773625 -0.113267876770700021 -0.249213518870402329)
(-1.35591932053708297 -0.0814714653990531446 -0.226908087102323158)
(-1.23782730777889394 -0.000629120506727087747 -0.216290655437891721)
(-1.04507736238961857 0.448373952471938508 -0.204286194392819503)
(-0.924722558912251857 0.910408793270945371 -0.200056516995975514)
(-0.923948818996601418 1.04905760450102714 -0.36224729115139287)
(-0.911845088443809515 0.783292453718337112 -0.655750200806851202)
(-0.863498533099543941 0.576990085562780197 -0.820693243549328488)
(-0.835778548391018394 0.67606866296664847 -0.724635711376082181)
(-0.680942312745418388 0.888640518144453107 -0.368333098788209523)
(-0.385318187428431713 1.13201059735916054 0.0100149081863761154)
(-0.0532851235444647756 1.23004420242496226 0.133914308814649885)
(-0.586939796270570469 -0.626497460109626148 -0.663433480716117741)
(-0.226880298438314865 -0.322477454291823229 -0.39719988999017275)
(0.128671201588571898 -0.0513412205250663514 -0.201393969736842565)
(0.368346497877270029 0.147797351906320706 -0.0733921600121217321)
(0.677728172290697262 0.295064690104310856 -0.091699684008732657)
(0.901188983031635527 0.397353836612987343 -0.110151633860861659)
(1.06449937419184515 0.531413323969990303 -0.136343261874390442)
(1.12380529606133006 0.774903191489329402 -0.130168638524715191)
(1.01462111098968233 1.11561607604181146 -0.0711934723279260967)
(0.818609267880341718 1.47951920230887013 -0.122597208490331719)
(0.496428262089172623 1.54285245507575275 -0.732336334370952691)
(-0.339244496444152221 1.03963172492700329 -1.48938960060609471)
(-0.667070814395182787 1.18680343416663803 -1.3223151555037731)
(-0.230867132776616912 1.43979341078271927 -0.393227037396452261)
(-0.0695801379595217401 1.58014333871417989 0.0551282453076461995)
(-1.21529604255562651 -0.900938069878667314 -0.52931626589410663)
(-0.871203123735392326 -0.566648771120179306 -0.254130327233190956)
(-0.546920270529832053 -0.255295893077271407 0.136322012651142854)
(-0.292590170007509143 0.00309858432979043252 0.457362329965683712)
(-0.049529599922874229 0.16652372837328816 0.563470396099027271)
(0.217849966483019936 0.290387151268307886 0.411680560655538708)
(0.454403132607365756 0.412336427847694142 0.217634829333693325)
(0.654282692675765221 0.551926708194252158 0.0334961862699400953)
(0.802864136828974839 0.797953680438892476 -0.075248011691704364)
(0.776137799513859417 1.16334897462395137 -0.0285434357591768315)
(0.577946108546639081 1.60987787318160147 0.011910280160945752)
(0.275175422464984387 1.68804707108221685 -0.579271104922830515)
(-0.516915627894584451 1.09851146440853498 -1.33419312071690532)
(-0.64463963381770728 1.15215150364168339 -1.2132417730472369)
(-0.315251345547283512 1.4230237094118916 -0.431698614529319791)
(-0.0812018652678558467 1.55413102253776758 0.0369035323492185249)
(-1.36493170427516763 -0.77484517284255594 -0.396136959747336759)
(-1.02972304919299495 -0.439129196864329607 -0.0944858348551639443)
(-0.682871656585012587 -0.179787422825137044 0.365811260491224366)
(-0.453947302275004461 0.0346976059013180682 0.62552420203573722)
(-0.313134769240798971 0.180679220992941786 0.77090228003862582)
(-0.170560123564926003 0.295782508241711817 0.656826874643956504)
(0.0285854860176245062 0.40103933618421439 0.398270480450979181)
(0.237864602040373463 0.538354346674748241 0.131165022605529452)
(0.44750718968282216 0.789059822596754556 -0.0556082538353203024)
(0.50499981871626265 1.17657229115447781 -0.0210417980184088721)
(0.34439362170317378 1.70829319836377036 0.0904518021191786648)
(0.0414147235508289246 1.63745403113704358 -0.518581979910433088)
(-0.536171498348471776 1.08456802716836065 -1.18740284406592589)
(-0.621718747114424652 1.10747333004307946 -1.07737539492508438)
(-0.365100804066833373 1.40253886264940197 -0.414747017495989911)
(-0.0841581852113676421 1.51628109126040922 0.0283739022846868777)
(-1.48786562072921003 -0.660437079655359471 -0.326900727927490087)
(-1.26885354980559195 -0.330697673171499062 -0.232722290306771773)
(-0.9834823378935178 -0.0643273487756819418 0.233041975143013946)
(-0.796635358515287884 0.0780166614443736917 0.461106104833337249)
(-0.662980142736230293 0.18924031023594004 0.572284717525914033)
(-0.530027001252604602 0.25243955416208852 0.484130797009504343)
(-0.328193398894807697 0.338338482402733953 0.260924776688087723)
(-0.105603057810173609 0.473196880711173939 0.0195782907439119719)
(0.126249769087693031 0.741979484274700618 -0.111503065865440926)
(0.238808209575294278 1.16411625227458404 -0.0342144435235285232)
(0.144906930989054883 1.69656732812553046 0.152822612065728003)
(-0.151927432837739074 1.51861822263637536 -0.555592709593466183)
(-0.546390845893799382 1.03173033899466016 -1.04097245345657896)
(-0.623313779038510707 1.08497636040792811 -0.929196723400362412)
(-0.3958685967417096 1.3763460914606811 -0.367003812490725612)
(-0.084982867749710006 1.46761738553972543 0.031883237004369791)
(-1.61317768151362961 -1.30965992374830287 -0.191891396586921892)
(-1.6667954613560152 -1.29772755195432343 -0.294212982786922206)
(-1.61721069290227581 -1.05125223906988596 -0.307606629636622053)
(-1.54965233409645986 -0.626863068745159957 -0.280288161609131503)
(-1.42279895042877613 -0.313369776453143511 -0.321477503977772971)
(-1.21452174756524256 -0.09546096964946435 -0.13495775968098489)
(-0.997674543778719558 0.0618711147921649912 0.149135574949831262)
(-0.8532630909808534 0.129445101026009285 0.237960516293635321)
(-0.731099153357523068 0.173836665282149749 0.174786236154202218)
(-0.576352083931349624 0.230283786260473577 0.00924882266221412064)
(-0.378183436081977686 0.373159108449796217 -0.145733817926055054)
(-0.164424689141920627 0.665286148594661619 -0.208969825985330926)
(-0.0329650021909753399 1.12529708818528706 -0.0315110455020126273)
(-0.0669135955043230896 1.61850501652859835 0.130047145067394676)
(-0.262384963031490892 1.34774835430021889 -0.554628181437662238)
(-0.568579449455978381 0.94270738667566889 -0.887600444659625953)
(-0.646752402834035789 1.06953543324702438 -0.783800873126533793)
(-0.414108065889027432 1.34088090466631238 -0.302986099939088094)
(-0.0871577394159615548 1.40598881182907909 0.0434681096868003297)
(-1.48479730407697708 -1.22543330435892983 -0.12944071482549116)
(-1.64183081513832874 -1.25768626431452435 -0.250387103012059742)
(-1.64060036810999366 -1.06416098411617521 -0.288330905421471384)
(-1.57760336289674918 -0.718706533412906357 -0.265899503126476422)
(-1.51201225541797424 -0.387976022822630495 -0.283456829526286092)
(-1.37931828025388725 -0.213797532397460271 -0.322701571822667677)
(-1.18916618687749187 -0.109589405114715904 -0.195378680592222465)
(-0.992873110031673223 0.00885668395810931819 -0.0931619151910861171)
(-0.899392386993748127 0.0666248390007813107 -0.117179850751612094)
(-0.813686643325891468 0.104850375812825178 -0.201554917071542272)
(-0.666053857765942059 0.213412885777590655 -0.262730589152537164)
(-0.475135872731800135 0.503951638490136355 -0.196021769888517938)
(-0.350444106052233195 1.05970570012740439 0.0532101280699088935)
(-0.312034117504884967 1.41686511737018517 0.0761988165940787054)
(-0.391066505224037408 1.11957169365538123 -0.516932935754649492)
(-0.640424219964156549 0.877650644136960256 -0.755213022105025056)
(-0.684993438544266309 1.05232550977273198 -0.648635191142484357)
(-0.423715544110026987 1.29598010241958539 -0.233662525875369842)
(-0.0905747303180833851 1.32979692227618873 0.0572181914824213822)
(-0.79478210845550179 -0.53717316026260753 -0.0222489336790878747)
(-0.972320904423850885 -0.833120248539172548 0.0139432311612814122)
(-1.30180883809282411 -1.10128300181340344 -0.0647294140809570873)
(-1.56396542567399965 -1.22001716915120961 -0.191644590680002169)
(-1.63952081553075479 -1.08472465671476037 -0.266371637243848824)
(-1.60082071015781646 -0.78734402252640634 -0.264002276436940519)
(-1.5447616869298777 -0.47576934003367688 -0.258955570241059474)
(-1.4848559042169458 -0.29936378355631349 -0.31095083848779409)
(-1.39885283279665584 -0.205285106694455238 -0.321434514835167107)
(-1.32352025095005499 -0.0615808687979205807 -0.260067330067567659)
(-1.25682499901401168 0.0664165165426634646 -0.245638574237686758)
(-1.24131275632239091 0.133430625344345855 -0.158675156512150528)
(-1.07662490436035352 0.217253140715021553 -0.0787080273288707222)
(-0.85937601522555096 0.494838820063682572 0.0404390783406425175)
(-0.682902117982525092 0.989956804935187118 0.148714010577684713)
(-0.610682562830926035 1.0995477251045076 -0.0637624026937550492)
(-0.613271647614813453 0.844565927175359388 -0.506777606430884764)
(-0.721479636906120714 0.848122771832860112 -0.682552100796001149)
(-0.717249502067172084 1.03162887634279654 -0.531165134765071101)
(-0.427728176390195947 1.23815517239929607 -0.167876263667998515)
(-0.0966796457330555969 1.24920198302970875 0.0706375561831431575)
(-0.791123211498734769 -1.25498478382952183 -1.15830759595009125)
(-0.432385683144228816 -0.903982288418612612 -1.00715093534706179)
(-0.0685874268009728644 -0.634812132380757066 -0.753657536573211884)
(0.349880382568928616 -0.395140921137878687 -0.46801101256206934)
(0.570845340417582836 -0.239815679427856698 -0.210147168167702292)
(0.763682804527489267 -0.068503981071362352 -0.172172095765775163)
(0.94851573840072656 0.144728464226140219 -0.199374893426479655)
(1.12182267346057074 0.390890009814204187 -0.214753136027968916)
(1.21291021140166766 0.642632677748982695 -0.173366944212624385)
(1.21620590317258293 0.894559585864946771 -0.130986877018298004)
(1.17080526745284597 1.14101194067368406 -0.189024292966686103)
(0.925543971121148834 1.37052244365469589 -0.445291707943969828)
(0.0161876955399488931 1.04923857678822263 -1.07528599870466413)
(-0.297511814043698197 1.13737684476583056 -1.26285222217942028)
(-0.261377936812304756 1.45946207861190302 -0.662192073580263663)
(-0.0834323653401415344 1.53061357373118945 -0.102296111431140979)
(-1.08222993037929927 -1.29396845462173182 -0.70407572803835794)
(-0.829767658831956689 -0.90162688859699136 -0.579564157568356331)
(-0.483982421150890352 -0.648436282499600947 -0.314109284963903446)
(-0.0942097721156865131 -0.419818262471643833 0.0411168187599767199)
(0.122509648850188169 -0.20084116758269599 0.27079472162602497)
(0.316276453660182311 -0.036623787755219378 0.237938102726959227)
(0.528053781648092135 0.134274516633431734 0.0837342431071753796)
(0.756570069382750621 0.335821542451620325 -0.0656558857452129996)
(0.937088946592222527 0.594120201143348181 -0.109556533444209875)
(1.00899821740915652 0.886168296124739796 -0.0382455105262585887)
(0.987669916647499813 1.1876211955419278 -0.0111330190051939643)
(0.845692344013767583 1.4798368897073777 -0.190076194620172917)
(-0.0664294751100148739 1.12685752641300896 -0.867114921453931764)
(-0.283045420855528695 1.11625574842635689 -1.14308333588956756)
(-0.324367692005117891 1.46598806222026901 -0.665630034274619975)
(-0.0941625824353122948 1.52802720332971109 -0.125181813380032425)
(-1.28482195172170321 -1.33261330974866476 -0.433564612763722712)
(-1.12613969170275263 -0.904627901174055671 -0.334348224157357099)
(-0.841496170136085908 -0.642747876456120193 -0.115497151020828553)
(-0.456115246439059707 -0.415167009167353829 0.264571058531252068)
(-0.204826894407434235 -0.191281381692707031 0.479476501822486578)
(-0.0536197488432824665 -0.03521577578817775 0.450556254485708574)
(0.163371937793651167 0.10033818995028182 0.237117008075648228)
(0.400949627069680292 0.274651055162683178 0.0254646741633448095)
(0.615805539103781108 0.521359651251798395 -0.0899132406949795515)
(0.761818093824801812 0.841345759805739557 -0.020555681985902241)
(0.785446458159177352 1.18955121967266764 0.0805837716489847949)
(0.758345773421518099 1.55986443543936293 -0.00342788419494766128)
(-0.08524698959601551 1.12139875932966904 -0.683386978166144798)
(-0.289344248732863962 1.08646412079896848 -0.998044152650520822)
(-0.376071985126887109 1.46164528421472606 -0.629833672006978373)
(-0.100521614040510215 1.51175138516686025 -0.130514376176736752)
(-1.39921901797738424 -1.36366701638228505 -0.290216340486095348)
(-1.30490817683597604 -0.951681167897669988 -0.220590224492343834)
(-1.10622955822253766 -0.657631400225426543 -0.144143965077347419)
(-0.803158048053756679 -0.438876806208583936 0.14735282015569845)
(-0.487555308323011527 -0.198105153936920075 0.369830388391346132)
(-0.301435712423070767 -0.0435399212851277917 0.362673220731054735)
(-0.104956248596800805 0.0804426230697191658 0.146112541045774758)
(0.0931833077517101871 0.226076736707361947 -0.0414359343008483261)
(0.268868522031903201 0.444890256726489297 -0.132954355248714406)
(0.47260097553725211 0.769411644522248861 -0.0437936010721994701)
(0.555853430890332012 1.16704751785182226 0.131430021788211226)
(0.621413481488776509 1.53226886427184517 0.104891037335414855)
(-0.0818405919121570485 1.0719046777701291 -0.512796052578239459)
(-0.35082401142559072 1.08212731972329235 -0.85777202431963262)
(-0.41455229295317042 1.44706534494309591 -0.569666129692929735)
(-0.107115197180046307 1.47862768696632241 -0.119728960418769986)
(-1.4480667034230652 -1.39203868770336636 -0.273046592887373318)
(-1.4964438631358794 -1.49476819815246764 -0.358818996161177795)
(-1.47775065251929161 -1.48937986218364449 -0.321677795503436281)
(-1.44754321214067594 -1.36716302761853625 -0.225246325159208838)
(-1.39098532323654567 -1.05153517935706042 -0.172460368861046154)
(-1.27043260512548239 -0.739943001907665598 -0.186263154060044567)
(-1.08010702780257617 -0.505023583783834051 -0.0882063198590595787)
(-0.806032860849516641 -0.280377550881147131 0.0504062583346475968)
(-0.525552159656400009 -0.073007531570102091 0.0909892871902388961)
(-0.401027064711425463 0.0833997777284049557 -0.0561820447645866028)