/*--------------------------------*- C++ -*----------------------------------*\
| =========                 |                                                 |
| \\      /  F ield         | OpenFOAM: The Open Source CFD Toolbox           |
|  \\    /   O peration     | Version:  2206                                  |
|   \\  /    A nd           | Website:  www.openfoam.com                      |
|    \\/     M anipulation  |                                                 |
\*---------------------------------------------------------------------------*/
FoamFile
{
    version     2.0;
    format      ascii;
    arch        "LSB;label=32;scalar=64";
    class       volScalarField;
    location    "0.0299999999999999989";
    object      alpha.water;
}
// * * * * * * * * * * * * * * * * * * * * * * * * * * * * * * * * * * * * * //

dimensions      [0 0 0 0 0 0 0];

internalField   nonuniform List<scalar> 
7360
(
1
1.00000000000000111
0.999999999999998113
0.999999999999995781
0.999999999999995781
0.999999999999998557
1.00000000000000044
1.00000000000000044
1
0.999999999999997002
0.999999999999973244
0.656760739047505426
0.090656775106542159
0.0455112940615655659
0.0285021450143565849
0.0215162080793329311
1.000000000000002
0.999999999999997224
0.999999999999988787
0.99999999999998912
0.999999999999993672
1.00000000000000111
1
1
0.999999999999997002
0.999999999999973244
0.999999999999653721
0.55555341151732196
0.0533128604972732817
0.0317235738132010739
0.0207650984486588454
0.0150265074771625089
1
0.999999999999997558
0.999999999999991118
0.999999999999992784
0.999999999999998224
1
1.00000000000000067
0.999999999999992784
0.999999999999947153
0.999999999999653721
0.999999999997172928
0.458398367705377452
0.0379793375708983305
0.0225927356384720349
0.0157706349611287447
0.0103214607607162306
0.999999999999999334
0.999999999999995004
0.99999999999999134
0.999999999999993894
0.999999999999997002
0.999999999999999223
0.999999999999989897
0.999999999999918732
0.999999999999483746
0.999999999997173261
0.999999999983090304
0.3936670438978499
0.0276227211114149773
0.016080842297993142
0.0101342597131802194
0.00843565372158674824
0.999999999999980793
0.999999999999963363
0.999999999999967804
0.999999999999973688
0.99999999999996525
0.999999999999939826
0.999999999999842792
0.999999999999290012
0.99999999999619571
0.999999999983110177
0.999999999917503768
0.344315085880346317
0.0198457023863302211
0.0104222873738046996
0.00550481467260588355
0.00700805709912822542
0.999999999999786837
0.999999999999633404
0.999999999999718669
0.999999999999736211
0.99999999999957534
0.999999999999258371
0.999999999998554379
0.99999999999499023
0.999999999977341458
0.999999999917752236
0.999999999651612348
0.297460443047830814
0.012795206039627657
0.00576088895026493839
0.00233126135229557146
0.00489297894596527408
0.999999999998266276
0.999999999997486455
0.999999999997827516
0.999999999998037348
0.999999999997063238
0.999999999995454303
0.99999999998949074
0.999999999970170861
0.999999999885001656
0.999999999653191418
0.999999998678608781
0.252883335007880072
0.00679611705220509524
0.00243940552146858659
0.000869356296790385836
0.00243452387578745695
0.999999999991344701
0.999999999988080757
0.999999999988991473
0.999999999990008659
0.99999999998436262
0.999999999979721998
0.999999999935223038
0.999999999844524479
0.999999999482016122
0.999999998686190272
0.999999995385897344
0.221260021435249365
0.00342889904156031076
0.000998896795970590856
0.000467626785602116575
0.000986906194024077688
0.999999999965584196
0.999999999926497907
0.999999999954702901
0.999999999957366992
0.999999999911908022
0.999999999900574421
0.999999999652041782
0.999999999274720608
0.999999997872522473
0.999999995416167908
0.999999984899309968
0.200871035997050501
0.000785756020357611081
0.000647663865233415008
0.000389907359959164573
0.000258730424483006455
0.999999999818798946
0.999999999557448227
0.999999999764587866
0.999999999777193116
0.999999999519933791
0.999999999516964166
0.999999998321620232
0.999999996921299705
0.99999999188304789
0.999999985006027492
0.999999953076183168
0.179049434541387997
-0.001008802064137914
0.000446681810758126476
0.000213367567556469248
-9.49645896117462074e-05
0.999999999054525635
0.999999997537454277
0.999999998776562649
0.999999998861450745
0.999999997592271761
0.999999997832658694
0.999999992549227112
0.999999987901637577
0.999999970849000386
0.999999953434016042
0.99999986016478859
0.160527543338611661
-0.000530511837694186807
0.000321059681138959312
0.00019669659195201757
-0.000199518734188220862
0.999999995381993023
0.999999987298585191
0.999999994110920332
0.999999994585972329
0.999999988750314039
0.999999990970404928
0.99999996900487742
0.999999955350451053
0.999999900359886951
0.999999861358203068
0.999999596896015142
0.149035959081263575
-8.74720517709943438e-05
0.00039163737581171022
0.000241999838239585882
5.09192359380348749e-05
0.999999978722988292
0.999999938643561626
0.999999973482232907
0.999999975792379647
0.999999950530742754
0.999999964709910261
0.999999877758388611
0.999999843605940075
0.999999672527676298
0.999999600696162227
0.999998868144231778
0.133268113564296464
9.17495210288463885e-05
0.000420670169757404906
0.000351561286573244319
0.000271706218944986141
0.999999906929292193
0.999999720205323017
0.999999887323745895
0.999999897410077887
0.999999793586231589
0.999999869641157613
0.99999954827530213
0.999999475594143483
0.999998956378122417
0.999998879471620139
0.999996889899993024
0.126482104247894411
0.000337663322492050245
0.000391092572322301532
0.000337783836809496616
0.000536344327849511441
0.999999611325166238
0.999998787035732639
0.999999545163004822
0.999999585022086412
0.999999177356793334
0.999999542097728789
0.999998467468981911
0.999998307036200962
0.999996756072841997
0.999996921620480483
0.999991613006991908
0.146941746736137691
0.000741456616537674792
0.000270872060942561887
0.000330720793606577106
0.000384853508099215855
0.999998441224560608
0.999994969807386114
0.99999824391393255
0.999998387357674434
0.999997006075484252
0.999998460656172039
0.999995059185716406
0.999994710169510803
0.999990120098110946
0.999991695162584571
0.99997775654244403
0.17153467927656868
0.00313729494878461261
0.000105481640611624445
0.000263869134405163611
0.000320300663628197025
1.00000000000000044
1.00000000000000044
0.999999999999996114
0.999999999999993561
0.99999999999999678
1.00000000000000133
1.00000000000000311
1
0.999999999999997558
0.999999999999993783
0.999999999999960032
0.660986934469926957
0.101452807604012124
0.0439271507560790447
0.0270783177254481644
0.0209733020835961431
1.00000000000000644
1.00000000000000222
0.99999999999999678
0.99999999999999678
1.00000000000000178
1.00000000000000422
1.00000000000000111
1
0.999999999999995226
0.999999999999960032
0.999999999999493405
0.545022991811722535
0.0503943662872506776
0.0299734985170712412
0.0183317645317321587
0.0144022170573448946
1.00000000000000488
1.00000000000000178
0.999999999999998002
1
1.00000000000000222
1.00000000000000022
1.00000000000000044
0.999999999999992117
0.999999999999952482
0.999999999999567568
0.999999999995902833
0.432772937784489498
0.0334386272163230275
0.0192604699681638708
0.0108049188492055168
0.0110479533780221111
1.00000000000000289
1
0.999999999999999445
0.999999999999999334
1
0.999999999999999778
0.99999999999999245
0.999999999999912292
0.99999999999956346
0.999999999996773803
0.99999999997567024
0.36334274956037016
0.0206728919965153725
0.0111872363019032382
0.00551283503797035321
0.0088361172944167142
1
0.999999999999997224
0.99999999999999023
0.999999999999982236
0.999999999999980016
0.99999999999995226
0.999999999999860556
0.999999999999225286
0.999999999996832423
0.999999999981037835
0.999999999880610502
0.311479814211531369
0.0113550017439743856
0.00559781220022482692
0.00239098390674733798
0.00532855679526234721
0.999999999999982014
0.999999999999930944
0.999999999999864997
0.999999999999746536
0.999999999999695133
0.999999999999416023
0.99999999999853495
0.99999999999447442
0.999999999981464383
0.99999999990552535
0.999999999487304003
0.262786177869518689
0.00497930391683356309
0.00238829028114813467
0.000916057794466507299
0.00228897422361378942
0.999999999999777289
0.999999999999354516
0.999999999998875122
0.9999999999980409
0.999999999997664757
0.999999999995296873
0.999999999991278532
0.99999999996662825
0.99999999990778532
0.999999999584244681
0.999999998004592605
0.219678398234149835
0.00144642636975346852
0.00092968836503655645
0.000513621522863428681
0.000839492713060744841
0.999999999998380407
0.999999999996065592
0.99999999999359046
0.999999999989930277
0.999999999988800736
0.999999999969796161
0.999999999953037344
0.999999999822524632
0.999999999593314426
0.999999998339345053
0.999999992793828563
0.177585576434645398
0.0004380522282340022
0.000515408869836190566
0.000466472045103512886
2.1771460627185448e-05
0.999999999991766919
0.999999999981062482
0.999999999968883446
0.999999999951964869
0.99999999995672828
0.999999999825140096
0.999999999761221448
0.999999999151264918
0.999999998366898013
0.999999993860006819
0.999999975446432265
0.140657873915596365
0.000254374937323981589
0.000462951922276429672
0.000465205633777202921
0.000426730505932408004
0.999999999965339281
0.999999999892947411
0.999999999826601371
0.999999999738528489
0.999999999793184657
0.999999999086023217
0.999999998901919929
0.999999996291282889
0.999999993928752495
0.999999978684024127
0.999999924015313901
0.124587684399764725
0.000498805398248116402
0.000476213732192480328
0.000409753805538039435
0.000569331659732204591
0.999999999818799612
0.999999999400459361
0.99999999905554493
0.999999998632689291
0.999999999019753893
0.999999995744361714
0.999999995385818075
0.999999984933928721
0.999999978847178506
0.999999929805676535
0.999999780034734886
0.118953893862892054
0.00048073626584648854
0.000425656140061431263
0.000208708804497974201
-0.000101619485339712285
0.999999999054530297
0.999999996886278053
0.999999995465430835
0.999999993360545236
0.999999995690157739
0.99999998232228382
0.999999981976933183
0.999999942287868593
0.999999930188814168
0.999999779002194167
0.99999937974247155
0.113103355334702116
0.000433508765698128475
0.000442979469466424423
0.000286396168870763144
2.22852624723807686e-05
0.999999995382246043
0.999999984860301172
0.999999980560893231
0.999999969744677308
0.999999982263259257
0.999999931311126078
0.999999933841213773
0.999999789347446044
0.999999779890425433
0.999999330149637045
0.999998317108319101
0.0921992836867652349
0.000310764326131383179
0.000422663895929055651
0.000451594028253870313
0.000370454090002216062
0.999999978724414817
0.99999993050076641
0.999999921456819929
0.999999869486673409
0.999999931093267014
0.999999746595873873
0.999999770052711123
0.999999260128213496
0.999999331887481135
0.999998035678901664
0.999995478599785548
0.0838863851829782237
0.000228167190289122281
0.000353084325232093897
0.000480389231216547764
0.000617282870968655084
0.999999906910611358
0.999999696769302671
0.999999695987280113
0.999999463556572321
0.999999745733193501
0.999999107703342882
0.999999239293009934
0.999997614692164305
0.999998038506510589
0.999994410576401482
0.999987903415882728
0.084499651535903636
0.00018873646588697966
0.00036453353360230156
0.000318851702636786956
0.000586732350400961142
0.999999611073818517
0.999998734340893147
0.999998865572963247
0.999997884086576971
0.999999103116219312
0.999996982464002926
0.999997592538133806
0.999992768829931156
0.999994408270314716
0.99998455949348608
0.999967611371725296
0.131714197481967332
0.000249327285963772119
0.0002481605207562615
8.19739725956863843e-05
0.000428678151664704224
1.00000000000000333
1.00000000000000688
1.000000000000002
0.999999999999999778
1.00000000000000178
1.000000000000004
1.00000000000000266
0.999999999999999889
0.999999999999999445
0.999999999999994227
0.999999999999934719
0.663922865369690363
0.107615666938574744
0.0474691410846424314
0.0272824951351816614
0.0213456378839775099
1.0000000000000131
1.00000000000001177
1.00000000000000511
1.00000000000000311
1.00000000000000511
1.000000000000006
1.00000000000000111
1
0.999999999999994782
0.999999999999934719
0.999999999999135358
0.542884988884676067
0.053183024458813552
0.0304836979340572072
0.0195606403417542193
0.0163923235049986474
1.00000000000001021
1.00000000000000999
1.00000000000000577
1.00000000000000444
1.00000000000000266
1
1.00000000000000089
0.999999999999994005
0.999999999999926503
0.999999999999238831
0.999999999992501887
0.430057408298602839
0.0336873144582978956
0.0204693199243908344
0.0130124897730369421
0.0123169654221062866
1
1.00000000000000466
1.00000000000000377
1
1
1.00000000000000089
0.999999999999989231
0.999999999999920064
0.99999999999923761
0.999999999994166
0.999999999955106689
0.366752438499967914
0.0224453801846178011
0.013226388796243228
0.00780931199202160135
0.010569613775874993
0.999999999999993783
1
1
0.999999999999999112
0.999999999999980571
0.999999999999946931
0.999999999999812039
0.999999999999275246
0.999999999994489075
0.999999999964942932
0.999999999777577475
0.325314698600046748
0.0142429184100894991
0.00783816712834697546
0.00419424769966983586
0.00771434207209062157
0.999999999999806266
0.999999999999908518
0.999999999999967137
0.999999999999945377
0.999999999999689804
0.999999999999270583
0.999999999998241185
0.999999999994916955
0.999999999968175901
0.999999999820849084
0.999999999033987175
0.286277914405420109
0.00789528729992590092
0.00410434128424936717
0.00190831493604906631
0.00416834701920808758
0.999999999998272937
0.999999999999115152
0.999999999999630296
0.999999999999410805
0.999999999997563949
0.999999999995252242
0.999999999987137733
0.999999999970007769
0.99999999983986787
0.999999999184843391
0.999999996231242139
0.247215120556863899
0.00304124264884647437
0.00184268546465536165
0.000896790561566190424
0.00190102392725224065
0.999999999991355137
0.999999999994579225
0.999999999997563283
0.99999999999632494
0.999999999984896304
0.99999999997675415
0.999999999920753502
0.999999999844539023
0.99999999927208183
0.999999996610036468
0.999999987243182065
0.208368815504581584
0.00116350877584392855
0.000866174536656142422
0.00051889658410387673
0.000714395724035855949
0.999999999965584196
0.999999999977150722
0.999999999988663513
0.999999999979637177
0.999999999909632176
0.999999999875868184
0.999999999574607501
0.999999999279029494
0.999999996957559811
0.999999986871279556
0.999999959949853467
0.155362600110530297
0.00103914888374417522
0.000685963613748051667
0.000465083734906237027
0.00240523817269388488
0.999999999818801277
0.999999999903095071
0.999999999955731411
0.999999999884656043
0.999999999497093617
0.999999999378615723
0.999999997942068397
0.999999996964737403
0.999999988184318456
0.999999953275239384
0.999999883726506278
0.0794847110890295749
0.00018660293233505447
0.000534886407192636856
0.000536569864201465576
0.00162421091254916434
0.999999999054532074
0.999999999508157433
0.999999999786277183
0.999999999386942617
0.99999999742840795
0.999999997150309738
0.999999990837999286
0.999999988175859
0.999999956975511695
0.999999846493599298
0.999999677656300046
0.077824354282102659
0.000441112230845276719
0.000445365094281112027
0.000391460301761925719
-0.000567376119184998863
0.999999995381962714
0.999999997561018983
0.999999998978479354
0.999999996966773885
0.999999987769290444
0.999999987862320916
0.999999961810199789
0.999999956847322791
0.99999985157098692
0.999999514465732542
0.999999137009720873
0.0699093097336161151
0.000343037979196387957
0.000422761379773031829
0.000486605524622895291
-0.000288625982170518996
0.999999978722135197
0.999999988671664508
0.999999995420361665
0.999999985904977295
0.999999945291612402
0.999999951459145331
0.999999849272728891
0.999999850992347339
0.99999951124857267
0.999998517015496691
0.999997730334408086
0.0840064928069246541
0.00027816499507676189
0.000321718127935151864
0.000594146101868516918
0.000404619925884963367
0.999999906905898461
0.999999950300149543
0.99999998057170103
0.999999937989481946
0.999999768071304862
0.999999816228891669
0.999999431556073293
0.999999508791783009
0.999998455071991255
0.999995595369079227
0.999994014025290978
0.0951827227697292222
0.000296157538467136999
0.000287199830517082162
0.000376670579875364696
0.000763500093245407128
0.999999611231565888
0.999999792626020678
0.999999921484319931
0.999999739980143576
0.999999115795534133
0.999999337164843016
0.999997937461712727
0.999998446965851606
0.99999529524514319
0.99998713996404287
0.999984034740458383
0.0931710688707274026
0.000294126434443007308
0.000325076152749468987
0.000335744240055626001
0.000552866105256809618
0.999998441070655275
0.99999917187602827
0.999999695847011538
0.999998954034281518
0.999996968600340819
0.999997707177038064
0.999992932564087944
0.999995261779853206
0.99998616215147107
0.999963020215755005
0.99995751357180318
0.108002663752721037
0.000324733756941899523
0.000297160886281844661
0.000139571958616374278
0.000371507050668492167
1.00000000000000688
1.00000000000001177
1.00000000000000711
1.00000000000000422
1.00000000000000333
1.00000000000000355
1.00000000000000311
1.00000000000000155
1
0.999999999999998446
0.999999999999971578
0.667639279131762242
0.109766213154471937
0.0500450192167675445
0.0303812994406868347
0.0218191780776740563
1.00000000000001732
1.0000000000000171
1.00000000000001132
1.00000000000000688
1.00000000000000688
1.00000000000000755
1.00000000000000577
1
0.999999999999998446
0.999999999999971578
0.999999999999559464
0.548496049928612228
0.0573107873687312072
0.0344650251589443887
0.0211845356947878115
0.0168059391225147195
1.00000000000001488
1.0000000000000151
1.00000000000001044
1.00000000000000666
1.00000000000000466
1
1.00000000000000044
0.999999999999997335
0.999999999999956035
0.999999999999559464
0.999999999996289746
0.434784865920295305
0.0373968427554521587
0.0236291755562388732
0.016376702243630515
0.0144402090415381816
1.00000000000001266
1.00000000000000266
1
1
1
1.00000000000000111
0.999999999999992562
0.999999999999917732
0.999999999999479527
0.999999999996290079
0.999999999977541298
0.373642044958617636
0.02639523493872558
0.0166478663595408423
0.0106947797860014321
0.00973935226487693262
1
1
0.999999999999995337
0.999999999999988676
0.999999999999978018
0.999999999999950928
0.999999999999846345
0.999999999999202971
0.999999999996075029
0.999999999977564946
0.999999999888807833
0.334515191819975855
0.0179821175428074229
0.009371827435897798
0.00522820085419769924
0.0077773830006390883
0.99999999999998157
0.999999999999852451
0.999999999999815592
0.999999999999764189
0.999999999999646394
0.999999999999390488
0.999999999998522404
0.999999999994277244
0.999999999976606047
0.999999999889113811
0.999999999520700067
0.29564323236095702
0.00851043176092907729
0.00418690571704903765
0.00242866581032157459
0.0037698691054006638
0.999999999999668709
0.999999999998597788
0.999999999998392952
0.999999999998160138
0.999999999997572608
0.999999999995149547
0.999999999989902078
0.999999999965488051
0.99999999988104582
0.999999999522666494
0.999999998132173218
0.267272157883383876
0.00251286272520584832
0.00274827238581234687
0.00158931153131193275
-7.35347060722146839e-07
0.999999999997624345
0.999999999992249977
0.999999999991334598
0.999999999990321853
0.99999999998825484
0.999999999969069409
0.999999999939843898
0.999999999817156926
0.999999999462497069
0.999999998141762436
0.99999999325389699
0.251573163323194349
0.00166739775100595636
0.00157113391784065434
0.000610512994779985612
-0.00055300897652463992
0.999999999988431476
0.999999999958549157
0.999999999959978902
0.999999999953224972
0.999999999939193973
0.999999999822081875
0.999999999685373897
0.999999999130950279
0.999999997783821315
0.999999993293310352
0.999999977052583366
0.240181037520444562
0.0017086394154825033
0.00113125738506814522
0.000505049501431457481
-0.00135562090753650307
0.999999999946376894
0.999999999758812042
0.999999999789872973
0.999999999744893175
0.999999999677879892
0.99999999907616044
0.99999999852179311
0.999999996229396726
0.999999991518801368
0.999999977196539436
0.999999925705706283
0.212498847188888895
0.000248735725560245277
0.000604562761149355569
0.000369731882939331661
-0.000475471460841332585
0.99999999971066067
0.999999998660068501
0.999999998978157167
0.99999999867446332
0.999999998413383384
0.999999995587692703
0.999999993621246364
0.999999984794586294
0.999999969511686349
0.999999926223107849
0.999999768877293915
0.164106432842988592
-0.00109087276083731513
0.00026193079736289821
0.000412406341088104845
-0.000556885466989569429
0.999999998485833874
0.99999999359054681
0.999999995418709431
0.999999993597826431
0.999999992726944731
0.999999980327698212
0.999999974310506579
0.999999942193690816
0.99999989595960781
0.999999770766580531
0.999999314039741405
0.167463543111229241
-0.000265495570547580892
0.00142574478967830024
0.000458007307006658344
3.56110977354670533e-05
0.9999999925837878
0.999999971486428496
0.999999980564397539
0.999999970960112838
0.999999968655804983
0.999999917248567627
0.999999902364444693
0.999999790696428081
0.999999659744434499
0.999999310391336271
0.999998084596757542
0.149542508475135422
-0.000816774837082396058
0.000136889678089270698
0.000636751496876830441
0.000725909737726687524
0.999999965716632966
0.999999879338387521
0.999999921463985308
0.999999875223909873
0.999999871973243248
0.999999668912267436
0.999999646938078302
0.999999271893673214
0.999998925598884147
0.999997979509015034
0.999994801784209741
0.0556466826488532934
0.000199633469976636985
0.000352484597520828519
0.00059695560419680048
0.00107908417857909152
0.999999849400389218
0.999999511460415214
0.999999695987063619
0.999999488704047979
0.999999500941860076
0.999998731301050325
0.999998777135133521
0.999997550926465806
0.999996708050690186
0.99999420610666867
0.999986201897118621
0.0491856744861917869
0.000312785030106587465
0.000369295626033726277
0.000426467169332113742
0.000782386465563185592
0.999999367619296198
0.999998096217310062
0.999998865433063155
0.99999798769887005
0.999998131224793974
0.99999531272980513
0.999995918099620185
0.999991983299223897
0.999990165113920471
0.999983645579917924
0.999964009114284513
0.0598170308033728754
0.000441686333103236887
0.000419191602912643928
0.000290235941716433907
0.000342780985876364318
1.00000000000000999
1.00000000000001354
1.00000000000000866
1.000000000000006
1.000000000000004
1.00000000000000444
1.000000000000006
1.00000000000000644
1.00000000000000355
1
0.999999999999975353
0.668995434843000725
0.111669805511765752
0.0479983641977670406
0.0272449856103734872
0.0217583556178452577
1.0000000000000191
1.00000000000001887
1.00000000000001221
1.00000000000000866
1.00000000000000888
1.00000000000001155
1.00000000000001044
1
1
0.999999999999975353
0.99999999999954392
0.548818789756476577
0.0545159812631969137
0.0310041683563444109
0.0205088039518947461
0.0160558882788879344
1.00000000000001643
1.00000000000001776
1.00000000000001132
1.00000000000000799
1.000000000000004
1
1.00000000000000089
0.999999999999997224
0.99999999999994782
0.99999999999954392
0.999999999996148636
0.433294112581117719
0.0347551889318842011
0.0217067875298869936
0.0138262151148474972
0.0119293885584061746
1.00000000000001044
1.00000000000001532
1.00000000000000266
1
1.00000000000000044
1.00000000000000178
0.99999999999998479
0.999999999999872546
0.999999999999349631
0.999999999996148636
0.999999999976800225
0.367275457893931456
0.0235036190260757838
0.0128932083002443118
0.00771535458961120947
0.00774781769187448885
1
1
1
0.999999999999993339
0.999999999999962919
0.999999999999913847
0.99999999999971223
0.999999999998752109
0.999999999995117905
0.999999999976822096
0.999999999885678781
0.312747694353459615
0.0128464609032587843
0.00589494630698267526
0.00314229317793519088
0.0048558581570337378
0.999999999999940492
0.999999999999976685
0.999999999999916289
0.999999999999803046
0.999999999999475309
0.999999999999032663
0.999999999997304823
0.999999999991068589
0.999999999971052267
0.999999999885976987
0.999999999508908166
0.264042636551949428
0.00486469497209543727
0.00264996050725415256
0.00142615620098115493
0.00193674522871440454
0.999999999999195421
0.999999999999605316
0.999999999999064304
0.999999999998379741
0.999999999996404432
0.999999999994131916
0.999999999980112353
0.999999999946414642
0.999999999853678045
0.999999999510778448
0.999999998088971109
0.259077714258850011
0.0011959607856748709
0.0017333938114045995
0.00118991746355603099
0.000304590172513359591
0.999999999995396127
0.999999999997188027
0.999999999994413025
0.999999999991294519
0.999999999979385823
0.999999999972213782
0.999999999876207246
0.999999999718729105
0.999999999343037516
0.999999998098072718
0.999999993095539219
0.27297897171941754
0.00210376670517179679
0.00200949143296300613
0.000892115118855295254
-0.000900244192597447887
0.999999999982681298
0.999999999986853294
0.999999999969223063
0.999999999956190377
0.999999999877936974
0.999999999853880217
0.999999999328910594
0.999999998680994207
0.999999997309675592
0.999999993132738574
0.99999997647863581
0.268072620340393308
0.00290052095748314417
0.000976693991307582077
0.000725767434942637454
0.000229231240042634412
0.999999999909692239
0.999999999946543205
0.999999999823246721
0.999999999757318792
0.999999999325878797
0.999999999274294282
0.999999996764355248
0.999999994369235368
0.999999989778113996
0.999999976614424968
0.99999992371395674
0.223397482151974858
0.00262122049074627744
0.000423777532221271034
0.000663482489127644164
-2.42577319268142636e-05
0.999999999529657346
0.999999999729258127
0.999999999021356389
0.999999998730065176
0.999999996575949623
0.999999996699815985
0.999999986165634125
0.999999977727223488
0.999999963518259705
0.999999924142274565
0.999999767497823822
0.207332351722543218
0.00212640406886778271
0.000391855799990600655
0.000627489601740189749
0.00021066280919830016
0.999999997691755405
0.999999998639099608
0.999999994973412187
0.999999993826313993
0.999999983802943415
0.999999986059388002
0.999999945087855169
0.999999917293601381
0.999999876373441676
0.999999763553173437
0.999999316528223714
0.195788687478266221
0.00180956038258752762
0.000568195565721622288
0.000649749958593041671
0.000508735733558749511
0.999999989306379788
0.999999993590867442
0.999999975800838103
0.999999971858180459
0.999999927905191877
0.999999944748100056
0.999999794123633157
0.999999708940938703
0.999999598347888985
0.999999285831819185
0.999998046822858644
0.188043087058823138
0.00292494057518590802
0.000969266637164088295
0.000716124175055904508
0.000917991082551848766
0.999999952900459399
0.999999971484509809
0.999999889846003853
0.999999878692725774
0.999999695719644976
0.999999793023865102
0.999999266382923802
0.999999021757808748
0.999998739466995801
0.999997896907133699
0.999994568469132705
0.150812726118573881
0.000848969337405757938
0.000400710436080705756
0.000713023591562420163
0.0010916477062096956
0.999999801715359293
0.999999879299318994
0.999999522753257652
0.999999501975182392
0.999998773718974054
0.999999262782168108
0.999997503005457089
0.999996842846648692
0.999996155662812081
0.999993935687941926
0.999985229534194442
0.135618920379210833
0.000416249312500282099
0.000559156983865884269
0.000535816311267631835
0.000841749274442665459
0.999999197833618014
0.999999511009020292
0.999998099296470766
0.999998039747975964
0.999995248155857941
0.999997487403751495
0.999991843907648503
0.999990168420836323
0.99998854493452527
0.99998281878734252
0.999960488861744823
0.165784797715921361
0.00021203366472148709
0.000573463681717045412
0.000433201237493703985
0.000482277051019822025
1.0000000000000091
1.00000000000001221
1.00000000000000866
1.00000000000000511
1.00000000000000488
1.00000000000000777
1.00000000000001132
1.0000000000000131
1.00000000000000711
1
0.999999999999961142
0.668344425112411322
0.110048025046559861
0.0462878188737233451
0.0271006331686602688
0.0215372512844927977
1.00000000000001465
1.00000000000001443
1.00000000000001044
1.0000000000000091
1.0000000000000131
1.00000000000001754
1.00000000000001754
1.00000000000000422
1
0.999999999999961142
0.999999999999326095
0.54453956945787696
0.0518432426058821061
0.0302526973585109105
0.0190740289895480197
0.0123228752827245387
1.00000000000001443
1.00000000000001465
1.00000000000001088
1.00000000000000866
1.0000000000000091
1.00000000000000022
1.00000000000000044
1.00000000000000044
0.999999999999934497
0.999999999999326095
0.999999999994347855
0.428898873497333688
0.0336593754188369773
0.0198926372033892476
0.0099002600634173904
0.00818224103152399157
1.00000000000001465
1.00000000000001132
1.00000000000000755
1
1
1.00000000000000311
0.999999999999994893
0.999999999999923617
0.999999999999203082
0.999999999994347855
0.999999999965778708
0.356800396217164972
0.0210739024396225418
0.010675663915478157
0.0042202706145642822
0.00561053330513743183
1.00000000000000733
1
1
0.999999999999996669
0.999999999999981903
0.999999999999954703
0.999999999999861222
0.999999999999213074
0.999999999993928412
0.999999999965812458
0.999999999829993547
0.301681272847005078
0.0106614774320250103
0.00443522525074260127
0.00143772399634724442
0.00219439397190790376
1
0.99999999999995115
0.999999999999937383
0.999999999999846123
0.999999999999693023
0.99999999999943423
0.999999999998612554
0.999999999994276356
0.999999999963103736
0.999999999830436415
0.999999999262394468
0.253674386392032547
0.00374117916455729907
0.00141092437435013296
0.000827587958565668969
0.000706042822163842907
0.999999999999925504
0.999999999999285016
0.999999999999201417
0.999999999998661071
0.999999999997766231
0.999999999995489053
0.999999999990708877
0.999999999965062836
0.999999999807951179
0.9999999992652151
0.999999997098489524
0.247349492694781237
0.00243218072180995028
0.00118685362297761207
0.00122640179196305136
0.000730387805523353517
0.999999999999191092
0.999999999995762057
0.999999999995381916
0.999999999992520316
0.99999999998897926
0.999999999970251352